/*--------------------------------*- C++ -*----------------------------------*\
| =========                 |                                                 |
| \\      /  F ield         | OpenFOAM: The Open Source CFD Toolbox           |
|  \\    /   O peration     | Version:  2206                                  |
|   \\  /    A nd           | Website:  www.openfoam.com                      |
|    \\/     M anipulation  |                                                 |
\*---------------------------------------------------------------------------*/
FoamFile
{
    version     2.0;
    format      ascii;
    arch        "LSB;label=32;scalar=64";
    class       volScalarField;
    location    "9.2e-06";
    object      p;
}
// * * * * * * * * * * * * * * * * * * * * * * * * * * * * * * * * * * * * * //

dimensions      [1 -1 -2 0 0 0 0];

internalField   nonuniform List<scalar> 
3183
(
101325
101325
101325
101325
101325
101325
101325
101325
101325
101325
101325
101325
101325
101325
101325
101325
101325
101325
101325
101325
101325
101325
101325
101325
101325
101325
101325
101325
101325
101325
101325
101325
101325
101325
101325
101325
101325
101325
101325
101325
101325
101325
101325
101325
101325
101325
101325
101325
101325
101325
101325
101325
101325
101325
101325
101325
101325
101325
101325
101325
101325
101325
101325
101325
101325
101325
101325
101325
101325
101325
101325
101325
101325
101325
101325
101325
101325
101325
101325
101325
101325
101325
101325
101325
101325
101325
101325
101325
101325
101325
101325
101325
101325
101325
101325
101325
101325
101325
101325
101325
101325
101325
101325
101325
101325
101325
101325
101325
101325
101325
101325
101325
101325
101325
101325
101325
101325
101325
101325
101325
101325
101325
101325
101325
101325
101325
101325
101325
101325
101325
101325
101325
101325
101325
101325
101325
101325
101325
101325
101325
101325
101325
101325
101325
101325
101325
101325
101325
101325
101325
101325
101325
101325
101325
101325
101325
101325
101325
101325
101325
101325
101325
101325
101325
101325
101325
101325
101325
101325
101325
101325
101325
101325
101325
101325
101325
101325
101325
101325
101325
101325
101325
101325
101325
101325
101325
101325
101325
101325
101325
101325
101325
101325
101325
101325
101325
101325
101325
101325
101325
101325
101325
101325
101325
101325
101325
101325
101325
101325
101325
101325
101325
101325
101325
101325
101325
101325
101325
101325
101325
101325
101325
101325
101325
101325
101325
101325
101325
101325
101325
101325
101325
101325
101325
101325
101325
101325
101325
101325
101325
101325
101325
101325
101325
101325
101325
101325
101325
101325
101325
101325
101325
101325
101325
101325
101325
101325
101325
101325
101325
101325
101325
101325
101325
101325
101325
101325
101325
101325
101325
101325
101325
101325
101325
101325
101325
101325
101325
101325
101325
101325
101325
101325
101325
101325
101325
101325
101325
101325
101325
101325
101325
101325
101325
101325
101325
101325
101325
101325
101325
101325
101325
101325
101325
101325
101325
101325
101325
101325
101325
101325
101325
101325
101325
101325
101325
101325
101325
101325
101325
101325
101325
101325
101325
101325
101325
101325
101325
101325
101325
101325
101325
101325
101325
101325
101325
101325
101325
101325
101325
101325
101325
101325
101325
101325
101325
101325
101325
101325
101325
101325
101325
101325
101325
101325
101325
101325
101325
101325
101325
101325
101325
101325
101325
101325
101325
101325
101325
101325
101325
101325
101325
101325
101325
101325
101325
101325
101325
101325
101325
101325
101325
101325
101325
101325
101325
101325
101325
101325
101325
101325
101325
101325
101325
101325
101325
101325
101325
101325
101325
101325
101325
101325
101325
101325
101325
101325
101325
101325
101325
101325
101325
101325
101325
101325
101325
101325
101325
101325
101325
101325
101325
101325
101325
101325
101325
101325
101325
101325
101325
101325
101325
101325
101325
101325
101325
101325
101325
101325
101325
101325
101325
101325
101325
101325
101325
101325
101325
101325
101325
101325
101325
101325
101325
101325
101325
101325
101325
101325
101325
101325
101325
101325
101325
101325
101325
101325
101325
101325
101325
101325
101325
101325
101325
101325
101325
101325
101325
101325
101325
101325
101325
101325
101325
101325
101325
101325
101325
101325
101325
101325
101325
101325
101325
101325
101325
101325
101325
101325
101325
101325
101325
101325
101325
101325
101325
101325
101325
101325
101325
101325
101325
101325
101325
101325
101325
101325
101325
101325
101325
101325
101325
101325
101325
101325
101325
101325
101325
101325
101325
101325
101325
101325
101325
101325
101325
101325
101325
101325
101325
101325
101325
101325
101325
101325
101325
101325
101325
101325
101325
101325
101325
101325
101325
101325
101325
101325
101325
101325
101325
101325
101325
101325
101325
101325
101325
101325
101325
101325
101325
101325
101325
101325
101325
101325
101325
101325
101325
101325
101325
101325
101325
101325
101325
101325
101325
101325
101325
101325
101325
101325
101325
101325
101325
101325
101325
101325
101325
101325
101325
101325
101325
101325
101325
101325
101325
101325
101325
101325
101325
101325
101325
101325
101325
101325
101325
101325
101325
101325
101325
101325
101325
101325
101325
101325
101325
101325
101325
101325
101325
101325
101325
101325
101325
101325
101325
101325
101325
101325
101325
101325
101325
101325
101325
101325
101325
101325
101325
101325
101325
101325
101325
101325
101325
101325
101325
101325
101325
101325
101325
101325
101325
101325
101325
101325
101325
101325
101325
101325
101325
101325
101325
101325
101325
101325
101325
101325
101325
101325
101325
101325
101325
101325
101325
101325
101325
101325
101325
101325
101325
101325
101325
101325
101325
101325
101325
101325
101325
101325
101325
101325
101325
101325
101325
101325
101325
101325
101325
101325
101325
101325
101325
101325
101325
101325
101325
101325
101325
101325
101325
101325
101325
101325
101325
101325
101325
101325
101325
101325
101325
101325
101325
101325
101325
101325
101325
101325
101325
101325
101325
101325
101325
101325
101325
101325
101325
101325
101325
101325
101325
101325
101325
101325
101325
101325
101325
101325
101325
101325
101325
101325
101325
101325
101325
101325
101325
101325
101325
101325
101325
101325
101325
101325
101325
101325
101325
101325
101325
101325
101325
101325
101325
101325
101325
101325
101325
101325
101325
101325
101325
101325
101325
101325
101325
101325
101325
101325
101325
101325
101325
101325
101325
101325
101325
101325
101325
101325
101325
101325
101325
101325
101325
101325
101325
101325
101325
101325
101325
101325
101325
101325
101325
101325
101325
101325
101325
101325
101325
101325
101325
101325
101325
101325
101325
101325
101325
101325
101325
101325
101325
101325
101325
101325
101325
101325
101325
101325
101325
101325
101325
101325
101325
101325
101325
101325
101325
101325
101325
101325
101325
101325
101325
101325
101325
101325
101325
101325
101325
101325
101325
101325
101325
101325
101325
101325
101325
101325
101325
101325
101325
101325
101325
101325
101325
101325
101325
101325
101325
101325
101325
101325
101325
101325
101325
101325
101325
101325
101325
101325
101325
101325
101325
101325
101325
101325
101325
101325
101325
101325
101325
101325
101325
101325
101325
101325
101325
101325
101325
101325
101325
101325
101325
101325
101325
101325
101325
101325
101325
101325
101325
101325
101325
101325
101325
101325
101325
101325
101325
101325
101325
101325
101325
101325
101325
101325
101325
101325
101325
101325
101325
101325
101325
101325
101325
101325
101325
101325
101325
101325
101325
101325
101325
101325
101325
101325
101325
101325
101325
101325
101325
101325
101325
101325
101325
101325
101325
101325
101325
101325
101325
101325
101325
101325
101325
101325
101325
101325
101325
101325
101325
101325
101325
101325
101325
101325
101325
101325
101325
101325
101325
101325
101325
101325
101325
101325
101325
101325
101325
101325
101325
101325
101325
101325
101325
101325
101325
101325
101325
101325
101325
101325
101325
101325
101325
101325
101325
101325
101325
101325
101325
101325
101325
101325
101325
101325
101325
101325
101325
101325
101325
101325
101325
101325
101325
101325
101325
101325
101325
101325
101325
101325
101325
101325
101325
101325
101325
101325
101325
101325
101325
101325
101325
101325
101325
101325
101325
101325
101325
101325
101325
101325
101325
101325
101325
101325
101325
101325
101325
101325
101325
101325
101325
101325
101325
101325
101325
101325
101325
101325
101325
101325
101325
101325
101325
101325
101325
101325
101325
101325
101325
101325
101325
101325
101325
101325
101325
101325
101325
101325
101325
101325
101325
101325
101325
101325
101325
101325
101325
101325
101325
101325
101325
101325
101325
101325
101325
101325
101325
101325
101325
101325
101325
101325
101325
101325
101325
101325
101325
101325
101325
101325
101325
101325
101325
101325
101325
101325
101325
101325
101325
101325
101325
101325
101325
101325
101325
101325
101325
101325
101325
101325
101325
101325
101325
101325
101325
101325
101325
101325
101325
101325
101325
101325
101325
101325
101325
101325
101325
101325
101325
101325
101325
101325
101325
101325
101325
101325
101325
101325
101325
101325
101325
101325
101325
101325
101325
101325
101325
101325
101325
101325
101325
101325
101325
101325
101325
101325
101325
101325
101325
101325
101325
101325
101325
101325
101325
101325
101325
101325
101325
101325
101325
101325
101325
101325
101325
101325
101325
101325
101325
101325
101325
101325
101325
101325
101325
101325
101325
101325
101325
101325
101325
101325
101325
101325
101325
101325
101325
101325
101325
101325
101325
101325
101325
101325
101325
101325
101325
101325
101325
101325
101325
101325
101325
101325
101325
101325
101325
101325
101325
101325
101325
101325
101325
101325
101325
101325
101325
101325
101325
101325
101325
101325
101325
101325
101325
101325
101325
101325
101325
101325
101325
101325
101325
101325
101325
101325
101325
101325
101325
101325
101325
101325
101325
101325
101325
101325
101325
101325
101325
101325
101325
101325
101325
101325
101325
101325
101325
101325
101325
101325
101325
101325
101325
101325
101325
101325
101325
101325
101325
101325
101325
101325
101325
101325
101325
101325
101325
101325
101325
101325
101325
101325
101325
101325
101325
101325
101325
101325
101325
101325
101325
101325
101325
101325
101325
101325
101325
101325
101325
101325
101325
101325
101325
101325
101325
101325
101325
101325
101325
101325
101325
101325
101325
101325
101325
101325
101325
101325
101325
101325
101325
101325
101325
101325
101325
101325
101325
101325
101325
101325
101325
101325
101325
101325
101325
101325
101325
101325
101325
101325
101325
101325
101325
101325
101325
101325
101325
101325
101325
101325
101325
101325
101325
101325
101325
101325
101325
101325
101325
101325
101325
101325
101325
101325
101325
101325
101325
101325
101325
101325
101325
101325
101325
101325
101325
101325
101325
101325
101325
101325
101325
101325
101325
101325
101325
101325
101325
101325
101325
101325
101325
101325
101325
101325
101325
101325
101325
101325
101325
101325
101325
101325
101325
101325
101325
101325
101325
101325
101325
101325
101325
101325
101325
101325
101325
101325
101325
101325
101325
101325
101325
101325
101325
101325
101325
101325
101325
101325
101325
101325
101325
101325
101325
101325
101325
101325
101325
101325
101325
101325
101325
101325
101325
101325
101325
101325
101325
101325
101325
101325
101325
101325
101325
101325
101325
101325
101325
101325
101325
101325
101325
101325
101325
101325
101325
101325
101325
101325
101325
101325
101325
101325
101325
101325
101325
101325
101325
101325
101325
101325
101325
101325
101325
101325
101325
101325
101325
101325
101325
101325
101325
101325
101325
101325
101325
101325
101325
101325
101325
101325
101325
101325
101325
101325
101325
101325
101325
101325
101325
101325
101325
101325
101325
101325
101325
101325
101325
101325
101325
101325
101325
101325
101325
101325
101325
101325
101325
101325
101325
101325
101325
101325
101325
101325
101325
101325
101325
101325
101325
101325
101325
101325
101325
101325
101325
101325
101325
101325
101325
101325
101325
101325
101325
101325
101325
101325
101325
101325
101325
101325
101325
101325
101325
101325
101325
101325
101325
101325
101325
101325
101325
101325
101325
101325
101325
101325
101325
101325
101325
101325
101325
101325
101325
101325
101325
101325
101325
101325
101325
101325
101325
101325
101325
101325
101325
101325
101325
101325
101325
101325
101325
101325
101325
101325
101325
101325
101325
101325
101325
101325
101325
101325
101325
101325
101325
101325
101325
101325
101325
101325
101325
101325
101325
101325
101325
101325
101325
101325
101325
101325
101325
101325
101325
101325
101325
101325
101325
101325
101325
101325
101325
101325
101325
101325
101325
101325
101325
101325
101325
101325
101325
101325
101325
101325
101325
101325
101325
101325
101325
101325
101325
101325
101325
101325
101325
101325
101325
101325
101325
101325
101325
101325
101325
101325
101325
101325
101325
101325
101325
101325
101325
101325
101325
101325
101325
101325
101325
101325
101325
101325
101325
101325
101325
101325
101325
101325
101325
101325
101325
101325
101325
101325
101325
101325
101325
101325
101325
101325
101325
101325
101325
101325
101325
101325
101325
101325
101325
101325
101325
101325
101325
101325
101325
101325
101325
101325
101325
101325
101325
101325
101325
101325
101325
101325
101325
101325
101325
101325
101325
101325
101325
101325
101325
101325
101325
101325
101325
101325
101325
101325
101325
101325
101325
101325
101325
101325
101325
101325
101325
101325
101325
101325
101325
101325
101325
101325
101325
101325
101325
101325
101325
101325
101325
101325
101325
101325
101325
101325
101325
101325
101325
101325
101325
101325
101325
101325
101325
101325
101325
101325
101325
101325
101325
101325
101325
101325
101325
101325
101325
101325
101325
101325
101325
101325
101325
101325
101325
101325
101325
101325
101325
101325
101325
101325
101325
101325
101325
101325
101325
101325
101325
101325
101325
101325
101325
101325
101325
101325
101325
101325
101325
101325
101325
101325
101325
101325
101325
101325
101325
101325
101325
101325
101325
101325
101325
101325
101325
101325
101325
101325
101325
101325
101325
101325
101325
101325
101325
101325
101325
101325
101325
101325
101325
101325
101325
101325
101325
101325
101325
101325
101325
101325
101325
101325
101325
101325
101325
101325
101325
101325
101325
101325
101325
101325
101325
101325
101325
101325
101325
101325
101325
101325
101325
101325
101325
101325
101325
101325
101325
101325
101325
101325
101325
101325
101325
101325
101325
101325
101325
101325
101325
101325
101325
101325
101325
101325
101325
101325
101325
101325
101325
101325
101325
101325
101325
101325
101325
101325
101325
101325
101325
101325
101325
101325
101325
101325
101325
101325
101325
101325
101325
101325
101325
101325
101325
101325
101325
101325
101325
101325
101325
101325
101325
101325
101325
101325
101325
101325
101325
101325
101325
101325
101325
101325
101325
101325
101325
101325
101325
101325
101325
101325
101325
101325
101325
101325
101325
101325
101325
101325
101325
101325
101325
101325
101325
101325
101325
101325
101325
101325
101325
101325
101325
101325
101325
101325
101325
101325
101325
101325
101325
101325
101325
101325
101325
101325
101325
101325
101325
101325
101325
101325
101325
101325
101325
101325
101325
101325
101325
101325
101325
101325
101325
101325
101325
101325
101325
101325
101325
101324.999
101324.999
101324.999
101324.999
101324.999
101324.999
101324.999
101324.999
101324.999
101324.999
101324.999
101324.999
101324.999
101324.999
101324.999
101324.998
101324.998
101324.998
101324.998
101324.998
101324.998
101324.998
101324.998
101324.997
101324.997
101324.997
101324.997
101324.997
101324.996
101324.996
101324.996
101324.995
101324.995
101324.995
101324.994
101324.994
101324.994
101324.993
101324.993
101324.992
101324.992
101324.991
101324.99
101324.99
101324.989
101324.988
101324.987
101324.987
101324.986
101324.985
101324.984
101324.983
101324.981
101324.98
101324.979
101324.977
101324.976
101324.974
101324.973
101324.971
101324.969
101324.967
101324.965
101324.962
101324.96
101324.958
101324.955
101324.952
101324.949
101324.946
101324.942
101324.939
101324.935
101324.931
101324.926
101324.922
101324.917
101324.912
101324.907
101324.901
101324.895
101324.889
101324.882
101324.875
101324.867
101324.859
101324.851
101324.842
101324.833
101324.823
101324.813
101324.802
101324.791
101324.779
101324.766
101324.753
101324.739
101324.724
101324.709
101324.692
101324.675
101324.657
101324.638
101324.618
101324.598
101324.576
101324.553
101324.529
101324.503
101324.477
101324.449
101324.42
101324.39
101324.358
101324.324
101324.29
101324.253
101324.215
101324.175
101324.133
101324.089
101324.044
101323.996
101323.947
101323.895
101323.841
101323.784
101323.725
101323.664
101323.6
101323.534
101323.465
101323.393
101323.318
101323.24
101323.159
101323.075
101322.987
101322.896
101322.802
101322.704
101322.603
101322.497
101322.388
101322.275
101322.158
101322.037
101321.911
101321.781
101321.647
101321.508
101321.364
101321.216
101321.063
101320.905
101320.741
101320.573
101320.4
101320.221
101320.037
101319.847
101319.652
101319.451
101319.244
101319.032
101318.813
101318.589
101318.359
101318.123
101317.881
101317.633
101317.378
101317.118
101316.851
101316.578
101316.299
101316.014
101315.722
101315.425
101315.121
101314.811
101314.494
101314.172
101313.844
101313.51
101313.17
101312.824
101312.473
101312.116
101311.753
101311.385
101311.012
101310.634
101310.251
101309.864
101309.472
101309.075
101308.675
101308.27
101307.862
101307.45
101307.036
101306.618
101306.198
101305.775
101305.35
101304.923
101304.495
101304.066
101303.636
101303.206
101302.775
101302.345
101301.915
101301.486
101301.059
101300.633
101300.21
101299.789
101299.371
101298.956
101298.545
101298.138
101297.736
101297.339
101296.947
101296.561
101296.181
101295.807
101295.441
101295.082
101294.731
101294.388
101294.053
101293.727
101293.411
101293.104
101292.807
101292.521
101292.245
101291.98
101291.726
101291.484
101291.253
101291.034
101290.828
101290.634
101290.452
101290.283
101290.127
101289.984
101289.855
101289.738
101289.635
101289.545
101289.468
101289.405
101289.356
101289.319
101289.296
101289.286
101289.289
101289.305
101289.334
101289.376
101289.43
101289.496
101289.574
101289.664
101289.766
101289.879
101290.002
101290.137
101290.281
101290.436
101290.6
101290.773
101290.956
101291.146
101291.345
101291.551
101291.765
101291.985
101292.211
101292.444
101292.682
101292.924
101293.172
101293.423
101293.678
101293.937
101294.198
101294.461
101294.727
101294.994
101295.262
101295.53
101295.799
101296.068
101296.336
101296.603
101296.87
101297.134
101297.397
101297.657
101297.915
101298.171
101298.423
101298.672
101298.917
101299.159
101299.396
101299.63
101299.859
101300.084
101300.304
101300.52
101300.731
101300.936
101301.137
101301.333
101301.524
101301.71
101301.891
101302.066
101302.237
101302.403
101302.563
101302.719
101302.87
101303.016
101303.158
101303.295
101303.427
101303.555
101303.679
101303.798
101303.914
101304.026
101304.133
101304.238
101304.338
101304.436
101304.53
101304.621
101304.709
101304.794
101304.876
101304.956
101305.033
101305.107
101305.18
101305.25
101305.318
101305.384
101305.448
101305.51
101305.571
101305.629
101305.686
101305.741
101305.795
101305.847
101305.898
101305.947
101305.995
101306.041
101306.086
101306.129
101306.171
101306.211
101306.251
101306.288
101306.325
101306.36
101306.394
101306.426
101306.458
101306.488
101306.516
101306.544
101306.57
101306.596
101306.62
101306.644
101306.666
101306.688
101306.709
101306.729
101306.749
101306.769
101306.788
101306.807
101306.827
101306.846
101306.866
101306.886
101306.906
101306.928
101306.95
101306.974
101306.998
101307.024
101307.052
101307.081
101307.112
101307.145
101307.18
101307.217
101307.257
101307.299
101307.343
101307.39
101307.439
101307.491
101307.545
101307.601
101307.661
101307.722
101307.786
101307.851
101307.919
101307.989
101308.06
101308.133
101308.207
101308.283
101308.359
101308.436
101308.513
101308.59
101308.667
101308.744
101308.82
101308.895
101308.968
101309.04
101309.111
101309.179
101309.246
101309.31
101309.371
101309.43
101309.485
101309.538
101309.588
101309.635
101309.678
101309.719
101309.756
101309.79
101309.821
101309.849
101309.875
101309.898
101309.918
101309.936
101309.952
101309.966
101309.979
101309.99
101309.999
101310.008
101310.015
101310.022
101310.029
101310.035
101310.041
101310.048
101310.054
101310.061
101310.068
101310.075
101310.083
101310.092
101310.101
101310.111
101310.122
101310.133
101310.145
101310.158
101310.172
101310.186
101310.2
101310.216
101310.231
101310.248
101310.265
101310.282
101310.3
101310.319
101310.337
101310.357
101310.376
101310.396
101310.417
101310.437
101310.458
101310.48
101310.501
101310.523
101310.545
101310.568
101310.592
101310.617
101310.644
101310.674
101310.709
101310.751
101310.803
101310.866
101310.931
101311.011
101311.46
101311.681
101311.603
101310.6
101310.493
101310.487
101310.631
101310.657
101310.736
101310.732
101310.737
101310.71
101310.687
101310.66
101310.635
101310.612
101310.591
101310.571
101310.553
101310.536
101310.521
101310.506
101310.491
101310.477
101310.464
101310.451
101310.438
101310.425
101310.413
101310.401
101310.389
101310.378
101310.366
101310.355
101310.344
101310.333
101310.322
101310.312
101310.301
101310.291
101310.281
101310.27
101310.26
101310.251
101310.241
101310.231
101310.221
101310.212
101310.202
101310.192
101310.183
101310.173
101310.164
101310.155
101310.145
101310.136
101310.126
101310.117
101310.108
101310.099
101310.089
101310.08
101310.071
101310.062
101310.053
101310.044
101310.035
101310.026
101310.017
101310.009
101310
101309.992
101309.983
101309.975
101309.966
101309.958
101309.95
101309.942
101309.934
101309.927
101309.919
101309.912
101309.904
101309.897
101309.89
101309.883
101309.876
101309.869
101309.863
101309.856
101309.85
101309.843
101309.837
101309.831
101309.825
101309.818
101309.812
101309.806
101309.8
101309.794
101309.787
101309.781
101309.774
101309.767
101309.76
101309.753
101309.746
101309.738
101309.73
101309.722
101309.714
101309.705
101309.696
101309.686
101309.676
101309.665
101309.654
101309.642
101309.63
101309.617
101309.604
101309.59
101309.576
101309.56
101309.545
101309.528
101309.511
101309.493
101309.474
101309.454
101309.434
101309.413
101309.392
101309.369
101309.346
101309.322
101309.297
101309.272
101309.245
101309.218
101309.191
101309.162
101309.133
101309.103
101309.073
101309.042
101309.01
101308.977
101308.944
101308.911
101308.877
101308.842
101308.807
101308.772
101308.736
101308.699
101308.663
101308.626
101308.588
101308.551
101308.513
101308.475
101308.437
101308.398
101308.36
101308.321
101308.283
101308.244
101308.206
101308.167
101308.129
101308.091
101308.053
101308.015
101307.978
101307.941
101307.904
101307.867
101307.83
101307.794
101307.758
101307.723
101307.687
101307.653
101307.618
101307.585
101307.552
101307.52
101307.488
101307.457
101307.426
101307.396
101307.366
101307.337
101307.309
101307.281
101307.254
101307.228
101307.202
101307.176
101307.152
101307.127
101307.104
101307.081
101307.058
101307.037
101307.015
101306.995
101306.975
101306.955
101306.936
101306.917
101306.899
101306.882
101306.865
101306.848
101306.832
101306.816
101306.801
101306.786
101306.771
101306.757
101306.743
101306.73
101306.716
101306.703
101306.691
101306.678
101306.666
101306.654
101306.642
101306.63
101306.619
101306.607
101306.596
101306.584
101306.573
101306.562
101306.551
101306.54
101306.528
101306.517
101306.506
101306.495
101306.483
101306.472
101306.46
101306.448
101306.437
101306.425
101306.413
101306.4
101306.388
101306.375
101306.362
101306.349
101306.336
101306.322
101306.308
101306.294
101306.28
101306.265
101306.25
101306.235
101306.22
101306.204
101306.188
101306.172
101306.155
101306.138
101306.121
101306.104
101306.086
101306.068
101306.049
101306.03
101306.011
101305.992
101305.972
101305.952
101305.932
101305.911
101305.89
101305.868
101305.847
101305.825
101305.802
101305.78
101305.757
101305.733
101305.71
101305.686
101305.661
101305.637
101305.612
101305.586
101305.561
101305.534
101305.508
101305.481
101305.454
101305.427
101305.399
101305.371
101305.343
101305.314
101305.284
101305.255
101305.225
101305.195
101305.164
101305.133
101305.101
101305.069
101305.037
101305.004
101304.97
101304.937
101304.903
101304.868
101304.833
101304.797
101304.761
101304.724
101304.687
101304.649
101304.611
101304.572
101304.533
101304.493
101304.452
101304.411
101304.369
101304.327
101304.283
101304.24
101304.195
101304.15
101304.104
101304.057
101304.009
101303.961
101303.912
101303.862
101303.811
101303.759
101303.707
101303.654
101303.599
101303.544
101303.488
101303.431
101303.373
101303.313
101303.253
101303.192
101303.13
101303.067
101303.002
101302.937
101302.871
101302.803
101302.734
101302.664
101302.593
101302.521
101302.447
101302.372
101302.297
101302.219
101302.141
101302.061
101301.98
101301.898
101301.814
101301.73
101301.643
101301.556
101301.467
101301.377
101301.286
101301.193
101301.099
101301.003
101300.907
101300.809
101300.709
101300.608
101300.506
101300.403
101300.298
101300.192
101300.084
101299.975
101299.865
101299.754
101299.641
101299.527
101299.412
101299.295
101299.178
101299.059
101298.938
101298.817
101298.694
101298.571
101298.446
101298.32
101298.193
101298.065
101297.935
101297.805
101297.674
101297.542
101297.409
101297.275
101297.14
101297.004
101296.868
101296.731
101296.593
101296.454
101296.315
101296.175
101296.034
101295.893
101295.751
101295.609
101295.467
101295.324
101295.181
101295.038
101294.894
101294.75
101294.606
101294.463
101294.318
101294.175
101294.031
101293.887
101293.743
101293.6
101293.457
101293.314
101293.172
101293.03
101292.889
101292.748
101292.608
101292.468
101292.329
101292.192
101292.055
101291.918
101291.783
101291.649
101291.516
101291.384
101291.254
101291.124
101290.996
101290.87
101290.745
101290.621
101290.499
101290.379
101290.26
101290.143
101290.028
101289.915
101289.803
101289.694
101289.587
101289.481
101289.378
101289.277
101289.179
101289.082
101288.989
101288.897
101288.808
101288.721
101288.637
101288.556
101288.477
101288.401
101288.328
101288.257
101288.19
101288.125
101288.063
101288.004
101287.948
101287.895
101287.845
101287.798
101287.754
101287.713
101287.675
101287.64
101287.608
101287.58
101287.555
101287.533
101287.513
101287.498
101287.487
101287.481
101287.483
101287.492
101287.512
101287.545
101287.593
101287.658
101287.745
101287.858
101288.001
101288.18
101288.4
101288.668
101288.992
101289.381
101289.843
101290.389
101291.029
101291.774
101292.636
101293.626
101294.752
101296.023
101297.446
101299.02
101300.743
101302.606
101304.591
101306.673
101308.818
101310.985
101313.125
101315.184
101317.112
101318.859
101320.387
101321.671
101322.702
101323.491
101324.062
101324.451
101324.7
101324.847
101324.928
101324.969
101324.988
101324.996
101324.999
101325
101325
101325
101325
101325
101325
101325
101325
101325
101325
101325
101325
101325
101325
101325
101325
101325
101325
101325
101325
101325
101325
101325
101325
101325
)
;

boundaryField
{
    closed
    {
        type            zeroGradient;
    }
    open
    {
        type            waveTransmissive;
        gamma           1.25;
        fieldInf        101325;
        lInf            1;
        value           uniform 101325;
    }
    sides
    {
        type            empty;
    }
}


// ************************************************************************* //
