/*--------------------------------*- C++ -*----------------------------------*\
| =========                 |                                                 |
| \\      /  F ield         | OpenFOAM: The Open Source CFD Toolbox           |
|  \\    /   O peration     | Version:  2206                                  |
|   \\  /    A nd           | Website:  www.openfoam.com                      |
|    \\/     M anipulation  |                                                 |
\*---------------------------------------------------------------------------*/
FoamFile
{
    version     2.0;
    format      ascii;
    arch        "LSB;label=32;scalar=64";
    class       surfaceScalarField;
    location    "9.2e-06";
    object      phi;
}
// * * * * * * * * * * * * * * * * * * * * * * * * * * * * * * * * * * * * * //

dimensions      [1 0 -1 0 0 0 0];

oriented        oriented;

internalField   nonuniform List<scalar> 
3182
(
3.25504525e-18
-2.97474844e-18
6.10926004e-19
-1.26759638e-18
-1.40055889e-21
-1.25406897e-23
-9.14976684e-25
-2.40371266e-29
4.18425364e-25
1.24087046e-23
3.8912345e-22
1.22018563e-18
3.58014669e-18
-1.62949218e-18
1.25003649e-18
-7.8241323e-19
-5.61667619e-19
-3.84225366e-18
-3.78153772e-18
4.65193495e-18
3.29310062e-20
3.48993867e-22
9.90970871e-22
1.08792615e-18
2.51972987e-18
1.8518128e-18
3.39450851e-18
5.67469645e-19
2.88296604e-19
-3.24729797e-19
-2.41900464e-18
-3.95333594e-18
-4.28164709e-18
-4.09198833e-18
-1.41173478e-18
3.85306044e-20
-7.6321485e-19
-1.24003633e-18
-3.32968627e-19
-4.1483423e-19
-2.16521516e-18
-2.42649953e-18
-1.19652641e-18
-1.19651618e-18
-1.94518848e-18
-1.73968397e-18
-1.41405512e-18
-6.56343986e-19
-1.19566637e-18
-4.28157154e-19
7.5839087e-19
1.75668226e-18
3.36430316e-18
3.90359132e-18
4.99248751e-18
4.78937966e-18
5.64927658e-18
6.30194483e-18
7.60393607e-18
9.12344248e-18
9.56394628e-18
1.10708194e-17
1.30065557e-17
1.45388538e-17
1.45850545e-17
1.61002751e-17
1.69679006e-17
1.69701907e-17
1.78546116e-17
1.78122958e-17
1.69629421e-17
1.5330764e-17
1.3525887e-17
1.38938946e-17
1.30210496e-17
1.12957728e-17
1.08266674e-17
9.17515408e-18
8.40151597e-18
7.2286198e-18
7.5879922e-18
6.78937333e-18
5.96511578e-18
4.94702604e-18
4.77586141e-18
4.97417718e-18
2.71759456e-18
2.70680856e-18
2.30322672e-18
2.07100833e-19
-1.26098974e-18
-3.81797981e-18
-3.25561864e-18
-4.16712252e-18
-5.58977648e-18
-5.68589052e-18
-6.11765082e-18
-5.65782576e-18
-3.93333572e-18
-2.28907437e-18
-2.10298028e-18
-4.31373767e-18
-5.0012597e-18
-6.38470324e-18
-8.28463675e-18
-7.40551083e-18
-6.70686823e-18
-6.63888057e-18
-7.19737137e-18
-1.01636706e-17
-9.25114507e-18
-9.57976742e-18
-9.47732707e-18
-1.16934975e-17
-1.46804577e-17
-1.37208376e-17
-1.47485432e-17
-1.40819769e-17
-1.67286249e-17
-1.58099728e-17
-1.63277548e-17
-1.56322778e-17
-1.71559296e-17
-1.80847407e-17
-1.90604809e-17
-1.58903713e-17
-1.51939601e-17
-1.69551255e-17
-1.44421871e-17
-1.75440489e-17
-2.08795262e-17
-1.95510191e-17
-1.94675263e-17
-1.85290354e-17
-2.05289523e-17
-2.11654746e-17
-2.10577802e-17
-2.14498883e-17
-2.19158835e-17
-2.34813396e-17
-2.17826811e-17
-2.29558276e-17
-2.27219483e-17
-2.62401409e-17
-2.48889019e-17
-2.3900868e-17
-2.51057255e-17
-2.69510177e-17
-2.47970112e-17
-2.52380349e-17
-2.51176858e-17
-2.54810896e-17
-2.63743851e-17
-2.40582426e-17
-2.60163911e-17
-2.68435928e-17
-2.57526958e-17
-2.86430234e-17
-2.95229194e-17
-3.05116708e-17
-3.15970283e-17
-3.0598887e-17
-3.22613789e-17
-3.21961225e-17
-3.33207166e-17
-3.62782611e-17
-3.84618967e-17
-3.56128822e-17
-3.59659197e-17
-3.45255396e-17
-3.3228711e-17
-3.62704193e-17
-3.56036515e-17
-3.32854385e-17
-3.30526272e-17
-3.27458931e-17
-3.25239459e-17
-3.66384924e-17
-3.78532973e-17
-3.75606308e-17
-4.13842879e-17
-4.17203009e-17
-4.04402287e-17
-4.13857205e-17
-4.06473908e-17
-4.17381789e-17
-4.44952816e-17
-4.64329925e-17
-4.15563573e-17
-4.52227717e-17
-4.38699134e-17
-4.10602111e-17
-4.17001308e-17
-4.20383904e-17
-4.38561793e-17
-4.45257831e-17
-4.51303225e-17
-4.69629971e-17
-4.94946475e-17
-5.12014958e-17
-5.28505783e-17
-4.86759211e-17
-5.07879557e-17
-5.10704741e-17
-5.19594134e-17
-5.23681464e-17
-5.21694826e-17
-5.34538647e-17
-5.56552228e-17
-5.63795688e-17
-5.52440035e-17
-5.83344764e-17
-5.74560708e-17
-5.63355922e-17
-6.00372064e-17
-5.84793952e-17
-5.76470242e-17
-5.68266636e-17
-5.66240334e-17
-5.60322038e-17
-5.67417771e-17
-5.51799374e-17
-5.80205642e-17
-5.68990887e-17
-6.12560004e-17
-5.80823731e-17
-5.61261574e-17
-5.66154057e-17
-6.20855894e-17
-5.8382805e-17
-6.07977632e-17
-5.94503284e-17
-6.0806368e-17
-6.23631216e-17
-6.06189052e-17
-6.13768787e-17
-6.2085366e-17
-6.32847579e-17
-6.27630425e-17
-6.06242677e-17
-6.04121216e-17
-6.30362705e-17
-6.25321943e-17
-6.10650609e-17
-6.20922087e-17
-6.25739986e-17
-6.33447879e-17
-6.22379417e-17
-6.12294702e-17
-6.13841422e-17
-6.05839703e-17
-6.30603178e-17
-5.90806582e-17
-6.30612993e-17
-6.35542013e-17
-6.24304007e-17
-5.92930093e-17
-6.00171167e-17
-6.08995041e-17
-6.02903459e-17
-6.20781963e-17
-6.34602286e-17
-6.16098558e-17
-6.27529967e-17
-6.5535877e-17
-6.66726646e-17
-6.79214923e-17
-6.80516434e-17
-6.8541782e-17
-7.12692126e-17
-7.16840422e-17
-7.46530612e-17
-7.08257857e-17
-7.32639725e-17
-6.93601844e-17
-7.00966198e-17
-7.38469854e-17
-7.21554093e-17
-7.10313039e-17
-7.2377496e-17
-7.12495916e-17
-7.42430453e-17
-7.26627566e-17
-7.72492957e-17
-7.65597608e-17
-7.79786082e-17
-8.07429084e-17
-7.74705334e-17
-7.89114909e-17
-7.92521974e-17
-8.01672027e-17
-7.741019e-17
-7.65246411e-17
-7.80108826e-17
-8.2150805e-17
-8.39425279e-17
-8.4720653e-17
-8.57748871e-17
-8.61027378e-17
-8.66927356e-17
-8.77731955e-17
-8.77753486e-17
-8.98562274e-17
-9.09727819e-17
-8.94596257e-17
-9.05619503e-17
-9.15103815e-17
-9.08857494e-17
-9.12487456e-17
-8.88519615e-17
-9.15628122e-17
-9.24713204e-17
-9.10436508e-17
-8.95804095e-17
-9.0150365e-17
-8.96885543e-17
-8.94375776e-17
-9.20541639e-17
-9.04592089e-17
-9.13884933e-17
-9.02471525e-17
-9.13140311e-17
-9.12621657e-17
-8.85329017e-17
-8.84332287e-17
-8.88622404e-17
-8.71564456e-17
-8.79110597e-17
-8.94679919e-17
-8.81009073e-17
-8.88204706e-17
-8.87838936e-17
-8.75334614e-17
-8.786162e-17
-8.33116841e-17
-8.2619845e-17
-8.53056973e-17
-8.35655917e-17
-8.28039546e-17
-8.35682989e-17
-8.17294326e-17
-8.34393229e-17
-8.20474611e-17
-8.20647887e-17
-8.05896533e-17
-8.34379431e-17
-8.48207693e-17
-8.71604406e-17
-8.87799426e-17
-8.73050526e-17
-9.20023042e-17
-8.96746151e-17
-8.89483586e-17
-8.79878908e-17
-8.35372989e-17
-8.6223644e-17
-8.74933615e-17
-8.69594484e-17
-8.75156594e-17
-8.57037824e-17
-8.48114795e-17
-8.57880233e-17
-8.71384469e-17
-8.69873073e-17
-8.52531287e-17
-8.48568763e-17
-8.55154143e-17
-8.21473237e-17
-7.97040056e-17
-8.04790256e-17
-8.30585436e-17
-7.87687355e-17
-8.21154895e-17
-8.34944008e-17
-8.34912768e-17
-8.07262327e-17
-8.01266286e-17
-7.98713611e-17
-7.85088897e-17
-7.72315787e-17
-7.76782361e-17
-7.90801098e-17
-7.24320131e-17
-7.65725148e-17
-7.51406886e-17
-7.39365242e-17
-7.49416355e-17
-7.43267635e-17
-7.36543004e-17
-7.38214767e-17
-7.2149299e-17
-7.21781301e-17
-7.21129187e-17
-6.78302131e-17
-7.33774562e-17
-7.01464311e-17
-6.91487258e-17
-6.83546742e-17
-6.47660476e-17
-6.16437983e-17
-6.38770438e-17
-5.94291717e-17
-6.09593734e-17
-6.22969085e-17
-6.04318791e-17
-5.84368189e-17
-5.99626547e-17
-5.93323908e-17
-5.813367e-17
-5.558789e-17
-5.48318847e-17
-5.27751224e-17
-5.66037615e-17
-5.26713477e-17
-5.57996551e-17
-5.66992789e-17
-5.61739514e-17
-5.62896789e-17
-5.32037874e-17
-5.07009724e-17
-5.00145216e-17
-5.16911064e-17
-4.80656241e-17
-4.99998505e-17
-4.88087026e-17
-4.82527699e-17
-4.56632944e-17
-4.71096753e-17
-4.40795851e-17
-4.70189676e-17
-4.77795881e-17
-4.63490558e-17
-4.85549849e-17
-4.75828443e-17
-4.20941372e-17
-4.31426145e-17
-4.07624614e-17
-4.26733005e-17
-4.19863722e-17
-3.74600627e-17
-4.12260594e-17
-3.82634392e-17
-4.11617322e-17
-4.29280781e-17
-4.25696652e-17
-4.13366919e-17
-4.02807482e-17
-4.35497244e-17
-4.12209072e-17
-4.14920518e-17
-4.26529116e-17
-4.35311406e-17
-4.64081317e-17
-4.46165543e-17
-4.61128469e-17
-4.14051651e-17
-4.13546216e-17
-4.20925776e-17
-3.99506578e-17
-3.90580776e-17
-3.97019939e-17
-3.86814518e-17
-3.87265686e-17
-3.75254018e-17
-3.73556925e-17
-3.65430718e-17
-3.53871718e-17
-3.69742593e-17
-3.49210128e-17
-3.09705722e-17
-3.26687356e-17
-3.09434147e-17
-2.79397903e-17
-2.5561717e-17
-2.42138946e-17
-2.6016007e-17
-2.61987653e-17
-2.75186299e-17
-2.73031182e-17
-2.88785834e-17
-3.011812e-17
-2.76900406e-17
-2.96145968e-17
-2.57012846e-17
-2.56589426e-17
-2.66557769e-17
-2.78972995e-17
-2.48503733e-17
-2.82598048e-17
-2.58399759e-17
-2.70552122e-17
-2.81987666e-17
-2.8173617e-17
-2.76402311e-17
-2.84846521e-17
-3.01879339e-17
-2.79491652e-17
-2.86291075e-17
-2.88897371e-17
-2.39716358e-17
-1.97463244e-17
-1.96813524e-17
-2.13612288e-17
-2.15545398e-17
-2.01369701e-17
-1.87949305e-17
-1.77293687e-17
-1.67634753e-17
-1.93405297e-17
-1.72606406e-17
-1.9387977e-17
-2.04243266e-17
-1.94563534e-17
-1.96260533e-17
-1.54895959e-17
-1.76660285e-17
-1.28893761e-17
-9.93343064e-18
-9.12297398e-18
-1.20410991e-17
-1.16615161e-17
-1.03574333e-17
-7.97486655e-18
-8.61248422e-18
-7.95575898e-18
-6.48803903e-18
-5.66789353e-18
-6.79588832e-18
-7.48682124e-18
-7.28903821e-18
-7.57327073e-18
-8.01057063e-18
-9.41470854e-18
-9.37376625e-18
-6.5559517e-18
-7.75073253e-18
-6.05974179e-18
-6.64530902e-18
-9.87958367e-18
-4.8869785e-18
-8.38710364e-19
-8.84351401e-19
2.8066982e-18
1.49999209e-19
2.04463611e-18
-2.19599257e-18
9.18796195e-19
2.65964048e-18
1.80774289e-18
-1.144329e-18
1.90890486e-18
4.3242435e-18
3.76392388e-18
5.07459813e-18
4.89852652e-18
4.64316078e-18
6.61702936e-18
2.45472342e-18
2.60904182e-18
-9.97391007e-19
2.91871048e-18
2.99274657e-18
4.07935699e-18
6.99485602e-18
6.3439828e-18
6.49151109e-18
5.4171176e-18
5.82259825e-18
6.11635278e-18
7.27605344e-18
1.00589206e-17
1.00353839e-17
1.04484909e-17
1.2842167e-17
9.74017813e-18
1.14623822e-17
9.5063073e-18
8.43211751e-18
1.11597301e-17
1.28214936e-17
1.18600396e-17
1.39696522e-17
9.4376066e-18
1.30141375e-17
1.14764944e-17
1.22402618e-17
1.57209454e-17
1.58538917e-17
1.77114739e-17
1.57231043e-17
1.40549322e-17
1.40296046e-17
1.33913843e-17
1.20434467e-17
1.2953442e-17
1.46552474e-17
1.61476657e-17
1.80480389e-17
2.1250623e-17
2.26568992e-17
2.29045456e-17
2.01578329e-17
2.20786954e-17
2.44625694e-17
2.36661182e-17
2.54900515e-17
2.2787701e-17
2.29143659e-17
2.31178668e-17
2.40802372e-17
2.43805925e-17
2.23117553e-17
2.63116228e-17
2.71421145e-17
2.76190913e-17
2.80203817e-17
2.86818499e-17
2.71854399e-17
2.93127158e-17
3.11715675e-17
2.76752473e-17
3.23874755e-17
2.8458842e-17
3.13494536e-17
3.01993048e-17
3.08189206e-17
2.71615374e-17
2.636505e-17
2.73810313e-17
2.89575313e-17
2.86827705e-17
2.92215294e-17
3.18422384e-17
3.04466401e-17
3.17624932e-17
3.20368585e-17
3.17473929e-17
3.18996285e-17
3.2808948e-17
3.09418983e-17
3.23079439e-17
2.85423255e-17
2.85319438e-17
2.82558666e-17
2.90994432e-17
2.78442836e-17
2.87127369e-17
2.74043526e-17
2.95301633e-17
3.26883545e-17
3.24822324e-17
3.0613093e-17
3.30735284e-17
3.23278397e-17
3.35809553e-17
3.35124405e-17
3.24193483e-17
3.12298601e-17
3.39286147e-17
3.37128596e-17
3.44905691e-17
3.42023607e-17
3.37994638e-17
3.16767833e-17
3.46835346e-17
3.66518255e-17
3.56272227e-17
3.07405322e-17
3.19004804e-17
3.04186764e-17
3.06375723e-17
3.38627159e-17
3.41129198e-17
3.21472068e-17
3.21126662e-17
3.2463363e-17
3.01333561e-17
3.3421864e-17
3.22485137e-17
3.6411443e-17
3.38403278e-17
3.39323496e-17
3.53972156e-17
3.50643644e-17
3.27398295e-17
3.14175704e-17
3.23390162e-17
3.00008971e-17
2.98702679e-17
3.02173625e-17
3.15057402e-17
3.08396393e-17
3.07687288e-17
2.89327961e-17
3.40160594e-17
2.97597446e-17
3.57702678e-17
3.6029831e-17
3.65513876e-17
3.75498766e-17
3.6235837e-17
3.58902355e-17
3.49235922e-17
3.43366543e-17
3.48980849e-17
3.38462193e-17
3.39169438e-17
3.22124482e-17
3.26598713e-17
2.91527686e-17
3.20166066e-17
3.23168437e-17
3.14451348e-17
3.07089441e-17
2.88838535e-17
2.90537018e-17
2.91228929e-17
3.10564102e-17
3.19003328e-17
3.1769025e-17
3.58962097e-17
3.37668094e-17
3.33151819e-17
3.39043914e-17
3.22291113e-17
2.90097658e-17
3.17111943e-17
2.86466135e-17
2.94868786e-17
3.14936387e-17
3.28090313e-17
3.3366715e-17
3.23480728e-17
3.43522577e-17
3.53061724e-17
3.72930967e-17
3.68055669e-17
3.74600321e-17
3.74436673e-17
3.69463856e-17
3.75086957e-17
3.55246615e-17
3.46442596e-17
3.19784865e-17
3.24597272e-17
3.25176998e-17
3.2014856e-17
3.40250795e-17
3.06016046e-17
3.006303e-17
2.97737329e-17
2.79733208e-17
3.23963261e-17
2.62711803e-17
2.64659979e-17
2.62786689e-17
2.5452134e-17
2.68240624e-17
2.52225614e-17
2.41043291e-17
2.51388966e-17
2.76810725e-17
2.71126687e-17
2.88306142e-17
2.55899568e-17
2.31860502e-17
2.39376432e-17
2.52024336e-17
2.52472248e-17
2.46631202e-17
2.31990592e-17
2.08070887e-17
2.14975554e-17
2.35727475e-17
2.32406915e-17
2.51159847e-17
2.20237206e-17
2.45539461e-17
2.31355705e-17
2.37208383e-17
2.46078835e-17
2.62269801e-17
2.9374535e-17
3.01468936e-17
2.67277652e-17
2.8454517e-17
2.71650319e-17
2.840328e-17
3.24582786e-17
2.54495657e-17
2.89275173e-17
3.00391222e-17
2.48749646e-17
2.58850827e-17
2.62641979e-17
1.78692691e-17
2.35380138e-17
2.33342808e-17
2.2256268e-17
2.23601832e-17
2.21613667e-17
2.74736191e-17
2.61461117e-17
2.38515747e-17
2.79975526e-17
2.78210551e-17
3.04343804e-17
2.89729925e-17
2.99547166e-17
2.9784324e-17
2.75954331e-17
3.23281198e-17
3.16702044e-17
3.18333722e-17
3.28683825e-17
2.9967793e-17
2.951183e-17
3.26556711e-17
3.47525565e-17
3.77035399e-17
3.58840222e-17
3.54403447e-17
3.76866063e-17
3.6528037e-17
3.31129005e-17
3.52843969e-17
3.2211818e-17
2.94713406e-17
2.93404649e-17
2.558393e-17
2.63308943e-17
2.5559482e-17
2.72799953e-17
2.78406604e-17
2.6853628e-17
2.90413785e-17
2.93534092e-17
3.00181579e-17
3.17233987e-17
3.39872831e-17
3.45295271e-17
3.53971581e-17
3.41999474e-17
3.29533718e-17
3.11320825e-17
3.23162251e-17
3.16073632e-17
3.57043278e-17
3.35635602e-17
3.35666929e-17
3.73289243e-17
3.29147658e-17
3.55952699e-17
3.4794107e-17
3.34187e-17
3.14012933e-17
3.2306094e-17
3.37788478e-17
3.29167819e-17
3.11532544e-17
3.10344472e-17
3.32720682e-17
3.47943487e-17
3.62500901e-17
3.58931598e-17
3.9453439e-17
3.64264017e-17
3.4561021e-17
3.73357373e-17
3.64594425e-17
3.44878441e-17
3.89012264e-17
3.73756425e-17
3.85697116e-17
3.72453585e-17
3.7181633e-17
3.92718523e-17
3.71995343e-17
3.7079665e-17
3.67270933e-17
3.4076078e-17
3.26171792e-17
3.49289123e-17
3.97339815e-17
3.91859119e-17
4.05004879e-17
3.97803112e-17
4.00285477e-17
4.03046072e-17
4.43830248e-17
4.72339921e-17
4.60344686e-17
4.56109162e-17
4.32015956e-17
4.40357085e-17
4.38630786e-17
4.45100098e-17
4.1459283e-17
4.10917152e-17
4.10138276e-17
4.22895008e-17
4.38043772e-17
4.60798239e-17
4.4844886e-17
4.72239333e-17
4.48205839e-17
4.86903179e-17
4.95560519e-17
5.16654679e-17
5.300633e-17
5.3003827e-17
4.84413732e-17
4.98697702e-17
4.69574277e-17
4.72268583e-17
4.61470636e-17
4.76796314e-17
4.83411298e-17
4.90145558e-17
4.60284893e-17
4.89143654e-17
4.94184978e-17
4.56266302e-17
4.75577021e-17
4.89953118e-17
4.69828093e-17
4.78316776e-17
4.60531296e-17
4.61290168e-17
4.57801261e-17
4.61127807e-17
4.8451078e-17
4.99007902e-17
5.18958831e-17
5.18653736e-17
5.16709996e-17
5.19995274e-17
4.97868957e-17
5.53510154e-17
5.24087619e-17
5.80130308e-17
5.51435166e-17
5.71742971e-17
5.58994916e-17
5.60644736e-17
5.65832236e-17
5.26958379e-17
5.21513544e-17
5.46847603e-17
5.60190889e-17
5.56551873e-17
5.47623357e-17
5.31683442e-17
5.12182773e-17
5.31697602e-17
5.49999832e-17
5.24750863e-17
5.34008278e-17
5.46735829e-17
5.35660905e-17
5.44132666e-17
5.68467528e-17
6.00611712e-17
5.67822221e-17
5.52082521e-17
5.74043967e-17
5.5609269e-17
5.78926758e-17
5.96700375e-17
6.02059913e-17
6.16977118e-17
6.07693142e-17
5.98938041e-17
5.73187267e-17
6.01331436e-17
6.11009863e-17
5.84476152e-17
5.9613974e-17
5.63557821e-17
5.8318922e-17
5.75096955e-17
5.77707047e-17
5.58768914e-17
5.45632985e-17
5.66726754e-17
5.52397613e-17
5.44913332e-17
5.86658225e-17
5.98786421e-17
5.96422768e-17
5.88438213e-17
5.68448608e-17
5.64565833e-17
5.52110008e-17
5.5560484e-17
5.49501228e-17
5.28124044e-17
5.35250719e-17
5.22561105e-17
5.08638318e-17
5.14189878e-17
4.79952961e-17
4.67279507e-17
4.41722866e-17
4.60840337e-17
4.70187995e-17
4.64740862e-17
4.42720624e-17
4.14861597e-17
4.19038075e-17
3.99722839e-17
3.97497095e-17
3.911114e-17
3.66000706e-17
3.85730999e-17
3.66203989e-17
3.61291044e-17
3.06243203e-17
2.95188995e-17
2.85864931e-17
2.91426509e-17
2.5286923e-17
2.50444989e-17
2.33603529e-17
2.62238023e-17
2.39475888e-17
2.48771821e-17
2.3526922e-17
2.63516105e-17
2.54639049e-17
2.28378019e-17
2.10447886e-17
1.69355271e-17
1.55474608e-17
1.72672196e-17
1.69796964e-17
1.63340335e-17
1.6532007e-17
1.6141457e-17
1.49671985e-17
1.3595673e-17
1.00273559e-17
1.42530672e-17
1.14927424e-17
1.09396316e-17
1.00771483e-17
1.2544886e-17
1.19126428e-17
1.04084878e-17
1.09695456e-17
9.33501679e-18
9.26194632e-18
8.68328523e-18
5.02865131e-18
6.45258373e-18
7.52510139e-18
1.07372135e-17
1.00765988e-17
1.18997111e-17
1.04252225e-17
1.11608545e-17
9.95225457e-18
6.61794296e-18
6.79459799e-18
8.72131502e-18
7.27622221e-18
5.9161336e-18
6.05424407e-18
8.72327987e-18
3.94346315e-18
7.62801628e-18
8.89834288e-18
9.85388883e-18
1.13986008e-17
9.68873677e-18
9.08374204e-18
7.61757774e-18
8.58555702e-18
7.57353945e-18
6.9079447e-18
3.6408114e-18
5.22262475e-18
2.70461568e-18
3.84819051e-18
4.25014753e-18
2.45754386e-18
-6.20709243e-19
5.54787299e-19
-1.62234443e-18
-4.79745882e-18
-3.55102771e-18
-3.1903049e-18
-5.54463837e-18
-2.53251174e-18
-9.6767421e-19
-1.59095915e-18
-1.31730607e-18
-1.73553331e-18
-3.83127406e-18
-5.11526486e-18
-7.51556146e-18
-7.21582166e-18
-6.39955267e-18
-6.67980435e-18
-8.69955131e-18
-7.51714585e-18
-8.11352413e-18
-7.93381262e-18
-1.22025658e-17
-1.23795026e-17
-1.40387134e-17
-1.13815113e-17
-1.18528674e-17
-1.35086904e-17
-1.08799263e-17
-1.35574851e-17
-1.32425221e-17
-1.38612899e-17
-1.39595216e-17
-1.53738109e-17
-1.78144562e-17
-1.55274023e-17
-1.48684665e-17
-1.6028935e-17
-1.61284394e-17
-1.92447802e-17
-1.8769333e-17
-1.89011624e-17
-1.74944677e-17
-1.65737516e-17
-1.30105247e-17
-1.35022422e-17
-1.11302663e-17
-1.42736408e-17
-1.791375e-17
-1.64807023e-17
-1.92985544e-17
-1.91808081e-17
-2.10161172e-17
-2.12865311e-17
-2.0328301e-17
-1.49500426e-17
-1.68967612e-17
-1.42866665e-17
-1.97794772e-17
-2.37545331e-17
-2.22716091e-17
-1.78977643e-17
-1.85848979e-17
-1.79861064e-17
-1.74344367e-17
-1.54363691e-17
-1.77577773e-17
-1.73331659e-17
-1.93942258e-17
-2.11112088e-17
-1.97194672e-17
-2.26303038e-17
-2.04975465e-17
-2.15545786e-17
-2.25492443e-17
-2.43211573e-17
-2.35176119e-17
-2.15470495e-17
-2.27602867e-17
-2.01047278e-17
-2.00115629e-17
-2.19400929e-17
-2.03550371e-17
-2.29661299e-17
-1.92730125e-17
-1.94579652e-17
-1.79783841e-17
-2.10944783e-17
-2.1654929e-17
-2.3582869e-17
-2.36061416e-17
-2.33865952e-17
-2.52809789e-17
-2.7019129e-17
-2.58841487e-17
-2.65267512e-17
-2.89825696e-17
-3.05803778e-17
-2.91591583e-17
-2.6711355e-17
-3.45166644e-17
-3.1802866e-17
-3.64390194e-17
-3.31526467e-17
-3.6573363e-17
-3.36504029e-17
-3.70162059e-17
-3.64923278e-17
-3.68806963e-17
-3.89212275e-17
-3.72930999e-17
-4.21945615e-17
-3.99932394e-17
-4.3020154e-17
-3.83669478e-17
-3.82050343e-17
-3.96886271e-17
-3.80737022e-17
-3.61298388e-17
-3.69746726e-17
-3.53926863e-17
-3.51938571e-17
-3.65731861e-17
-3.95422611e-17
-3.86078744e-17
-3.9691524e-17
-3.76331779e-17
-3.88325139e-17
-3.69075642e-17
-3.62474314e-17
-3.92611096e-17
-3.5068476e-17
-3.7105277e-17
-3.77010585e-17
-3.65739456e-17
-3.73566831e-17
-3.75832252e-17
-3.67812e-17
-4.09175799e-17
-4.04900277e-17
-4.30923537e-17
-4.23014401e-17
-4.13957138e-17
-4.13349324e-17
-4.13205451e-17
-4.13218992e-17
-4.0682368e-17
-3.96038826e-17
-4.45061927e-17
-4.35454664e-17
-4.31459174e-17
-4.81646348e-17
-4.5661266e-17
-4.33226654e-17
-4.78821106e-17
-4.57950476e-17
-4.17404635e-17
-4.26571461e-17
-4.12563658e-17
-3.89817584e-17
-3.89449418e-17
-3.44003927e-17
-3.5099951e-17
-3.38351482e-17
-3.6176978e-17
-3.89134148e-17
-4.00396019e-17
-3.81718867e-17
-4.17591417e-17
-3.99491016e-17
-4.01429873e-17
-4.04935686e-17
-4.10027232e-17
-4.41201898e-17
-4.75121174e-17
-4.56460991e-17
-4.66270934e-17
-4.70769509e-17
-4.90768931e-17
-4.88472309e-17
-5.12668438e-17
-4.93745348e-17
-4.90791779e-17
-4.85734382e-17
-5.15931973e-17
-4.89362529e-17
-5.04077894e-17
-5.02884872e-17
-5.45933044e-17
-5.03736606e-17
-5.06690663e-17
-5.07937487e-17
-5.15550396e-17
-4.93830301e-17
-4.69593457e-17
-4.41515463e-17
-4.74755193e-17
-4.7334756e-17
-4.80889816e-17
-4.82618912e-17
-4.61833119e-17
-4.62304421e-17
-4.7030802e-17
-4.92514066e-17
-4.89728869e-17
-4.62614736e-17
-4.78870315e-17
-4.64196048e-17
-4.79172911e-17
-4.80007577e-17
-4.91615156e-17
-4.72308379e-17
-4.53426453e-17
-4.61839478e-17
-4.80455612e-17
-4.77479211e-17
-4.61660778e-17
-4.5791804e-17
-4.65572926e-17
-5.13051595e-17
-5.11354767e-17
-5.14623672e-17
-5.2621454e-17
-5.15435392e-17
-5.12480312e-17
-5.26156636e-17
-4.79365657e-17
-4.67844546e-17
-4.54874349e-17
-4.13039824e-17
-4.13378452e-17
-4.13077702e-17
-4.45202878e-17
-4.20361193e-17
-4.45713697e-17
-4.23424491e-17
-4.508355e-17
-4.16703884e-17
-4.12675999e-17
-4.20554402e-17
-4.11094136e-17
-3.96734607e-17
-3.86924027e-17
-3.87065144e-17
-3.56932121e-17
-3.54092927e-17
-3.50850302e-17
-3.36078529e-17
-3.71386002e-17
-3.79807367e-17
-3.52886678e-17
-3.51358374e-17
-3.34550171e-17
-2.9956312e-17
-3.02104919e-17
-3.35351911e-17
-3.36588067e-17
-3.40428765e-17
-3.69636322e-17
-3.80180304e-17
-3.31786283e-17
-3.28200362e-17
-3.48496251e-17
-3.40294545e-17
-3.03426367e-17
-3.32667918e-17
-3.2617021e-17
-3.48214272e-17
-3.13098002e-17
-3.2192158e-17
-3.0080464e-17
-3.07646798e-17
-3.10082525e-17
-2.92966116e-17
-2.81297202e-17
-2.65764214e-17
-2.2797784e-17
-2.33848645e-17
-2.44589867e-17
-2.5569534e-17
-2.32192601e-17
-2.54666581e-17
-2.79915236e-17
-2.83512475e-17
-2.65701584e-17
-2.99882907e-17
-3.11980763e-17
-2.89908639e-17
-2.99479771e-17
-3.13285126e-17
-3.02504191e-17
-3.44605351e-17
-3.05902523e-17
-3.24043058e-17
-3.11022678e-17
-3.15552211e-17
-3.3816323e-17
-3.4891892e-17
-3.4840486e-17
-3.4698084e-17
-3.30071254e-17
-3.27105095e-17
-3.18627333e-17
-3.54406946e-17
-3.66015644e-17
-3.57002762e-17
-3.36180683e-17
-3.57182372e-17
-3.5852943e-17
-3.6832802e-17
-3.69416471e-17
-3.72174338e-17
-3.74754623e-17
-3.9978087e-17
-3.9879606e-17
-3.96692915e-17
-4.00537597e-17
-3.82694513e-17
-3.38719963e-17
-3.68163341e-17
-3.43315271e-17
-3.43554141e-17
-3.30228948e-17
-3.64256114e-17
-3.4488096e-17
-3.2948602e-17
-3.30154472e-17
-3.72851584e-17
-3.47946143e-17
-3.38088168e-17
-3.28554499e-17
-3.3852974e-17
-3.53790455e-17
-3.59113293e-17
-3.34155672e-17
-3.73920036e-17
-3.81378601e-17
-3.89502511e-17
-3.57156936e-17
-3.68480985e-17
-3.81034671e-17
-3.9546375e-17
-4.13678765e-17
-3.96318944e-17
-4.17575548e-17
-4.1695198e-17
-3.82944408e-17
-3.87224836e-17
-3.75638704e-17
-3.39992914e-17
-3.71771045e-17
-3.86058135e-17
-3.87185674e-17
-3.99615802e-17
-4.06720291e-17
-4.14898056e-17
-4.06368204e-17
-4.30145839e-17
-4.57277018e-17
-4.6884807e-17
-4.38840599e-17
-4.35744514e-17
-4.32177035e-17
-4.50465192e-17
-4.2149513e-17
-4.70698612e-17
-4.37468803e-17
-4.18048094e-17
-4.19679728e-17
-4.34172524e-17
-4.34668687e-17
-4.08650397e-17
-3.81485173e-17
-3.49164752e-17
-3.59800016e-17
-3.83503262e-17
-3.83159266e-17
-3.87524719e-17
-4.12196345e-17
-4.04667561e-17
-3.82729762e-17
-4.06709779e-17
-4.04465128e-17
-4.04113534e-17
-3.93184544e-17
-3.96057722e-17
-3.81431112e-17
-3.4677304e-17
-3.19221181e-17
-3.5144821e-17
-3.27451975e-17
-3.56531423e-17
-3.59467412e-17
-3.60661954e-17
-3.68637138e-17
-4.00346347e-17
-3.90786197e-17
-4.10983951e-17
-4.22739693e-17
-4.53055923e-17
-4.29175114e-17
-4.13630383e-17
-4.06902556e-17
-4.02827924e-17
-4.20796037e-17
-4.43627334e-17
-4.70631926e-17
-4.68139969e-17
-4.71953398e-17
-4.74294504e-17
-4.85590405e-17
-4.72736833e-17
-4.52378896e-17
-4.20494629e-17
-4.26367305e-17
-4.37950604e-17
-4.73547672e-17
-4.26865009e-17
-3.83978411e-17
-3.66975551e-17
-3.61156807e-17
-3.55765953e-17
-3.47579302e-17
-3.63543359e-17
-3.55096011e-17
-3.35138382e-17
-3.21933275e-17
-3.0716804e-17
-3.14957549e-17
-3.24648853e-17
-3.38137742e-17
-3.53065244e-17
-3.56631887e-17
-3.48503802e-17
-3.24144821e-17
-2.9618662e-17
-2.89944386e-17
-2.80712376e-17
-2.78986937e-17
-3.16074024e-17
-3.15039162e-17
-3.2906865e-17
-2.99654718e-17
-2.69606423e-17
-2.66792095e-17
-2.6803874e-17
-2.4065426e-17
-1.98993225e-17
-2.07137685e-17
-2.2863316e-17
-2.51944401e-17
-2.69633437e-17
-2.55743965e-17
-2.42569488e-17
-2.49797443e-17
-2.13470043e-17
-2.20055288e-17
-2.22314324e-17
-1.88399593e-17
-1.95539051e-17
-1.96966797e-17
-2.12419029e-17
-2.35930416e-17
-2.13610841e-17
-2.20422522e-17
-2.07528742e-17
-1.97753751e-17
-1.76811238e-17
-2.21139686e-17
-2.26323822e-17
-2.30458651e-17
-2.05655871e-17
-2.34860587e-17
-2.35131721e-17
-2.12492004e-17
-1.91868902e-17
-1.69739704e-17
-1.98835633e-17
-1.69764761e-17
-1.99046283e-17
-1.75177074e-17
-1.65350767e-17
-1.80232541e-17
-1.37081475e-17
-1.68546075e-17
-1.51706946e-17
-1.74148033e-17
-1.39283371e-17
-1.58647704e-17
-1.43098623e-17
-1.55023359e-17
-1.40118936e-17
-1.03106771e-17
-9.12882008e-18
-1.45554835e-17
-1.53031807e-17
-1.49314074e-17
-1.50447097e-17
-1.22316326e-17
-1.40176416e-17
-1.93549907e-17
-1.67819215e-17
-1.69759781e-17
-1.37995349e-17
-1.69125735e-17
-1.51590658e-17
-1.81574161e-17
-1.42326132e-17
-1.71183347e-17
-2.01055557e-17
-1.77877614e-17
-1.99696308e-17
-2.18725925e-17
-2.15094214e-17
-2.07642369e-17
-2.03323678e-17
-2.32782686e-17
-2.09765519e-17
-2.28043353e-17
-2.17988135e-17
-2.18515592e-17
-2.2921111e-17
-1.91173073e-17
-1.97226005e-17
-2.08525296e-17
-1.71875233e-17
-1.76965252e-17
-1.73181717e-17
-1.72473432e-17
-1.99260489e-17
-1.98007022e-17
-2.28614044e-17
-2.25044974e-17
-2.26803789e-17
-2.16183039e-17
-2.10865172e-17
-1.72493976e-17
-2.02162635e-17
-2.29981564e-17
-2.23292018e-17
-2.16757139e-17
-2.08728338e-17
-2.24749126e-17
-2.01614687e-17
-1.66350006e-17
-1.79508471e-17
-1.529073e-17
-1.27613488e-17
-1.34596349e-17
-1.32109796e-17
-1.23245029e-17
-1.15531764e-17
-1.23922105e-17
-8.25512363e-18
-9.70092547e-18
-8.91737177e-18
-5.31072638e-18
-4.73143419e-18
-2.5934687e-18
-1.86350996e-18
-3.31836484e-19
-5.57950918e-19
2.42437743e-18
-6.39269756e-19
2.51098357e-18
6.71986006e-20
-1.95627071e-18
-1.0954483e-18
-7.44269077e-19
1.25285261e-18
-2.59279539e-19
1.61219246e-18
2.53050605e-18
3.12772566e-18
2.99353314e-18
1.5153426e-18
2.38255857e-18
5.91348973e-18
3.08691741e-18
6.21673814e-18
4.95870996e-18
8.29651183e-18
1.10534759e-17
1.06313502e-17
1.31459291e-17
1.56260757e-17
1.47128469e-17
1.46240554e-17
1.33341341e-17
1.35332761e-17
1.49589703e-17
1.38448199e-17
1.36346526e-17
1.42536415e-17
1.37356911e-17
1.27510579e-17
1.4335804e-17
1.5933545e-17
1.95810752e-17
1.96955085e-17
1.92781962e-17
2.13138945e-17
2.02620124e-17
1.90381046e-17
1.92921391e-17
1.88811028e-17
2.30656557e-17
2.31728215e-17
2.21451757e-17
2.03583768e-17
1.9470643e-17
2.09242355e-17
2.16470786e-17
1.96957347e-17
2.16259501e-17
2.12666475e-17
2.08989288e-17
2.27549628e-17
2.36442647e-17
2.69867179e-17
2.65246221e-17
2.71439113e-17
2.7203734e-17
2.39690062e-17
2.68290882e-17
2.69190802e-17
2.93855955e-17
3.11951891e-17
3.51720831e-17
3.29404125e-17
3.17532044e-17
3.30586845e-17
3.09764594e-17
3.37713273e-17
3.08117461e-17
3.16560797e-17
2.79686626e-17
3.07288301e-17
3.07985035e-17
3.72643887e-17
3.25810094e-17
3.58820253e-17
3.20589645e-17
3.3641445e-17
3.73343705e-17
3.52720576e-17
3.61398159e-17
3.28463592e-17
3.53794873e-17
3.46120136e-17
3.66736491e-17
3.68949164e-17
3.49453625e-17
3.84982142e-17
3.84666933e-17
3.4604881e-17
3.7359504e-17
3.72593837e-17
4.15631918e-17
4.38210876e-17
3.94338346e-17
4.48597795e-17
4.47302766e-17
4.68456902e-17
4.43729005e-17
4.63691199e-17
4.38390288e-17
4.754986e-17
4.79423032e-17
5.02864588e-17
4.9711027e-17
4.896897e-17
4.77980936e-17
4.83805495e-17
4.83702856e-17
5.06564928e-17
5.13942884e-17
5.2928042e-17
5.16929016e-17
5.28393064e-17
5.49131295e-17
5.49264768e-17
5.41238724e-17
5.37254261e-17
5.51126279e-17
5.55787623e-17
5.96703863e-17
6.25530213e-17
6.27747531e-17
6.52452385e-17
6.29108893e-17
6.75663354e-17
6.6367542e-17
6.81688651e-17
6.69905941e-17
7.24716989e-17
7.28419207e-17
7.35573287e-17
7.49412987e-17
7.46249593e-17
7.29794782e-17
7.27221915e-17
7.25401888e-17
7.1742759e-17
7.16432406e-17
7.30449476e-17
7.37896529e-17
7.5764763e-17
7.48108161e-17
7.51815803e-17
7.40848405e-17
7.66094421e-17
7.40412568e-17
7.58958666e-17
7.65310851e-17
7.40247151e-17
7.82573488e-17
7.71070475e-17
7.64611284e-17
7.76362327e-17
7.7376014e-17
7.6547528e-17
7.82903156e-17
7.63055532e-17
7.71316285e-17
7.74339561e-17
7.664488e-17
7.76050717e-17
7.79420812e-17
7.87327352e-17
7.55845684e-17
7.79736241e-17
7.87343102e-17
8.31587906e-17
7.90660034e-17
8.23060702e-17
8.16009043e-17
8.27283842e-17
8.40796001e-17
8.42735783e-17
8.48532142e-17
8.07807933e-17
8.58224823e-17
8.39617212e-17
8.4797874e-17
8.34242656e-17
8.48458249e-17
8.46293787e-17
8.43309617e-17
8.43080608e-17
8.44985209e-17
8.47326336e-17
8.69819739e-17
8.44788863e-17
8.17505131e-17
8.5615135e-17
8.5559816e-17
8.68105674e-17
8.65071561e-17
8.65359396e-17
8.72062962e-17
8.62137518e-17
8.61693724e-17
8.43210003e-17
8.92399422e-17
8.89513568e-17
8.68826895e-17
8.92078057e-17
9.11834288e-17
9.31169923e-17
9.28916983e-17
9.30385301e-17
9.12981744e-17
9.32401924e-17
8.95884968e-17
9.2130989e-17
9.04778534e-17
9.37474218e-17
9.30646507e-17
9.28216114e-17
8.92013623e-17
8.74453969e-17
8.79239537e-17
9.00361785e-17
9.10170091e-17
9.12608909e-17
9.24509247e-17
8.81259718e-17
8.90917924e-17
8.59395406e-17
8.84230621e-17
8.82459706e-17
8.844018e-17
9.02849832e-17
9.06967149e-17