/*--------------------------------*- C++ -*----------------------------------*\
| =========                 |                                                 |
| \\      /  F ield         | OpenFOAM: The Open Source CFD Toolbox           |
|  \\    /   O peration     | Version:  2206                                  |
|   \\  /    A nd           | Website:  www.openfoam.com                      |
|    \\/     M anipulation  |                                                 |
\*---------------------------------------------------------------------------*/
FoamFile
{
    version     2.0;
    format      ascii;
    arch        "LSB;label=32;scalar=64";
    class       volScalarField;
    location    "9.2e-06";
    object      sourcePV;
}
// * * * * * * * * * * * * * * * * * * * * * * * * * * * * * * * * * * * * * //

dimensions      [1 -3 -1 0 0 0 0];

internalField   nonuniform List<scalar> 
3183
(
0
0
0
0
0
0
0
0
0
0
0
0
0
0
0
0
0
0
0
0
0
0
0
0
0
0
0
0
0
0
0
0
0
0
0
0
0
0
0
0
0
0
0
0
0
0
0
0
0
0
0
0
0
0
0
0
0
0
0
0
0
0
0
0
0
0
0
0
0
0
0
0
0
0
0
0
0
0
0
0
0
0
0
0
0
0
0
0
0
0
0
0
0
0
0
0
0
0
0
0
0
0
0
0
0
0
0
0
0
0
0
0
0
0
0
0
0
0
0
0
0
0
0
0
0
0
0
0
0
0
0
0
0
0
0
0
0
0
0
0
0
0
0
0
0
0
0
0
0
0
0
0
0
0
0
0
0
0
0
0
0
0
0
0
0
0
0
0
0
0
0
0
0
0
0
0
0
0
0
0
0
0
0
0
0
0
0
0
0
0
0
0
0
0
0
0
0
0
0
0
0
0
0
0
0
0
0
0
0
0
0
0
0
0
0
0
0
0
0
0
0
0
0
0
0
0
0
0
0
0
0
0
0
0
0
0
0
0
0
0
0
0
0
0
0
0
0
0
0
0
0
0
0
0
0
0
0
0
0
0
0
0
0
0
0
0
0
0
0
0
0
0
0
0
0
0
0
0
0
0
0
0
0
0
0
0
0
0
0
0
0
0
0
0
0
0
0
0
0
0
0
0
0
0
0
0
0
0
0
0
0
0
0
0
0
0
0
0
0
0
0
0
0
0
0
0
0
0
0
0
0
0
0
0
0
0
0
0
0
0
0
0
0
0
0
0
0
0
0
0
0
0
0
0
0
0
0
0
0
0
0
0
0
0
0
0
0
0
0
0
0
0
0
0
0
0
0
0
0
0
0
0
0
0
0
0
0
0
0
0
0
0
0
0
0
0
0
0
0
0
0
0
0
0
0
0
0
0
0
0
0
0
0
0
0
0
0
0
0
0
0
0
0
0
0
0
0
0
0
0
0
0
0
0
0
0
0
0
0
0
0
0
0
0
0
0
0
0
0
0
0
0
0
0
0
0
0
0
0
0
0
0
0
0
0
0
0
0
0
0
0
0
0
0
0
0
0
0
0
0
0
0
0
0
0
0
0
0
0
0
0
0
0
0
0
0
0
0
0
0
0
0
0
0
0
0
0
0
0
0
0
0
0
0
0
0
0
0
0
0
0
0
0
0
0
0
0
0
0
0
0
0
0
0
0
0
0
0
0
0
0
0
0
0
0
0
0
0
0
0
0
0
0
0
0
0
0
0
0
0
0
0
0
0
0
0
0
0
0
0
0
0
0
0
0
0
0
0
0
0
0
0
0
0
0
0
0
0
0
0
0
0
0
0
0
0
0
0
0
0
0
0
0
0
0
0
0
0
0
0
0
0
0
0
0
0
0
0
0
0
0
0
0
0
0
0
0
0
0
0
0
0
0
0
0
0
0
0
0
0
0
0
0
0
0
0
0
0
0
0
0
0
0
0
0
0
0
0
0
0
0
0
0
0
0
0
0
0
0
0
0
0
0
0
0
0
0
0
0
0
0
0
0
0
0
0
0
0
0
0
0
0
0
0
0
0
0
0
0
0
0
0
0
0
0
0
0
0
0
0
0
0
0
0
0
0
0
0
0
0
0
0
0
0
0
0
0
0
0
0
0
0
0
0
0
0
0
0
0
0
0
0
0
0
0
0
0
0
0
0
0
0
0
0
0
0
0
0
0
0
0
0
0
0
0
0
0
0
0
0
0
0
0
0
0
0
0
0
0
0
0
0
0
0
0
0
0
0
0
0
0
0
0
0
0
0
0
0
0
0
0
0
0
0
0
0
0
0
0
0
0
0
0
0
0
0
0
0
0
0
0
0
0
0
0
0
0
0
0
0
0
0
0
0
0
0
0
0
0
0
0
0
0
0
0
0
0
0
0
0
0
0
0
0
0
0
0
0
0
0
0
0
0
0
0
0
0
0
0
0
0
0
0
0
0
0
0
0
0
0
0
0
0
0
0
0
0
0
0
0
0
0
0
0
0
0
0
0
0
0
0
0
0
0
0
0
0
0
0
0
0
0
0
0
0
0
0
0
0
0
0
0
0
0
0
0
0
0
0
0
0
0
0
0
0
0
0
0
0
0
0
0
0
0
0
0
0
0
0
0
0
0
0
0
0
0
0
0
0
0
0
0
0
0
0
0
0
0
0
0
0
0
0
0
0
0
0
0
0
0
0
0
0
0
0
0
0
0
0
0
0
0
0
0
0
0
0
0
0
0
0
0
0
0
0
0
0
0
0
0
0
0
0
0
0
0
0
0
0
0
0
0
0
0
0
0
0
0
0
0
0
0
0
0
0
0
0
0
0
0
0
0
0
0
0
0
0
0
0
0
0
0
0
0
0
0
0
0
0
0
0
0
0
0
0
0
0
0
0
0
0
0
0
0
0
0
0
0
0
0
0
0
0
0
0
0
0
0
0
0
0
0
0
0
0
0
0
0
0
0
0
0
0
0
0
0
0
0
0
0
0
0
0
0
0
0
0
0
0
0
0
0
0
0
0
0
0
0
0
0
0
0
0
0
0
0
0
0
0
0
0
0
0
0
0
0
0
0
0
0
0
0
0
0
0
0
0
0
0
0
0
0
0
0
0
0
0
0
0
0
0
0
0
0
0
0
0
0
0
0
0
0
0
0
0
0
0
0
0
0
0
0
0
0
0
0
0
0
0
0
0
0
0
0
0
0
0
0
0
0
0
0
0
0
0
0
0
0
0
0
0
0
0
0
0
0
0
0
0
0
0
0
0
0
0
0
0
0
0
0
0
0
0
0
0
0
0
0
0
0
0
0
0
0
0
0
0
0
0
0
0
0
0
0
0
0
0
0
0
0
0
0
0
0
0
0
0
0
0
0
0
0
0
0
0
0
0
0
0
0
0
0
0
0
0
0
0
0
0
0
0
0
0
0
0
0
0
0
0
0
0
0
0
0
0
0
0
0
0
0
0
0
0
0
0
0
0
0
0
0
0
0
0
0
0
0
0
0
0
0
0
0
0
0
0
0
0
0
0
0
0
0
0
0
0
0
0
0
0
0
0
0
0
0
0
0
0
0
0
0
0
0
0
0
0
0
0
0
0
0
0
0
0
0
0
0
0
0
0
0
0
0
0
0
0
0
0
0
0
0
0
0
0
0
0
0
0
0
0
0
0
0
0
0
0
0
0
0
0
0
0
0
0
0
0
0
0
0
0
0
0
0
0
0
0
0
0
0
0
0
0
0
0
0
0
0
0
0
0
0
0
0
0
0
0
0
0
0
0
0
0
0
0
0
0
0
0
0
0
0
0
0
0
0
0
0
0
0
0
0
0
0
0
0
0
0
0
0
0
0
0
0
0
0
0
0
0
0
0
0
0
0
0
0
0
0
0
0
0
0
0
0
0
0
0
0
0
0
0
0
0
0
0
0
0
0
0
0
0
0
0
0
0
0
0
0
0
0
0
0
0
0
0
0
0
0
0
0
0
0
0
0
0
0
0
0
0
0
0
0
0
0
0
0
0
0
0
0
0
0
0
0
0
0
0
0
0
0
0
0
0
0
0
0
0
0
0
0
0
0
0
0
0
0
0
0
0
0
0
0
0
0
0
0
0
0
0
0
0
0
0
0
0
0
0
0
0
0
0
0
0
0
0
0
0
0
0
0
0
0
0
0
0
0
0
0
0
0
0
0
0
0
0
0
0
0
0
0
0
0
0
0
0
0
0
0
0
0
0
0
0
0
0
0
0
0
0
0
0
0
0
0
0
0
0
0
0
0
0
0
0
0
0
0
0
0
0
0
0
0
0
0
0
0
0
0
0
0
0
0
0
0
0
0
0
0
0
0
0
0
0
0
0
0
0
0
0
0
0
0
0
0
0
0
0
0
0
0
0
0
0
0
0
0
0
0
0
0
0
0
0
0
0
0
0
0
0
0
0
0
0
0
0
0
0
0
0
0
0
0
0
0
0
0
0
0
0
0
0
0
0
0
0
0
0
0
0
0
0
0
0
0
0
0
0
0
0
0
0
0
0
0
0
0
0
0
0
0
0
0
0
0
0
0
0
0
0
0
0
0
0
0
0
0
0
0
0
0
0
0
0
0
0
0
0
0
0
0
0
0
0
0
0
0
0
0
0
0
0
0
0
0
0
0
0
0
0
0
0
0
0
0
0
0
0
0
0
0
0
0
0
0
0
0
0
0
0
0
0
0
0
0
0
0
0
0
0
0
0
0
0
0
0
0
0
0
0
0
0
0
0
0
0
0
0
0
0
0
0
0
0
0
0
0
0
0
0
0
0
0
0
0
0
0
0
0
0
0
0
0
0
0
0
0
0
0
0
0
0
0
0
0
0
0
0
0
0
0
0
0
0
0
0
0
0
0
0
0
0
0
0
0
0
0
0
0
0
0
0
0
0
0
0
0
0
0
0
0
0
0
0
0
0
0
0
0
0
0
0
0
0
0
0
0
0
0
0
0
0
0
0
0
0
0
0
0
0
0
0
0
0
0
0
0
0
0
0
0
0
0
0
0
0
0
0
0
0
0
0
0
0
0
0
0
0
0
0
0
0
0
0
0
0
0
0
0
0
0
0
0
0
0
0
0
0
0
0
0
0
0
0
0
0
0
0
0
0
0
0
0
0
0
0
0
0
0
0
0
0
0
0
0
0
0
0
0
0
0
0
0
0
0
0
0
0
0
0
0
0
0
0
0
0
0
0
0
0
0
0
0
0
0
0
0
0
0
0
0
0
0
0
0
0
0
0
0
0
0
0
0
0
0
0
0
0
0
0
0
0
0
0
0
0
0
0
0
0
0
0
0
0
0
0
0
0
0
0
0
0
0
0
0
0
0
0
0
0
0
0
0
0
0
0
0
0
0
0
0
0
0
0
0
0
0
0
0
0
0
0
0
0
0
0
0
0
0
0
0
0
0
0
0
0
0
0
0
0
0
0
0
0
0
0
0
0
0
0
0
0
0
0
0
0
0
0
0
0
0
0
0
0
0
0
0
0
0
0
0
0
0
0
0
0
0
0
0
0
0
0
0
0
0
0
0
0
0
0
0
0
0
0
0
0
0
0
0
0
0
0
0
0
0
0
0
0
0
0
0
0
0
0
0
0
0
0
0
0
0
0
0
0
0
0
0
0
0
0
0
0
0
0
0
0
0
0
0
0
0
0
0
0
0
0
0
0
0
0
0
0
0
0
0
0
0
0
0
0
0
0
0
0
0
0
0
0
0
0
0
0
0
0
0
0
0
0
0
0
0
0
0
0
0
0
0
0
0
0
0
0
0
0
0
0
0
0
0
0
0
0
0
0
0
0
0
0
0
0
0
0
0
0
0
0
0
0
0
0
0
0
0
0
2.89121401e-298
0
3.86050666e-295
0
5.00460017e-292
0
6.3046911e-289
0
7.72508601e-286
0
9.21370774e-283
0
1.07047705e-279
0
1.2123516e-276
0
1.33925436e-273
0
1.44389699e-270
0
1.52014699e-267
0
1.56362451e-264
0
1.57211096e-261
0
1.54571832e-258
0
1.4868045e-255
0
1.39965807e-252
0
1.29000671e-249
1.34884463e-251
1.16442413e-246
3.5707441e-248
1.02971612e-243
5.14205175e-245
8.92359849e-241
6.09909526e-242
7.58053053e-238
6.51705257e-239
6.3140703e-235
6.49536972e-236
5.15792884e-232
6.14359415e-233
4.13329523e-229
5.56927215e-230
3.24986396e-226
4.86890226e-227
2.50765607e-223
4.12228358e-224
1.89926379e-220
3.39005717e-221
1.41218639e-217
2.71386878e-218
1.03099771e-214
2.11839645e-215
7.39174052e-212
1.61446329e-212
5.20497321e-209
1.20255148e-209
3.60020914e-206
8.76195818e-207
2.44638307e-203
6.24918918e-204
1.63325607e-200
4.36539971e-201
1.07141673e-197
2.98823819e-198
6.90675244e-195
2.00529397e-195
4.37555902e-192
1.31967442e-192
2.72437071e-189
8.51949022e-190
1.66723454e-186
5.39674449e-187
1.00287304e-183
3.35520305e-184
5.92967698e-181
2.04765933e-181
3.44639612e-178
1.22692902e-178
1.96905521e-175
7.21878156e-176
1.10589743e-172
4.17100839e-173
6.10573618e-170
2.36696523e-170
3.31379537e-167
1.31931652e-167
1.76795948e-164
7.22332866e-165
9.27189793e-162
3.88485437e-162
4.77971135e-159
2.05244733e-159
2.4218908e-156
1.0652061e-156
1.2061647e-153
5.430725e-154
5.90382196e-151
2.71979837e-151
2.83991859e-148
1.33800169e-148
1.34243076e-145
6.46544246e-146
6.23525871e-143
3.06857263e-143
2.84546062e-140
1.43034383e-140
1.27567708e-137
6.54747864e-138
5.61783546e-135
2.94303513e-135
2.42986806e-132
1.29884392e-132
1.0321011e-129
5.6273687e-130
4.30450325e-127
2.39321403e-127
1.76244346e-124
9.98896248e-125
7.08309822e-122
4.09119958e-122
2.79361161e-119
1.64397355e-119
1.08107584e-116
6.47990618e-117
4.10393e-114
2.50484794e-114
1.52790686e-111
9.49368126e-112
5.57749678e-109
3.52714193e-109
1.99577727e-106
1.28420017e-106
6.99828861e-104
4.58080889e-104
2.40406853e-101
1.6003708e-101
8.08790639e-99
5.47429268e-99
2.66384515e-96
1.83279682e-96
8.58626508e-94
6.0036978e-94
2.70738317e-91
1.9233988e-91
8.34758541e-89
6.02395046e-89
2.5155926e-86
1.84355975e-86
7.40587761e-84
5.51042022e-84
2.12883869e-81
1.60781563e-81
5.97166676e-79
4.57685585e-79
1.63370413e-76
1.27032454e-76
4.35607e-74
3.43554341e-74
1.13124493e-71
9.04699152e-72
2.85911409e-69
2.31798829e-69
7.02692726e-67
5.77377675e-67
1.67793488e-64
1.39689556e-64
3.88905458e-62
3.27946744e-62
8.74015287e-60
7.463133e-60
1.90241569e-57
1.64444277e-57
4.00554648e-55
3.50388769e-55
8.14692253e-53
7.20968124e-53
1.59825392e-50
1.43039539e-50
3.01921331e-48
2.73174437e-48
5.48192208e-46
5.01253029e-46
9.54695622e-44
8.81865367e-44
1.59104617e-41
1.48409418e-41
2.53075587e-39
2.38281629e-39
3.83069514e-37
3.6390774e-37
5.49908218e-35
5.26841124e-35
7.4574195e-33
7.201874e-33
9.51033612e-31
9.25335497e-31
1.13445817e-28
1.11147341e-28
1.25777174e-26
1.24007177e-26
1.28617343e-24
1.27504572e-24
1.20167454e-22
1.19623218e-22
1.01376161e-20
1.0106989e-20
7.60612358e-19
7.5532609e-19
4.97450133e-17
4.87197284e-17
2.75833744e-15
2.71434265e-15
1.24433154e-13
1.24545076e-13
4.27895854e-12
4.27509764e-12
2.82356936e-09
2.85173978e-09
0.583032039
1.80827602
10.2400395
10.0425031
3.84098568
3.11932061
0.424085064
0.37136618
0.0699905461
0.0646123875
0.00998849236
0.00969323581
0.00129239621
0.00128737787
0.000158924645
0.000159565662
2.42088281e-05
2.42892255e-05
9.57713891e-06
9.57893998e-06
8.11044825e-06
8.11095647e-06
7.97532163e-06
7.97539231e-06
7.96374161e-06
7.96374395e-06
7.96280326e-06
7.96280957e-06
7.9627173e-06
7.96273615e-06
7.96272023e-06
7.96273306e-06
7.96271115e-06
7.96274697e-06
7.96270496e-06
7.96273068e-06
7.96272378e-06
7.96271358e-06
7.96272365e-06
7.96271848e-06
7.96272441e-06
7.96271431e-06
7.96273354e-06
7.96271484e-06
7.9627281e-06
7.96272181e-06
7.96273139e-06
7.96272145e-06
7.96272372e-06
7.96271919e-06
7.96273072e-06
7.96271453e-06
7.96273481e-06
7.96271725e-06
7.96272721e-06
7.96273005e-06
7.96272052e-06
7.96272709e-06
7.96272092e-06
7.9627213e-06
7.96272145e-06
7.96272658e-06
7.9627186e-06
7.96272503e-06
7.96272597e-06
7.96272137e-06
7.96272818e-06
7.96272118e-06
7.96272128e-06
7.96271225e-06
7.96272261e-06
7.96271722e-06
7.96271476e-06
7.96273172e-06
7.96271239e-06
7.96273839e-06
7.96272131e-06
7.96273665e-06
7.96272517e-06
7.9627301e-06
7.96272155e-06
7.9627328e-06
7.96271655e-06
7.96273607e-06
7.96271623e-06
7.96273154e-06
7.96272312e-06
7.96271474e-06
7.96272811e-06
7.96271098e-06
7.96273772e-06
7.96272145e-06
7.96272666e-06
7.96272317e-06
7.96273619e-06
7.96272564e-06
7.96272186e-06
7.96272821e-06
7.96273013e-06
7.96272878e-06
7.96273001e-06
7.96272417e-06
7.96272968e-06
7.96273922e-06
7.96272081e-06
7.96272702e-06
7.96272658e-06
7.96273036e-06
7.9627167e-06
7.96273274e-06
7.96272018e-06
7.96271411e-06
7.96272566e-06
7.96272502e-06
7.96271662e-06
7.96272506e-06
7.96272455e-06
7.9627318e-06
7.96272394e-06
7.96272962e-06
7.96272274e-06
7.96273008e-06
7.96271782e-06
7.96273846e-06
7.962721e-06
7.96273054e-06
7.96272017e-06
7.96273499e-06
7.96272012e-06
7.96273682e-06
7.96272109e-06
7.96272626e-06
7.96273697e-06
7.96273631e-06
7.9627376e-06
7.96272488e-06
7.9627446e-06
7.96272233e-06
7.9627385e-06
7.96271927e-06
7.96272934e-06
7.9627202e-06
7.96272257e-06
7.96272354e-06
7.96272741e-06
7.96272184e-06
7.96272595e-06
7.96271917e-06
7.96273348e-06
7.9627221e-06
7.96273768e-06
7.96270983e-06
7.96274163e-06
7.96271765e-06
7.96273563e-06
7.96272877e-06
7.96273003e-06
7.96272377e-06
7.96273664e-06
7.96273676e-06
7.96273873e-06
7.9627242e-06
7.96274122e-06
7.96272336e-06
7.9627375e-06
7.96273272e-06
7.96272655e-06
7.96272692e-06
7.96273225e-06
7.96271909e-06
7.96273474e-06
7.96271759e-06
7.96272519e-06
7.96272548e-06
7.9627336e-06
7.96272826e-06
7.96273653e-06
7.96273534e-06
7.96272562e-06
7.96274767e-06
7.96273531e-06
7.96274302e-06
7.96273994e-06
7.96273672e-06
7.9627338e-06
7.96273087e-06
7.96272853e-06
7.96273051e-06
7.96272665e-06
7.96273882e-06
7.96273418e-06
7.9627232e-06
7.96274108e-06
7.96273047e-06
7.96273906e-06
7.96272994e-06
7.96273567e-06
7.96272603e-06
7.96273748e-06
7.96272173e-06
7.96274269e-06
7.96273182e-06
7.96273559e-06
7.96272559e-06
7.96273859e-06
7.96273057e-06
7.96273533e-06
7.96273123e-06
7.96274696e-06
7.96273524e-06
7.96274298e-06
7.96272869e-06
7.96274333e-06
7.96273444e-06
7.96273242e-06
7.9627406e-06
7.96273074e-06
7.96273866e-06
7.96273314e-06
7.96274201e-06
7.9627311e-06
7.96273592e-06
7.96272916e-06
7.96273314e-06
7.96273276e-06
7.96272329e-06
7.96274043e-06
7.96273259e-06
7.96273633e-06
7.96274061e-06
7.96273777e-06
7.96273117e-06
7.96273793e-06
7.9627422e-06
7.96273562e-06
7.96273529e-06
7.96273801e-06
7.96273973e-06
7.96274154e-06
7.96274696e-06
7.9627365e-06
7.96274701e-06
7.962739e-06
7.96273793e-06
7.96273066e-06
7.96274598e-06
7.96273011e-06
7.96273883e-06
7.96272925e-06
7.9627295e-06
7.96273959e-06
7.96273739e-06
7.9627387e-06
7.96273605e-06
7.96273185e-06
7.96274286e-06
7.96273414e-06
7.96274614e-06
7.96274262e-06
7.96273105e-06
7.96274179e-06
7.962744e-06
7.96273787e-06
7.96273659e-06
7.96275425e-06
7.96273214e-06
7.96273652e-06
7.96273326e-06
7.96274248e-06
7.96272341e-06
7.96275134e-06
7.96272936e-06
7.96273512e-06
7.96274206e-06
7.96273563e-06
7.96275164e-06
7.96273732e-06
7.96274328e-06
7.96274119e-06
7.96273897e-06
7.96274066e-06
7.96273441e-06
7.96273971e-06
7.96274083e-06
7.96273521e-06
7.96273241e-06
7.96273604e-06
7.96273005e-06
7.96273748e-06
7.96274279e-06
7.96273556e-06
7.9627398e-06
7.96273727e-06
7.96274322e-06
7.96274004e-06
7.96273279e-06
7.96273011e-06
7.96274344e-06
7.96274444e-06
7.96274349e-06
7.96273984e-06
7.96274134e-06
7.96273877e-06
7.96274506e-06
7.96273516e-06
7.9627464e-06
7.96274476e-06
7.96273651e-06
7.96274595e-06
7.96274839e-06
7.96274458e-06
7.96274242e-06
7.96274077e-06
7.9627412e-06
7.96273427e-06
7.96274355e-06
7.96274741e-06
7.96272904e-06
7.96275712e-06
7.96273418e-06
7.96274731e-06
7.96273771e-06
7.96274976e-06
7.9627372e-06
7.96274277e-06
7.96274214e-06
7.96274087e-06
7.96274711e-06
7.96274305e-06
7.96274829e-06
7.96273905e-06
7.96274353e-06
7.96274155e-06
7.96273808e-06
7.96274324e-06
7.96273623e-06
7.96274974e-06
7.96274387e-06
7.96273278e-06
7.96274858e-06
7.96273648e-06
7.9627435e-06
7.96273918e-06
7.96274716e-06
7.96274338e-06
7.96274923e-06
7.96273955e-06
7.96274657e-06
7.96274392e-06
7.96273726e-06
7.96274957e-06
7.96274932e-06
7.96273479e-06
7.96274143e-06
7.96275062e-06
7.96273345e-06
7.96275494e-06
7.96274084e-06
7.96273918e-06
7.9627453e-06
7.96274779e-06
7.96273874e-06
7.96275139e-06
7.96274215e-06
7.96274344e-06
7.96275051e-06
7.96274729e-06
7.96275349e-06
7.96274891e-06
7.96275694e-06
7.96274938e-06
7.96275205e-06
7.96274914e-06
7.96275082e-06
7.9627404e-06
7.96274841e-06
7.9627414e-06
7.96274685e-06
7.96275054e-06
7.96274603e-06
7.96274887e-06
7.96274916e-06
7.96275302e-06
7.96274303e-06
7.96274936e-06
7.96273337e-06
7.9627502e-06
7.96274205e-06
7.96274305e-06
7.96275179e-06
7.96274097e-06
7.96274806e-06
7.96274499e-06
7.9627424e-06
7.96275372e-06
7.96274866e-06
7.96275841e-06
7.96275079e-06
7.96274743e-06
7.96274681e-06
7.96274707e-06
7.96274862e-06
7.96273612e-06
7.96276342e-06
7.96273925e-06
7.96275511e-06
7.96274045e-06
7.96275788e-06
7.96275085e-06
7.96274829e-06
7.96275299e-06
7.96275362e-06
7.96274778e-06
7.96275264e-06
7.96275225e-06
7.96275048e-06
7.96275461e-06
7.96274706e-06
7.96274891e-06
7.96275156e-06
7.96274735e-06
7.96275592e-06
7.96274617e-06
7.96275572e-06
7.96275843e-06
7.96275045e-06
7.96275343e-06
7.96275752e-06
7.9627481e-06
7.96275943e-06
7.96275288e-06
7.96275429e-06
7.96275535e-06
7.96275878e-06
7.96275727e-06
7.96275578e-06
7.96275046e-06
7.96276664e-06
7.96275188e-06
7.9627646e-06
7.96275052e-06
7.96275952e-06
7.96274686e-06
7.96275734e-06
7.96275918e-06
7.96275394e-06
7.96275186e-06
7.96276732e-06
7.96275584e-06
7.96275184e-06
7.96275405e-06
7.9627538e-06
7.9627559e-06
7.96275099e-06
7.96275831e-06
7.96276419e-06
7.96274683e-06
7.96276043e-06
7.96275022e-06
7.96275484e-06
7.96275315e-06
7.96276433e-06
7.96274598e-06
7.9627603e-06
7.96275428e-06
7.96276498e-06
7.96276039e-06
7.96274939e-06
7.96276145e-06
7.96275557e-06
7.96276778e-06
7.96275082e-06
7.96275579e-06
7.96277119e-06
7.96273772e-06
7.96277255e-06
7.96274812e-06
7.96276741e-06
7.96274745e-06
7.96276226e-06
7.96275291e-06
7.96275958e-06
7.9627525e-06
7.9627565e-06
7.96275282e-06
7.96275855e-06
7.96276041e-06
7.96275043e-06
7.96276453e-06
7.96275409e-06
7.96276792e-06
7.96275986e-06
7.96276384e-06
7.96275806e-06
7.96277475e-06
7.96274688e-06
7.96276855e-06
7.96274299e-06
7.96277488e-06
7.96274442e-06
7.9627706e-06
7.96274943e-06
7.96277448e-06
7.96275737e-06
7.96276311e-06
7.96276336e-06
7.96276054e-06
7.9627679e-06
7.96276401e-06
7.96276119e-06
7.96276367e-06
7.9627615e-06
7.96276433e-06
7.9627658e-06
7.962767e-06
7.96276614e-06
7.96276234e-06
7.96276652e-06
7.96276488e-06
7.9627638e-06
7.96276795e-06
7.96276765e-06
7.96276827e-06
7.96276802e-06
7.96276823e-06
7.9627684e-06
7.9627698e-06
7.96277054e-06
7.96277068e-06
7.96277158e-06
7.96277193e-06
7.96277301e-06
7.96277377e-06
7.96277383e-06
7.96277492e-06
7.96277539e-06
7.96277512e-06
7.96277574e-06
7.96277631e-06
7.96277686e-06
7.9627769e-06
7.96277692e-06
7.96277736e-06
7.96277718e-06
7.96277727e-06
7.9627774e-06
7.96277751e-06
7.96277707e-06
7.96277755e-06
7.96277728e-06
7.96277732e-06
7.96277736e-06
7.96277741e-06
7.96277739e-06
7.96277756e-06
7.96277742e-06
7.96277743e-06
7.96277728e-06
7.96277713e-06
7.96277749e-06
7.96277728e-06
7.96277734e-06
7.96277743e-06
7.96277735e-06
7.96277749e-06
7.96277741e-06
7.96277738e-06
7.96277756e-06
7.96277732e-06
7.96277743e-06
7.96277727e-06
7.96277752e-06
7.96277744e-06
7.96277733e-06
7.96277746e-06
7.96277726e-06
7.96277721e-06
7.96277757e-06
)
;

boundaryField
{
    closed
    {
        type            calculated;
        value           uniform 0;
    }
    open
    {
        type            calculated;
        value           uniform 0;
    }
    sides
    {
        type            empty;
    }
}


// ************************************************************************* //
