/*--------------------------------*- C++ -*----------------------------------*\
| =========                 |                                                 |
| \\      /  F ield         | OpenFOAM: The Open Source CFD Toolbox           |
|  \\    /   O peration     | Version:  2206                                  |
|   \\  /    A nd           | Website:  www.openfoam.com                      |
|    \\/     M anipulation  |                                                 |
\*---------------------------------------------------------------------------*/
FoamFile
{
    version     2.0;
    format      ascii;
    arch        "LSB;label=32;scalar=64";
    class       volVectorField;
    location    "9.2e-06";
    object      U;
}
// * * * * * * * * * * * * * * * * * * * * * * * * * * * * * * * * * * * * * //

dimensions      [0 1 -1 0 0 0 0];

internalField   nonuniform List<vector> 
3183
(
(2.43149857e-13 0 0)
(-3.42344763e-14 0 0)
(-1.45997758e-13 0 0)
(-8.97857584e-14 0 0)
(-9.86733342e-14 0 0)
(-3.65812883e-18 0 0)
(-2.89075398e-19 0 0)
(-1.65992309e-23 0 0)
(8.55729349e-24 0 0)
(1.25629591e-19 0 0)
(3.60648726e-18 0 0)
(8.09991227e-14 0 0)
(3.81814122e-13 0 0)
(1.06252762e-13 0 0)
(-2.09307417e-14 0 0)
(2.20962973e-14 0 0)
(-6.19868012e-14 0 0)
(-3.13546264e-13 0 0)
(-6.93809773e-13 0 0)
(-4.56918912e-15 0 0)
(3.60346349e-13 0 0)
(8.86941778e-17 0 0)
(2.05012114e-17 0 0)
(1.38205134e-13 0 0)
(2.55921598e-13 0 0)
(3.61120055e-13 0 0)
(4.44092157e-13 0 0)
(3.72569178e-13 0 0)
(-1.38858312e-14 0 0)
(1.94863773e-13 0 0)
(-2.6027664e-13 0 0)
(-3.65678681e-13 0 0)
(-6.47037667e-13 0 0)
(-5.79255941e-13 0 0)
(-3.8720097e-13 0 0)
(-7.17732412e-14 0 0)
(-1.60585265e-13 0 0)
(-2.58952808e-13 0 0)
(-7.18349929e-14 0 0)
(-8.77227863e-14 0 0)
(-3.14858196e-13 0 0)
(-3.44627514e-13 0 0)
(-1.33332609e-15 0 0)
(-3.972526e-13 0 0)
(-2.58185246e-13 0 0)
(-1.52520037e-13 0 0)
(-2.86390941e-13 0 0)
(-1.877538e-13 0 0)
(-2.55780772e-13 0 0)
(-8.28465839e-14 0 0)
(2.16310225e-14 0 0)
(4.36637502e-13 0 0)
(2.68047343e-13 0 0)
(5.87469261e-13 0 0)
(9.06409878e-13 0 0)
(6.54030424e-13 0 0)
(8.88917833e-13 0 0)
(9.99483767e-13 0 0)
(1.08504316e-12 0 0)
(1.3128696e-12 0 0)
(1.49487601e-12 0 0)
(1.60948124e-12 0 0)
(1.85112632e-12 0 0)
(1.87332152e-12 0 0)
(2.27543381e-12 0 0)
(2.57756208e-12 0 0)
(2.42658311e-12 0 0)
(2.70839798e-12 0 0)
(3.03802809e-12 0 0)
(2.45158938e-12 0 0)
(2.71372918e-12 0 0)
(2.59818971e-12 0 0)
(2.37242897e-12 0 0)
(2.3034401e-12 0 0)
(2.219383e-12 0 0)
(1.52080911e-12 0 0)
(1.67801843e-12 0 0)
(1.68405933e-12 0 0)
(1.27812174e-12 0 0)
(1.15105897e-12 0 0)
(1.11907645e-12 0 0)
(1.0322609e-12 0 0)
(1.41861745e-12 0 0)
(2.27838555e-13 0 0)
(9.10236764e-13 0 0)
(7.65764582e-13 0 0)
(3.9251753e-13 0 0)
(2.00294494e-13 0 0)
(1.0406805e-12 0 0)
(3.9654201e-13 0 0)
(-7.4944084e-13 0 0)
(-9.51411776e-13 0 0)
(8.08632201e-14 0 0)
(-8.98011929e-13 0 0)
(-9.37608293e-13 0 0)
(-3.91596784e-13 0 0)
(-2.09047035e-12 0 0)
(-4.08186522e-13 0 0)
(-7.10581714e-13 0 0)
(-1.07515504e-12 0 0)
(3.86223324e-13 0 0)
(-4.72279943e-13 0 0)
(2.47793911e-14 0 0)
(-9.85253629e-13 0 0)
(-1.45329957e-12 0 0)
(-1.07699868e-12 0 0)
(-1.11233133e-12 0 0)
(-6.07096716e-13 0 0)
(-2.12070512e-12 0 0)
(-1.47552259e-12 0 0)
(-6.22797191e-13 0 0)
(-1.83289553e-12 0 0)
(-6.89065977e-13 0 0)
(-2.32532739e-12 0 0)
(-2.68211994e-12 0 0)
(-8.97195846e-13 0 0)
(-2.84328852e-12 0 0)
(-1.49098472e-12 0 0)
(-2.71831344e-12 0 0)
(-3.69937452e-12 0 0)
(-2.28324121e-12 0 0)
(-2.2181545e-12 0 0)
(-2.3313712e-12 0 0)
(-2.62776762e-12 0 0)
(-2.95549144e-12 0 0)
(-2.83984743e-12 0 0)
(-2.03705489e-12 0 0)
(-2.91666241e-12 0 0)
(-1.37234274e-12 0 0)
(-2.75396614e-12 0 0)
(-3.06778297e-12 0 0)
(-2.69896529e-12 0 0)
(-3.19999188e-12 0 0)
(-3.51014662e-12 0 0)
(-1.95553072e-12 0 0)
(-3.95628184e-12 0 0)
(-3.93255835e-12 0 0)
(-3.53138824e-12 0 0)
(-3.32059177e-12 0 0)
(-3.36219468e-12 0 0)
(-3.18626771e-12 0 0)
(-3.51108012e-12 0 0)
(-3.31897316e-12 0 0)
(-4.34682963e-12 0 0)
(-2.90644327e-12 0 0)
(-4.10932893e-12 0 0)
(-3.33993523e-12 0 0)
(-4.79717615e-12 0 0)
(-3.8827759e-12 0 0)
(-3.55483945e-12 0 0)
(-4.54821247e-12 0 0)
(-3.31576615e-12 0 0)
(-3.72625618e-12 0 0)
(-4.2235805e-12 0 0)
(-4.5930544e-12 0 0)
(-3.86512433e-12 0 0)
(-3.73341446e-12 0 0)
(-4.26684169e-12 0 0)
(-4.07572096e-12 0 0)
(-4.82913069e-12 0 0)
(-4.91215211e-12 0 0)
(-5.62623755e-12 0 0)
(-4.42685406e-12 0 0)
(-4.26720855e-12 0 0)
(-5.2975882e-12 0 0)
(-5.54383906e-12 0 0)
(-5.63533977e-12 0 0)
(-5.64627808e-12 0 0)
(-5.0759496e-12 0 0)
(-5.70385065e-12 0 0)
(-5.5234479e-12 0 0)
(-5.19041825e-12 0 0)
(-6.06086085e-12 0 0)
(-5.26839331e-12 0 0)
(-4.82886751e-12 0 0)
(-5.09364709e-12 0 0)
(-4.66107346e-12 0 0)
(-5.44537852e-12 0 0)
(-5.35533316e-12 0 0)
(-6.26810407e-12 0 0)
(-5.82613031e-12 0 0)
(-6.73882544e-12 0 0)
(-5.57478344e-12 0 0)
(-6.04704711e-12 0 0)
(-7.45185421e-12 0 0)
(-6.51512701e-12 0 0)
(-6.50188032e-12 0 0)
(-7.20627382e-12 0 0)
(-5.98385327e-12 0 0)
(-6.01939652e-12 0 0)
(-7.3878871e-12 0 0)
(-6.53045783e-12 0 0)
(-6.77065173e-12 0 0)
(-6.12665965e-12 0 0)
(-7.32724879e-12 0 0)
(-6.56912952e-12 0 0)
(-6.59880047e-12 0 0)
(-6.86582245e-12 0 0)
(-7.36045397e-12 0 0)
(-8.62147233e-12 0 0)
(-7.785609e-12 0 0)
(-8.369575e-12 0 0)
(-6.67066079e-12 0 0)
(-7.78284392e-12 0 0)
(-8.55759109e-12 0 0)
(-7.63163603e-12 0 0)
(-8.25883979e-12 0 0)
(-7.3912084e-12 0 0)
(-9.16812015e-12 0 0)
(-7.36182342e-12 0 0)
(-9.18458483e-12 0 0)
(-9.57816054e-12 0 0)
(-8.00788093e-12 0 0)
(-1.02712584e-11 0 0)
(-8.53628123e-12 0 0)
(-9.15508396e-12 0 0)
(-9.11565268e-12 0 0)
(-9.51324066e-12 0 0)
(-8.0197082e-12 0 0)
(-8.85375832e-12 0 0)
(-8.10943598e-12 0 0)
(-9.6803269e-12 0 0)
(-9.69662443e-12 0 0)
(-7.67360028e-12 0 0)
(-8.80926417e-12 0 0)
(-8.7553046e-12 0 0)
(-9.1019079e-12 0 0)
(-8.61444449e-12 0 0)
(-9.96450113e-12 0 0)
(-8.53822361e-12 0 0)
(-9.12289393e-12 0 0)
(-9.15991991e-12 0 0)
(-8.66638939e-12 0 0)
(-9.53398857e-12 0 0)
(-9.47050138e-12 0 0)
(-8.70925168e-12 0 0)
(-9.43570346e-12 0 0)
(-9.81292379e-12 0 0)
(-9.80156116e-12 0 0)
(-9.79253811e-12 0 0)
(-9.5033544e-12 0 0)
(-1.00411639e-11 0 0)
(-9.65115132e-12 0 0)
(-9.41933823e-12 0 0)
(-9.44440305e-12 0 0)
(-1.00594038e-11 0 0)
(-9.0753884e-12 0 0)
(-9.16219086e-12 0 0)
(-9.6394516e-12 0 0)
(-9.33474151e-12 0 0)
(-8.88529261e-12 0 0)
(-9.29335048e-12 0 0)
(-9.52481814e-12 0 0)
(-9.68905032e-12 0 0)
(-1.00651942e-11 0 0)
(-1.00995262e-11 0 0)
(-9.0987298e-12 0 0)
(-9.01010167e-12 0 0)
(-8.79834488e-12 0 0)
(-9.55576116e-12 0 0)
(-9.68534172e-12 0 0)
(-9.51007611e-12 0 0)
(-9.77166868e-12 0 0)
(-8.83597405e-12 0 0)
(-9.88795917e-12 0 0)
(-9.91874525e-12 0 0)
(-1.05390396e-11 0 0)
(-1.08396664e-11 0 0)
(-1.12881974e-11 0 0)
(-1.00945023e-11 0 0)
(-1.04704097e-11 0 0)
(-1.12007448e-11 0 0)
(-1.13761186e-11 0 0)
(-1.12717218e-11 0 0)
(-1.15302885e-11 0 0)
(-1.0104937e-11 0 0)
(-1.1223564e-11 0 0)
(-1.20241301e-11 0 0)
(-1.08224036e-11 0 0)
(-1.03150039e-11 0 0)
(-1.0884823e-11 0 0)
(-1.18939918e-11 0 0)
(-1.15042336e-11 0 0)
(-1.14077974e-11 0 0)
(-1.15128172e-11 0 0)
(-1.1950691e-11 0 0)
(-1.17768724e-11 0 0)
(-1.27035642e-11 0 0)
(-1.21049799e-11 0 0)
(-1.24426993e-11 0 0)
(-1.18694365e-11 0 0)
(-1.23147309e-11 0 0)
(-1.13318179e-11 0 0)
(-1.26079624e-11 0 0)
(-1.16436875e-11 0 0)
(-1.24452099e-11 0 0)
(-1.3388994e-11 0 0)
(-1.25938495e-11 0 0)
(-1.29192373e-11 0 0)
(-1.42797013e-11 0 0)
(-1.36054488e-11 0 0)
(-1.38305011e-11 0 0)
(-1.25141914e-11 0 0)
(-1.44174549e-11 0 0)
(-1.46768643e-11 0 0)
(-1.41859163e-11 0 0)
(-1.31554596e-11 0 0)
(-1.41590079e-11 0 0)
(-1.53108798e-11 0 0)
(-1.31579175e-11 0 0)
(-1.41569334e-11 0 0)
(-1.47848853e-11 0 0)
(-1.32457316e-11 0 0)
(-1.3208092e-11 0 0)
(-1.39834354e-11 0 0)
(-1.35446182e-11 0 0)
(-1.4574423e-11 0 0)
(-1.44243127e-11 0 0)
(-1.31815753e-11 0 0)
(-1.45062553e-11 0 0)
(-1.41840546e-11 0 0)
(-1.36591261e-11 0 0)
(-1.37810644e-11 0 0)
(-1.32398275e-11 0 0)
(-1.4786196e-11 0 0)
(-1.27586902e-11 0 0)
(-1.38499628e-11 0 0)
(-1.32213993e-11 0 0)
(-1.38382007e-11 0 0)
(-1.4051287e-11 0 0)
(-1.2721292e-11 0 0)
(-1.46283286e-11 0 0)
(-1.38009544e-11 0 0)
(-1.2955996e-11 0 0)
(-1.22993387e-11 0 0)
(-1.29092466e-11 0 0)
(-1.29570125e-11 0 0)
(-1.38051489e-11 0 0)
(-1.28045689e-11 0 0)
(-1.24385532e-11 0 0)
(-1.30419006e-11 0 0)
(-1.30593029e-11 0 0)
(-1.27729408e-11 0 0)
(-1.20023176e-11 0 0)
(-1.20560291e-11 0 0)
(-1.21136468e-11 0 0)
(-1.44332409e-11 0 0)
(-1.2082374e-11 0 0)
(-1.39814523e-11 0 0)
(-1.35548415e-11 0 0)
(-1.32173908e-11 0 0)
(-1.42761136e-11 0 0)
(-1.359084e-11 0 0)
(-1.35431484e-11 0 0)
(-1.26842318e-11 0 0)
(-1.29725643e-11 0 0)
(-1.45153767e-11 0 0)
(-1.2770507e-11 0 0)
(-1.37347515e-11 0 0)
(-1.30584804e-11 0 0)
(-1.2955564e-11 0 0)
(-1.27927695e-11 0 0)
(-1.43131245e-11 0 0)
(-1.30441474e-11 0 0)
(-1.26333984e-11 0 0)
(-1.35996663e-11 0 0)
(-1.28539211e-11 0 0)
(-1.36695762e-11 0 0)
(-1.20805948e-11 0 0)
(-1.27829664e-11 0 0)
(-1.17049161e-11 0 0)
(-1.36911307e-11 0 0)
(-1.20820967e-11 0 0)
(-1.27042058e-11 0 0)
(-1.26193017e-11 0 0)
(-1.32507527e-11 0 0)
(-1.31257419e-11 0 0)
(-1.14878031e-11 0 0)
(-1.29357654e-11 0 0)
(-1.18412187e-11 0 0)
(-1.18491814e-11 0 0)
(-1.18356618e-11 0 0)
(-1.20943765e-11 0 0)
(-1.16963884e-11 0 0)
(-1.17449814e-11 0 0)
(-1.17049776e-11 0 0)
(-1.14218213e-11 0 0)
(-1.15317002e-11 0 0)
(-1.14320302e-11 0 0)
(-1.05696076e-11 0 0)
(-1.1312629e-11 0 0)
(-1.13497843e-11 0 0)
(-1.11945112e-11 0 0)
(-1.07395899e-11 0 0)
(-1.11166411e-11 0 0)
(-1.01841264e-11 0 0)
(-1.13117317e-11 0 0)
(-1.13170614e-11 0 0)
(-1.03558322e-11 0 0)
(-9.26186664e-12 0 0)
(-9.38302316e-12 0 0)
(-9.79035585e-12 0 0)
(-9.15036693e-12 0 0)
(-1.03631133e-11 0 0)
(-8.81165419e-12 0 0)
(-8.82633641e-12 0 0)
(-8.14582057e-12 0 0)
(-1.02698331e-11 0 0)
(-9.06034828e-12 0 0)
(-8.99039201e-12 0 0)
(-9.01252066e-12 0 0)
(-7.92711761e-12 0 0)
(-8.02510224e-12 0 0)
(-9.16753637e-12 0 0)
(-8.58030212e-12 0 0)
(-8.4164542e-12 0 0)
(-8.37375969e-12 0 0)
(-8.53353414e-12 0 0)
(-8.92752931e-12 0 0)
(-8.44376551e-12 0 0)
(-6.91375177e-12 0 0)
(-7.50501143e-12 0 0)
(-7.65128799e-12 0 0)
(-7.27747132e-12 0 0)
(-8.20747705e-12 0 0)
(-7.48362687e-12 0 0)
(-6.60272904e-12 0 0)
(-7.01408045e-12 0 0)
(-8.0490176e-12 0 0)
(-6.25502796e-12 0 0)
(-6.74788196e-12 0 0)
(-8.02055183e-12 0 0)
(-7.61922784e-12 0 0)
(-7.1734961e-12 0 0)
(-6.76674533e-12 0 0)
(-6.46327513e-12 0 0)
(-7.05814567e-12 0 0)
(-6.23120713e-12 0 0)
(-5.90813886e-12 0 0)
(-6.34664563e-12 0 0)
(-5.68229032e-12 0 0)
(-7.22645001e-12 0 0)
(-5.66275323e-12 0 0)
(-6.1904437e-12 0 0)
(-6.17652423e-12 0 0)
(-7.29911049e-12 0 0)
(-6.10439133e-12 0 0)
(-6.86582828e-12 0 0)
(-6.70877904e-12 0 0)
(-5.90357345e-12 0 0)
(-6.79615012e-12 0 0)
(-6.3256296e-12 0 0)
(-6.58592674e-12 0 0)
(-7.83848865e-12 0 0)
(-7.42296209e-12 0 0)
(-5.58570824e-12 0 0)
(-6.26008001e-12 0 0)
(-7.29087597e-12 0 0)
(-6.08369095e-12 0 0)
(-5.7724431e-12 0 0)
(-5.9639449e-12 0 0)
(-6.63911416e-12 0 0)
(-5.70957681e-12 0 0)
(-4.96202658e-12 0 0)
(-6.79179122e-12 0 0)
(-6.06996354e-12 0 0)
(-4.24199458e-12 0 0)
(-5.74479729e-12 0 0)
(-5.27466826e-12 0 0)
(-5.52510029e-12 0 0)
(-4.331349e-12 0 0)
(-4.48240855e-12 0 0)
(-4.49501454e-12 0 0)
(-4.84992852e-12 0 0)
(-3.72577003e-12 0 0)
(-3.4930349e-12 0 0)
(-4.10690946e-12 0 0)
(-4.92433666e-12 0 0)
(-3.59317947e-12 0 0)
(-4.60873571e-12 0 0)
(-4.33876418e-12 0 0)
(-4.77385073e-12 0 0)
(-3.77090164e-12 0 0)
(-4.26562678e-12 0 0)
(-4.18750005e-12 0 0)
(-4.03961802e-12 0 0)
(-4.17973756e-12 0 0)
(-4.59304331e-12 0 0)
(-4.27527824e-12 0 0)
(-3.49551351e-12 0 0)
(-4.67506139e-12 0 0)
(-3.70857837e-12 0 0)
(-5.92218052e-12 0 0)
(-3.50738437e-12 0 0)
(-3.94846347e-12 0 0)
(-5.25772959e-12 0 0)
(-3.6682989e-12 0 0)
(-4.57853144e-12 0 0)
(-3.89673878e-12 0 0)
(-4.5644129e-12 0 0)
(-3.47898306e-12 0 0)
(-3.37155914e-12 0 0)
(-2.44270514e-12 0 0)
(-3.25919519e-12 0 0)
(-2.57511273e-12 0 0)
(-3.53512323e-12 0 0)
(-3.04832207e-12 0 0)
(-2.74870661e-12 0 0)
(-2.18179723e-12 0 0)
(-3.68165018e-12 0 0)
(-2.19778737e-12 0 0)
(-3.73052304e-12 0 0)
(-2.61972499e-12 0 0)
(-2.77654313e-12 0 0)
(-3.11761824e-12 0 0)
(-2.65625937e-12 0 0)
(-2.43406649e-12 0 0)
(-1.23347314e-12 0 0)
(-1.9105321e-12 0 0)
(-7.35010317e-13 0 0)
(-2.33080992e-12 0 0)
(-1.17169039e-12 0 0)
(-1.79605358e-12 0 0)
(-1.59257702e-12 0 0)
(-1.67034985e-12 0 0)
(-3.09136844e-13 0 0)
(-1.38914793e-12 0 0)
(2.42411156e-14 0 0)
(-7.63638785e-13 0 0)
(-1.90405417e-12 0 0)
(-1.15512821e-12 0 0)
(-1.58944731e-12 0 0)
(-1.21011028e-12 0 0)
(-1.59142257e-12 0 0)
(-7.56367265e-13 0 0)
(-1.28317319e-12 0 0)
(-1.08455475e-12 0 0)
(-4.12886712e-13 0 0)
(-1.18851491e-12 0 0)
(-1.71773655e-12 0 0)
(-1.63389124e-14 0 0)
(-3.55360638e-13 0 0)
(-5.25628882e-13 0 0)
(6.18639274e-13 0 0)
(-2.0281921e-13 0 0)
(3.05367583e-13 0 0)
(-6.30261347e-13 0 0)
(7.740955e-13 0 0)
(5.90119477e-13 0 0)
(-5.27302399e-13 0 0)
(-1.0306333e-13 0 0)
(1.10164987e-12 0 0)
(1.06203375e-12 0 0)
(6.95607925e-13 0 0)
(1.64401596e-13 0 0)
(8.00462845e-13 0 0)
(1.17239814e-12 0 0)
(7.58326815e-13 0 0)
(1.17315413e-12 0 0)
(-4.72286472e-13 0 0)
(6.50683412e-14 0 0)
(2.90497483e-13 0 0)
(1.14973408e-12 0 0)
(9.51082607e-13 0 0)
(3.65141776e-14 0 0)
(9.54393186e-13 0 0)
(1.18198863e-12 0 0)
(6.60875552e-13 0 0)
(1.55167201e-12 0 0)
(1.12762944e-12 0 0)
(1.60467515e-12 0 0)
(8.39154427e-13 0 0)
(1.63046954e-12 0 0)
(2.66536036e-12 0 0)
(2.1767564e-12 0 0)
(1.40955818e-12 0 0)
(1.38104417e-12 0 0)
(1.83554368e-12 0 0)
(1.15809473e-12 0 0)
(2.52607254e-12 0 0)
(1.03881052e-12 0 0)
(2.2769196e-12 0 0)
(1.53061901e-12 0 0)
(1.98609343e-12 0 0)
(1.72492763e-12 0 0)
(1.82220805e-12 0 0)
(2.65056044e-12 0 0)
(2.94692044e-12 0 0)
(2.20458448e-12 0 0)
(1.74369045e-12 0 0)
(2.6442517e-12 0 0)
(2.64994504e-12 0 0)
(1.98308249e-12 0 0)
(1.77830969e-12 0 0)
(2.81858298e-12 0 0)
(1.76071717e-12 0 0)
(2.21844443e-12 0 0)
(2.96625108e-12 0 0)
(3.46091343e-12 0 0)
(3.37868289e-12 0 0)
(3.38786658e-12 0 0)
(2.73574141e-12 0 0)
(3.41683566e-12 0 0)
(3.99883119e-12 0 0)
(3.23674154e-12 0 0)
(3.8952072e-12 0 0)
(4.22279454e-12 0 0)
(3.31849587e-12 0 0)
(3.48284027e-12 0 0)
(3.50955937e-12 0 0)
(3.97707946e-12 0 0)
(3.4879508e-12 0 0)
(4.0590709e-12 0 0)
(3.58713663e-12 0 0)
(4.50623859e-12 0 0)
(4.27863797e-12 0 0)
(4.43717965e-12 0 0)
(4.22336634e-12 0 0)
(4.03666388e-12 0 0)
(4.83667052e-12 0 0)
(5.15286533e-12 0 0)
(4.35041725e-12 0 0)
(4.3106445e-12 0 0)
(4.04852882e-12 0 0)
(4.98423785e-12 0 0)
(5.21902122e-12 0 0)
(4.00743824e-12 0 0)
(3.70972578e-12 0 0)
(4.36282787e-12 0 0)
(4.55236607e-12 0 0)
(4.96654818e-12 0 0)
(3.9478786e-12 0 0)
(4.52196166e-12 0 0)
(4.4414055e-12 0 0)
(4.63060203e-12 0 0)
(5.06629122e-12 0 0)
(4.83782436e-12 0 0)
(5.13829553e-12 0 0)
(4.23956611e-12 0 0)
(5.35640457e-12 0 0)
(4.11314796e-12 0 0)
(4.25924351e-12 0 0)
(5.35520508e-12 0 0)
(4.05467343e-12 0 0)
(4.7927545e-12 0 0)
(3.84429355e-12 0 0)
(4.52623173e-12 0 0)
(4.35247872e-12 0 0)
(4.52832083e-12 0 0)
(4.40505766e-12 0 0)
(5.42770879e-12 0 0)
(4.68637119e-12 0 0)
(4.612457e-12 0 0)
(5.08370674e-12 0 0)
(5.17796509e-12 0 0)
(4.9172526e-12 0 0)
(5.09640743e-12 0 0)
(5.05879388e-12 0 0)
(4.64679536e-12 0 0)
(5.33842358e-12 0 0)
(4.40808994e-12 0 0)
(5.67313667e-12 0 0)
(5.19220715e-12 0 0)
(6.14948004e-12 0 0)
(4.15659167e-12 0 0)
(5.37706625e-12 0 0)
(5.66623247e-12 0 0)
(4.72039608e-12 0 0)
(5.07999574e-12 0 0)
(5.36231487e-12 0 0)
(5.31526259e-12 0 0)
(4.35391829e-12 0 0)
(5.48770091e-12 0 0)
(5.35354405e-12 0 0)
(4.94355695e-12 0 0)
(4.25169048e-12 0 0)
(4.41319955e-12 0 0)
(5.14278501e-12 0 0)
(5.11615425e-12 0 0)
(6.15230879e-12 0 0)
(4.99077856e-12 0 0)
(4.87906292e-12 0 0)
(5.16664284e-12 0 0)
(5.15592461e-12 0 0)
(5.24134535e-12 0 0)
(5.39458018e-12 0 0)
(4.70037835e-12 0 0)
(3.58033568e-12 0 0)
(5.06274664e-12 0 0)
(4.87956514e-12 0 0)
(4.11582485e-12 0 0)
(5.40583752e-12 0 0)
(4.9942872e-12 0 0)
(4.47632842e-12 0 0)
(4.87695622e-12 0 0)
(5.03845154e-12 0 0)
(5.04473627e-12 0 0)
(5.37156971e-12 0 0)
(5.51977418e-12 0 0)
(5.69505603e-12 0 0)
(5.29875789e-12 0 0)
(5.68576593e-12 0 0)
(5.11066218e-12 0 0)
(5.14033771e-12 0 0)
(5.46916424e-12 0 0)
(5.25242509e-12 0 0)
(5.39329687e-12 0 0)
(5.05326923e-12 0 0)
(5.25145694e-12 0 0)
(4.98338839e-12 0 0)
(4.37911627e-12 0 0)
(4.88482467e-12 0 0)
(4.75415248e-12 0 0)
(5.40388291e-12 0 0)
(3.90094952e-12 0 0)
(4.77026407e-12 0 0)
(4.73130232e-12 0 0)
(4.3812859e-12 0 0)
(5.63362134e-12 0 0)
(4.60758183e-12 0 0)
(4.97901706e-12 0 0)
(5.35454446e-12 0 0)
(5.53408317e-12 0 0)
(4.65798848e-12 0 0)
(5.63658376e-12 0 0)
(4.50851277e-12 0 0)
(4.39483371e-12 0 0)
(5.11576495e-12 0 0)
(4.46500603e-12 0 0)
(4.97641981e-12 0 0)
(5.09711686e-12 0 0)
(5.0155693e-12 0 0)
(4.23982124e-12 0 0)
(5.87259399e-12 0 0)
(5.13775315e-12 0 0)
(5.96472276e-12 0 0)
(5.66725517e-12 0 0)
(5.60607193e-12 0 0)
(5.88162313e-12 0 0)
(5.37427535e-12 0 0)
(6.30579941e-12 0 0)
(4.3753001e-12 0 0)
(5.89199838e-12 0 0)
(5.20206518e-12 0 0)
(5.48909015e-12 0 0)
(5.01592854e-12 0 0)
(4.70037063e-12 0 0)
(5.4593982e-12 0 0)
(4.58842572e-12 0 0)
(4.7086047e-12 0 0)
(4.25359519e-12 0 0)
(5.14173525e-12 0 0)
(4.89032391e-12 0 0)
(4.48360696e-12 0 0)
(3.70413332e-12 0 0)
(3.87661394e-12 0 0)
(4.36661103e-12 0 0)
(3.7866691e-12 0 0)
(4.13892476e-12 0 0)
(3.61187731e-12 0 0)
(3.43920167e-12 0 0)
(4.51232863e-12 0 0)
(4.04258293e-12 0 0)
(4.18836236e-12 0 0)
(4.39473621e-12 0 0)
(3.50350201e-12 0 0)
(3.67170136e-12 0 0)
(4.13805107e-12 0 0)
(3.61229357e-12 0 0)
(3.89134144e-12 0 0)
(3.59334416e-12 0 0)
(3.51511317e-12 0 0)
(2.78380435e-12 0 0)
(4.47512124e-12 0 0)
(4.0870059e-12 0 0)
(2.88605605e-12 0 0)
(4.27534932e-12 0 0)
(3.24076524e-12 0 0)
(3.88455229e-12 0 0)
(3.51591998e-12 0 0)
(4.09082561e-12 0 0)
(3.59032499e-12 0 0)
(4.2011999e-12 0 0)
(5.10404993e-12 0 0)
(4.0986044e-12 0 0)
(4.33511493e-12 0 0)
(4.15095421e-12 0 0)
(3.43241516e-12 0 0)
(4.89353302e-12 0 0)
(4.38498087e-12 0 0)
(4.53298154e-12 0 0)
(4.95959544e-12 0 0)
(3.90741853e-12 0 0)
(4.13124067e-12 0 0)
(3.85424644e-12 0 0)
(2.95331101e-12 0 0)
(3.37222496e-12 0 0)
(3.94617799e-12 0 0)
(3.67425769e-12 0 0)
(3.48197488e-12 0 0)
(3.48257776e-12 0 0)
(3.8624022e-12 0 0)
(3.80055046e-12 0 0)
(4.2194144e-12 0 0)
(3.52659193e-12 0 0)
(3.73340138e-12 0 0)
(5.32361542e-12 0 0)
(5.06031958e-12 0 0)
(4.72182351e-12 0 0)
(4.26892753e-12 0 0)
(4.29634683e-12 0 0)
(4.57582998e-12 0 0)
(5.00778803e-12 0 0)
(4.35778481e-12 0 0)
(5.32961885e-12 0 0)
(5.2207124e-12 0 0)
(4.24134206e-12 0 0)
(4.92290382e-12 0 0)
(5.4077154e-12 0 0)
(5.15001603e-12 0 0)
(5.59249876e-12 0 0)
(5.68004503e-12 0 0)
(6.03096577e-12 0 0)
(5.97485436e-12 0 0)
(5.02171285e-12 0 0)
(4.71366352e-12 0 0)
(4.08108764e-12 0 0)
(6.00302973e-12 0 0)
(5.13888633e-12 0 0)
(3.56972041e-12 0 0)
(3.89697926e-12 0 0)
(4.23417874e-12 0 0)
(3.71658082e-12 0 0)
(4.49785247e-12 0 0)
(3.85268465e-12 0 0)
(4.67684297e-12 0 0)
(4.29337811e-12 0 0)
(5.11624989e-12 0 0)
(4.41570817e-12 0 0)
(5.56902233e-12 0 0)
(5.67200971e-12 0 0)
(4.86940578e-12 0 0)
(5.43703659e-12 0 0)
(5.0836677e-12 0 0)
(3.87121434e-12 0 0)
(5.17624133e-12 0 0)
(5.83518422e-12 0 0)
(5.61739043e-12 0 0)
(4.00217215e-12 0 0)
(5.63901032e-12 0 0)
(6.09724351e-12 0 0)
(5.25893181e-12 0 0)
(4.94879122e-12 0 0)
(5.80530596e-12 0 0)
(5.20639388e-12 0 0)
(4.73993715e-12 0 0)
(4.5018378e-12 0 0)
(5.98340041e-12 0 0)
(4.83767383e-12 0 0)
(4.45049308e-12 0 0)
(4.68931662e-12 0 0)
(4.76086719e-12 0 0)
(5.89938992e-12 0 0)
(4.71470438e-12 0 0)
(5.58073992e-12 0 0)
(5.14609702e-12 0 0)
(6.55385136e-12 0 0)
(5.48719689e-12 0 0)
(5.40722723e-12 0 0)
(4.77200865e-12 0 0)
(6.07292843e-12 0 0)
(5.96445521e-12 0 0)
(5.94876767e-12 0 0)
(5.65519964e-12 0 0)
(5.81922196e-12 0 0)
(5.92199609e-12 0 0)
(5.76659134e-12 0 0)
(5.57270234e-12 0 0)
(5.66419575e-12 0 0)
(5.86893931e-12 0 0)
(5.21255103e-12 0 0)
(4.67454176e-12 0 0)
(5.01529392e-12 0 0)
(5.91053682e-12 0 0)
(5.89687872e-12 0 0)
(6.3510174e-12 0 0)
(6.19720911e-12 0 0)
(5.79387801e-12 0 0)
(6.96988082e-12 0 0)
(6.290958e-12 0 0)
(7.04041721e-12 0 0)
(7.00693213e-12 0 0)
(6.73840125e-12 0 0)
(6.67116014e-12 0 0)
(6.72699634e-12 0 0)
(7.09262645e-12 0 0)
(7.05970412e-12 0 0)
(6.67284439e-12 0 0)
(6.13170679e-12 0 0)
(6.29461581e-12 0 0)
(6.68392976e-12 0 0)
(6.6780066e-12 0 0)
(7.16823965e-12 0 0)
(6.98383079e-12 0 0)
(7.03645965e-12 0 0)
(7.60643626e-12 0 0)
(6.77231239e-12 0 0)
(8.15177927e-12 0 0)
(8.36761712e-12 0 0)
(7.49341417e-12 0 0)
(7.12605759e-12 0 0)
(8.27908778e-12 0 0)
(7.58055545e-12 0 0)
(8.24607604e-12 0 0)
(6.25521585e-12 0 0)
(7.48972098e-12 0 0)
(8.12495378e-12 0 0)
(7.6012429e-12 0 0)
(7.49922538e-12 0 0)
(6.92301521e-12 0 0)
(7.17912109e-12 0 0)
(7.81236518e-12 0 0)
(7.57202459e-12 0 0)
(7.411571e-12 0 0)
(7.26371832e-12 0 0)
(7.19161795e-12 0 0)
(7.3683367e-12 0 0)
(6.84146918e-12 0 0)
(7.47587154e-12 0 0)
(6.23645416e-12 0 0)
(7.53531944e-12 0 0)
(7.18293843e-12 0 0)
(8.1593124e-12 0 0)
(7.70925096e-12 0 0)
(7.46918289e-12 0 0)
(8.23848951e-12 0 0)
(8.19187911e-12 0 0)
(7.26443375e-12 0 0)
(8.5352758e-12 0 0)
(7.44656274e-12 0 0)
(9.27236026e-12 0 0)
(8.19023261e-12 0 0)
(9.76073372e-12 0 0)
(7.6508883e-12 0 0)
(8.99459048e-12 0 0)
(8.8228197e-12 0 0)
(8.39626748e-12 0 0)
(8.18288876e-12 0 0)
(7.90265429e-12 0 0)
(9.31050405e-12 0 0)
(7.8123646e-12 0 0)
(8.23304764e-12 0 0)
(9.07332766e-12 0 0)
(7.26400757e-12 0 0)
(8.1909063e-12 0 0)
(8.28528032e-12 0 0)
(9.27026967e-12 0 0)
(8.29369839e-12 0 0)
(7.90736781e-12 0 0)
(7.47101042e-12 0 0)
(8.51336905e-12 0 0)
(8.95967422e-12 0 0)
(9.12662117e-12 0 0)
(8.9172805e-12 0 0)
(8.7468604e-12 0 0)
(8.14958974e-12 0 0)
(8.94805614e-12 0 0)
(9.02554032e-12 0 0)
(9.30173396e-12 0 0)
(8.77332073e-12 0 0)
(9.57158518e-12 0 0)
(8.83675046e-12 0 0)
(1.02859826e-11 0 0)
(8.66159683e-12 0 0)
(9.09879358e-12 0 0)
(9.25911983e-12 0 0)
(9.11926962e-12 0 0)
(8.81586169e-12 0 0)
(9.10389683e-12 0 0)
(9.00581345e-12 0 0)
(8.73476661e-12 0 0)
(9.37056859e-12 0 0)
(8.36436013e-12 0 0)
(9.07792586e-12 0 0)
(8.93287115e-12 0 0)
(8.2665048e-12 0 0)
(7.78458785e-12 0 0)
(9.13317776e-12 0 0)
(9.49769358e-12 0 0)
(8.664148e-12 0 0)
(9.02194719e-12 0 0)
(8.67148806e-12 0 0)
(9.41117295e-12 0 0)
(7.8668224e-12 0 0)
(8.11779181e-12 0 0)
(8.86248496e-12 0 0)
(7.90244293e-12 0 0)
(8.54351868e-12 0 0)
(7.60513755e-12 0 0)
(8.7653275e-12 0 0)
(7.06022346e-12 0 0)
(7.07649932e-12 0 0)
(7.71019668e-12 0 0)
(7.04480118e-12 0 0)
(7.11986462e-12 0 0)
(6.76243193e-12 0 0)
(7.67022862e-12 0 0)
(6.51991357e-12 0 0)
(6.72730336e-12 0 0)
(6.57286555e-12 0 0)
(6.88533929e-12 0 0)
(5.94468396e-12 0 0)
(6.14410827e-12 0 0)
(5.13308959e-12 0 0)
(6.20113971e-12 0 0)
(5.21115967e-12 0 0)
(6.10171434e-12 0 0)
(5.00823863e-12 0 0)
(4.75935275e-12 0 0)
(4.48137676e-12 0 0)
(4.79919767e-12 0 0)
(3.98626513e-12 0 0)
(3.31885836e-12 0 0)
(4.1535764e-12 0 0)
(3.57684368e-12 0 0)
(3.82595873e-12 0 0)
(4.09323782e-12 0 0)
(3.71119471e-12 0 0)
(3.3986289e-12 0 0)
(4.17771295e-12 0 0)
(3.59400214e-12 0 0)
(3.53755158e-12 0 0)
(2.88964961e-12 0 0)
(2.24190143e-12 0 0)
(2.79068874e-12 0 0)
(2.84848701e-12 0 0)
(3.14172629e-12 0 0)
(2.05710981e-12 0 0)
(2.62999127e-12 0 0)
(2.25139848e-12 0 0)
(2.40500517e-12 0 0)
(1.60125067e-12 0 0)
(2.03734858e-12 0 0)
(1.67246008e-12 0 0)
(1.64506608e-12 0 0)
(1.91248694e-12 0 0)
(1.49735056e-12 0 0)
(1.91669783e-12 0 0)
(2.00601239e-12 0 0)
(1.01536057e-12 0 0)
(1.69574535e-12 0 0)
(1.18791135e-12 0 0)
(1.49260085e-12 0 0)
(1.0570866e-12 0 0)
(1.23157872e-12 0 0)
(9.34644742e-13 0 0)
(1.13875278e-12 0 0)
(1.7270364e-12 0 0)
(1.83646841e-12 0 0)
(1.6579926e-12 0 0)
(1.7236251e-12 0 0)
(1.27051831e-12 0 0)
(1.35396821e-12 0 0)
(1.28292955e-12 0 0)
(7.79801507e-13 0 0)
(1.66299262e-12 0 0)
(4.32110116e-13 0 0)
(1.3792371e-12 0 0)
(9.05417187e-13 0 0)
(9.61524492e-13 0 0)
(1.12487536e-12 0 0)
(1.59731532e-12 0 0)
(1.89779565e-12 0 0)
(1.35132329e-12 0 0)
(1.77859211e-12 0 0)
(6.77771674e-13 0 0)
(1.43660335e-12 0 0)
(1.07474256e-12 0 0)
(1.68888091e-12 0 0)
(1.25490537e-12 0 0)
(5.62553513e-13 0 0)
(9.98470043e-14 0 0)
(3.92780952e-13 0 0)
(1.16068993e-12 0 0)
(4.76868104e-13 0 0)
(1.9993676e-13 0 0)
(3.04216939e-13 0 0)
(1.10907179e-13 0 0)
(1.63392589e-13 0 0)
(-1.91993441e-13 0 0)
(-2.51721091e-13 0 0)
(-2.1384389e-13 0 0)
(-1.38578619e-12 0 0)
(-4.86153936e-14 0 0)
(-1.13194685e-12 0 0)
(-6.97314284e-13 0 0)
(1.40526906e-13 0 0)
(-1.11542519e-13 0 0)
(2.57778822e-13 0 0)
(-1.21319339e-12 0 0)
(-5.74254214e-13 0 0)
(-1.27613003e-12 0 0)
(-4.56273141e-13 0 0)
(-1.24021675e-12 0 0)
(-1.28317137e-12 0 0)
(-1.65410262e-12 0 0)
(-9.42037574e-13 0 0)
(-1.52024003e-12 0 0)
(-1.45665349e-12 0 0)
(-1.76669885e-12 0 0)
(-2.03740508e-12 0 0)
(-1.5921263e-12 0 0)
(-1.88845197e-12 0 0)
(-2.16313752e-12 0 0)
(-2.59572083e-12 0 0)
(-1.972986e-12 0 0)
(-1.97374026e-12 0 0)
(-1.82772505e-12 0 0)
(-1.54520326e-12 0 0)
(-2.46638322e-12 0 0)
(-2.36740867e-12 0 0)
(-2.84813576e-12 0 0)
(-2.71321677e-12 0 0)
(-1.81237266e-12 0 0)
(-2.83303254e-12 0 0)
(-2.96205031e-12 0 0)
(-2.77108589e-12 0 0)
(-2.51430179e-12 0 0)
(-2.98278101e-12 0 0)
(-2.1438398e-12 0 0)
(-1.5444012e-12 0 0)
(-3.38763906e-12 0 0)
(-1.9071565e-12 0 0)
(-1.68741176e-12 0 0)
(-2.25177781e-12 0 0)
(-2.55218226e-12 0 0)
(-3.17990792e-12 0 0)
(-2.32189892e-12 0 0)
(-2.96951952e-12 0 0)
(-3.88332439e-12 0 0)
(-3.03007129e-12 0 0)
(-2.66446949e-12 0 0)
(-2.4880365e-12 0 0)
(-1.96856074e-12 0 0)
(-2.90584111e-12 0 0)
(-2.64801694e-12 0 0)
(-4.19711612e-12 0 0)
(-3.05229366e-12 0 0)
(-2.70988605e-12 0 0)
(-2.6052491e-12 0 0)
(-2.6076691e-12 0 0)
(-2.82928827e-12 0 0)
(-2.21676464e-12 0 0)
(-2.619235e-12 0 0)
(-3.31037678e-12 0 0)
(-2.92005208e-12 0 0)
(-3.08614698e-12 0 0)
(-3.29405641e-12 0 0)
(-3.51906157e-12 0 0)
(-2.78403023e-12 0 0)
(-3.4211349e-12 0 0)
(-3.35840449e-12 0 0)
(-3.58079187e-12 0 0)
(-4.15722387e-12 0 0)
(-3.485954e-12 0 0)
(-3.03979997e-12 0 0)
(-3.35252257e-12 0 0)
(-3.0989451e-12 0 0)
(-3.68558785e-12 0 0)
(-3.66405433e-12 0 0)
(-2.78143171e-12 0 0)
(-2.53231845e-12 0 0)
(-2.53070825e-12 0 0)
(-2.70856421e-12 0 0)
(-3.6557187e-12 0 0)
(-3.11174247e-12 0 0)
(-3.94635959e-12 0 0)
(-4.03981871e-12 0 0)
(-3.59579334e-12 0 0)
(-3.12655845e-12 0 0)
(-4.57404898e-12 0 0)
(-3.59660161e-12 0 0)
(-4.0696676e-12 0 0)
(-4.56443658e-12 0 0)
(-4.48337375e-12 0 0)
(-4.66166825e-12 0 0)
(-4.59096823e-12 0 0)
(-5.17395785e-12 0 0)
(-5.46025311e-12 0 0)
(-5.10829511e-12 0 0)
(-5.45690542e-12 0 0)
(-4.85847623e-12 0 0)
(-6.44415493e-12 0 0)
(-5.94120487e-12 0 0)
(-3.11491797e-12 0 0)
(-5.7130515e-12 0 0)
(-5.97165194e-12 0 0)
(-5.57226104e-12 0 0)
(-6.4512733e-12 0 0)
(-7.20503559e-12 0 0)
(-5.52771654e-12 0 0)
(-6.07760651e-12 0 0)
(-6.05247706e-12 0 0)
(-5.64543133e-12 0 0)
(-5.39522198e-12 0 0)
(-6.08577306e-12 0 0)
(-5.34546098e-12 0 0)
(-5.45451146e-12 0 0)
(-5.57920892e-12 0 0)
(-5.45259516e-12 0 0)
(-5.36168139e-12 0 0)
(-6.26519612e-12 0 0)
(-5.74878764e-12 0 0)
(-6.57404359e-12 0 0)
(-5.81248487e-12 0 0)
(-4.8816363e-12 0 0)
(-5.83598597e-12 0 0)
(-6.20160503e-12 0 0)
(-5.06015226e-12 0 0)
(-5.78437195e-12 0 0)
(-5.29076561e-12 0 0)
(-5.78347284e-12 0 0)
(-5.61359777e-12 0 0)
(-5.79309288e-12 0 0)
(-6.09165167e-12 0 0)
(-6.19692045e-12 0 0)
(-6.2913089e-12 0 0)
(-7.07373692e-12 0 0)
(-5.81931448e-12 0 0)
(-6.1992365e-12 0 0)
(-6.55304694e-12 0 0)
(-6.34441331e-12 0 0)
(-6.1946797e-12 0 0)
(-6.21222222e-12 0 0)
(-6.92528376e-12 0 0)
(-6.45422324e-12 0 0)
(-6.83367632e-12 0 0)
(-7.37016967e-12 0 0)
(-6.21835321e-12 0 0)
(-6.88052846e-12 0 0)
(-6.97260778e-12 0 0)
(-8.21886833e-12 0 0)
(-6.5797703e-12 0 0)
(-6.54264948e-12 0 0)
(-6.02361031e-12 0 0)
(-6.51000012e-12 0 0)
(-5.49348447e-12 0 0)
(-5.7111456e-12 0 0)
(-5.46720146e-12 0 0)
(-5.78592227e-12 0 0)
(-4.70027176e-12 0 0)
(-5.52660065e-12 0 0)
(-6.83807727e-12 0 0)
(-6.00881206e-12 0 0)
(-6.38121444e-12 0 0)
(-6.19278919e-12 0 0)
(-5.63898814e-12 0 0)
(-6.94352e-12 0 0)
(-6.73497374e-12 0 0)
(-5.69542741e-12 0 0)
(-6.92064344e-12 0 0)
(-7.1035978e-12 0 0)
(-7.68311148e-12 0 0)
(-7.06279103e-12 0 0)
(-7.3567978e-12 0 0)
(-7.79209079e-12 0 0)
(-7.20436834e-12 0 0)
(-7.99320446e-12 0 0)
(-6.96932617e-12 0 0)
(-7.90551148e-12 0 0)
(-8.25324608e-12 0 0)
(-8.28626026e-12 0 0)
(-6.77524279e-12 0 0)
(-8.09280029e-12 0 0)
(-8.02592445e-12 0 0)
(-8.2466837e-12 0 0)
(-7.86697743e-12 0 0)
(-7.49290283e-12 0 0)
(-7.6120829e-12 0 0)
(-7.21045194e-12 0 0)
(-7.87337515e-12 0 0)
(-7.3897524e-12 0 0)
(-6.2830153e-12 0 0)
(-8.13949843e-12 0 0)
(-6.84006909e-12 0 0)
(-7.41160389e-12 0 0)
(-7.78012063e-12 0 0)
(-7.21889626e-12 0 0)
(-7.40360205e-12 0 0)
(-6.91843579e-12 0 0)
(-7.29023481e-12 0 0)
(-7.37011561e-12 0 0)
(-6.71251588e-12 0 0)
(-6.99940028e-12 0 0)
(-7.67493162e-12 0 0)
(-7.62054063e-12 0 0)
(-7.0879258e-12 0 0)
(-7.74412674e-12 0 0)
(-7.22611756e-12 0 0)
(-6.9011998e-12 0 0)
(-7.26678713e-12 0 0)
(-6.66190496e-12 0 0)
(-7.76834981e-12 0 0)
(-6.74652736e-12 0 0)
(-7.1435555e-12 0 0)
(-7.5087801e-12 0 0)
(-7.68707278e-12 0 0)
(-7.83413776e-12 0 0)
(-8.4505539e-12 0 0)
(-8.10771825e-12 0 0)
(-7.66822874e-12 0 0)
(-8.37837046e-12 0 0)
(-8.30054407e-12 0 0)
(-6.81017938e-12 0 0)
(-6.14197756e-12 0 0)
(-7.04642856e-12 0 0)
(-6.39456235e-12 0 0)
(-6.72155923e-12 0 0)
(-5.92533139e-12 0 0)
(-7.06375127e-12 0 0)
(-6.80116308e-12 0 0)
(-6.25403447e-12 0 0)
(-7.08412081e-12 0 0)
(-6.0634457e-12 0 0)
(-7.10852981e-12 0 0)
(-6.36655375e-12 0 0)
(-6.56416221e-12 0 0)
(-6.65628971e-12 0 0)
(-5.49090311e-12 0 0)
(-5.47267811e-12 0 0)
(-6.16441556e-12 0 0)
(-5.39933082e-12 0 0)
(-5.41234789e-12 0 0)
(-5.23414435e-12 0 0)
(-6.18674747e-12 0 0)
(-5.74330472e-12 0 0)
(-5.17167875e-12 0 0)
(-5.93739035e-12 0 0)
(-5.34238212e-12 0 0)
(-4.06512873e-12 0 0)
(-4.67496911e-12 0 0)
(-4.39343941e-12 0 0)
(-5.38279474e-12 0 0)
(-6.56937377e-12 0 0)
(-5.44054267e-12 0 0)
(-5.38309734e-12 0 0)
(-5.37572888e-12 0 0)
(-5.44850767e-12 0 0)
(-5.28438575e-12 0 0)
(-5.82879578e-12 0 0)
(-4.60817272e-12 0 0)
(-4.52471992e-12 0 0)
(-6.05168383e-12 0 0)
(-4.55936647e-12 0 0)
(-4.36356681e-12 0 0)
(-5.63991446e-12 0 0)
(-4.98626748e-12 0 0)