/*--------------------------------*- C++ -*----------------------------------*\
| =========                 |                                                 |
| \\      /  F ield         | OpenFOAM: The Open Source CFD Toolbox           |
|  \\    /   O peration     | Version:  2206                                  |
|   \\  /    A nd           | Website:  www.openfoam.com                      |
|    \\/     M anipulation  |                                                 |
\*---------------------------------------------------------------------------*/
FoamFile
{
    version     2.0;
    format      ascii;
    arch        "LSB;label=32;scalar=64";
    class       surfaceScalarField;
    location    "8e-07";
    object      phi;
}
// * * * * * * * * * * * * * * * * * * * * * * * * * * * * * * * * * * * * * //

dimensions      [1 0 -1 0 0 0 0];

oriented        oriented;

internalField   nonuniform List<scalar> 
3182
(
5.42093302e-20
-4.06571043e-20
5.42066721e-20
-1.21967436e-19
-7.86903359e-25
-8.42620177e-26
-5.9342401e-27
-1.62410644e-32
3.97269612e-31
3.95390967e-26
5.48957555e-25
4.55118799e-24
2.98140113e-19
-5.42092235e-20
-2.98130303e-19
-1.50777362e-24
2.16826496e-19
-2.71044728e-19
-2.43937355e-19
3.25236708e-19
3.43232874e-24
1.03884012e-24
7.82525223e-26
3.78007568e-25
4.97198253e-24
1.88932769e-23
7.04567108e-19
-5.42060737e-19
-2.16815378e-19
2.16725331e-19
-5.96127906e-19
5.96168501e-19
1.04058671e-23
-4.33542527e-19
2.16799671e-19
2.16761276e-19
-2.1681332e-19
-2.16784411e-19
2.16782827e-19
-4.1751729e-23
-1.0836884e-19
-5.41715601e-19
9.75260952e-19
-3.24623404e-19
4.33486645e-19
-4.8093648e-23
-2.16673045e-19
1.08194447e-19
-3.25103492e-19
-1.27725098e-22
1.07481556e-19
-1.40808665e-18
-2.16733781e-19
1.08315555e-18
2.17043944e-19
1.58964409e-22
2.17244063e-19
6.50302163e-19
2.1723298e-19
-2.16220104e-19
-2.16717539e-19
2.15724705e-19
-8.67073132e-19
-4.3447428e-19
-8.648922e-19
2.16849297e-19
1.08547115e-18
4.32395308e-19
4.34529882e-19
4.32156549e-19
-6.55843053e-22
-8.67303776e-19
-4.37854453e-19
-4.40167886e-19
-1.3046894e-18
-1.30190823e-18
-8.67785596e-19
8.7927642e-19
2.18672786e-18
1.75906214e-18
2.17743688e-18
3.49577476e-18
3.49379182e-18
2.64385104e-18
4.35340345e-18
2.61615028e-18
3.46133105e-18
8.51419931e-19
8.43610495e-19
3.47290054e-18
1.81398457e-18
9.49861269e-19
1.08612816e-19
-4.61863544e-20
-1.06786669e-18
-1.97586504e-18
-1.57467089e-18
7.85932026e-20
3.63037142e-18
3.70506906e-18
3.77881172e-18
2.01037144e-18
1.74726803e-18
3.11445414e-18
1.35388463e-18
-3.54968545e-19
-5.8721123e-19
1.69487682e-18
1.66957035e-19
-1.60680474e-18
1.83620639e-18
-1.3455126e-18
-4.9246938e-19
-5.61351008e-19
-2.10260371e-18
-2.02404821e-18
1.93925263e-18
-1.5576808e-18
-1.87746852e-18
-1.38807589e-18
2.04177837e-20
-1.58939347e-19
1.38447329e-19
-4.91679626e-18
-3.704974e-19
-3.15395552e-20
-2.14528251e-18
-3.35185848e-18
-1.59648036e-18
-3.28451277e-18
-3.51930833e-18
-1.8196115e-18
-1.82008863e-18
3.05864848e-19
-1.93484135e-18
4.39239767e-19
-1.23491168e-18
3.00678029e-19
1.94100999e-19
2.13759638e-18
1.65676761e-18
3.26828382e-18
1.83898889e-18
1.46851051e-19
-2.03054866e-18
-2.00234953e-18
-5.41215636e-18
-4.14252604e-19
-1.89596719e-18
-1.49333602e-18
-1.59635407e-18
-1.73427839e-18
-1.71514557e-18
-6.63875123e-18
-5.13864683e-18
-3.36086979e-18
-2.08907738e-18
-4.97726598e-19
1.31648425e-18
3.15356243e-18
1.27675387e-18
1.12822323e-18
1.28545517e-18
5.02280928e-18
5.10069019e-18
5.74160101e-18
5.61150613e-18
4.09555783e-18
3.80299324e-18
1.66410549e-18
1.36369377e-18
-5.34854352e-19
-7.51440691e-19
-2.12970317e-18
-3.58106083e-18
-4.89103788e-19
-2.21657193e-18
-3.79411703e-18
-1.82093326e-18
-1.75443932e-18
-3.29832246e-18
-3.32005744e-18
-3.49155441e-18
-3.76061046e-18
-5.41306733e-18
-3.58874298e-18
-3.13534018e-18
-3.07433972e-18
-4.41210185e-18
-6.00136264e-18
-6.52376661e-18
-3.23488906e-18
-5.40524407e-18
-3.41607018e-18
-3.68926446e-18
-1.97027144e-18
-1.33139376e-18
-1.38934004e-18
-1.67020547e-18
-1.91517405e-18
-1.9203617e-18
-1.29820496e-18
-3.50729389e-18
-3.91860086e-18
-3.64997535e-18
-3.82924801e-18
-3.79561577e-18
-2.11429824e-18
4.4549346e-21
1.61911404e-18
1.61811023e-18
1.72263345e-19
1.86015326e-18
-1.70922075e-18
1.50701821e-18
4.92012654e-18
5.29562203e-18
5.02267844e-18
3.17887665e-18
7.14987332e-18
6.75627715e-18
6.90174747e-18
7.45885027e-18
5.23467684e-18
3.58902204e-18
3.77405548e-18
4.05001059e-18
2.27288004e-18
2.17536665e-18
1.47826298e-18
-5.88926541e-22
3.19656896e-18
1.36228337e-18
4.89587422e-18
1.91344136e-18
3.71853001e-18
2.05975302e-18
2.08711332e-18
2.72091816e-18
-2.57233445e-18
2.46635268e-18
-2.93937387e-18
1.97946767e-18
3.48070662e-18
3.20114444e-18
1.75725467e-18
4.99408781e-18
4.95603252e-18
8.49561296e-18
6.67706221e-18
7.00852163e-18
6.85147327e-18
6.50445315e-18
5.25000194e-18
5.23074936e-18
1.83272702e-18
3.56312118e-18
3.23083632e-18
3.37090736e-18
4.74189376e-18
4.63691613e-18
1.33146078e-18
1.40262992e-18
1.77177274e-18
-1.5638145e-18
1.97938196e-18
-2.93632455e-18
-1.25757876e-18
-1.34002183e-18
-1.45258355e-18
8.40575312e-20
1.13503609e-19
-1.53167955e-18
2.03268337e-19
-3.21536727e-18
-3.45115148e-18
-3.85163681e-18
-2.03324405e-18
-3.81404064e-18
-2.01637719e-18
-3.60068645e-18
-3.68340691e-18
-1.9180934e-18
-1.79893394e-18
-3.95499766e-19
-1.77928569e-18
-1.18162978e-19
-7.08178157e-18
-5.09594049e-18
-6.86046213e-18
-7.16947024e-18
-4.07316803e-18
-3.98191826e-18
-3.88217292e-18
-3.73059617e-18
-3.61071204e-18
-4.19980174e-18
-2.55508775e-18
-5.28924293e-18
-3.83509813e-18
-1.88723289e-18
-3.12718164e-18
1.78746183e-19
-1.59855386e-18
-1.80196883e-18
9.76453268e-20
-1.76022089e-18
-7.54186731e-20
-1.94022949e-18
-5.50216845e-18
-7.18979368e-18
-6.94519955e-18
-1.11927519e-17
-1.07855645e-17
-1.142229e-17
-1.11172706e-17
-1.05085379e-17
-8.77447237e-18
-8.99452317e-18
-1.05151704e-17
-7.63703952e-18
-5.93816142e-18
-9.38787166e-18
-5.93640799e-18
-7.31442106e-18
-5.70109387e-18
-4.00022368e-18
-3.6170586e-18
-5.2018236e-18
-6.9998945e-18
-4.02549646e-18
-3.51199962e-18
-1.82574398e-18
-1.31485377e-18
-1.58984399e-18
1.43268967e-19
-3.25589857e-18
-3.12593049e-18
-3.46463257e-18
-3.73496509e-18
-3.9585796e-18
-5.28880851e-18
-9.41622369e-19
-2.08988872e-18
-2.15055796e-18
-4.35004083e-19
-5.34280025e-19
-5.34844216e-18
-3.25772308e-18
-3.9915176e-18
-5.17490967e-18
-6.65869923e-18
-8.90194299e-18
-5.58558838e-18
-4.08093904e-18
-3.71941767e-18
-5.48367116e-18
-2.45528101e-18
-2.08636189e-18
-3.80808118e-19
2.64246247e-18
4.42536107e-18
2.73806613e-18
2.9048629e-18
-3.812014e-19
-1.73473593e-18
-3.06894081e-19
8.22021414e-20
3.28866269e-18
3.37815139e-18
3.85280316e-18
1.89231692e-18
3.44280935e-18
3.51195211e-18
3.08225095e-18
3.68629165e-18
1.5287901e-18
3.39795767e-18
3.38452209e-18
1.82470949e-18
1.84312511e-18
3.57689864e-18
1.652035e-18
1.5552283e-18
-6.47830609e-19
-1.74963101e-18
-3.32261142e-18
-1.95794075e-19
2.94985812e-18
3.34194958e-18
1.44139002e-18
5.14163623e-18
1.61410501e-18
1.94103654e-18
4.06221359e-20
3.64925248e-18
2.1368022e-18
-2.4125279e-18
-1.13238797e-18
-4.55406383e-18
-9.94215396e-18
-5.16652013e-18
-1.01019711e-17
-8.2616412e-18
-5.05587326e-18
-3.75313599e-18
-3.54426718e-18
-3.31221047e-18
-1.85351629e-18
-1.99651844e-18
-2.06645979e-18
-2.33885835e-20
-3.32454806e-19
1.64298598e-18
-1.99484676e-18
-1.92488171e-18
-2.05114217e-18
-4.64188879e-18
-1.79324214e-19
1.73117068e-18
2.17436932e-18
2.13239655e-18
3.64809151e-18
1.8798073e-18
-1.18222156e-18
-2.97184181e-18
-1.63505196e-18
-4.71925375e-19
1.25109309e-18
1.27768365e-18
3.35718533e-18
1.64052515e-18
5.36375992e-18
3.10853306e-18
1.42974732e-18
1.34233283e-18
2.92754e-18
4.6764264e-18
3.03300931e-18
3.21978939e-18
3.2948314e-18
1.62307492e-18
-1.03148424e-18
6.89275954e-19
-9.61335609e-19
-2.46511683e-18
-2.75384891e-18
-1.2306188e-18
-1.36946541e-18
1.68688622e-18
-1.72938258e-18
-1.67474225e-18
-4.94874566e-18
-4.94277649e-18
-4.83228494e-18
-1.45719703e-18
9.28008079e-20
4.79553969e-19
-1.50170095e-18
-3.55598404e-18
-2.11793426e-18
7.49238593e-19
-7.04804936e-19
2.13782966e-19
2.270427e-19
2.14314839e-18
3.97709216e-18
3.75530815e-18
5.41660088e-18
7.00762895e-18
5.15883392e-18
3.28426228e-18
2.20947274e-18
-7.61999243e-20
1.54974716e-19
1.80444423e-19
2.69335287e-19
4.81174664e-19
1.04306016e-19
-1.49062567e-18
-1.94703307e-19
1.55544314e-18
3.27895003e-18
5.02282007e-18
6.58605964e-18
4.59889911e-18
1.45057071e-18
-1.51269918e-18
-1.54561e-18
-1.42752934e-18
-3.4423579e-18
-3.68358743e-18
-5.25571424e-18
-5.56757432e-18
-5.73913857e-18
-7.13699291e-18
-5.52628158e-18
-4.16403681e-18
-2.49524919e-18
-1.12654932e-18
-2.73199672e-18
-2.80351494e-18
-2.37432503e-18
-1.85394285e-18
-1.76219925e-18
-1.61204741e-18
-4.80191981e-18
-4.848646e-18
-6.53389454e-18
-6.94351557e-18
-5.267348e-18
-6.80146934e-18
-4.90406796e-18
-5.35056717e-18
-1.81493826e-19
-2.03503835e-19
1.46917026e-18
-8.32260154e-20
1.93768159e-18
2.29574256e-18
3.46761492e-18
6.83841598e-18
3.78608437e-18
2.49766632e-18
3.99487144e-18
3.83169438e-18
5.22356553e-18
4.72061117e-18
4.58732586e-18
2.89404537e-18
4.57891491e-18
4.58562635e-18
3.26535392e-18
5.15371443e-18
3.37204921e-18
5.27901137e-18
3.76434759e-18
1.99908729e-18
1.98238853e-18
4.81379635e-19
2.30970334e-18
-1.39392893e-18
9.2817653e-20
-1.52028574e-18
1.06775104e-19
-3.48217525e-18
-3.33763501e-18
-3.21964125e-18
-4.99187016e-18
-3.29762804e-18
-3.01048415e-18
1.65360915e-18
1.69458741e-18
1.80900226e-18
3.85916777e-18
3.63158081e-18
7.23033317e-20
-5.24960344e-18
-7.14713035e-18
-5.66104687e-18
-7.2495645e-18
-5.32880966e-18
-3.649005e-18
-3.61333566e-18
-6.90337835e-18
-8.49389975e-18
-7.11318714e-18
-7.09086567e-18
-2.31137617e-18
-1.57848992e-18
-8.72014473e-21
1.51306385e-18
1.67175347e-18
-3.09559166e-19
1.59630041e-18
3.18315699e-18
6.40579938e-21
4.65288421e-19
3.9351224e-18
3.93918647e-18
5.38915472e-18
7.13903054e-18
3.53479433e-18
2.03075344e-18
3.63551305e-18
4.07344136e-18
3.84258829e-18
5.48386921e-18
3.58778492e-18
7.12518649e-18
5.55702005e-18
3.48427153e-18
4.00859932e-18
4.12660208e-18
4.49403178e-19
1.52754806e-18
4.95841515e-18
7.03949635e-18
8.15445828e-18
5.18406144e-18
6.9316747e-18
8.58909351e-18
3.37077599e-18
3.44517028e-18
1.81777157e-18
3.2738515e-19
1.82459764e-18
3.35272898e-19
1.54052661e-19
1.02083398e-19
6.27659556e-19
-1.44021401e-18
-1.50264774e-18
6.81897391e-20
-1.81427274e-18
1.62927169e-19
-1.01343323e-19
-1.59372392e-18
-3.08625372e-18
-3.39533791e-18
-3.3518808e-18
-1.70990979e-18
-6.0443988e-20
2.64756972e-20
-5.11832525e-18
-1.76286985e-18
-3.79249094e-19
-2.28356108e-18
-6.05660889e-19
-1.50539353e-18
-1.61023124e-18
-1.85485256e-18
-1.61790142e-20
-3.45891916e-18
-1.85902353e-18
-2.11285737e-18
-1.74794132e-18
-2.02457285e-18
-1.78344393e-18
-9.19603732e-20
-1.70987862e-19
-1.60889088e-18
-4.39543163e-18
-1.25396177e-18
-2.96075543e-18
-3.13963451e-18
-3.7585198e-18
-3.66958858e-18
1.62338006e-18
2.92320089e-18
1.49783236e-18
1.83219627e-18
3.22449975e-18
1.9966082e-18
2.34824805e-18
2.35685628e-18
2.09326277e-18
1.80278035e-18
-1.63237565e-18
1.30031929e-18
1.11883145e-18
1.02561082e-18
-1.11511733e-18
-4.25320164e-18
-2.28941605e-18
1.18631565e-18
1.45013056e-18
1.56510234e-18
-2.01131495e-18
-4.02758245e-18
-3.38662401e-18
-3.47601191e-18
2.02443747e-20
-1.66310669e-18
-3.19601014e-18
-4.94842239e-18
-3.24797615e-18
-2.22573774e-18
-3.31028412e-18
-1.4160623e-19
1.85009475e-18
3.46803905e-18
2.11662851e-18
5.17168368e-18
3.09922747e-18
5.44937732e-18
5.14609552e-18
1.66746434e-18
1.57033758e-18
2.99154135e-18
-3.81175984e-19
1.60207218e-18
-3.34176259e-20
1.62484639e-19
3.50512911e-19
3.47052122e-19
-1.86952712e-19
-2.98003949e-19
1.50690472e-18
3.43436247e-18
3.88257424e-19
2.20192459e-18
2.15092577e-18
5.62450325e-18
2.4315673e-18
5.75165465e-18
7.29526004e-18
5.5181605e-18
3.73962568e-18
2.20384317e-18
3.96835293e-18
2.37095745e-18
4.03816692e-18
3.88213344e-18
2.16579252e-18
1.47047809e-18
3.15264528e-18
6.68826969e-18
1.86863927e-18
1.46216657e-18
1.43183671e-18
4.7797337e-18
1.36436923e-18
1.00045349e-19
-1.38786395e-18
3.49384277e-19
-3.47327644e-18
-3.53939173e-18
-5.12572854e-18
-1.00778221e-19
-1.38047846e-18
2.05068792e-18
7.88121292e-19
2.41566978e-18
5.47156467e-18
3.85006248e-18
5.48672037e-18
3.71109492e-18
1.20912848e-19
1.84397563e-18
2.61777593e-19
9.88990673e-20
1.83162579e-18
-2.44767879e-19
1.48731942e-18
-2.22535481e-19
1.48630575e-18
2.83190464e-18
1.5331723e-18
1.35379433e-18
1.46448899e-18
3.10358667e-18
1.2925431e-18
1.71648385e-18
1.52686486e-18
1.17688248e-18
1.49340676e-18
1.56137965e-18
3.33872053e-18
3.28627993e-18
1.70760879e-18
1.81869052e-18
2.248381e-18
1.6578413e-18
4.45160539e-20
1.71663628e-18
-1.26405759e-18
-9.95869268e-20
1.16297326e-19
-3.28780163e-18
-1.72414791e-18
-1.42553302e-18
-3.3848407e-18
-6.76295715e-18
-6.58437806e-18
-3.23480212e-18
-1.26313214e-18
3.54806899e-18
3.84528024e-18
6.73983284e-18
4.63823153e-18
3.47191975e-18
2.8697777e-18
3.43349223e-18
3.76534446e-18
-4.72917886e-19
-1.53733454e-18
-1.73158934e-18
-1.54320549e-18
1.73125178e-18
3.59133304e-18
-9.40681133e-20
1.43763074e-19
-1.40532339e-18
1.94108409e-18
3.89451274e-18
3.3144206e-18
1.28965914e-19
-3.04972191e-19
2.59122476e-19
1.92163858e-18
1.82694017e-18
3.1911126e-18
3.65444481e-18
3.79966225e-18
7.30254364e-18
5.44086022e-18
7.69818941e-18
8.85587258e-18
7.29040885e-18
5.32310765e-18
3.18280538e-18
-1.00733352e-19
1.47436853e-18
3.20974072e-18
-2.11693877e-18
1.73763526e-18
-1.80960465e-18
-1.66833917e-18
-3.0568031e-19
-3.51954779e-18
-1.8308343e-18
-2.11952109e-18
-3.38569454e-18
-1.89869065e-18
-1.9275038e-18
-5.21456082e-18
-7.20922228e-18
-7.66982967e-18
-7.75269754e-18
-9.21225824e-18
-5.55821999e-18
-7.424715e-18
-7.42194628e-18
-6.79174755e-18
-6.91253416e-18
-7.21276341e-18
-3.66432615e-18
-1.97311937e-18
-1.96453448e-18
-3.42762498e-18
-1.74722618e-18
-6.26467242e-20
8.92183023e-20
-4.97684374e-18
-4.62557884e-18
-5.17468706e-18
-3.54776323e-18
-5.06779279e-18
-8.90184263e-18
-5.10635356e-18
-8.26327886e-18
-6.94925726e-18
-4.98823773e-18
-3.40371139e-18
-3.74701833e-18
-4.77004236e-19
-6.66827983e-19
-2.05907426e-18
1.12931763e-18
-4.71700339e-19
1.9676515e-19
1.48627668e-18
1.62210581e-18
2.89877196e-18
3.07239862e-18
-2.42433019e-19
-3.12887247e-19
1.14440707e-19
-1.92664663e-18
1.71392093e-18
-1.53411726e-18
2.49386969e-19
1.33083328e-18
3.40453967e-18
6.59370209e-18
4.76902015e-18
3.3476299e-18
1.51055217e-18
2.72843559e-19
1.91788867e-18
-1.03059781e-18
-1.02969631e-18
-7.9826863e-19
4.24383139e-19
-1.40084818e-18
-3.70437492e-19
1.34542762e-18
-4.97266837e-19
-4.4011693e-19
-4.07047077e-19
-1.55042859e-18
-1.85897274e-18
-1.79535887e-18
-1.39720685e-18
-1.22054402e-18
-1.34117014e-18
5.28042057e-19
-3.07057764e-18
-1.74478748e-18
-3.14856388e-18
-5.06921673e-18
-1.68719187e-18
-1.3329598e-18
2.08916188e-18
6.04004607e-19
5.93173733e-18
4.19312565e-18
7.13416316e-18
8.72706801e-18
5.66007013e-18
5.10497587e-18
4.80172095e-18
6.90836232e-18
5.11012153e-18
5.38600143e-18
3.73340014e-18
6.94394715e-18
3.40568705e-18
5.13994842e-18
3.58740118e-18
5.58090015e-18
2.18855265e-18
1.94695877e-18
1.91639006e-18
2.37019425e-19
1.48191073e-18
2.68330514e-19
-2.00195389e-18
-3.87728655e-19
-1.97787729e-18
1.0456258e-19
-3.86788279e-19
-1.99571809e-19
-1.95708445e-18
-3.4505838e-18
-3.77686914e-18
-1.89671166e-18
-1.98110248e-18
-5.25456368e-18
-1.82488914e-18
-3.40017339e-19
-8.98539076e-19
-3.81336358e-18
-3.85690918e-18
-3.89691415e-18
-5.41285077e-18
-3.51081723e-18
-5.21885295e-18
-5.19665178e-18
-5.42054146e-18
-7.44541516e-18
-7.18607735e-18
-3.69898691e-18
-3.75820459e-18
-5.11176818e-18
-6.98924184e-18
-9.0272292e-18
-3.53196442e-18
-1.88119799e-18
-1.6191296e-18
-1.79172572e-18
-1.17581627e-19
1.07020553e-19
-4.72745892e-20
1.97168838e-18
3.34910481e-18
5.593109e-18
5.07570803e-18
3.43464226e-18
5.40427254e-18
3.24810765e-18
3.66162974e-18
5.71459656e-18
4.04295367e-18
3.78191863e-18
2.52150344e-18
3.97059987e-18
2.32718481e-18
2.46812978e-18
2.4826639e-18
4.06272356e-18
3.00493772e-19
-1.52378805e-18
3.45438961e-18
1.97531213e-18
5.39767909e-18
5.17112776e-18
5.22284732e-18
5.55059665e-18
3.76074264e-18
7.23015089e-18
7.28064697e-18
9.07846953e-18
8.66485276e-18
1.24641916e-17
9.30051698e-18
7.89563463e-18
8.06509935e-18
7.58211759e-18
7.30200654e-18
4.53901628e-18
5.70271682e-18
8.99680632e-18
1.2813612e-17
1.26257229e-17
1.07136447e-17
1.25000193e-17
1.23778064e-17
1.21118604e-17
8.59880825e-18
9.96309225e-18
6.61019931e-18
6.84379462e-18
6.47449115e-18
5.5213762e-18
3.01049163e-18
5.31422931e-18
1.81877405e-18
6.58148597e-19
3.91852998e-18
3.66151268e-18
7.76855137e-19
9.22002946e-19
6.38341363e-19
2.05933324e-18
6.57587989e-19
-7.81478721e-19
1.42831251e-19
2.34285034e-18
2.81661811e-19
2.01485104e-19
-2.58743801e-19
-8.11019059e-19
-4.08602235e-18
-4.55599877e-18
-3.24263093e-18
-5.75658079e-18
-5.75244877e-18
-8.92961742e-18
-1.03831101e-17
-1.03731974e-17
-1.10750119e-17
-7.32901785e-18
-5.57391129e-18
-5.12206617e-18
-4.9380554e-18
-6.66688899e-18
-5.24630934e-18
-5.37201681e-18
-5.1042999e-18
-7.21644203e-18
-5.44866641e-18
-5.53976468e-18
-5.54077143e-18
-3.97055564e-18
-7.77009443e-18
-7.40723958e-18
-8.97717169e-18
-9.4844847e-18
-9.2567167e-18
-7.43957614e-18
-5.53188782e-18
-3.84075358e-18
-2.24865915e-19
6.44072695e-20
1.21959842e-19
1.60402827e-18
3.33511841e-18
3.45106382e-18
3.62278414e-18
5.25940047e-18
1.04824602e-17
8.90732669e-18
1.20845576e-17
8.96357896e-18
1.07663891e-17
1.09294495e-17
9.20997167e-18
9.45134614e-18
1.14767346e-17
7.87994328e-18
8.03366689e-18
1.00245903e-17
7.82033985e-18
4.87432687e-18
2.80249267e-18
2.40983797e-18
4.97984797e-19
2.03294489e-18
5.33603137e-19
4.3929947e-19
-2.5215364e-18
-7.33764841e-19
5.87374626e-19
-1.13341094e-18
2.47070362e-18
3.3391232e-18
1.45472781e-18
1.27524051e-18
1.35270564e-18
2.67240994e-18
9.30226978e-19
-2.08416579e-19
1.39546013e-18
3.1146283e-18
1.66189684e-18
-2.34345405e-19
-1.80410265e-18
-1.2340421e-18
3.8853063e-19
3.02094379e-19
1.50794252e-19
-3.31760037e-18
-3.15164475e-18
-1.72748291e-18
1.40272094e-18
-1.67924417e-18
-3.37886383e-18
-4.81118225e-18
-3.81542765e-18
-3.71028481e-18
-3.60080214e-18
-3.71423065e-18
-3.6854985e-18
-3.90237951e-18
-5.6391755e-18
-5.69763371e-18
-5.9000855e-18
-5.70781574e-18
-4.28484508e-18
-2.2463188e-18
-3.38370122e-18
-5.59552798e-18
-5.25730499e-18
-3.93161857e-18
-4.08492423e-18
-3.64061804e-18
-3.56822283e-18
-2.18982185e-18
-1.98509175e-18
1.36101134e-18
3.05082996e-18
3.55821803e-18
1.92744188e-18
3.3007173e-18
3.17623338e-18
2.78599647e-18
9.97229014e-19
-1.88719906e-18
-2.59979636e-19
-3.22732217e-19
7.57561309e-20
3.6190154e-18
4.78199912e-18
1.66343945e-18
1.56361684e-18
1.16298516e-19
2.09552609e-18
-2.72920717e-18
-1.03074272e-18
-2.85538067e-18
-2.97684013e-18
-1.19892102e-18
2.28368946e-18
7.88155651e-19
4.12010549e-18
2.65100381e-18
4.15346909e-18
5.70352067e-18
5.41594882e-18
6.80117343e-18
5.03686589e-18
4.65731541e-18
5.00314496e-18
3.34350355e-18
3.72824126e-18
1.66601847e-18
-9.00207196e-19
5.3281918e-19
-1.40426767e-18
9.39502386e-20
2.3343325e-20
-3.60382172e-18
-8.00260405e-21
-2.36455685e-18
-3.94862158e-18
-8.72857801e-18
-5.21719576e-18
-5.94568937e-18
-5.52977719e-18
-8.95172222e-18
-1.07355229e-17
-7.12651077e-18
-8.84766639e-18
-8.69866942e-18
-1.06989515e-17
-4.05499616e-18
-7.69331658e-18
-7.91168585e-18
-8.70328329e-18
-8.58546635e-18
-1.19002704e-17
-1.01940138e-17
-8.61171617e-18
-8.81011527e-18
-5.73097074e-18
-7.5582968e-18
-5.71127293e-18
-5.82009328e-18
-4.32590281e-18
-2.50717022e-18
-2.28945601e-19
-3.75461971e-18
-6.46081897e-19
-2.67741939e-18
-2.17022764e-18
-4.46925934e-19
-6.46771531e-19
9.89378312e-19
8.50871815e-19
-3.90522156e-19
1.26895263e-18
-2.2438712e-18
-3.65723097e-18
-5.394296e-18
-3.71721754e-18
-4.32409274e-18
-2.19834906e-18
-2.06253896e-18
-2.25596318e-18
-3.90768075e-18
-3.12205525e-19
-1.57929864e-18
-5.16240583e-18
-4.94384335e-18
-4.64959855e-18
-4.85868637e-18
-6.58112887e-18
-5.06395902e-18
-1.75701169e-18
1.53586209e-18
3.76202027e-18
5.18267425e-18
3.43786426e-18
3.49842812e-18
3.80551176e-18
4.27067848e-18
4.00570376e-18
2.1619504e-18
4.0921026e-18
5.79356382e-18
5.88108229e-18
5.7230331e-18
5.31514391e-18
1.02617912e-17
8.20728409e-18
3.44218565e-18
1.36411309e-19
1.97653752e-18
1.76053675e-18
3.2954022e-18
1.72999434e-18
1.65528794e-18
1.75984985e-18
1.72993326e-18
6.5415851e-19
3.73007662e-18
3.37249075e-18
3.5899091e-18
5.08689602e-18
3.12867052e-18
3.4228796e-18
3.25524413e-18
1.88612411e-19
-1.36385208e-18
-3.44874108e-19
-1.16520516e-19
-2.48169414e-19
-3.47723786e-18
-3.4784751e-18
-1.85333046e-18
-8.40344382e-18
-8.38151556e-18
-8.53897128e-18
-6.80097114e-18
-7.01518099e-18
-6.8680797e-18
-8.59641402e-18
-7.12154354e-18
-8.74071953e-18
-7.06700753e-18
-5.51379991e-18
-7.04026704e-18
-5.40131658e-18
-3.48541521e-18
-5.48305297e-18
-5.79305324e-19
1.44434087e-18
-2.06932731e-18
-4.47705599e-19
-2.51224939e-18
-1.04574075e-18
4.89357965e-20
-9.48133434e-19
2.42365305e-18
-2.47460553e-18
-3.76089812e-18
-7.31879957e-18
-6.50868765e-18
-8.35513027e-18
-6.73784611e-18
-8.37555256e-18
-3.36926387e-18
-3.23641606e-18
-3.57370107e-18
-4.04400539e-18
-5.11182441e-18
-4.93432213e-18
-5.14295694e-18
-1.58341059e-18
3.82655784e-19
2.85552495e-20
4.52273731e-20
1.82916538e-18
2.08996643e-18
2.40417752e-18
2.31213419e-18
2.19815998e-18
3.72886862e-18
1.8811739e-18
3.34075927e-18
1.56344428e-18
-1.5140791e-19
2.06715545e-18
4.37000162e-19
-3.41437804e-18
-8.27188818e-20
-1.3470429e-18
1.94069544e-18
5.25408241e-18
3.82358036e-18
5.32196822e-18
3.6565627e-18
3.94880776e-18
6.86178488e-18
6.55650005e-18
1.91114338e-18
6.5065876e-18
1.57289753e-18
4.85883328e-18
6.57556316e-18
7.16482022e-18
8.76611461e-18
1.06487083e-17
7.53902362e-18
7.32196569e-18
7.0713719e-18
5.36952524e-18
5.39797018e-18
5.17938094e-18
1.9542268e-18
3.54482187e-18
2.31007442e-18
2.59763449e-18
5.13134566e-19
6.94203321e-19
1.44411271e-19
-1.25335858e-19
1.37166638e-18
3.49893541e-18
5.19760208e-18
1.83191677e-18
6.45081505e-18
2.77280815e-18
3.14229299e-18
3.03504849e-18
4.83130343e-18
3.60117399e-18
5.26373323e-18
3.5269326e-18
3.31824024e-18
3.14830138e-18
-2.63128107e-19
1.65499967e-18
1.93277077e-18
-1.55377356e-18
-1.57816334e-18
-4.84292174e-18
-4.70728195e-18
-3.43829568e-18
-3.2678158e-18
-1.56736941e-18
-1.53847898e-18
-3.29940562e-18
-5.15119389e-18
-4.65246611e-18
-6.48539595e-18
-2.9337337e-18
-4.73756877e-18
2.9419289e-19
-1.31874034e-18
-3.96702498e-20
-1.79044237e-20
-1.16551076e-19
-1.13477846e-19
3.21608233e-20
1.2498124e-18
1.5239555e-18
-1.00264554e-20
1.64580029e-18
1.64867015e-18
1.61827212e-18
-1.92391944e-19
3.17921348e-18
2.94585066e-18
1.64656394e-18
1.44923177e-19
-1.67887699e-18
-5.16625487e-18
-6.3694105e-18
-4.88553153e-18
-3.1555778e-18
-1.39671399e-18
-4.40903504e-19
-1.78166845e-19
-1.79922516e-18
-2.88994221e-19
-1.71347796e-19
-1.74183707e-19
1.36876764e-18
1.61258984e-19
1.74437118e-18
-1.21701164e-18
-1.19534652e-18
-1.13515857e-19
4.61853751e-19
-3.51018393e-18
-1.60769334e-18
-1.27424723e-18
-1.39869651e-18
-1.47624682e-18
3.23574553e-18
2.46349744e-19
1.7395948e-18
2.24118975e-18
3.5277664e-18
2.02890618e-18
5.67620112e-18
5.12955152e-18
4.83641923e-18
1.570394e-18
1.47123584e-18
1.10648984e-18
-2.59707643e-19
1.09508998e-18
-3.85680897e-18
-3.33085224e-18
-4.64123024e-18
-1.37449427e-18
-1.27250757e-18
-3.09464558e-18
2.96190667e-19
3.50612209e-18
-2.32646631e-19
1.74588004e-18
1.38098908e-18
-3.23185259e-19
1.00060406e-19
-3.09527001e-18
-1.66165434e-18
-5.63031007e-18
-3.84089457e-18
-4.60494111e-18
-2.16460587e-18
-5.03539878e-19
1.15260393e-18
-2.69185772e-19
1.85653838e-18
3.71698921e-18
3.71773581e-18
2.09358014e-18
2.29575991e-18
3.61274921e-18
1.82398111e-18
-1.24772951e-19
-3.72916471e-18
-3.66082502e-18
-3.6135977e-18
-2.05265444e-18
-2.33700291e-18
-5.23126307e-18
-2.11443603e-18
-5.54686505e-18
-2.26851372e-18
-1.735764e-18
-1.72285732e-18
-3.4819076e-19
-4.11475418e-19
-2.27506597e-18
-2.11469113e-18
-3.63195347e-18
-3.5948564e-18
-3.75270884e-18
-5.79881335e-18
-5.60746946e-18
-5.45722192e-18
-8.67793694e-18
-8.83156391e-18
-1.06110469e-17
-9.0114407e-18
-9.10590011e-18
-7.3554664e-18
-5.90430114e-18
-5.39243498e-18
-3.6333197e-18
-3.73479801e-18
-3.50932491e-18
-1.7406464e-18
-3.46913258e-18
-2.11218468e-19
-2.06665794e-18
-2.0126595e-18
-1.87735672e-18
-1.64055443e-18
-1.54173934e-18
-1.3690577e-18
3.8175389e-18
3.8951097e-18
1.56171821e-18
1.80309794e-18
3.12380626e-19
2.11589851e-18
3.44407715e-18
5.58160651e-18
2.23796603e-18
4.35981562e-19
4.78847517e-19
2.26414442e-19
5.07988789e-19
-1.23897564e-18
3.94130652e-19
-1.51514309e-18
-1.3841845e-18
1.91254043e-18
1.71311794e-18
-2.19460764e-19
1.54681069e-18
-8.08182682e-20
1.44449655e-18
3.10055e-18
1.690527e-18
3.29730092e-18
1.49276723e-18
3.43389897e-18
3.20451027e-18
-8.39646168e-20
3.1971982e-18
-1.23130496e-19
2.0568697e-19
3.413268e-18
3.28305896e-18
3.16553877e-18
2.16524111e-19
1.37854447e-19
7.13388359e-19
2.07465941e-18
-1.44642196e-18
3.95503079e-19
1.82110152e-18
3.34905758e-18
-1.7725791e-18
-1.82946231e-18
2.07240465e-19
2.49615212e-21
-1.70715488e-18
-1.88202222e-18
-2.34490515e-19
-1.29991098e-19
1.31367847e-18
3.07870008e-18
1.58896891e-18
7.8599296e-20
1.15853041e-18
-3.24419107e-19
1.31044994e-19
5.12275428e-19
-1.54144409e-18
3.64555986e-19
-1.61617283e-18
-1.34655296e-19
-1.41377913e-18
3.06149213e-18
1.63333784e-18
-1.79756144e-18
1.59436557e-18
1.3957959e-18
4.90972972e-18
2.94187847e-18
1.83441554e-18
3.64725127e-18
-2.62002254e-19
-1.46119298e-18
2.10383708e-18
3.38870921e-18
3.53445841e-19
-4.93285535e-18
-3.33927129e-18
1.34210355e-21
-1.79807181e-18
-1.54821979e-18
-1.82799484e-18
1.48823435e-19
2.35556372e-19
-3.83015919e-19
-1.22502298e-20
7.73764655e-20
-3.70059464e-20
1.55825949e-18
-2.01133859e-18
-2.13025389e-18
-3.9893628e-18
-7.39389324e-18
-4.13296456e-18
-4.21945076e-18
-5.21378014e-19
-2.39300462e-18
-3.41651522e-18
-5.59518434e-18
-7.06843933e-18
-5.23333156e-18
-3.78173967e-18
-5.49557239e-18
-5.54168047e-18
-5.29865542e-18
-6.96843374e-18
-3.4997514e-18
-5.45484881e-18
-5.48845762e-18
-5.35483989e-18
-5.27552789e-18
-3.40004975e-18
-2.76944233e-18
-1.59390118e-18
3.86473909e-19
5.51331742e-19
1.75620827e-18
3.66425459e-18
3.47595906e-18
3.58683414e-18
2.27390027e-18
4.3837051e-19
2.37055077e-19
-1.40372617e-18
-4.26905502e-19
-5.88036285e-19
-6.46177251e-19
2.80450075e-18
2.70081744e-18
-1.87822356e-19
-3.7224961e-18
-1.87905229e-19
-5.00194872e-20
-2.0071105e-18
1.85491493e-19
8.44958356e-20
-1.72118562e-18
-2.37795407e-19
3.32192991e-20
-1.41483123e-18
-1.3890278e-18
-1.81283312e-18
-3.26905662e-18
-5.13707569e-18
-3.43093839e-18
2.75667268e-19
-5.19063152e-20
-1.84297872e-18
-4.04668709e-19
-3.66863083e-18
-7.13707382e-18
-8.78303035e-18
-3.63006912e-18
-5.12430231e-18
-3.8588379e-18
-2.39319376e-19
-3.39344934e-18
-3.23591565e-18
-1.65114297e-20
-5.73099448e-19
3.5445454e-18
1.85839572e-18
1.77242117e-18
1.80823712e-18
1.78382255e-19
-1.66832764e-19
-1.93532029e-18
-2.59618127e-19
-1.57302423e-18
-1.92294396e-18
2.04553841e-18
3.57672721e-18
6.73726631e-18
7.30967126e-18
8.93402761e-18
1.23451426e-17
1.27420093e-17
9.32890242e-18
9.23554984e-18
7.59083742e-18
8.74533752e-18
1.06532102e-17
6.88613436e-18
6.61647373e-18
6.4461214e-18
8.9190739e-18
7.35545008e-18
4.18776435e-18
5.36986087e-18
4.93892753e-18
3.43498259e-18
3.70735518e-18
1.83292643e-19
2.32777201e-18
1.33455964e-19
1.58744678e-19
5.46095521e-20
1.53668486e-18
3.18768298e-19
8.87256214e-20
-3.63997208e-18
-2.15229127e-18
-2.00471708e-18
-4.06266007e-18
-5.64249415e-19
-3.53569005e-18
-4.31936537e-18
-5.70001524e-18
-8.97870369e-18
-3.95820302e-18
-4.02431815e-18
-7.28044671e-18
-3.68800805e-18
-3.58134467e-18
-3.10762799e-18
-3.44452228e-18
-4.30749642e-18
-4.54029501e-18
-4.80846122e-18
-3.35820625e-18
-5.33666844e-18
-5.08483394e-18
-3.27123069e-18
-5.01330482e-18
-1.28520725e-18
5.10684444e-20
1.94514955e-18
5.63815074e-19
2.47151736e-18
1.98709396e-18
7.06054162e-18
5.34382583e-18
3.67830186e-18
1.69783434e-18
2.9770862e-18
5.23468681e-18
8.17371616e-18
6.41188318e-18
2.89214143e-18
1.11126108e-18
-1.95981832e-19
3.15703533e-18
4.90773224e-18
4.93278958e-18
3.39811795e-18
3.02192633e-18
1.31208048e-18
1.07594785e-18
-2.17826865e-18
-3.83437821e-18
-6.95001853e-18
-7.46038593e-18
-7.18580666e-18
-5.59767847e-18
-7.07730089e-18
-6.8704275e-18
-5.14763536e-18
-5.52865486e-18
-3.6899737e-18
-3.85323884e-18
-3.46857155e-18
-3.87508104e-18
-4.67711194e-18
-4.69769491e-18
3.09550964e-19
-1.38297964e-18
7.07937886e-19
-1.84195854e-18
-3.17736454e-18
-1.73366525e-18
2.08609523e-18
4.45606709e-20
1.54721448e-18
-1.85420879e-18
3.52640484e-18
3.33235612e-18
5.19156291e-18
5.57831576e-18
6.98234944e-18
3.81367288e-18
5.64569777e-18
7.16807339e-18
6.7708076e-18
5.00123996e-18
1.72704615e-18
3.00768864e-18
2.94063913e-18
1.46713943e-18
-1.88873702e-18
1.93769581e-18
5.69035903e-19
3.95369461e-19
-1.56629833e-18
-1.51951435e-18
5.52675101e-19
6.38621892e-19
9.96338748e-19
9.49948259e-19
6.50383143e-19
9.44666277e-19
-2.58897727e-18
-2.77324816e-18
-2.99569175e-18
-1.65224403e-18
-1.91567424e-19
1.74645268e-18
1.30370653e-18
-4.65833753e-19
1.48090416e-18
3.4908908e-18
4.92648074e-18
3.00612566e-18
4.80007038e-18
6.55500019e-18
7.45267332e-18
5.33889467e-18
5.17049367e-18
5.56802212e-18
5.43908715e-18
5.53168534e-18
8.40875024e-18
5.4297671e-18
5.62901181e-18
4.45156774e-19
-9.07985488e-19
-8.66826179e-19
2.43579385e-18
-4.83807381e-19
-1.09357929e-18
-1.34991065e-18
1.58044965e-18
-2.20114162e-18
-3.89385909e-18
-3.95996833e-18
-7.28517182e-19
-2.07765669e-18
1.44638213e-18
1.44791021e-18
3.57080904e-18
3.57202321e-18
3.21609303e-18
3.73761855e-18
2.02885165e-18
2.41748711e-18
4.31546011e-18
5.71638029e-19
2.50033781e-18
4.15828771e-18
5.88033177e-19
3.91001971e-18
7.03123102e-18
5.48251603e-18
3.6906311e-18
3.85007666e-18
3.8168473e-18
1.86313315e-18
2.3929147e-18
5.38199506e-18