/*--------------------------------*- C++ -*----------------------------------*\
| =========                 |                                                 |
| \\      /  F ield         | OpenFOAM: The Open Source CFD Toolbox           |
|  \\    /   O peration     | Version:  2206                                  |
|   \\  /    A nd           | Website:  www.openfoam.com                      |
|    \\/     M anipulation  |                                                 |
\*---------------------------------------------------------------------------*/
FoamFile
{
    version     2.0;
    format      ascii;
    arch        "LSB;label=32;scalar=64";
    class       volVectorField;
    location    "8e-07";
    object      U;
}
// * * * * * * * * * * * * * * * * * * * * * * * * * * * * * * * * * * * * * //

dimensions      [0 1 -1 0 0 0 0];

internalField   nonuniform List<vector> 
3183
(
(5.1372946e-15 0 0)
(-1.80191721e-15 0 0)
(3.79218806e-15 0 0)
(-7.98086335e-15 0 0)
(-8.39800306e-15 0 0)
(-2.46501905e-20 0 0)
(-1.87494981e-21 0 0)
(-1.154062e-26 0 0)
(6.09081097e-27 0 0)
(1.13497146e-25 0 0)
(1.18720265e-20 0 0)
(1.53549382e-19 0 0)
(2.20908896e-14 0 0)
(1.66038509e-14 0 0)
(-1.74716044e-14 0 0)
(-2.5738602e-14 0 0)
(2.32143082e-14 0 0)
(-8.14278544e-15 0 0)
(-4.71253512e-14 0 0)
(9.0157133e-15 0 0)
(2.37182161e-14 0 0)
(3.02217142e-19 0 0)
(2.47192251e-20 0 0)
(4.91397867e-24 0 0)
(1.13497079e-19 0 0)
(1.38504345e-18 0 0)
(5.15153457e-14 0 0)
(-1.39081262e-19 0 0)
(-5.70392676e-14 0 0)
(3.00052952e-14 0 0)
(-6.31545393e-14 0 0)
(8.30615052e-15 0 0)
(6.11871497e-14 0 0)
(-3.67878561e-14 0 0)
(3.85985937e-19 0 0)
(4.07325494e-14 0 0)
(-4.28646879e-14 0 0)
(-4.51039782e-14 0 0)
(4.74554764e-14 0 0)
(-1.6204361e-18 0 0)
(-5.25530752e-14 0 0)
(-5.52896453e-14 0 0)
(8.72693484e-14 0 0)
(4.59428739e-14 0 0)
(4.83247456e-14 0 0)
(-4.83634887e-18 0 0)
(-3.56463008e-14 0 0)
(1.87223453e-14 0 0)
(-5.92130266e-14 0 0)
(-4.06954337e-19 0 0)
(2.17815159e-14 0 0)
(-1.1499007e-13 0 0)
(-9.67561444e-14 0 0)
(1.01791924e-13 0 0)
(1.07156251e-13 0 0)
(-1.12657928e-13 0 0)
(2.96957816e-14 0 0)
(1.24843909e-13 0 0)
(9.85038614e-14 0 0)
(-3.44741325e-14 0 0)
(-3.62395327e-14 0 0)
(-1.95363853e-16 0 0)
(-8.04032009e-14 0 0)
(-1.27292433e-13 0 0)
(-1.33336269e-13 0 0)
(4.66677847e-14 0 0)
(1.48101493e-13 0 0)
(1.55646668e-13 0 0)
(1.09061268e-13 0 0)
(5.79746551e-14 0 0)
(1.19920841e-13 0 0)
(-1.89999246e-13 0 0)
(-6.72941334e-14 0 0)
(6.8591089e-14 0 0)
(-2.22186567e-13 0 0)
(-3.88185598e-13 0 0)
(-1.64587786e-13 0 0)
(1.58240417e-15 0 0)
(2.74056345e-13 0 0)
(2.87560062e-13 0 0)
(3.03425509e-13 0 0)
(6.31514066e-13 0 0)
(5.56454267e-13 0 0)
(3.56227197e-13 0 0)
(2.51847055e-13 0 0)
(6.44001466e-13 0 0)
(5.3920149e-13 0 0)
(1.12464924e-14 0 0)
(1.44672214e-13 0 0)
(3.17920713e-13 0 0)
(1.74135334e-13 0 0)
(3.61739371e-13 0 0)
(1.55965672e-14 0 0)
(-1.93337274e-13 0 0)
(1.79008717e-13 0 0)
(-2.56683719e-13 0 0)
(-6.20297436e-13 0 0)
(1.89025248e-13 0 0)
(2.96019658e-13 0 0)
(2.98907096e-13 0 0)
(8.02373332e-13 0 0)
(6.10608579e-13 0 0)
(3.62256834e-14 0 0)
(8.21229935e-13 0 0)
(-2.98610972e-13 0 0)
(5.3375889e-13 0 0)
(-4.87100246e-14 0 0)
(2.13144299e-13 0 0)
(-2.54135572e-13 0 0)
(-2.53365842e-13 0 0)
(2.45077936e-13 0 0)
(6.12347876e-13 0 0)
(-2.59234182e-13 0 0)
(-6.99993934e-13 0 0)
(-1.033068e-13 0 0)
(-7.88940318e-14 0 0)
(-2.46547592e-13 0 0)
(5.99287923e-13 0 0)
(-3.44766177e-13 0 0)
(-5.68866603e-13 0 0)
(2.13777216e-15 0 0)
(1.21850548e-14 0 0)
(-4.49137538e-14 0 0)
(-2.65664743e-13 0 0)
(-6.29495672e-13 0 0)
(3.04127136e-13 0 0)
(-5.02122389e-14 0 0)
(-9.40720291e-13 0 0)
(-2.81058115e-13 0 0)
(-6.05076298e-13 0 0)
(2.55505505e-13 0 0)
(-8.68807487e-13 0 0)
(-3.60549564e-13 0 0)
(-2.60110212e-13 0 0)
(-3.24285648e-13 0 0)
(-2.04023392e-14 0 0)
(1.17511213e-13 0 0)
(-2.32166573e-13 0 0)
(3.04548271e-13 0 0)
(3.16697885e-13 0 0)
(8.5160843e-14 0 0)
(3.00418035e-13 0 0)
(5.94275749e-13 0 0)
(2.49602127e-14 0 0)
(3.51354808e-14 0 0)
(-8.46199755e-14 0 0)
(-6.62087811e-13 0 0)
(-6.40935464e-13 0 0)
(-3.95135462e-13 0 0)
(-2.86921014e-14 0 0)
(-4.98512349e-13 0 0)
(2.13871972e-13 0 0)
(-5.93627411e-13 0 0)
(-5.34495061e-13 0 0)
(-1.28527851e-12 0 0)
(-6.12869382e-13 0 0)
(-6.01649061e-13 0 0)
(4.78218415e-13 0 0)
(-2.99603825e-13 0 0)
(1.85621505e-13 0 0)
(2.86128114e-13 0 0)
(2.09907426e-13 0 0)
(3.10206219e-13 0 0)
(2.73645406e-13 0 0)
(8.55256736e-13 0 0)
(1.30823481e-12 0 0)
(1.25086374e-13 0 0)
(6.85597052e-13 0 0)
(1.00207023e-12 0 0)
(3.51804308e-13 0 0)
(-1.58890026e-14 0 0)
(2.40572436e-13 0 0)
(-4.96408028e-14 0 0)
(-1.46901545e-13 0 0)
(-3.77000026e-13 0 0)
(-9.27976123e-13 0 0)
(4.37443238e-13 0 0)
(-6.37573259e-13 0 0)
(-3.62849021e-13 0 0)
(-3.27424145e-13 0 0)
(-3.44340305e-13 0 0)
(-5.77335328e-13 0 0)
(-6.12268216e-13 0 0)
(-3.45829871e-13 0 0)
(-4.21469466e-13 0 0)
(-9.29845675e-13 0 0)
(-5.68662728e-13 0 0)
(-3.12007312e-13 0 0)
(-1.13191381e-12 0 0)
(-8.16762631e-13 0 0)
(-2.92341466e-14 0 0)
(-1.18194455e-12 0 0)
(-9.4729893e-13 0 0)
(-3.52457969e-13 0 0)
(-5.67953326e-13 0 0)
(-4.28510785e-13 0 0)
(-5.58904044e-13 0 0)
(-6.48226089e-14 0 0)
(-2.18109846e-13 0 0)
(-3.42411778e-13 0 0)
(-3.01360075e-13 0 0)
(-6.07152731e-13 0 0)
(4.77885593e-14 0 0)
(-1.38932903e-13 0 0)
(-1.2122885e-12 0 0)
(-6.67349456e-13 0 0)
(-7.15585749e-13 0 0)
(-3.47979433e-13 0 0)
(1.82404401e-13 0 0)
(-2.36779133e-13 0 0)
(2.43035599e-13 0 0)
(3.4230965e-13 0 0)
(-2.32259824e-13 0 0)
(5.65728064e-13 0 0)
(-2.66203337e-13 0 0)
(5.89569123e-13 0 0)
(6.33062831e-13 0 0)
(6.3592489e-13 0 0)
(8.92557113e-13 0 0)
(3.9257634e-13 0 0)
(8.97071215e-13 0 0)
(9.79549749e-13 0 0)
(1.59227145e-12 0 0)
(9.76006016e-13 0 0)
(3.9027353e-13 0 0)
(6.42765392e-14 0 0)
(6.87294303e-13 0 0)
(9.42155497e-13 0 0)
(-1.25054353e-13 0 0)
(3.16479565e-13 0 0)
(5.10701763e-13 0 0)
(9.29538777e-14 0 0)
(4.92804253e-13 0 0)
(3.54845765e-13 0 0)
(5.78651399e-13 0 0)
(6.61395247e-14 0 0)
(3.86464462e-13 0 0)
(9.39757521e-13 0 0)
(3.94402879e-13 0 0)
(1.70957515e-13 0 0)
(-2.0002982e-13 0 0)
(-2.18458102e-13 0 0)
(2.83534065e-14 0 0)
(9.35837057e-14 0 0)
(5.83599692e-13 0 0)
(5.74690451e-13 0 0)
(-1.7366313e-13 0 0)
(8.62129083e-13 0 0)
(9.62270269e-13 0 0)
(1.1894175e-12 0 0)
(9.41607159e-13 0 0)
(1.28218857e-12 0 0)
(9.29307681e-13 0 0)
(9.07059768e-13 0 0)
(1.02957779e-12 0 0)
(3.28719399e-13 0 0)
(5.83760905e-13 0 0)
(3.78689167e-13 0 0)
(1.13240549e-12 0 0)
(2.98152101e-13 0 0)
(5.70764309e-13 0 0)
(8.24870364e-13 0 0)
(1.44545252e-14 0 0)
(-6.0250287e-14 0 0)
(3.63387261e-13 0 0)
(-2.63015374e-13 0 0)
(1.15515037e-14 0 0)
(-4.94558213e-13 0 0)
(7.78478858e-15 0 0)
(-5.32585889e-13 0 0)
(2.79413255e-13 0 0)
(3.95243774e-14 0 0)
(-5.60656256e-13 0 0)
(-2.28024155e-14 0 0)
(3.23730152e-13 0 0)
(-4.67766084e-14 0 0)
(-1.24313469e-12 0 0)
(-3.16374253e-13 0 0)
(-7.16823642e-13 0 0)
(-3.72462795e-13 0 0)
(-3.58981687e-13 0 0)
(-6.17976631e-13 0 0)
(-1.0748648e-13 0 0)
(-6.27549654e-13 0 0)
(-3.0922047e-13 0 0)
(4.90084468e-13 0 0)
(-5.05873439e-13 0 0)
(-1.13140676e-13 0 0)
(-1.54702259e-12 0 0)
(-3.24116272e-13 0 0)
(-1.01552039e-12 0 0)
(-7.33323515e-13 0 0)
(-6.40995772e-13 0 0)
(-7.40902473e-13 0 0)
(-6.78023956e-13 0 0)
(-7.23413948e-13 0 0)
(-5.85466534e-13 0 0)
(-2.42617601e-13 0 0)
(-9.1597854e-13 0 0)
(-9.72351728e-13 0 0)
(1.53315261e-13 0 0)
(-5.68654505e-13 0 0)
(1.79132284e-14 0 0)
(-2.81361322e-13 0 0)
(-8.90684837e-13 0 0)
(-2.13134888e-14 0 0)
(-2.60529167e-13 0 0)
(1.65038557e-13 0 0)
(-2.54236647e-13 0 0)
(-6.58571848e-13 0 0)
(-7.38808382e-13 0 0)
(-1.25086476e-12 0 0)
(-1.04543563e-12 0 0)
(-1.70410262e-12 0 0)
(-1.69335608e-12 0 0)
(-2.04342608e-12 0 0)
(-1.90511217e-12 0 0)
(-1.2997188e-12 0 0)
(-7.70230002e-13 0 0)
(-2.18309341e-12 0 0)
(-1.35421967e-12 0 0)
(-1.32608752e-12 0 0)
(-1.64791291e-12 0 0)
(-8.09976768e-13 0 0)
(-9.95385996e-13 0 0)
(-8.10880612e-13 0 0)
(-9.4156683e-13 0 0)
(-6.98214718e-13 0 0)
(-7.3520348e-14 0 0)
(-9.58986892e-13 0 0)
(-7.16982185e-13 0 0)
(-6.56763644e-13 0 0)
(-3.48427819e-13 0 0)
(-2.71809855e-13 0 0)
(5.38839493e-14 0 0)
(-3.37687586e-13 0 0)
(-2.0473813e-13 0 0)
(-6.48562319e-13 0 0)
(-3.11788672e-13 0 0)
(-6.44169913e-13 0 0)
(-7.25018722e-13 0 0)
(-9.12147901e-13 0 0)
(-4.76930912e-13 0 0)
(-6.4043238e-13 0 0)
(1.96372868e-13 0 0)
(-6.13875694e-14 0 0)
(-3.67487055e-13 0 0)
(-3.72398426e-13 0 0)
(-9.96058406e-13 0 0)
(-5.69023581e-13 0 0)
(-1.54611895e-13 0 0)
(-1.14502679e-12 0 0)
(-1.28848011e-12 0 0)
(-1.34288481e-12 0 0)
(-6.17514512e-13 0 0)
(-7.33077753e-13 0 0)
(-3.78839063e-13 0 0)
(-1.04195993e-12 0 0)
(-9.93791716e-14 0 0)
(-5.97963143e-13 0 0)
(1.71621419e-13 0 0)
(2.54653388e-13 0 0)
(4.82680628e-13 0 0)
(1.12690923e-12 0 0)
(-4.94303665e-14 0 0)
(-6.2507219e-13 0 0)
(-3.16756186e-13 0 0)
(8.44353313e-13 0 0)
(-2.2222893e-13 0 0)
(1.18369608e-12 0 0)
(6.22878462e-13 0 0)
(4.19138104e-13 0 0)
(2.87271384e-13 0 0)
(1.07904556e-13 0 0)
(5.85070852e-13 0 0)
(6.12070742e-13 0 0)
(2.94579726e-13 0 0)
(3.53957631e-13 0 0)
(8.4321299e-13 0 0)
(-1.26969556e-13 0 0)
(5.21807059e-13 0 0)
(3.42058918e-13 0 0)
(6.26518244e-13 0 0)
(2.52941727e-14 0 0)
(-8.01123104e-14 0 0)
(-3.8953586e-13 0 0)
(-8.06019177e-13 0 0)
(-5.34226522e-14 0 0)
(2.74323695e-13 0 0)
(6.22229801e-13 0 0)
(5.01167809e-13 0 0)
(6.14426883e-13 0 0)
(3.36097239e-13 0 0)
(5.921082e-13 0 0)
(5.71373234e-14 0 0)
(5.23739076e-14 0 0)
(6.7383581e-13 0 0)
(-1.81670105e-13 0 0)
(2.154917e-14 0 0)
(-2.1818226e-13 0 0)
(-8.94626619e-13 0 0)
(-1.50272285e-12 0 0)
(-9.59361887e-13 0 0)
(-2.09687175e-12 0 0)
(-8.90918747e-13 0 0)
(-1.27611174e-13 0 0)
(-6.0431626e-13 0 0)
(-6.43711041e-13 0 0)
(-5.97303819e-13 0 0)
(-8.80426784e-14 0 0)
(-3.60614039e-13 0 0)
(-3.13132434e-14 0 0)
(-3.42206358e-13 0 0)
(3.79403026e-14 0 0)
(4.99936213e-13 0 0)
(-5.87177728e-13 0 0)
(-1.00034749e-13 0 0)
(-5.7490019e-13 0 0)
(-6.05195974e-13 0 0)
(8.55894862e-13 0 0)
(1.09359503e-13 0 0)
(5.05090616e-14 0 0)
(3.92407703e-13 0 0)
(6.44950143e-13 0 0)
(4.69356379e-14 0 0)
(-1.94342074e-13 0 0)
(-3.12578811e-13 0 0)
(-5.28402715e-14 0 0)
(-2.10319625e-14 0 0)
(2.21103409e-13 0 0)
(5.66758657e-13 0 0)
(5.9455549e-13 0 0)
(2.85470924e-13 0 0)
(1.24297886e-12 0 0)
(2.53200177e-13 0 0)
(-3.61984152e-13 0 0)
(5.55020779e-13 0 0)
(6.20482249e-13 0 0)
(-6.06436967e-14 0 0)
(6.20016375e-13 0 0)
(5.71981737e-13 0 0)
(3.00505778e-13 0 0)
(-2.36703726e-13 0 0)
(1.13904508e-13 0 0)
(3.72876369e-13 0 0)
(-1.56422228e-13 0 0)
(-4.78675151e-13 0 0)
(2.93386819e-13 0 0)
(-5.34658866e-13 0 0)
(3.22062447e-13 0 0)
(-2.93964829e-13 0 0)
(6.0225797e-16 0 0)
(-6.39857188e-13 0 0)
(-8.80983972e-13 0 0)
(-8.92661294e-13 0 0)
(-2.33325581e-13 0 0)
(2.29772379e-13 0 0)
(8.35534307e-14 0 0)
(-2.84814721e-13 0 0)
(-6.01195518e-14 0 0)
(-6.18610417e-13 0 0)
(-1.23172106e-13 0 0)
(-1.56789475e-13 0 0)
(2.27630404e-15 0 0)
(3.05576799e-14 0 0)
(6.04990672e-13 0 0)
(1.4300692e-13 0 0)
(6.61208075e-13 0 0)
(4.16070727e-13 0 0)
(1.53338552e-12 0 0)
(4.47282321e-13 0 0)
(8.83494615e-13 0 0)
(6.15089197e-14 0 0)
(5.89396096e-13 0 0)
(2.90261819e-13 0 0)
(-2.68114447e-13 0 0)
(-5.27073701e-13 0 0)
(3.4623792e-13 0 0)
(3.04076896e-13 0 0)
(-2.45753894e-13 0 0)
(-3.14445176e-13 0 0)
(2.95686641e-13 0 0)
(2.64009696e-13 0 0)
(6.34775422e-13 0 0)
(9.02264332e-13 0 0)
(9.46166544e-13 0 0)
(2.20978193e-13 0 0)
(2.29275296e-14 0 0)
(-5.68515888e-13 0 0)
(-6.69504079e-14 0 0)
(-2.47160752e-13 0 0)
(-3.96432903e-13 0 0)
(-8.93626389e-13 0 0)
(-1.01464159e-12 0 0)
(-6.96687214e-13 0 0)
(-1.03382552e-12 0 0)
(-9.60868935e-13 0 0)
(-7.59407489e-13 0 0)
(-4.17669999e-13 0 0)
(-1.36026147e-13 0 0)
(-1.88761426e-13 0 0)
(-1.00850916e-12 0 0)
(-4.97598499e-13 0 0)
(-3.0089675e-13 0 0)
(-5.39806922e-14 0 0)
(-4.68932382e-14 0 0)
(-8.32529496e-13 0 0)
(-9.41572301e-13 0 0)
(-8.57194085e-13 0 0)
(-6.59200283e-13 0 0)
(-1.77438621e-12 0 0)
(-9.23138328e-13 0 0)
(-9.75071008e-13 0 0)
(-3.48188739e-14 0 0)
(-6.56847016e-13 0 0)
(-2.32019224e-13 0 0)
(-3.73269901e-13 0 0)
(3.12950579e-13 0 0)
(-3.24662484e-13 0 0)
(9.94392228e-13 0 0)
(6.23514926e-13 0 0)
(9.34857348e-13 0 0)
(4.08630917e-13 0 0)
(4.23338111e-13 0 0)
(6.92554713e-13 0 0)
(3.89425862e-13 0 0)
(6.92534226e-13 0 0)
(9.06710372e-13 0 0)
(5.64897937e-13 0 0)
(8.06775928e-13 0 0)
(5.50368632e-13 0 0)
(5.39023271e-13 0 0)
(6.37874754e-13 0 0)
(1.13173204e-12 0 0)
(6.44710286e-13 0 0)
(9.19507935e-13 0 0)
(1.3856349e-13 0 0)
(3.64609437e-13 0 0)
(3.67146268e-13 0 0)
(3.93986297e-13 0 0)
(5.92315892e-14 0 0)
(8.77726063e-14 0 0)
(-3.83668141e-15 0 0)
(-3.33143357e-13 0 0)
(3.70982638e-13 0 0)
(-6.83586971e-14 0 0)
(-8.54554112e-13 0 0)
(-6.13002095e-13 0 0)
(-6.1406127e-13 0 0)
(-3.03752274e-13 0 0)
(-8.67445983e-13 0 0)
(9.44595486e-15 0 0)
(3.27925384e-13 0 0)
(3.0922565e-13 0 0)
(6.59331237e-14 0 0)
(9.56514237e-13 0 0)
(3.13320222e-13 0 0)
(-5.60763775e-13 0 0)
(-1.01185108e-12 0 0)
(-6.99210465e-13 0 0)
(-1.32476917e-12 0 0)
(-1.22104365e-12 0 0)
(-6.55520749e-13 0 0)
(-3.74314093e-13 0 0)
(-6.31446047e-13 0 0)
(-9.65006056e-13 0 0)
(-7.22789466e-13 0 0)
(-9.55142492e-13 0 0)
(-1.0302753e-12 0 0)
(-2.99133309e-13 0 0)
(2.90428966e-13 0 0)
(-3.12399933e-13 0 0)
(2.94385038e-13 0 0)
(2.47552554e-13 0 0)
(2.37381585e-14 0 0)
(2.75604672e-13 0 0)
(-8.66353649e-15 0 0)
(3.36870609e-13 0 0)
(3.82951311e-13 0 0)
(3.9917374e-13 0 0)
(9.90792714e-13 0 0)
(7.09195654e-13 0 0)
(9.29350714e-13 0 0)
(7.11376282e-14 0 0)
(3.05750672e-13 0 0)
(1.01302741e-12 0 0)
(9.37461443e-13 0 0)
(5.0563707e-13 0 0)
(3.48123954e-13 0 0)
(1.223565e-12 0 0)
(4.65394321e-13 0 0)
(6.57988346e-13 0 0)
(9.51543144e-13 0 0)
(7.13012163e-13 0 0)
(1.13903462e-13 0 0)
(3.01776751e-13 0 0)
(5.72577467e-13 0 0)
(6.6729849e-13 0 0)
(9.70986007e-13 0 0)
(1.14803904e-12 0 0)
(7.10575767e-13 0 0)
(1.5834783e-12 0 0)
(8.7799952e-13 0 0)
(6.84059704e-13 0 0)
(3.45779772e-13 0 0)
(-2.8479241e-14 0 0)
(3.14589578e-13 0 0)
(9.28369631e-14 0 0)
(-2.53316739e-13 0 0)
(5.67977679e-13 0 0)
(-4.12770986e-13 0 0)
(2.54536065e-13 0 0)
(2.12459594e-14 0 0)
(-5.34889436e-13 0 0)
(-2.60283099e-13 0 0)
(2.02716629e-13 0 0)
(-2.31728613e-13 0 0)
(-3.21047295e-13 0 0)
(-2.53334872e-13 0 0)
(-3.54425338e-13 0 0)
(-6.34396107e-13 0 0)
(-4.91183868e-13 0 0)
(-1.17038406e-13 0 0)
(-2.42131856e-13 0 0)
(-3.62190212e-13 0 0)
(2.45209297e-13 0 0)
(-3.39397519e-13 0 0)
(-6.25587994e-13 0 0)
(1.57099667e-13 0 0)
(-2.95299658e-13 0 0)
(-6.5085015e-13 0 0)
(4.33668212e-14 0 0)
(5.12547001e-13 0 0)
(-5.58443045e-13 0 0)
(-3.83014085e-13 0 0)
(-6.33897182e-13 0 0)
(-3.06865889e-13 0 0)
(-3.69591818e-13 0 0)
(-4.84119648e-14 0 0)
(-3.17444075e-13 0 0)
(1.5781686e-15 0 0)
(2.61618912e-13 0 0)
(-5.26480828e-13 0 0)
(-5.52420579e-13 0 0)
(-8.34969463e-13 0 0)
(1.35320783e-14 0 0)
(-9.37124269e-13 0 0)
(-1.00129059e-13 0 0)
(-3.09716955e-13 0 0)
(3.10241967e-13 0 0)
(5.3625723e-13 0 0)
(-2.46808691e-13 0 0)
(6.05053341e-13 0 0)
(2.77178392e-13 0 0)
(4.40430205e-13 0 0)
(7.22445254e-13 0 0)
(6.52777808e-13 0 0)
(3.63238923e-14 0 0)
(-2.66926982e-13 0 0)
(2.67548951e-13 0 0)
(-5.60332835e-14 0 0)
(-1.10089601e-13 0 0)
(1.74084542e-13 0 0)
(-4.81402992e-13 0 0)
(-6.67784807e-13 0 0)
(4.69214149e-13 0 0)
(-4.36992456e-14 0 0)
(3.14236015e-13 0 0)
(-3.32430575e-14 0 0)
(-3.77611664e-13 0 0)
(-7.42554276e-13 0 0)
(-5.3606817e-13 0 0)
(-3.60143211e-13 0 0)
(-2.91248952e-13 0 0)
(-2.7383096e-13 0 0)
(-3.9037986e-13 0 0)
(-5.38106835e-13 0 0)
(-8.39356599e-14 0 0)
(-6.42542258e-13 0 0)
(-3.0682351e-13 0 0)
(-2.60869299e-13 0 0)
(5.7017926e-13 0 0)
(6.73683846e-13 0 0)
(3.67883349e-13 0 0)
(6.27097692e-13 0 0)
(6.43644059e-13 0 0)
(6.51769434e-13 0 0)
(6.59983403e-13 0 0)
(5.30570331e-13 0 0)
(-2.8694579e-13 0 0)
(5.20874346e-13 0 0)
(-2.81388548e-14 0 0)
(2.88972229e-14 0 0)
(-4.53144134e-14 0 0)
(1.11303327e-13 0 0)
(2.88797568e-13 0 0)
(1.90414731e-14 0 0)
(-3.15521967e-13 0 0)
(-3.3646593e-14 0 0)
(3.24811916e-13 0 0)
(3.10888652e-13 0 0)
(7.27064311e-14 0 0)
(6.6626753e-13 0 0)
(1.03023887e-12 0 0)
(9.61671888e-14 0 0)
(4.88055211e-13 0 0)
(1.27201349e-12 0 0)
(7.17419554e-13 0 0)
(9.5093824e-13 0 0)
(1.52263372e-13 0 0)
(3.99467674e-13 0 0)
(4.35569512e-13 0 0)
(6.91896776e-13 0 0)
(6.94481406e-13 0 0)
(4.05022268e-13 0 0)
(2.66889176e-13 0 0)
(-2.50277229e-13 0 0)
(1.15685698e-12 0 0)
(1.12255074e-13 0 0)
(5.09249688e-13 0 0)
(3.71358103e-13 0 0)
(2.36207738e-13 0 0)
(8.7466378e-13 0 0)
(-2.40981909e-13 0 0)
(-1.66614451e-14 0 0)
(5.94274905e-14 0 0)
(-2.8770687e-13 0 0)
(-6.49176577e-13 0 0)
(-9.02109461e-13 0 0)
(-3.43514284e-13 0 0)
(-2.46425273e-13 0 0)
(6.95692753e-14 0 0)
(3.80603948e-13 0 0)
(4.1347609e-13 0 0)
(6.8077845e-13 0 0)
(1.67959279e-13 0 0)
(1.2019638e-12 0 0)
(7.31290908e-13 0 0)
(6.1314651e-14 0 0)
(2.96885181e-13 0 0)
(9.15885537e-14 0 0)
(2.78864158e-13 0 0)
(-2.1542021e-13 0 0)
(2.78249336e-13 0 0)
(2.50585737e-13 0 0)
(-2.80313017e-14 0 0)
(2.77260011e-13 0 0)
(2.29750865e-13 0 0)
(-3.05294632e-15 0 0)
(3.01302693e-13 0 0)
(1.78862436e-13 0 0)
(3.35024805e-13 0 0)
(8.04415751e-13 0 0)
(-2.19791947e-13 0 0)
(7.96708023e-13 0 0)
(-2.67711051e-13 0 0)
(2.41113431e-13 0 0)
(2.64736348e-13 0 0)
(7.01610226e-14 0 0)
(8.5825792e-13 0 0)
(1.34711193e-14 0 0)
(6.0887827e-13 0 0)
(-2.24275128e-13 0 0)
(3.38488074e-13 0 0)
(3.37012193e-13 0 0)
(-3.89110151e-14 0 0)
(7.38363744e-14 0 0)
(-2.66164052e-13 0 0)
(8.3891326e-13 0 0)
(-8.24551294e-13 0 0)
(-8.64246616e-14 0 0)
(-5.07819335e-13 0 0)
(-6.14981243e-13 0 0)
(-9.24367531e-13 0 0)
(-6.08815736e-13 0 0)
(-9.01211077e-13 0 0)
(5.43595404e-15 0 0)
(-2.30014906e-13 0 0)
(1.18857189e-12 0 0)
(7.5195643e-13 0 0)
(5.31542981e-13 0 0)
(6.49203794e-13 0 0)
(5.74449165e-13 0 0)
(5.41045071e-13 0 0)
(3.875833e-13 0 0)
(-3.15119251e-13 0 0)
(-4.81259126e-14 0 0)
(3.40845191e-13 0 0)
(-3.52427587e-13 0 0)
(5.63633603e-15 0 0)
(4.23249421e-13 0 0)
(2.45937079e-13 0 0)
(-2.64801733e-13 0 0)
(6.59652999e-14 0 0)
(-1.41395351e-14 0 0)
(3.54151307e-13 0 0)
(7.64652967e-14 0 0)
(3.33574621e-13 0 0)
(7.31544476e-14 0 0)
(1.78856818e-13 0 0)
(-1.5667305e-13 0 0)
(5.68840219e-13 0 0)
(4.92815653e-14 0 0)
(6.29252245e-13 0 0)
(3.83322358e-13 0 0)
(1.23137303e-12 0 0)
(1.07012272e-12 0 0)
(9.81143895e-13 0 0)
(1.04764475e-12 0 0)
(1.35601279e-12 0 0)
(9.84964089e-13 0 0)
(5.62839672e-13 0 0)
(3.43513952e-13 0 0)
(2.27479926e-13 0 0)
(3.43932102e-14 0 0)
(-7.1762708e-14 0 0)
(3.12240599e-13 0 0)
(2.63468571e-13 0 0)
(-5.97951218e-13 0 0)
(2.4421253e-13 0 0)
(-9.21033545e-13 0 0)
(2.68837032e-13 0 0)
(-3.82365177e-13 0 0)
(-3.02296306e-13 0 0)
(-6.46529486e-13 0 0)
(-3.24454166e-13 0 0)
(-6.40522088e-13 0 0)
(-9.90421486e-13 0 0)
(-1.59838549e-12 0 0)
(-1.37771717e-12 0 0)
(-7.37743931e-13 0 0)
(-1.63644201e-12 0 0)
(-1.04943472e-12 0 0)
(-1.04673006e-12 0 0)
(-1.2493636e-12 0 0)
(-7.21712166e-13 0 0)
(-6.05447196e-13 0 0)
(-1.34362961e-12 0 0)
(-3.19260078e-13 0 0)
(-7.51139217e-14 0 0)
(-6.04466104e-13 0 0)
(-6.2974935e-13 0 0)
(-2.01452616e-14 0 0)
(6.44218069e-14 0 0)
(-1.1911756e-13 0 0)
(-1.10445644e-12 0 0)
(-3.88074073e-13 0 0)
(-6.4517711e-13 0 0)
(-8.82512366e-13 0 0)
(-9.78024159e-13 0 0)
(-1.27390222e-12 0 0)
(-1.20264289e-12 0 0)
(-9.43267997e-13 0 0)
(-9.3096147e-13 0 0)
(-9.01448652e-13 0 0)
(-3.86744963e-13 0 0)
(-3.20866968e-14 0 0)
(-1.5870855e-13 0 0)
(-3.56789442e-13 0 0)
(1.75614862e-13 0 0)
(4.9492387e-13 0 0)
(-3.12280592e-13 0 0)
(3.25710576e-14 0 0)
(2.92515389e-13 0 0)
(2.55265865e-13 0 0)
(2.62764619e-13 0 0)
(2.35091683e-13 0 0)
(6.96735494e-15 0 0)
(-4.25240221e-14 0 0)
(-2.80404379e-13 0 0)
(2.53101409e-13 0 0)
(-2.99105082e-13 0 0)
(-2.27318471e-13 0 0)
(5.55886159e-13 0 0)
(9.22598942e-13 0 0)
(8.99244087e-13 0 0)
(3.13014348e-13 0 0)
(2.46136102e-13 0 0)
(3.5795511e-13 0 0)
(8.72873706e-13 0 0)
(8.56617167e-14 0 0)
(-2.635438e-13 0 0)
(-2.0459501e-13 0 0)
(-2.02335498e-13 0 0)
(1.47207294e-13 0 0)
(2.91191158e-13 0 0)
(5.57382686e-15 0 0)
(-3.07008655e-13 0 0)
(-4.01769386e-13 0 0)
(5.42358767e-13 0 0)
(-3.31654165e-13 0 0)
(2.34508489e-13 0 0)
(-3.22290226e-13 0 0)
(-6.01291925e-14 0 0)
(-5.4586567e-13 0 0)
(2.10592681e-14 0 0)
(-2.18590558e-13 0 0)
(3.52682948e-13 0 0)
(-5.64326091e-13 0 0)
(-2.5351781e-13 0 0)
(-9.03787238e-13 0 0)
(-6.06525442e-13 0 0)
(-6.20413095e-13 0 0)
(1.6777472e-14 0 0)
(-2.30079945e-13 0 0)
(3.74048678e-13 0 0)
(1.3314113e-13 0 0)
(1.0630282e-12 0 0)
(1.00801918e-12 0 0)
(1.57495462e-12 0 0)
(3.86909196e-13 0 0)
(9.9244926e-13 0 0)
(6.2871645e-13 0 0)
(1.17290316e-12 0 0)
(6.95862784e-13 0 0)
(1.50329275e-12 0 0)
(-1.79812884e-13 0 0)
(1.23050335e-12 0 0)
(6.08052775e-13 0 0)
(6.83311787e-13 0 0)
(5.93639756e-13 0 0)
(7.49460914e-13 0 0)
(6.51090491e-13 0 0)
(7.62746975e-14 0 0)
(3.28464035e-13 0 0)
(-2.4904842e-13 0 0)
(6.42329266e-13 0 0)
(2.40548985e-13 0 0)
(-5.52291657e-13 0 0)
(-6.76685212e-13 0 0)
(-8.6249207e-14 0 0)
(2.94449484e-13 0 0)
(-8.32160919e-15 0 0)
(-8.75550127e-14 0 0)
(-7.24974144e-15 0 0)
(-3.58951189e-13 0 0)
(-6.27383203e-13 0 0)
(-6.84018203e-13 0 0)
(-3.62860004e-13 0 0)
(-2.85937079e-14 0 0)
(-6.30905108e-13 0 0)
(-3.66859733e-13 0 0)
(1.88760889e-13 0 0)
(-1.18222096e-13 0 0)
(-9.67913994e-13 0 0)
(-3.64897812e-13 0 0)
(-7.36042423e-13 0 0)
(-6.19019626e-13 0 0)
(-9.53902995e-13 0 0)
(-6.79195358e-13 0 0)
(-6.63281604e-13 0 0)
(-9.82971097e-13 0 0)
(-1.29077893e-12 0 0)
(-6.89272472e-13 0 0)
(-1.68276894e-13 0 0)
(-8.84936022e-13 0 0)
(-9.58975218e-13 0 0)
(-1.59785953e-12 0 0)
(-9.13455083e-13 0 0)
(-6.99692475e-13 0 0)
(2.84490453e-13 0 0)
(-5.76988583e-13 0 0)
(-7.72724545e-14 0 0)
(3.22809183e-13 0 0)
(-2.84364388e-13 0 0)
(4.36960442e-14 0 0)
(5.94176924e-13 0 0)
(6.4950406e-13 0 0)
(9.85792036e-13 0 0)
(3.25172382e-13 0 0)
(9.76130817e-13 0 0)
(6.15621433e-13 0 0)
(3.46406924e-13 0 0)
(1.24849667e-12 0 0)
(4.35803317e-13 0 0)
(6.44087661e-13 0 0)
(4.63100023e-13 0 0)
(9.95820487e-13 0 0)
(1.32470632e-13 0 0)
(-1.73312938e-13 0 0)
(4.1276907e-13 0 0)
(1.00238474e-12 0 0)
(3.8899365e-13 0 0)
(2.97994269e-13 0 0)
(-2.18903599e-13 0 0)
(5.80111502e-13 0 0)
(3.76974499e-13 0 0)
(7.13401833e-13 0 0)
(8.80079394e-13 0 0)
(1.03653924e-12 0 0)
(7.04101016e-13 0 0)
(9.8133276e-13 0 0)
(1.51184657e-12 0 0)
(8.46650657e-13 0 0)
(1.24564678e-12 0 0)
(1.33117657e-12 0 0)
(1.97907217e-12 0 0)
(1.31787684e-12 0 0)
(1.48618197e-12 0 0)
(8.16014644e-13 0 0)
(1.32244993e-12 0 0)
(1.03359716e-12 0 0)
(4.79957149e-13 0 0)
(1.34446563e-12 0 0)
(1.88648737e-12 0 0)
(1.73402629e-12 0 0)
(2.25405716e-12 0 0)
(1.63299696e-12 0 0)
(1.44592998e-12 0 0)
(1.86886104e-12 0 0)
(2.15509598e-12 0 0)
(1.29289415e-12 0 0)
(1.46969814e-12 0 0)
(9.86054087e-13 0 0)
(8.77743744e-13 0 0)
(9.54033249e-13 0 0)
(6.38584322e-13 0 0)
(9.30689106e-13 0 0)
(3.00422206e-14 0 0)
(6.89454839e-13 0 0)
(4.0189229e-13 0 0)
(3.34413806e-13 0 0)
(3.81375724e-13 0 0)
(4.23497055e-13 0 0)
(1.45319776e-13 0 0)
(4.78995728e-14 0 0)
(3.97068995e-13 0 0)
(1.08931764e-13 0 0)
(-2.31207645e-13 0 0)
(5.98523602e-14 0 0)
(1.10772862e-13 0 0)
(-2.41236965e-14 0 0)
(-2.23061071e-13 0 0)
(-8.83889866e-14 0 0)
(-1.85386261e-13 0 0)
(-7.03636539e-13 0 0)
(-3.20540086e-13 0 0)
(-1.0211216e-12 0 0)
(-9.63751385e-13 0 0)
(-8.32813153e-13 0 0)
(-2.12139734e-12 0 0)
(-1.03495685e-12 0 0)
(-1.60708102e-12 0 0)
(-1.08426924e-12 0 0)
(-1.27020236e-12 0 0)
(-1.3021159e-12 0 0)
(-6.15519963e-13 0 0)
(-6.27185521e-13 0 0)
(-9.13013267e-13 0 0)
(-7.0005088e-13 0 0)
(-1.20036275e-12 0 0)
(-9.96221386e-13 0 0)
(-9.59268414e-13 0 0)
(-4.80483511e-13 0 0)
(-9.24653216e-13 0 0)
(-1.03479556e-12 0 0)
(-4.08407134e-13 0 0)
(-1.41428106e-12 0 0)
(-1.00709738e-12 0 0)
(-1.38173663e-12 0 0)
(-1.40264662e-12 0 0)
(-1.0209055e-12 0 0)
(-1.02570212e-12 0 0)
(-1.01979668e-12 0 0)
(-2.91750467e-13 0 0)
(-3.5787554e-13 0 0)
(3.59560366e-13 0 0)
(5.35947857e-13 0 0)
(4.08014636e-14 0 0)
(5.51403791e-13 0 0)
(3.80279273e-13 0 0)
(6.43993611e-13 0 0)
(9.94107541e-13 0 0)
(1.91142493e-12 0 0)
(1.61597696e-12 0 0)
(1.36118106e-12 0 0)
(1.88830595e-12 0 0)
(1.66434869e-12 0 0)
(1.07537e-12 0 0)
(7.62508505e-13 0 0)
(2.05637071e-12 0 0)
(1.43333135e-12 0 0)
(1.70400113e-12 0 0)
(1.18778738e-12 0 0)
(1.65741727e-12 0 0)
(1.71973975e-12 0 0)
(-1.06194961e-14 0 0)
(6.59307715e-13 0 0)
(-1.45163982e-13 0 0)
(6.3810427e-14 0 0)
(1.12907069e-13 0 0)
(3.83741797e-13 0 0)
(3.89480588e-14 0 0)
(-7.19323649e-13 0 0)
(3.73041111e-13 0 0)
(8.04734157e-14 0 0)
(1.17476016e-13 0 0)
(3.91018615e-13 0 0)
(2.54604458e-13 0 0)
(5.493451e-13 0 0)
(-3.35614325e-13 0 0)
(8.23056779e-13 0 0)
(2.07249698e-13 0 0)
(-8.26575152e-14 0 0)
(3.46943643e-14 0 0)
(7.83029024e-13 0 0)
(-2.33416744e-13 0 0)
(5.80180247e-13 0 0)
(-6.51862979e-14 0 0)
(-2.32838407e-13 0 0)
(1.89733952e-14 0 0)
(3.26827557e-13 0 0)
(-2.65443588e-13 0 0)
(1.43868675e-14 0 0)
(-8.85116978e-13 0 0)
(-5.50507574e-14 0 0)
(-2.55111204e-13 0 0)
(-6.24501634e-14 0 0)
(-5.71200351e-13 0 0)
(-6.35952258e-13 0 0)
(-9.26973564e-14 0 0)
(-1.38967897e-13 0 0)
(-1.14216697e-12 0 0)
(-4.41012153e-13 0 0)
(-6.40518247e-13 0 0)
(-3.747767e-13 0 0)
(-4.24221247e-13 0 0)
(-4.50979503e-13 0 0)
(-1.34108579e-12 0 0)
(-1.29215168e-12 0 0)
(-7.26261045e-13 0 0)
(-1.70493982e-13 0 0)
(-9.22609882e-13 0 0)
(-3.76722217e-13 0 0)
(-1.32184069e-13 0 0)
(-1.18036586e-12 0 0)
(-7.35590278e-13 0 0)
(-4.62505384e-13 0 0)
(-5.52865249e-13 0 0)
(-7.05326837e-13 0 0)
(2.14285898e-13 0 0)
(-5.70874733e-13 0 0)
(1.94103656e-13 0 0)
(6.3555565e-13 0 0)
(3.38355282e-13 0 0)
(3.09176924e-13 0 0)
(8.64050453e-13 0 0)
(3.12635574e-13 0 0)
(1.63528142e-13 0 0)
(-4.63598901e-14 0 0)
(-3.28250676e-13 0 0)
(-1.47158935e-14 0 0)
(-1.04323909e-13 0 0)
(1.02080928e-13 0 0)
(1.17852509e-12 0 0)
(5.4294932e-13 0 0)
(3.20393519e-13 0 0)
(1.62639461e-14 0 0)
(2.62710708e-14 0 0)
(-4.90268387e-13 0 0)
(3.79401914e-13 0 0)
(-1.96514267e-13 0 0)
(-5.74528284e-14 0 0)
(-7.75635037e-13 0 0)
(6.2634499e-14 0 0)
(4.24739614e-13 0 0)
(3.97489346e-13 0 0)
(7.44451086e-13 0 0)
(4.80868181e-13 0 0)
(4.13768275e-13 0 0)
(1.03315127e-12 0 0)
(9.38595257e-13 0 0)
(9.18288025e-13 0 0)
(5.85702425e-13 0 0)
(5.98832975e-13 0 0)
(9.13743234e-13 0 0)
(3.55518653e-13 0 0)
(3.13928494e-13 0 0)
(7.0482409e-14 0 0)
(4.32833901e-13 0 0)
(-3.00409199e-13 0 0)
(-2.21049069e-13 0 0)
(-3.18849725e-13 0 0)
(-3.16198518e-13 0 0)
(-3.57205908e-13 0 0)
(-2.8607946e-13 0 0)
(1.30119869e-13 0 0)
(-1.00573049e-12 0 0)
(-1.25555626e-12 0 0)
(-9.55724084e-13 0 0)
(-5.1978368e-13 0 0)
(-1.23630417e-12 0 0)
(-1.90716936e-12 0 0)
(-7.77586762e-13 0 0)
(-1.00677639e-12 0 0)
(-7.05977235e-13 0 0)
(-1.27098681e-12 0 0)
(-1.361796e-12 0 0)
(-9.8401554e-13 0 0)
(-1.43686314e-12 0 0)
(-1.02604789e-12 0 0)
(-1.56658681e-12 0 0)
(-1.2635242e-12 0 0)
(-1.61565745e-12 0 0)
(-1.24466111e-12 0 0)
(-1.31724513e-12 0 0)
(-1.27148218e-12 0 0)
(-1.33970488e-12 0 0)
(-1.06836303e-12 0 0)
(-6.68498521e-13 0 0)
(-5.53613117e-13 0 0)
(-7.21657738e-13 0 0)
(-7.30236512e-14 0 0)
(-3.99136495e-13 0 0)
(-7.52652133e-14 0 0)
(-7.06946279e-13 0 0)
(-4.10165986e-13 0 0)
(-9.92970597e-14 0 0)
(-1.58668919e-13 0 0)
(-3.36862802e-14 0 0)
(4.97883494e-13 0 0)
(-8.54330933e-14 0 0)
(-4.91590647e-14 0 0)
(-7.06518259e-13 0 0)
(1.96512089e-13 0 0)
(-9.39593387e-13 0 0)
(-6.64383357e-13 0 0)
(-6.71811359e-13 0 0)
(-4.30555627e-13 0 0)
(-4.32005083e-13 0 0)
(-6.3846242e-13 0 0)
(-4.02868636e-13 0 0)
(-6.31585804e-13 0 0)
(4.9253868e-13 0 0)
(-5.52082904e-13 0 0)
(-9.45442397e-13 0 0)
(-8.77778775e-13 0 0)
(-5.60102543e-13 0 0)
(-6.36184875e-13 0 0)
(-1.17136288e-12 0 0)
(-6.20170936e-13 0 0)
(2.06140014e-13 0 0)
(3.51914105e-13 0 0)
(9.70374687e-13 0 0)
(6.17764876e-13 0 0)
(3.83661148e-13 0 0)
(8.47255504e-13 0 0)
(1.81879577e-13 0 0)
(1.02425925e-12 0 0)
(3.8752884e-13 0 0)
(3.97853818e-13 0 0)
(7.40820335e-13 0 0)
(1.37317607e-12 0 0)
(9.79159515e-13 0 0)
(1.06876076e-12 0 0)
(9.56824549e-13 0 0)
(9.19653933e-13 0 0)
(1.21763031e-12 0 0)
(2.84735243e-13 0 0)
(6.85360889e-13 0 0)
(6.40047583e-15 0 0)
(-4.9807823e-15 0 0)
(6.3923831e-13 0 0)
(3.15262445e-13 0 0)
(-2.62344663e-13 0 0)
(6.18687065e-13 0 0)
(5.56917665e-15 0 0)
(1.74918986e-13 0 0)
(8.14897018e-13 0 0)
(6.68570136e-13 0 0)
(6.2138407e-14 0 0)
(6.18214184e-13 0 0)
(5.89956592e-13 0 0)
(6.36878078e-13 0 0)
(5.70373862e-13 0 0)
(7.07764713e-14 0 0)
(-6.05718995e-13 0 0)
(-2.81186211e-14 0 0)
(2.27349538e-13 0 0)
(-6.09435938e-13 0 0)
(-5.96912402e-13 0 0)
(-3.83706844e-13 0 0)
(-9.3929975e-13 0 0)
(-1.20299637e-12 0 0)
(-1.00133063e-12 0 0)
(-1.54734163e-12 0 0)
(-9.60091418e-13 0 0)
(-1.21716944e-12 0 0)
(-7.22764421e-13 0 0)
(-1.26157099e-12 0 0)
(-1.34355768e-12 0 0)
(-1.5306235e-12 0 0)
(-1.4836489e-13 0 0)
(-1.22057596e-12 0 0)
(-9.82892035e-13 0 0)
(-3.81792077e-13 0 0)
(-9.3867103e-13 0 0)
(-6.90928624e-13 0 0)
(-1.45964172e-14 0 0)
(5.07728745e-13 0 0)
(-3.50275131e-13 0 0)
(-1.18420876e-13 0 0)
(-4.2656615e-13 0 0)
(7.21500537e-14 0 0)
(-1.951686e-13 0 0)
(-4.08929172e-13 0 0)
(7.31102994e-13 0 0)
(-7.0439028e-13 0 0)
(-9.62151738e-13 0 0)
(-6.97515302e-13 0 0)
(-8.70471902e-13 0 0)
(-1.29238639e-12 0 0)
(-1.73757907e-12 0 0)
(-9.83685313e-13 0 0)
(-3.07036062e-13 0 0)
(-3.42066721e-13 0 0)
(-3.31392234e-13 0 0)
(-4.27030947e-13 0 0)
(-9.08691366e-13 0 0)
(-1.18484255e-12 0 0)
(-3.38844286e-13 0 0)
(-5.6507987e-13 0 0)
(3.17536704e-13 0 0)
(2.35258812e-14 0 0)
(1.84750633e-14 0 0)
(3.34775536e-13 0 0)
(4.43061744e-13 0 0)
(3.63317249e-13 0 0)
(9.30643267e-14 0 0)
(9.56310534e-13 0 0)
(3.70754681e-13 0 0)
(6.6911904e-14 0 0)
(-3.229273e-14 0 0)
(2.30271868e-14 0 0)
(8.71335321e-13 0 0)
(9.53844941e-14 0 0)
(-2.57813087e-13 0 0)
(-1.04712164e-13 0 0)
(-2.1203286e-13 0 0)
(4.77259534e-14 0 0)
(3.31882669e-13 0 0)
(9.97587222e-13 0 0)
(3.40637216e-13 0 0)
(9.99614866e-13 0 0)
(3.24883432e-13 0 0)
(7.47182926e-13 0 0)
(8.68862008e-13 0 0)
(9.19502261e-13 0 0)
(9.7575614e-13 0 0)
(7.911501e-13 0 0)
(-1.72370589e-13 0 0)
(1.11866208e-12 0 0)
(1.2793586e-12 0 0)
(1.02198688e-12 0 0)
(1.27204947e-12 0 0)
(1.36605787e-12 0 0)
(1.30059226e-12 0 0)
(1.0511667e-12 0 0)
(6.85380285e-13 0 0)
(9.65865089e-13 0 0)
(9.41480441e-13 0 0)