/*--------------------------------*- C++ -*----------------------------------*\
| =========                 |                                                 |
| \\      /  F ield         | OpenFOAM: The Open Source CFD Toolbox           |
|  \\    /   O peration     | Version:  2206                                  |
|   \\  /    A nd           | Website:  www.openfoam.com                      |
|    \\/     M anipulation  |                                                 |
\*---------------------------------------------------------------------------*/
FoamFile
{
    version     2.0;
    format      ascii;
    arch        "LSB;label=32;scalar=64";
    class       volScalarField;
    location    "3.6e-06";
    object      p;
}
// * * * * * * * * * * * * * * * * * * * * * * * * * * * * * * * * * * * * * //

dimensions      [1 -1 -2 0 0 0 0];

internalField   nonuniform List<scalar> 
3183
(
101325
101325
101325
101325
101325
101325
101325
101325
101325
101325
101325
101325
101325
101325
101325
101325
101325
101325
101325
101325
101325
101325
101325
101325
101325
101325
101325
101325
101325
101325
101325
101325
101325
101325
101325
101325
101325
101325
101325
101325
101325
101325
101325
101325
101325
101325
101325
101325
101325
101325
101325
101325
101325
101325
101325
101325
101325
101325
101325
101325
101325
101325
101325
101325
101325
101325
101325
101325
101325
101325
101325
101325
101325
101325
101325
101325
101325
101325
101325
101325
101325
101325
101325
101325
101325
101325
101325
101325
101325
101325
101325
101325
101325
101325
101325
101325
101325
101325
101325
101325
101325
101325
101325
101325
101325
101325
101325
101325
101325
101325
101325
101325
101325
101325
101325
101325
101325
101325
101325
101325
101325
101325
101325
101325
101325
101325
101325
101325
101325
101325
101325
101325
101325
101325
101325
101325
101325
101325
101325
101325
101325
101325
101325
101325
101325
101325
101325
101325
101325
101325
101325
101325
101325
101325
101325
101325
101325
101325
101325
101325
101325
101325
101325
101325
101325
101325
101325
101325
101325
101325
101325
101325
101325
101325
101325
101325
101325
101325
101325
101325
101325
101325
101325
101325
101325
101325
101325
101325
101325
101325
101325
101325
101325
101325
101325
101325
101325
101325
101325
101325
101325
101325
101325
101325
101325
101325
101325
101325
101325
101325
101325
101325
101325
101325
101325
101325
101325
101325
101325
101325
101325
101325
101325
101325
101325
101325
101325
101325
101325
101325
101325
101325
101325
101325
101325
101325
101325
101325
101325
101325
101325
101325
101325
101325
101325
101325
101325
101325
101325
101325
101325
101325
101325
101325
101325
101325
101325
101325
101325
101325
101325
101325
101325
101325
101325
101325
101325
101325
101325
101325
101325
101325
101325
101325
101325
101325
101325
101325
101325
101325
101325
101325
101325
101325
101325
101325
101325
101325
101325
101325
101325
101325
101325
101325
101325
101325
101325
101325
101325
101325
101325
101325
101325
101325
101325
101325
101325
101325
101325
101325
101325
101325
101325
101325
101325
101325
101325
101325
101325
101325
101325
101325
101325
101325
101325
101325
101325
101325
101325
101325
101325
101325
101325
101325
101325
101325
101325
101325
101325
101325
101325
101325
101325
101325
101325
101325
101325
101325
101325
101325
101325
101325
101325
101325
101325
101325
101325
101325
101325
101325
101325
101325
101325
101325
101325
101325
101325
101325
101325
101325
101325
101325
101325
101325
101325
101325
101325
101325
101325
101325
101325
101325
101325
101325
101325
101325
101325
101325
101325
101325
101325
101325
101325
101325
101325
101325
101325
101325
101325
101325
101325
101325
101325
101325
101325
101325
101325
101325
101325
101325
101325
101325
101325
101325
101325
101325
101325
101325
101325
101325
101325
101325
101325
101325
101325
101325
101325
101325
101325
101325
101325
101325
101325
101325
101325
101325
101325
101325
101325
101325
101325
101325
101325
101325
101325
101325
101325
101325
101325
101325
101325
101325
101325
101325
101325
101325
101325
101325
101325
101325
101325
101325
101325
101325
101325
101325
101325
101325
101325
101325
101325
101325
101325
101325
101325
101325
101325
101325
101325
101325
101325
101325
101325
101325
101325
101325
101325
101325
101325
101325
101325
101325
101325
101325
101325
101325
101325
101325
101325
101325
101325
101325
101325
101325
101325
101325
101325
101325
101325
101325
101325
101325
101325
101325
101325
101325
101325
101325
101325
101325
101325
101325
101325
101325
101325
101325
101325
101325
101325
101325
101325
101325
101325
101325
101325
101325
101325
101325
101325
101325
101325
101325
101325
101325
101325
101325
101325
101325
101325
101325
101325
101325
101325
101325
101325
101325
101325
101325
101325
101325
101325
101325
101325
101325
101325
101325
101325
101325
101325
101325
101325
101325
101325
101325
101325
101325
101325
101325
101325
101325
101325
101325
101325
101325
101325
101325
101325
101325
101325
101325
101325
101325
101325
101325
101325
101325
101325
101325
101325
101325
101325
101325
101325
101325
101325
101325
101325
101325
101325
101325
101325
101325
101325
101325
101325
101325
101325
101325
101325
101325
101325
101325
101325
101325
101325
101325
101325
101325
101325
101325
101325
101325
101325
101325
101325
101325
101325
101325
101325
101325
101325
101325
101325
101325
101325
101325
101325
101325
101325
101325
101325
101325
101325
101325
101325
101325
101325
101325
101325
101325
101325
101325
101325
101325
101325
101325
101325
101325
101325
101325
101325
101325
101325
101325
101325
101325
101325
101325
101325
101325
101325
101325
101325
101325
101325
101325
101325
101325
101325
101325
101325
101325
101325
101325
101325
101325
101325
101325
101325
101325
101325
101325
101325
101325
101325
101325
101325
101325
101325
101325
101325
101325
101325
101325
101325
101325
101325
101325
101325
101325
101325
101325
101325
101325
101325
101325
101325
101325
101325
101325
101325
101325
101325
101325
101325
101325
101325
101325
101325
101325
101325
101325
101325
101325
101325
101325
101325
101325
101325
101325
101325
101325
101325
101325
101325
101325
101325
101325
101325
101325
101325
101325
101325
101325
101325
101325
101325
101325
101325
101325
101325
101325
101325
101325
101325
101325
101325
101325
101325
101325
101325
101325
101325
101325
101325
101325
101325
101325
101325
101325
101325
101325
101325
101325
101325
101325
101325
101325
101325
101325
101325
101325
101325
101325
101325
101325
101325
101325
101325
101325
101325
101325
101325
101325
101325
101325
101325
101325
101325
101325
101325
101325
101325
101325
101325
101325
101325
101325
101325
101325
101325
101325
101325
101325
101325
101325
101325
101325
101325
101325
101325
101325
101325
101325
101325
101325
101325
101325
101325
101325
101325
101325
101325
101325
101325
101325
101325
101325
101325
101325
101325
101325
101325
101325
101325
101325
101325
101325
101325
101325
101325
101325
101325
101325
101325
101325
101325
101325
101325
101325
101325
101325
101325
101325
101325
101325
101325
101325
101325
101325
101325
101325
101325
101325
101325
101325
101325
101325
101325
101325
101325
101325
101325
101325
101325
101325
101325
101325
101325
101325
101325
101325
101325
101325
101325
101325
101325
101325
101325
101325
101325
101325
101325
101325
101325
101325
101325
101325
101325
101325
101325
101325
101325
101325
101325
101325
101325
101325
101325
101325
101325
101325
101325
101325
101325
101325
101325
101325
101325
101325
101325
101325
101325
101325
101325
101325
101325
101325
101325
101325
101325
101325
101325
101325
101325
101325
101325
101325
101325
101325
101325
101325
101325
101325
101325
101325
101325
101325
101325
101325
101325
101325
101325
101325
101325
101325
101325
101325
101325
101325
101325
101325
101325
101325
101325
101325
101325
101325
101325
101325
101325
101325
101325
101325
101325
101325
101325
101325
101325
101325
101325
101325
101325
101325
101325
101325
101325
101325
101325
101325
101325
101325
101325
101325
101325
101325
101325
101325
101325
101325
101325
101325
101325
101325
101325
101325
101325
101325
101325
101325
101325
101325
101325
101325
101325
101325
101325
101325
101325
101325
101325
101325
101325
101325
101325
101325
101325
101325
101325
101325
101325
101325
101325
101325
101325
101325
101325
101325
101325
101325
101325
101325
101325
101325
101325
101325
101325
101325
101325
101325
101325
101325
101325
101325
101325
101325
101325
101325
101325
101325
101325
101325
101325
101325
101325
101325
101325
101325
101325
101325
101325
101325
101325
101325
101325
101325
101325
101325
101325
101325
101325
101325
101325
101325
101325
101325
101325
101325
101325
101325
101325
101325
101325
101325
101325
101325
101325
101325
101325
101325
101325
101325
101325
101325
101325
101325
101325
101325
101325
101325
101325
101325
101325
101325
101325
101325
101325
101325
101325
101325
101325
101325
101325
101325
101325
101325
101325
101325
101325
101325
101325
101325
101325
101325
101325
101325
101325
101325
101325
101325
101325
101325
101325
101325
101325
101325
101325
101325
101325
101325
101325
101325
101325
101325
101325
101325
101325
101325
101325
101325
101325
101325
101325
101325
101325
101325
101325
101325
101325
101325
101325
101325
101325
101325
101325
101325
101325
101325
101325
101325
101325
101325
101325
101325
101325
101325
101325
101325
101325
101325
101325
101325
101325
101325
101325
101325
101325
101325
101325
101325
101325
101325
101325
101325
101325
101325
101325
101325
101325
101325
101325
101325
101325
101325
101325
101325
101325
101325
101325
101325
101325
101325
101325
101325
101325
101325
101325
101325
101325
101325
101325
101325
101325
101325
101325
101325
101325
101325
101325
101325
101325
101325
101325
101325
101325
101325
101325
101325
101325
101325
101325
101325
101325
101325
101325
101325
101325
101325
101325
101325
101325
101325
101325
101325
101325
101325
101325
101325
101325
101325
101325
101325
101325
101325
101325
101325
101325
101325
101325
101325
101325
101325
101325
101325
101325
101325
101325
101325
101325
101325
101325
101325
101325
101325
101325
101325
101325
101325
101325
101325
101325
101325
101325
101325
101325
101325
101325
101325
101325
101325
101325
101325
101325
101325
101325
101325
101325
101325
101325
101325
101325
101325
101325
101325
101325
101325
101325
101325
101325
101325
101325
101325
101325
101325
101325
101325
101325
101325
101325
101325
101325
101325
101325
101325
101325
101325
101325
101325
101325
101325
101325
101325
101325
101325
101325
101325
101325
101325
101325
101325
101325
101325
101325
101325
101325
101325
101325
101325
101325
101325
101325
101325
101325
101325
101325
101325
101325
101325
101325
101325
101325
101325
101325
101325
101325
101325
101325
101325
101325
101325
101325
101325
101325
101325
101325
101325
101325
101325
101325
101325
101325
101325
101325
101325
101325
101325
101325
101325
101325
101325
101325
101325
101325
101325
101325
101325
101325
101325
101325
101325
101325
101325
101325
101325
101325
101325
101325
101325
101325
101325
101325
101325
101325
101325
101325
101325
101325
101325
101325
101325
101325
101325
101325
101325
101325
101325
101325
101325
101325
101325
101325
101325
101325
101325
101325
101325
101325
101325
101325
101325
101325
101325
101325
101325
101325
101325
101325
101325
101325
101325
101325
101325
101325
101325
101325
101325
101325
101325
101325
101325
101325
101325
101325
101325
101325
101325
101325
101325
101325
101325
101325
101325
101325
101325
101325
101325
101325
101325
101325
101325
101325
101325
101325
101325
101325
101325
101325
101325
101325
101325
101325
101325
101325
101325
101325
101325
101325
101325
101325
101325
101325
101325
101325
101325
101325
101325
101325
101325
101325
101325
101325
101325
101325
101325
101325
101325
101325
101325
101325
101325
101325
101325
101325
101325
101325
101325
101325
101325
101325
101325
101325
101325
101325
101325
101325
101325
101325
101325
101325
101325
101325
101325
101325
101325
101325
101325
101325
101325
101325
101325
101325
101325
101325
101325
101325
101325
101325
101325
101325
101325
101325
101325
101325
101325
101325
101325
101325
101325
101325
101325
101325
101325
101325
101325
101325
101325
101325
101325
101325
101325
101325
101325
101325
101325
101325
101325
101325
101325
101325
101325
101325
101325
101325
101325
101325
101325
101325
101325
101325
101325
101325
101325
101325
101325
101325
101325
101325
101325
101325
101325
101325
101325
101325
101325
101325
101325
101325
101325
101325
101325
101325
101325
101325
101325
101325
101325
101325
101325
101325
101325
101325
101325
101325
101325
101325
101325
101325
101325
101325
101325
101325
101325
101325
101325
101325
101325
101325
101325
101325
101325
101325
101325
101325
101325
101325
101325
101325
101325
101325
101325
101325
101325
101325
101325
101325
101325
101325
101325
101325
101325
101325
101325
101325
101325
101325
101325
101325
101325
101325
101325
101325
101325
101325
101325
101325
101325
101325
101325
101325
101325
101325
101325
101325
101325
101325
101325
101325
101325
101325
101325
101325
101325
101325
101325
101325
101325
101325
101325
101325
101325
101325
101325
101325
101325
101325
101325
101325
101325
101325
101325
101325
101325
101325
101325
101325
101325
101325
101325
101325
101325
101325
101325
101325
101325
101325
101325
101325
101325
101325
101325
101325
101325
101325
101325
101325
101325
101325
101325
101325
101325
101325
101325
101325
101325
101325
101325
101325
101325
101325
101325
101325
101325
101325
101325
101325
101325
101325
101325
101325
101325
101325
101325
101325
101325
101325
101325
101325
101325
101325
101325
101325
101325
101325
101325
101325
101325
101325
101325
101325
101325
101325
101325
101325
101325
101325
101325
101325
101325
101325
101325
101325
101325
101325
101325
101325
101325
101325
101325
101325
101325
101325
101325
101325
101325
101325
101325
101325
101325
101325
101325
101325
101325
101325
101325
101325
101325
101325
101325
101325
101325
101325
101325
101325
101325
101325
101325
101325
101325
101325
101325
101325
101325
101325
101325
101325
101325
101325
101325
101325
101325
101325
101325
101325
101325
101325
101325
101325
101325
101325
101325
101325
101325
101325
101325
101325
101325
101325
101325
101325
101325
101325
101325
101325
101325
101325
101325
101325
101325
101325
101325
101325
101325
101325
101325
101325
101325
101325
101325
101325
101325
101325
101325
101325
101325
101325
101325
101325
101325
101325
101325
101325
101325
101325
101325
101325
101325
101325
101325
101325
101325
101325
101325
101325
101325
101325
101325
101325
101325
101325
101325
101325
101325
101325
101325
101325
101325
101325
101325
101325
101325
101325
101325
101325
101325
101325
101325
101325
101325
101325
101325
101325
101325
101325
101325
101325
101325
101325
101325
101325
101325
101325
101325
101325
101325
101325
101325
101325
101325
101325
101325
101325
101325
101325
101325
101325
101325
101325
101325
101325
101325
101325
101325
101325
101325
101325
101325
101325
101325
101325
101325
101325
101325
101325
101325
101325
101325
101325
101325
101325
101325
101325
101325
101325
101325
101325
101325
101325
101325
101325
101325
101325
101325
101325
101325
101325
101325
101325
101325
101325
101325
101325
101325
101325
101325
101325
101325
101325
101325
101325
101325
101325
101325
101325
101325
101325
101325
101325
101325
101325
101325
101325
101325
101325
101325
101325
101325
101325
101325
101325
101325
101325
101325
101325
101325
101325
101325
101325
101325
101325
101325
101325
101325
101325
101325
101325
101325
101325
101325
101325
101325
101325
101325
101325
101325
101325
101325
101325
101325
101325
101325
101325
101325
101325
101325
101325
101325
101325
101325
101325
101325
101325
101325
101325
101325
101325
101325
101325
101325
101325
101325
101325
101325
101325
101325
101325
101325
101325
101325
101325
101325
101325
101325
101325
101325
101325
101325
101325
101325
101325
101325
101325
101325
101325
101325
101325
101325
101325
101325
101325
101325
101325
101325
101325
101325
101325
101325
101325
101325
101325
101325
101325
101325
101325
101325
101325
101325
101325
101325
101325
101325
101325
101325
101325
101325
101325
101325
101325
101325
101325
101325
101325
101325
101325
101325
101325
101325
101325
101325
101325
101325
101325
101325
101325
101325
101325
101325
101325
101325
101325
101325
101325
101325
101325
101325
101325
101325
101325
101325
101325
101325
101325
101325
101325
101325
101325
101325
101325
101325
101325
101325
101325
101325
101325
101325
101325
101325
101325
101325
101325
101325
101325
101325
101325
101325
101325
101325
101325
101325
101325
101325
101325
101325
101325
101325
101325
101325
101325
101325
101325
101325
101325
101325
101325
101325
101325
101325
101325
101325
101325
101325
101325
101325
101325
101325
101325
101325
101325
101325
101325
101325
101325
101325
101325
101325
101325
101325
101325
101325
101325
101325
101325
101325
101325
101325
101325
101325
101325
101325
101325
101325
101325
101325
101325
101325
101325
101325
101325
101325
101325
101325
101325
101325
101325
101325
101325
101325
101325
101325
101325
101325
101325
101325
101325
101325
101324.999
101324.999
101324.999
101324.999
101324.999
101324.999
101324.999
101324.999
101324.999
101324.999
101324.999
101324.998
101324.998
101324.998
101324.998
101324.998
101324.998
101324.997
101324.997
101324.997
101324.996
101324.996
101324.996
101324.995
101324.995
101324.994
101324.994
101324.993
101324.992
101324.992
101324.991
101324.99
101324.989
101324.988
101324.987
101324.986
101324.984
101324.983
101324.981
101324.979
101324.978
101324.976
101324.973
101324.971
101324.968
101324.965
101324.962
101324.959
101324.955
101324.951
101324.946
101324.942
101324.936
101324.931
101324.925
101324.918
101324.911
101324.903
101324.895
101324.886
101324.876
101324.865
101324.854
101324.842
101324.828
101324.814
101324.798
101324.782
101324.764
101324.744
101324.723
101324.701
101324.676
101324.65
101324.622
101324.592
101324.559
101324.525
101324.487
101324.447
101324.404
101324.359
101324.309
101324.257
101324.2
101324.14
101324.076
101324.007
101323.934
101323.856
101323.772
101323.683
101323.589
101323.488
101323.381
101323.267
101323.146
101323.018
101322.881
101322.737
101322.584
101322.421
101322.25
101322.068
101321.876
101321.674
101321.46
101321.234
101320.997
101320.746
101320.483
101320.206
101319.915
101319.609
101319.289
101318.953
101318.601
101318.233
101317.848
101317.446
101317.026
101316.588
101316.132
101315.657
101315.163
101314.65
101314.118
101313.566
101312.994
101312.403
101311.791
101311.16
101310.509
101309.839
101309.149
101308.44
101307.713
101306.967
101306.203
101305.422
101304.625
101303.813
101302.985
101302.144
101301.29
101300.425
101299.55
101298.665
101297.773
101296.876
101295.974
101295.07
101294.165
101293.261
101292.361
101291.466
101290.578
101289.7
101288.834
101287.981
101287.145
101286.328
101285.532
101284.758
101284.011
101283.291
101282.6
101281.942
101281.318
101280.731
101280.181
101279.671
101279.202
101278.776
101278.395
101278.058
101277.769
101277.526
101277.331
101277.184
101277.086
101277.036
101277.034
101277.08
101277.173
101277.312
101277.495
101277.723
101277.992
101278.302
101278.65
101279.035
101279.454
101279.906
101280.387
101280.895
101281.428
101281.983
101282.557
101283.149
101283.755
101284.373
101285
101285.635
101286.275
101286.918
101287.562
101288.206
101288.847
101289.485
101290.119
101290.746
101291.367
101291.981
101292.588
101293.187
101293.777
101294.36
101294.935
101295.502
101296.062
101296.615
101297.161
101297.7
101298.234
101298.762
101299.285
101299.801
101300.313
101300.819
101301.318
101301.811
101302.297
101302.774
101303.242
101303.7
101304.145
101304.576
101304.991
101305.388
101305.765
101306.119
101306.449
101306.752
101307.026
101307.269
101307.479
101307.655
101307.795
101307.9
101307.969
101308.002
101308.002
101307.97
101307.91
101307.825
101307.72
101307.599
101307.47
101307.336
101307.205
101307.082
101306.97
101306.875
101306.798
101306.74
101306.699
101306.661
101306.642
101306.97
101307.261
101307.004
101305.06
101305.45
101305.683
101306.045
101306.077
101306.099
101306.063
101306.03
101305.997
101305.972
101305.954
101305.945
101305.945
101305.954
101305.972
101305.998
101306.033
101306.074
101306.122
101306.175
101306.232
101306.292
101306.353
101306.415
101306.476
101306.535
101306.59
101306.641
101306.687
101306.726
101306.758
101306.783
101306.799
101306.806
101306.803
101306.792
101306.77
101306.738
101306.697
101306.645
101306.584
101306.514
101306.434
101306.344
101306.247
101306.14
101306.026
101305.904
101305.774
101305.638
101305.495
101305.346
101305.191
101305.031
101304.865
101304.695
101304.521
101304.342
101304.159
101303.974
101303.784
101303.592
101303.398
101303.2
101303.001
101302.799
101302.596
101302.39
101302.183
101301.975
101301.765
101301.554
101301.341
101301.127
101300.913
101300.697
101300.48
101300.261
101300.042
101299.822
101299.6
101299.377
101299.153
101298.928
101298.702
101298.473
101298.244
101298.013
101297.78
101297.545
101297.308
101297.069
101296.828
101296.585
101296.339
101296.091
101295.841
101295.587
101295.331
101295.072
101294.809
101294.544
101294.275
101294.003
101293.728
101293.449
101293.166
101292.88
101292.591
101292.297
101292
101291.7
101291.395
101291.088
101290.776
101290.461
101290.143
101289.821
101289.496
101289.167
101288.836
101288.502
101288.165
101287.826
101287.484
101287.14
101286.794
101286.447
101286.098
101285.748
101285.397
101285.045
101284.693
101284.341
101283.99
101283.639
101283.289
101282.941
101282.595
101282.25
101281.908
101281.569
101281.233
101280.901
101280.573
101280.25
101279.931
101279.617
101279.309
101279.007
101278.712
101278.423
101278.142
101277.868
101277.602
101277.344
101277.095
101276.855
101276.624
101276.403
101276.191
101275.99
101275.8
101275.62
101275.452
101275.294
101275.149
101275.015
101274.893
101274.783
101274.685
101274.6
101274.528
101274.468
101274.422
101274.39
101274.371
101274.367
101274.377
101274.401
101274.438
101274.487
101274.549
101274.623
101274.71
101274.81
101274.924
101275.051
101275.19
101275.343
101275.509
101275.688
101275.879
101276.083
101276.299
101276.527
101276.767
101277.018
101277.281
101277.555
101277.84
101278.136
101278.442
101278.758
101279.084
101279.42
101279.765
101280.119
101280.482
101280.853
101281.232
101281.619
101282.014
101282.416
101282.825
101283.24
101283.662
101284.09
101284.523
101284.962
101285.405
101285.854
101286.306
101286.763
101287.223
101287.687
101288.154
101288.624
101289.096
101289.571
101290.047
101290.525
101291.005
101291.485
101291.967
101292.449
101292.931
101293.413
101293.895
101294.376
101294.857
101295.336
101295.815
101296.292
101296.767
101297.241
101297.712
101298.181
101298.648
101299.112
101299.574
101300.032
101300.487
101300.939
101301.387
101301.832
101302.273
101302.71
101303.143
101303.572
101303.997
101304.418
101304.834
101305.245
101305.652
101306.054
101306.451
101306.844
101307.232
101307.614
101307.992
101308.364
101308.731
101309.094
101309.451
101309.802
101310.149
101310.49
101310.826
101311.157
101311.482
101311.802
101312.117
101312.426
101312.73
101313.029
101313.323
101313.611
101313.894
101314.172
101314.445
101314.713
101314.975
101315.232
101315.485
101315.732
101315.975
101316.212
101316.445
101316.672
101316.896
101317.114
101317.327
101317.537
101317.741
101317.941
101318.136
101318.328
101318.514
101318.697
101318.875
101319.049
101319.22
101319.386
101319.548
101319.706
101319.86
101320.011
101320.158
101320.301
101320.441
101320.577
101320.709
101320.839
101320.965
101321.087
101321.207
101321.323
101321.437
101321.547
101321.654
101321.759
101321.86
101321.959
101322.055
101322.149
101322.239
101322.328
101322.413
101322.497
101322.578
101322.657
101322.733
101322.807
101322.879
101322.949
101323.017
101323.083
101323.147
101323.209
101323.269
101323.328
101323.384
101323.439
101323.492
101323.544
101323.594
101323.642
101323.689
101323.734
101323.778
101323.821
101323.862
101323.902
101323.941
101323.978
101324.014
101324.049
101324.083
101324.116
101324.148
101324.179
101324.208
101324.237
101324.265
101324.291
101324.317
101324.342
101324.366
101324.39
101324.412
101324.434
101324.455
101324.475
101324.495
101324.514
101324.532
101324.55
101324.567
101324.583
101324.599
101324.614
101324.629
101324.643
101324.657
101324.67
101324.683
101324.695
101324.707
101324.718
101324.729
101324.74
101324.75
101324.76
101324.769
101324.778
101324.787
101324.796
101324.804
101324.811
101324.819
101324.826
101324.833
101324.84
101324.846
101324.853
101324.858
101324.864
101324.87
101324.875
101324.88
101324.885
101324.89
101324.894
101324.899
101324.903
101324.907
101324.911
101324.914
101324.918
101324.921
101324.925
101324.928
101324.931
101324.934
101324.937
101324.939
101324.942
101324.944
101324.947
101324.949
101324.951
101324.953
101324.955
101324.957
101324.959
101324.961
101324.962
101324.964
101324.966
101324.967
101324.968
101324.97
101324.971
101324.972
101324.974
101324.975
101324.976
101324.977
101324.978
101324.979
101324.98
101324.981
101324.982
101324.982
101324.983
101324.984
101324.985
101324.985
101324.986
101324.987
101324.987
101324.988
101324.988
101324.989
101324.989
101324.99
101324.99
101324.991
101324.991
101324.992
101324.992
101324.992
101324.993
101324.993
101324.993
101324.994
101324.994
101324.994
101324.995
101324.995
101324.995
101324.995
101324.996
101324.996
101324.996
101324.996
101324.996
101324.997
101324.997
101324.997
101324.997
101324.997
101324.997
101324.998
101324.998
101324.998
101324.998
101324.998
101324.998
101324.999
101324.999
101324.999
101324.999
101324.999
101324.999
101324.999
101325
101325
101325
101325
101325
101325
101325
101325
101325
101325
101325
101325
101325
101325
101325
101325
101325
101325
101325
101325
101325
101325
101325
101325
101325
101325
101325
101325
101325
101325
101325
101325
101325
101325
101325
101325
101325
101325
101325
101325
101325
101325
101325
101325
101325
101325
101325
101325
101325
101325
101325
101325
101325
101325
101325
101325
101325
101325
101325
101325
)
;

boundaryField
{
    closed
    {
        type            zeroGradient;
    }
    open
    {
        type            waveTransmissive;
        gamma           1.25;
        fieldInf        101325;
        lInf            1;
        value           uniform 101325;
    }
    sides
    {
        type            empty;
    }
}


// ************************************************************************* //
