/*--------------------------------*- C++ -*----------------------------------*\
| =========                 |                                                 |
| \\      /  F ield         | OpenFOAM: The Open Source CFD Toolbox           |
|  \\    /   O peration     | Version:  2206                                  |
|   \\  /    A nd           | Website:  www.openfoam.com                      |
|    \\/     M anipulation  |                                                 |
\*---------------------------------------------------------------------------*/
FoamFile
{
    version     2.0;
    format      ascii;
    arch        "LSB;label=32;scalar=64";
    class       volScalarField;
    location    "3.6e-06";
    object      sourcePV;
}
// * * * * * * * * * * * * * * * * * * * * * * * * * * * * * * * * * * * * * //

dimensions      [1 -3 -1 0 0 0 0];

internalField   nonuniform List<scalar> 
3183
(
0
0
0
0
0
0
0
0
0
0
0
0
0
0
0
0
0
0
0
0
0
0
0
0
0
0
0
0
0
0
0
0
0
0
0
0
0
0
0
0
0
0
0
0
0
0
0
0
0
0
0
0
0
0
0
0
0
0
0
0
0
0
0
0
0
0
0
0
0
0
0
0
0
0
0
0
0
0
0
0
0
0
0
0
0
0
0
0
0
0
0
0
0
0
0
0
0
0
0
0
0
0
0
0
0
0
0
0
0
0
0
0
0
0
0
0
0
0
0
0
0
0
0
0
0
0
0
0
0
0
0
0
0
0
0
0
0
0
0
0
0
0
0
0
0
0
0
0
0
0
0
0
0
0
0
0
0
0
0
0
0
0
0
0
0
0
0
0
0
0
0
0
0
0
0
0
0
0
0
0
0
0
0
0
0
0
0
0
0
0
0
0
0
0
0
0
0
0
0
0
0
0
0
0
0
0
0
0
0
0
0
0
0
0
0
0
0
0
0
0
0
0
0
0
0
0
0
0
0
0
0
0
0
0
0
0
0
0
0
0
0
0
0
0
0
0
0
0
0
0
0
0
0
0
0
0
0
0
0
0
0
0
0
0
0
0
0
0
0
0
0
0
0
0
0
0
0
0
0
0
0
0
0
0
0
0
0
0
0
0
0
0
0
0
0
0
0
0
0
0
0
0
0
0
0
0
0
0
0
0
0
0
0
0
0
0
0
0
0
0
0
0
0
0
0
0
0
0
0
0
0
0
0
0
0
0
0
0
0
0
0
0
0
0
0
0
0
0
0
0
0
0
0
0
0
0
0
0
0
0
0
0
0
0
0
0
0
0
0
0
0
0
0
0
0
0
0
0
0
0
0
0
0
0
0
0
0
0
0
0
0
0
0
0
0
0
0
0
0
0
0
0
0
0
0
0
0
0
0
0
0
0
0
0
0
0
0
0
0
0
0
0
0
0
0
0
0
0
0
0
0
0
0
0
0
0
0
0
0
0
0
0
0
0
0
0
0
0
0
0
0
0
0
0
0
0
0
0
0
0
0
0
0
0
0
0
0
0
0
0
0
0
0
0
0
0
0
0
0
0
0
0
0
0
0
0
0
0
0
0
0
0
0
0
0
0
0
0
0
0
0
0
0
0
0
0
0
0
0
0
0
0
0
0
0
0
0
0
0
0
0
0
0
0
0
0
0
0
0
0
0
0
0
0
0
0
0
0
0
0
0
0
0
0
0
0
0
0
0
0
0
0
0
0
0
0
0
0
0
0
0
0
0
0
0
0
0
0
0
0
0
0
0
0
0
0
0
0
0
0
0
0
0
0
0
0
0
0
0
0
0
0
0
0
0
0
0
0
0
0
0
0
0
0
0
0
0
0
0
0
0
0
0
0
0
0
0
0
0
0
0
0
0
0
0
0
0
0
0
0
0
0
0
0
0
0
0
0
0
0
0
0
0
0
0
0
0
0
0
0
0
0
0
0
0
0
0
0
0
0
0
0
0
0
0
0
0
0
0
0
0
0
0
0
0
0
0
0
0
0
0
0
0
0
0
0
0
0
0
0
0
0
0
0
0
0
0
0
0
0
0
0
0
0
0
0
0
0
0
0
0
0
0
0
0
0
0
0
0
0
0
0
0
0
0
0
0
0
0
0
0
0
0
0
0
0
0
0
0
0
0
0
0
0
0
0
0
0
0
0
0
0
0
0
0
0
0
0
0
0
0
0
0
0
0
0
0
0
0
0
0
0
0
0
0
0
0
0
0
0
0
0
0
0
0
0
0
0
0
0
0
0
0
0
0
0
0
0
0
0
0
0
0
0
0
0
0
0
0
0
0
0
0
0
0
0
0
0
0
0
0
0
0
0
0
0
0
0
0
0
0
0
0
0
0
0
0
0
0
0
0
0
0
0
0
0
0
0
0
0
0
0
0
0
0
0
0
0
0
0
0
0
0
0
0
0
0
0
0
0
0
0
0
0
0
0
0
0
0
0
0
0
0
0
0
0
0
0
0
0
0
0
0
0
0
0
0
0
0
0
0
0
0
0
0
0
0
0
0
0
0
0
0
0
0
0
0
0
0
0
0
0
0
0
0
0
0
0
0
0
0
0
0
0
0
0
0
0
0
0
0
0
0
0
0
0
0
0
0
0
0
0
0
0
0
0
0
0
0
0
0
0
0
0
0
0
0
0
0
0
0
0
0
0
0
0
0
0
0
0
0
0
0
0
0
0
0
0
0
0
0
0
0
0
0
0
0
0
0
0
0
0
0
0
0
0
0
0
0
0
0
0
0
0
0
0
0
0
0
0
0
0
0
0
0
0
0
0
0
0
0
0
0
0
0
0
0
0
0
0
0
0
0
0
0
0
0
0
0
0
0
0
0
0
0
0
0
0
0
0
0
0
0
0
0
0
0
0
0
0
0
0
0
0
0
0
0
0
0
0
0
0
0
0
0
0
0
0
0
0
0
0
0
0
0
0
0
0
0
0
0
0
0
0
0
0
0
0
0
0
0
0
0
0
0
0
0
0
0
0
0
0
0
0
0
0
0
0
0
0
0
0
0
0
0
0
0
0
0
0
0
0
0
0
0
0
0
0
0
0
0
0
0
0
0
0
0
0
0
0
0
0
0
0
0
0
0
0
0
0
0
0
0
0
0
0
0
0
0
0
0
0
0
0
0
0
0
0
0
0
0
0
0
0
0
0
0
0
0
0
0
0
0
0
0
0
0
0
0
0
0
0
0
0
0
0
0
0
0
0
0
0
0
0
0
0
0
0
0
0
0
0
0
0
0
0
0
0
0
0
0
0
0
0
0
0
0
0
0
0
0
0
0
0
0
0
0
0
0
0
0
0
0
0
0
0
0
0
0
0
0
0
0
0
0
0
0
0
0
0
0
0
0
0
0
0
0
0
0
0
0
0
0
0
0
0
0
0
0
0
0
0
0
0
0
0
0
0
0
0
0
0
0
0
0
0
0
0
0
0
0
0
0
0
0
0
0
0
0
0
0
0
0
0
0
0
0
0
0
0
0
0
0
0
0
0
0
0
0
0
0
0
0
0
0
0
0
0
0
0
0
0
0
0
0
0
0
0
0
0
0
0
0
0
0
0
0
0
0
0
0
0
0
0
0
0
0
0
0
0
0
0
0
0
0
0
0
0
0
0
0
0
0
0
0
0
0
0
0
0
0
0
0
0
0
0
0
0
0
0
0
0
0
0
0
0
0
0
0
0
0
0
0
0
0
0
0
0
0
0
0
0
0
0
0
0
0
0
0
0
0
0
0
0
0
0
0
0
0
0
0
0
0
0
0
0
0
0
0
0
0
0
0
0
0
0
0
0
0
0
0
0
0
0
0
0
0
0
0
0
0
0
0
0
0
0
0
0
0
0
0
0
0
0
0
0
0
0
0
0
0
0
0
0
0
0
0
0
0
0
0
0
0
0
0
0
0
0
0
0
0
0
0
0
0
0
0
0
0
0
0
0
0
0
0
0
0
0
0
0
0
0
0
0
0
0
0
0
0
0
0
0
0
0
0
0
0
0
0
0
0
0
0
0
0
0
0
0
0
0
0
0
0
0
0
0
0
0
0
0
0
0
0
0
0
0
0
0
0
0
0
0
0
0
0
0
0
0
0
0
0
0
0
0
0
0
0
0
0
0
0
0
0
0
0
0
0
0
0
0
0
0
0
0
0
0
0
0
0
0
0
0
0
0
0
0
0
0
0
0
0
0
0
0
0
0
0
0
0
0
0
0
0
0
0
0
0
0
0
0
0
0
0
0
0
0
0
0
0
0
0
0
0
0
0
0
0
0
0
0
0
0
0
0
0
0
0
0
0
0
0
0
0
0
0
0
0
0
0
0
0
0
0
0
0
0
0
0
0
0
0
0
0
0
0
0
0
0
0
0
0
0
0
0
0
0
0
0
0
0
0
0
0
0
0
0
0
0
0
0
0
0
0
0
0
0
0
0
0
0
0
0
0
0
0
0
0
0
0
0
0
0
0
0
0
0
0
0
0
0
0
0
0
0
0
0
0
0
0
0
0
0
0
0
0
0
0
0
0
0
0
0
0
0
0
0
0
0
0
0
0
0
0
0
0
0
0
0
0
0
0
0
0
0
0
0
0
0
0
0
0
0
0
0
0
0
0
0
0
0
0
0
0
0
0
0
0
0
0
0
0
0
0
0
0
0
0
0
0
0
0
0
0
0
0
0
0
0
0
0
0
0
0
0
0
0
0
0
0
0
0
0
0
0
0
0
0
0
0
0
0
0
0
0
0
0
0
0
0
0
0
0
0
0
0
0
0
0
0
0
0
0
0
0
0
0
0
0
0
0
0
0
0
0
0
0
0
0
0
0
0
0
0
0
0
0
0
0
0
0
0
0
0
0
0
0
0
0
0
0
0
0
0
0
0
0
0
0
0
0
0
0
0
0
0
0
0
0
0
0
0
0
0
0
0
0
0
0
0
0
0
0
0
0
0
0
0
0
0
0
0
0
0
0
0
0
0
0
0
0
0
0
0
0
0
0
0
0
0
0
0
0
0
0
0
0
0
0
0
0
0
0
0
0
0
0
0
0
0
0
0
0
0
0
0
0
0
0
0
0
0
0
0
0
0
0
0
0
0
0
0
0
0
0
0
0
0
0
0
0
0
0
0
0
0
0
0
0
0
0
0
0
0
0
0
0
0
0
0
0
0
0
0
0
0
0
0
0
0
0
0
0
0
0
0
0
0
0
0
0
0
0
0
0
0
0
0
0
0
0
0
0
0
0
0
0
0
0
0
0
0
0
0
0
0
0
0
0
0
0
0
0
0
0
0
0
0
0
0
0
0
0
0
0
0
0
0
0
0
0
0
0
0
0
0
0
0
0
0
0
0
0
0
0
0
0
0
0
0
0
0
0
0
0
0
0
0
0
0
0
0
0
0
0
0
0
0
0
0
0
0
0
0
0
0
0
0
0
0
0
0
0
0
0
0
0
0
0
0
0
0
0
0
0
0
0
0
0
0
0
0
0
0
0
0
0
0
0
0
0
0
0
0
0
0
0
0
0
0
0
0
0
0
0
0
0
0
0
0
0
0
0
0
0
0
0
0
0
0
0
0
0
0
0
0
0
0
0
0
0
0
0
0
0
0
0
0
0
0
0
0
0
0
0
0
0
0
0
0
0
0
0
0
0
0
0
0
0
0
0
0
0
0
0
0
0
0
0
0
0
0
0
0
0
0
0
0
0
0
0
0
0
0
0
0
0
0
0
0
0
0
0
0
0
0
0
0
0
0
0
0
0
0
0
0
0
0
0
0
0
0
0
0
0
0
0
0
0
0
0
0
0
0
0
0
0
0
0
0
0
0
0
0
0
0
0
0
0
0
0
0
0
0
0
0
0
0
0
0
0
0
0
0
0
0
0
0
0
0
0
0
0
0
0
0
0
0
0
0
0
0
0
0
0
0
0
0
0
0
0
0
0
0
0
0
0
0
0
0
0
0
0
0
0
0
0
0
0
0
0
0
0
0
0
0
0
0
0
0
0
0
0
0
0
0
0
0
0
0
0
0
0
0
4.64950026e-291
0
6.47974717e-281
0
4.65272219e-271
0
1.72123619e-261
0
3.28053343e-252
0
3.22110594e-243
0
1.62932523e-234
0
4.24559728e-226
0
5.69882485e-218
0
3.94037513e-210
0
1.40343424e-202
0
2.57488432e-195
0
2.43370352e-188
0
1.18522805e-181
0
2.97530106e-175
0
3.85300184e-169
0
2.57801635e-163
0
8.93936359e-158
0
8.6992177e-154
0
4.51619007e-150
0
1.6517019e-146
0
4.75353537e-143
0
1.14112763e-139
0
2.36770565e-136
0
4.34815374e-133
0
7.18743373e-130
0
1.08280339e-126
0
1.50099331e-123
0
1.92893645e-120
0
2.31193709e-117
0
2.59702302e-114
0
2.74514704e-111
0
2.73967422e-108
0
2.58876351e-105
0
2.32150176e-102
0
1.97966203e-99
0
1.60799628e-96
5.16209199e-98
1.24583757e-93
8.9657018e-95
9.21785462e-91
1.00364598e-91
6.51945318e-88
9.35075318e-89
4.41109912e-85
7.76805818e-86
2.85697288e-82
5.92321506e-83
1.77211468e-79
4.20800118e-80
1.05303825e-76
2.80956781e-77
5.99574979e-74
1.77255552e-74
3.27123726e-71
1.06042476e-71
1.71007089e-68
6.02942178e-69
8.56358418e-66
3.26304212e-66
4.10659664e-63
1.68225864e-63
1.88484668e-60
8.26519455e-61
8.27470775e-58
3.86992206e-58
3.47179528e-55
1.72620298e-55
1.3907279e-52
7.33058135e-53
5.3123765e-50
2.96092333e-50
1.93225447e-47
1.13608269e-47
6.68069415e-45
4.13425212e-45
2.1911739e-42
1.42410574e-42
6.80117809e-40
4.63256425e-40
1.99205956e-37
1.41906112e-37
5.48720475e-35
4.07938955e-35
1.41563876e-32
1.0959841e-32
3.40367905e-30
2.73800534e-30
7.58033141e-28
6.32083303e-28
1.55188444e-25
1.33789559e-25
2.89227119e-23
2.57068144e-23
4.84505154e-21
4.42535471e-21
7.1704801e-19
6.70607515e-19
9.14892349e-17
8.7330312e-17
9.69925247e-15
9.41454455e-15
8.03714129e-13
7.96398133e-13
2.69206335e-10
2.7087517e-10
5.50094443
7.81226212
4.68024959
3.89498297
0.275336591
0.254982241
0.0242624373
0.0239700428
0.00191288883
0.00190715341
0.000137425513
0.000138945786
1.59595121e-05
1.61108562e-05
8.52383791e-06
8.53689113e-06
8.11480926e-06
8.11567263e-06
8.09424628e-06
8.09429052e-06
8.09329408e-06
8.09329108e-06
8.09325161e-06
8.09324946e-06
8.09324698e-06
8.09325332e-06
8.09324945e-06
8.09324743e-06
8.09325054e-06
8.09325528e-06
8.09324767e-06
8.09324099e-06
8.09325305e-06
8.0932588e-06
8.09323699e-06
8.09325152e-06
8.09324901e-06
8.09324613e-06
8.09324585e-06
8.09324872e-06
8.09325226e-06
8.09325137e-06
8.09325168e-06
8.09324691e-06
8.09324915e-06
8.09324539e-06
8.09325603e-06
8.09324459e-06
8.09325591e-06
8.09323981e-06
8.09325534e-06
8.09324959e-06
8.09324748e-06
8.09325601e-06
8.09324594e-06
8.0932464e-06
8.09325022e-06
8.09324892e-06
8.09326026e-06
8.09324514e-06
8.0932582e-06
8.0932454e-06
8.09325467e-06
8.09325436e-06
8.09324336e-06
8.09325264e-06
8.09324977e-06
8.09324848e-06
8.09325282e-06
8.09324264e-06
8.09325767e-06
8.09323479e-06
8.09325805e-06
8.09324291e-06
8.09325922e-06
8.09324165e-06
8.09325897e-06
8.0932488e-06
8.09325861e-06
8.09325599e-06
8.09325227e-06
8.09325472e-06
8.09325604e-06
8.09325437e-06
8.0932547e-06
8.09325249e-06
8.0932438e-06
8.09325588e-06
8.09325459e-06
8.09324357e-06
8.09325945e-06
8.0932602e-06
8.09324571e-06
8.09326245e-06
8.09324918e-06
8.09325104e-06
8.09325481e-06
8.0932594e-06
8.0932599e-06
8.09324424e-06
8.09325537e-06
8.09325423e-06
8.093254e-06
8.0932602e-06
8.09325776e-06
8.0932535e-06
8.09325474e-06
8.09326304e-06
8.09325377e-06
8.09324932e-06
8.09326465e-06
8.09324323e-06
8.09326063e-06
8.09325006e-06
8.09325702e-06
8.09325519e-06
8.09325862e-06
8.09325897e-06
8.09325722e-06
8.09326102e-06
8.09325849e-06
8.09324833e-06
8.09325771e-06
8.09325558e-06
8.09325738e-06
8.09325259e-06
8.09325487e-06
8.09325756e-06
8.09326129e-06
8.09326345e-06
8.0932582e-06
8.09324862e-06
8.09326375e-06
8.09327496e-06
8.09324985e-06
8.09327148e-06
8.09325418e-06
8.09325305e-06
8.09326891e-06
8.09325263e-06
8.09326745e-06
8.09325748e-06
8.09326747e-06
8.09325442e-06
8.09325943e-06
8.09326343e-06
8.09326203e-06
8.09325742e-06
8.09326442e-06
8.09326516e-06
8.09326445e-06
8.09326452e-06
8.09326086e-06
8.0932684e-06
8.09325983e-06
8.09326653e-06
8.09326104e-06
8.09326907e-06
8.09325896e-06
8.09326257e-06
8.09325854e-06
8.09326612e-06
8.09326501e-06
8.09326054e-06
8.09326866e-06
8.09327032e-06
8.09326233e-06
8.09326411e-06
8.0932664e-06
8.09326857e-06
8.09326037e-06
8.09325605e-06
8.09326463e-06
8.09326683e-06
8.09326051e-06
8.0932672e-06
8.09326696e-06
8.0932677e-06
8.09326633e-06
8.09328293e-06
8.09327086e-06
8.09327778e-06
8.09326439e-06
8.09327224e-06
8.09326673e-06
8.09326749e-06
8.09327974e-06
8.0932669e-06
8.09327289e-06
8.09327139e-06
8.09327636e-06
8.09326619e-06
8.09327492e-06
8.09326923e-06
8.09328098e-06
8.09326872e-06
8.09327134e-06
8.09327265e-06
8.09327318e-06
8.09325748e-06
8.09328108e-06
8.09327567e-06
8.09326406e-06
8.09328398e-06
8.09326715e-06
8.09327273e-06
8.09327732e-06
8.09327066e-06
8.09328169e-06
8.09327149e-06
8.09328425e-06
8.09326044e-06
8.09327529e-06
8.09327079e-06
8.09327821e-06
8.09327338e-06
8.0932729e-06
8.09327534e-06
8.09327912e-06
8.09327594e-06
8.09327032e-06
8.09327999e-06
8.09327371e-06
8.09327643e-06
8.09327403e-06
8.09327153e-06
8.09327753e-06
8.09327641e-06
8.09327737e-06
8.09327482e-06
8.09327584e-06
8.09328032e-06
8.09327743e-06
8.09327144e-06
8.09328365e-06
8.09327696e-06
8.09327699e-06
8.0932842e-06
8.09327121e-06
8.09328175e-06
8.09327962e-06
8.093281e-06
8.0932789e-06
8.09327305e-06
8.09327512e-06
8.09328014e-06
8.09327363e-06
8.09328001e-06
8.09327424e-06
8.0932788e-06
8.0932821e-06
8.09328117e-06
8.09328199e-06
8.09327611e-06
8.09327481e-06
8.09327648e-06
8.09328282e-06
8.09327652e-06
8.09328591e-06
8.09327242e-06
8.09328221e-06
8.0932822e-06
8.09328749e-06
8.09327137e-06
8.09328617e-06
8.09327596e-06
8.09327835e-06
8.09327211e-06
8.09327818e-06
8.09326973e-06
8.09328132e-06
8.09328003e-06
8.09327708e-06
8.09329096e-06
8.09327756e-06
8.09328431e-06
8.09327423e-06
8.0932787e-06
8.09328359e-06
8.09328254e-06
8.09328376e-06
8.09327526e-06
8.09327974e-06
8.0932804e-06
8.09328291e-06
8.09327496e-06
8.09327865e-06
8.09327955e-06
8.09327956e-06
8.09328094e-06
8.09327875e-06
8.0932737e-06
8.09328439e-06
8.09326917e-06
8.09328447e-06
8.09327149e-06
8.09328211e-06
8.09327712e-06
8.09328443e-06
8.09328681e-06
8.09328981e-06
8.09327618e-06
8.09328499e-06
8.09327724e-06
8.09328515e-06
8.09327561e-06
8.09329518e-06
8.09328178e-06
8.09328711e-06
8.09328017e-06
8.09328477e-06
8.09328374e-06
8.09326816e-06
8.09328779e-06
8.09327797e-06
8.09327746e-06
8.09328706e-06
8.09327155e-06
8.09328214e-06
8.09327833e-06
8.09328415e-06
8.09328448e-06
8.09327624e-06
8.09328238e-06
8.09327418e-06
8.09328392e-06
8.09327819e-06
8.09328297e-06
8.09328199e-06
8.0932755e-06
8.09328012e-06
8.09328835e-06
8.09326983e-06
8.09328052e-06
8.09328203e-06
8.09327075e-06
8.09328847e-06
8.09327263e-06
8.09328644e-06
8.09327657e-06
8.09328505e-06
8.09327951e-06
8.09328105e-06
8.09328181e-06
8.09328044e-06
8.09328976e-06
8.0932715e-06
8.09328657e-06
8.09327526e-06
8.09327866e-06
8.09327337e-06
8.0932817e-06
8.09328381e-06
8.09327577e-06
8.09328933e-06
8.09327384e-06
8.09328557e-06
8.09328543e-06
8.09328205e-06
8.09327808e-06
8.09327897e-06
8.09327908e-06
8.09328393e-06
8.09328179e-06
8.09328151e-06
8.09329165e-06
8.09328589e-06
8.09328346e-06
8.09328996e-06
8.09328474e-06
8.0932824e-06
8.09329111e-06
8.0932779e-06
8.09328836e-06
8.09328287e-06
8.09328318e-06
8.09328184e-06
8.09327821e-06
8.0932923e-06
8.09327279e-06
8.0932869e-06
8.09328498e-06
8.09327548e-06
8.09327811e-06
8.09327875e-06
8.09328174e-06
8.09327495e-06
8.09327509e-06
8.09328391e-06
8.09327825e-06
8.09328067e-06
8.09327937e-06
8.09328129e-06
8.09328087e-06
8.09327421e-06
8.09328605e-06
8.09328385e-06
8.09328084e-06
8.09328172e-06
8.09327591e-06
8.09328415e-06
8.09327879e-06
8.09327953e-06
8.09329057e-06
8.09327558e-06
8.09328219e-06
8.09328078e-06
8.09328347e-06
8.0932832e-06
8.09328287e-06
8.09328564e-06
8.0932805e-06
8.09327621e-06
8.09327258e-06
8.09328645e-06
8.09327577e-06
8.09328688e-06
8.09328403e-06
8.09328036e-06
8.09327548e-06
8.09328475e-06
8.09327527e-06
8.09327874e-06
8.09327623e-06
8.09328572e-06
8.093275e-06
8.09327954e-06
8.09328386e-06
8.0932787e-06
8.0932825e-06
8.09328903e-06
8.09328567e-06
8.09327681e-06
8.09328614e-06
8.09328363e-06
8.09328206e-06
8.09328438e-06
8.09328697e-06
8.09328273e-06
8.09327981e-06
8.0932864e-06
8.09328004e-06
8.09327899e-06
8.09328125e-06
8.09327858e-06
8.09328274e-06
8.09329123e-06
8.09328425e-06
8.0932801e-06
8.09328728e-06
8.09327155e-06
8.09327789e-06
8.09328789e-06
8.09327863e-06
8.09328279e-06
8.09328687e-06
8.0932879e-06
8.09327489e-06
8.09328559e-06
8.09327503e-06
8.09327446e-06
8.0932866e-06
8.09328099e-06
8.09327962e-06
8.09327897e-06
8.09327406e-06
8.09328406e-06
8.09327728e-06
8.09328856e-06
8.09328188e-06
8.09328029e-06
8.09328695e-06
8.09327755e-06
8.09328396e-06
8.09328068e-06
8.09328657e-06
8.09328071e-06
8.09328188e-06
8.0932815e-06
8.09327639e-06
8.09327813e-06
8.0932822e-06
8.09328036e-06
8.09329139e-06
8.09328028e-06
8.09327481e-06
8.09329076e-06
8.0932781e-06
8.09328442e-06
8.0932786e-06
8.09327635e-06
8.09328213e-06
8.09328997e-06
8.09327956e-06
8.09327924e-06
8.09327773e-06
8.0932791e-06
8.09327979e-06
8.09328858e-06
8.09327732e-06
8.09328982e-06
8.09327497e-06
8.09328337e-06
8.0932852e-06
8.093281e-06
8.0932892e-06
8.09328172e-06
8.09328117e-06
8.09328148e-06
8.09327938e-06
8.09328225e-06
8.09327821e-06
8.093281e-06
8.09328125e-06
8.09328209e-06
8.09328218e-06
8.09327927e-06
8.09328131e-06
8.09328112e-06
8.09327985e-06
8.09328068e-06
8.09328144e-06
8.09328086e-06
8.09328076e-06
8.09328033e-06
8.09328059e-06
8.09328071e-06
8.09328082e-06
8.09328064e-06
8.09328132e-06
8.09328077e-06
8.09328086e-06
8.09328086e-06
8.09328075e-06
8.09328121e-06
8.09328078e-06
8.09328065e-06
8.09328071e-06
8.09328082e-06
8.09328077e-06
8.09328084e-06
8.09328087e-06
8.09328082e-06
8.09328083e-06
8.09328085e-06
8.09328087e-06
8.09328093e-06
8.09328068e-06
8.0932809e-06
8.09328085e-06
8.09328076e-06
8.09328088e-06
8.09328085e-06
8.09328086e-06
8.09328095e-06
8.09328077e-06
8.09328089e-06
8.09328069e-06
8.09328081e-06
8.09328086e-06
8.09328091e-06
8.09328082e-06
8.09328081e-06
8.09328071e-06
8.09328088e-06
8.09328084e-06
8.09328084e-06
8.09328076e-06
8.09328079e-06
8.09328096e-06
8.0932808e-06
8.09328085e-06
8.09328083e-06
8.0932808e-06
8.09328088e-06
8.09328079e-06
8.09328076e-06
8.09328085e-06
)
;

boundaryField
{
    closed
    {
        type            calculated;
        value           uniform 0;
    }
    open
    {
        type            calculated;
        value           uniform 0;
    }
    sides
    {
        type            empty;
    }
}


// ************************************************************************* //
