/*--------------------------------*- C++ -*----------------------------------*\
| =========                 |                                                 |
| \\      /  F ield         | OpenFOAM: The Open Source CFD Toolbox           |
|  \\    /   O peration     | Version:  2206                                  |
|   \\  /    A nd           | Website:  www.openfoam.com                      |
|    \\/     M anipulation  |                                                 |
\*---------------------------------------------------------------------------*/
FoamFile
{
    version     2.0;
    format      ascii;
    arch        "LSB;label=32;scalar=64";
    class       volScalarField;
    location    "1.6e-05";
    object      p;
}
// * * * * * * * * * * * * * * * * * * * * * * * * * * * * * * * * * * * * * //

dimensions      [1 -1 -2 0 0 0 0];

internalField   nonuniform List<scalar> 
3183
(
101325
101325
101325
101325
101325
101325
101325
101325
101325
101325
101325
101325
101325
101325
101325
101325
101325
101325
101325
101325
101325
101325
101325
101325
101325
101325
101325
101325
101325
101325
101325
101325
101325
101325
101325
101325
101325
101325
101325
101325
101325
101325
101325
101325
101325
101325
101325
101325
101325
101325
101325
101325
101325
101325
101325
101325
101325
101325
101325
101325
101325
101325
101325
101325
101325
101325
101325
101325
101325
101325
101325
101325
101325
101325
101325
101325
101325
101325
101325
101325
101325
101325
101325
101325
101325
101325
101325
101325
101325
101325
101325
101325
101325
101325
101325
101325
101325
101325
101325
101325
101325
101325
101325
101325
101325
101325
101325
101325
101325
101325
101325
101325
101325
101325
101325
101325
101325
101325
101325
101325
101325
101325
101325
101325
101325
101325
101325
101325
101325
101325
101325
101325
101325
101325
101325
101325
101325
101325
101325
101325
101325
101325
101325
101325
101325
101325
101325
101325
101325
101325
101325
101325
101325
101325
101325
101325
101325
101325
101325
101325
101325
101325
101325
101325
101325
101325
101325
101325
101325
101325
101325
101325
101325
101325
101325
101325
101325
101325
101325
101325
101325
101325
101325
101325
101325
101325
101325
101325
101325
101325
101325
101325
101325
101325
101325
101325
101325
101325
101325
101325
101325
101325
101325
101325
101325
101325
101325
101325
101325
101325
101325
101325
101325
101325
101325
101325
101325
101325
101325
101325
101325
101325
101325
101325
101325
101325
101325
101325
101325
101325
101325
101325
101325
101325
101325
101325
101325
101325
101325
101325
101325
101325
101325
101325
101325
101325
101325
101325
101325
101325
101325
101325
101325
101325
101325
101325
101325
101325
101325
101325
101325
101325
101325
101325
101325
101325
101325
101325
101325
101325
101325
101325
101325
101325
101325
101325
101325
101325
101325
101325
101325
101325
101325
101325
101325
101325
101325
101325
101325
101325
101325
101325
101325
101325
101325
101325
101325
101325
101325
101325
101325
101325
101325
101325
101325
101325
101325
101325
101325
101325
101325
101325
101325
101325
101325
101325
101325
101325
101325
101325
101325
101325
101325
101325
101325
101325
101325
101325
101325
101325
101325
101325
101325
101325
101325
101325
101325
101325
101325
101325
101325
101325
101325
101325
101325
101325
101325
101325
101325
101325
101325
101325
101325
101325
101325
101325
101325
101325
101325
101325
101325
101325
101325
101325
101325
101325
101325
101325
101325
101325
101325
101325
101325
101325
101325
101325
101325
101325
101325
101325
101325
101325
101325
101325
101325
101325
101325
101325
101325
101325
101325
101325
101325
101325
101325
101325
101325
101325
101325
101325
101325
101325
101325
101325
101325
101325
101325
101325
101325
101325
101325
101325
101325
101325
101325
101325
101325
101325
101325
101325
101325
101325
101325
101325
101325
101325
101325
101325
101325
101325
101325
101325
101325
101325
101325
101325
101325
101325
101325
101325
101325
101325
101325
101325
101325
101325
101325
101325
101325
101325
101325
101325
101325
101325
101325
101325
101325
101325
101325
101325
101325
101325
101325
101325
101325
101325
101325
101325
101325
101325
101325
101325
101325
101325
101325
101325
101325
101325
101325
101325
101325
101325
101325
101325
101325
101325
101325
101325
101325
101325
101325
101325
101325
101325
101325
101325
101325
101325
101325
101325
101325
101325
101325
101325
101325
101325
101325
101325
101325
101325
101325
101325
101325
101325
101325
101325
101325
101325
101325
101325
101325
101325
101325
101325
101325
101325
101325
101325
101325
101325
101325
101325
101325
101325
101325
101325
101325
101325
101325
101325
101325
101325
101325
101325
101325
101325
101325
101325
101325
101325
101325
101325
101325
101325
101325
101325
101325
101325
101325
101325
101325
101325
101325
101325
101325
101325
101325
101325
101325
101325
101325
101325
101325
101325
101325
101325
101325
101325
101325
101325
101325
101325
101325
101325
101325
101325
101325
101325
101325
101325
101325
101325
101325
101325
101325
101325
101325
101325
101325
101325
101325
101325
101325
101325
101325
101325
101325
101325
101325
101325
101325
101325
101325
101325
101325
101325
101325
101325
101325
101325
101325
101325
101325
101325
101325
101325
101325
101325
101325
101325
101325
101325
101325
101325
101325
101325
101325
101325
101325
101325
101325
101325
101325
101325
101325
101325
101325
101325
101325
101325
101325
101325
101325
101325
101325
101325
101325
101325
101325
101325
101325
101325
101325
101325
101325
101325
101325
101325
101325
101325
101325
101325
101325
101325
101325
101325
101325
101325
101325
101325
101325
101325
101325
101325
101325
101325
101325
101325
101325
101325
101325
101325
101325
101325
101325
101325
101325
101325
101325
101325
101325
101325
101325
101325
101325
101325
101325
101325
101325
101325
101325
101325
101325
101325
101325
101325
101325
101325
101325
101325
101325
101325
101325
101325
101325
101325
101325
101325
101325
101325
101325
101325
101325
101325
101325
101325
101325
101325
101325
101325
101325
101325
101325
101325
101325
101325
101325
101325
101325
101325
101325
101325
101325
101325
101325
101325
101325
101325
101325
101325
101325
101325
101325
101325
101325
101325
101325
101325
101325
101325
101325
101325
101325
101325
101325
101325
101325
101325
101325
101325
101325
101325
101325
101325
101325
101325
101325
101325
101325
101325
101325
101325
101325
101325
101325
101325
101325
101325
101325
101325
101325
101325
101325
101325
101325
101325
101325
101325
101325
101325
101325
101325
101325
101325
101325
101325
101325
101325
101325
101325
101325
101325
101325
101325
101325
101325
101325
101325
101325
101325
101325
101325
101325
101325
101325
101325
101325
101325
101325
101325
101325
101325
101325
101325
101325
101325
101325
101325
101325
101325
101325
101325
101325
101325
101325
101325
101325
101325
101325
101325
101325
101325
101325
101325
101325
101325
101325
101325
101325
101325
101325
101325
101325
101325
101325
101325
101325
101325
101325
101325
101325
101325
101325
101325
101325
101325
101325
101325
101325
101325
101325
101325
101325
101325
101325
101325
101325
101325
101325
101325
101325
101325
101325
101325
101325
101325
101325
101325
101325
101325
101325
101325
101325
101325
101325
101325
101325
101325
101325
101325
101325
101325
101325
101325
101325
101325
101325
101325
101325
101325
101325
101325
101325
101325
101325
101325
101325
101325
101325
101325
101325
101325
101325
101325
101325
101325
101325
101325
101325
101325
101325
101325
101325
101325
101325
101325
101325
101325
101325
101325
101325
101325
101325
101325
101325
101325
101325
101325
101325
101325
101325
101325
101325
101325
101325
101325
101325
101325
101325
101325
101325
101325
101325
101325
101325
101325
101325
101325
101325
101325
101325
101325
101325
101325
101325
101325
101325
101325
101325
101325
101325
101325
101325
101325
101325
101325
101325
101325
101325
101325
101325
101325
101325
101325
101325
101325
101325
101325
101325
101325
101325
101325
101325
101325
101325
101325
101325
101325
101325
101325
101325
101325
101325
101325
101325
101325
101325
101325
101325
101325
101325
101325
101325
101325
101325
101325
101325
101325
101325
101325
101325
101325
101325
101325
101325
101325
101325
101325
101325
101325
101325
101325
101325
101325
101325
101325
101325
101325
101325
101325
101325
101325
101325
101325
101325
101325
101325
101325
101325
101325
101325
101325
101325
101325
101325
101325
101325
101325
101325
101325
101325
101325
101325
101325
101325
101325
101325
101325
101325
101325
101325
101325
101325
101325
101325
101325
101325
101325
101325
101325
101325
101325
101325
101325
101325
101325
101325
101325
101325
101325
101325
101325
101325
101325
101325
101325
101325
101325
101325
101325
101325
101325
101325
101325
101325
101325
101325
101325
101325
101325
101325
101325
101325
101325
101325
101325
101325
101325
101325
101325
101325
101325
101325
101325
101325
101325
101325
101325
101325
101325
101325
101325
101325
101325
101325
101325
101325
101325
101325
101325
101325
101325
101325
101325
101325
101325
101325
101325
101325
101325
101325
101325
101325
101325
101325
101325
101325
101325
101325
101325
101325
101325
101325
101325
101325
101325
101325
101325
101325
101325
101325
101325
101325
101325
101325
101325
101325
101325
101325
101325
101325
101325
101325
101325
101325
101325
101325
101325
101325
101325
101325
101325
101325
101325
101325
101325
101325
101325
101325
101325
101325
101325
101325
101325
101325
101325
101325
101325
101325
101325
101325
101325
101325
101325
101325
101325
101325
101325
101325
101325
101325
101325
101325
101325
101325
101325
101325
101325
101325
101325
101325
101325
101325
101325
101325
101325
101325
101325
101325
101325
101325
101325
101325
101325
101325
101325
101325
101325
101325
101325
101325
101325
101325
101325
101325
101325
101325
101325
101325
101325
101325
101325
101325
101325
101325
101325
101325
101325
101325
101325
101325
101325
101325
101325
101325
101325
101325
101325
101325
101325
101325
101325
101325
101325
101325
101325
101325
101325
101325
101325
101325
101325
101325
101325
101325
101325
101325
101325
101325
101325
101325
101325
101325
101325
101325
101325
101325
101325
101325
101325
101325
101325
101325
101325
101325
101325
101325
101325
101325
101325
101325
101325
101325
101325
101325
101325
101325
101325
101325
101325
101325
101325
101325
101325
101325
101325
101325
101325
101325
101325
101325
101325
101325
101325
101325
101325
101325
101325
101325
101325
101325
101325
101325
101325
101325
101325
101325
101325
101325
101325
101325
101325
101325
101325
101325
101325
101325
101325
101325
101325
101325
101325
101325
101325
101325
101325
101325
101325
101325
101325
101325
101325
101325
101325
101325
101325
101325
101325
101325
101325
101325
101325
101325
101325
101325
101325
101325
101325
101325
101325
101325
101325
101325
101325
101325
101325
101325
101325
101325
101325
101325
101325
101325
101325
101325
101325
101325
101325
101325
101325
101325
101325
101325
101325
101325
101325
101325
101325
101325
101325
101325
101325
101325
101325
101325
101325
101325
101325
101325
101325
101325
101325
101325
101325
101325
101325
101325
101325
101325
101325
101325
101325
101325
101325
101325
101325
101325
101325
101325
101325
101325
101325
101325
101325
101325
101325
101325
101325
101325
101325
101325
101325
101325
101325
101325
101325
101325
101325
101325
101325
101325
101325
101325
101325
101325
101325
101325
101325
101325
101325
101325
101325
101325
101325
101325
101325
101325
101325
101325
101325
101325
101325
101325
101325
101325
101325
101325
101325
101325
101325
101325
101325
101325
101325
101325
101325
101325
101325
101325
101325
101325
101325
101325
101325
101325
101325
101325
101325
101325
101325
101325
101325
101325
101325
101325
101325
101325
101325
101325
101325
101325
101325
101325
101325
101325
101325
101325
101325
101325
101325
101325
101325
101325
101325
101325
101325
101325
101325
101325
101325
101325
101325
101325
101325
101325
101325
101325
101325
101325
101325
101325
101325
101325
101325
101325
101325
101325
101325
101325
101325
101325
101325
101325
101325
101325
101325
101325
101325
101325
101325
101325
101325
101325
101325
101325
101325
101325
101325
101325
101325
101325
101325
101325
101325
101325
101325
101325
101325
101325
101325
101325
101325
101325
101325
101325
101325
101325
101325
101325
101325
101325
101325
101325
101325
101325
101325
101325
101325
101325
101325
101325
101325
101325
101325
101325
101325
101325
101325
101325
101325
101325
101325
101325
101325
101325
101325
101325
101325
101325
101325
101325
101325
101325
101325
101325
101325
101325
101325
101325
101325
101325
101325
101325
101325
101325
101325
101325
101325
101325
101325
101325
101325
101325
101325
101325
101325
101325
101325
101325
101325
101325
101325
101325
101325
101325
101325
101325
101325
101325
101325
101325
101325
101325
101325
101325
101325
101325
101325
101325
101325
101325
101325
101325
101325
101325
101325
101325
101325
101325
101325
101325
101325
101325
101325
101325
101325
101325
101325
101325
101325
101325
101325
101325
101325
101325
101325
101325
101325
101325
101325
101325
101325
101325
101325
101325
101325
101325
101325
101325
101325
101325
101325
101325
101325
101325
101325
101325
101325
101325
101325
101325
101325
101325
101325
101325
101325
101325
101325
101325
101325
101325
101325
101325
101325
101325
101325
101325
101325
101325
101325
101325
101325
101325
101325
101325
101325
101325
101325
101325
101325
101325
101325
101325
101325
101325
101325
101325
101325
101325
101325
101324.999
101324.999
101324.999
101324.999
101324.999
101324.999
101324.999
101324.999
101324.999
101324.999
101324.999
101324.999
101324.999
101324.999
101324.999
101324.999
101324.999
101324.999
101324.998
101324.998
101324.998
101324.998
101324.998
101324.998
101324.998
101324.998
101324.998
101324.997
101324.997
101324.997
101324.997
101324.997
101324.997
101324.996
101324.996
101324.996
101324.996
101324.995
101324.995
101324.995
101324.995
101324.994
101324.994
101324.994
101324.993
101324.993
101324.993
101324.992
101324.992
101324.991
101324.991
101324.99
101324.99
101324.989
101324.989
101324.988
101324.987
101324.987
101324.986
101324.985
101324.984
101324.983
101324.983
101324.982
101324.981
101324.98
101324.979
101324.977
101324.976
101324.975
101324.974
101324.972
101324.971
101324.969
101324.968
101324.966
101324.964
101324.962
101324.961
101324.959
101324.956
101324.954
101324.952
101324.949
101324.947
101324.944
101324.941
101324.939
101324.936
101324.932
101324.929
101324.926
101324.922
101324.918
101324.914
101324.91
101324.906
101324.901
101324.896
101324.891
101324.886
101324.881
101324.875
101324.869
101324.863
101324.857
101324.85
101324.843
101324.836
101324.828
101324.82
101324.812
101324.803
101324.794
101324.785
101324.775
101324.765
101324.755
101324.744
101324.732
101324.72
101324.708
101324.695
101324.682
101324.668
101324.654
101324.639
101324.623
101324.607
101324.59
101324.573
101324.555
101324.536
101324.517
101324.496
101324.475
101324.454
101324.431
101324.408
101324.384
101324.359
101324.333
101324.306
101324.278
101324.249
101324.219
101324.188
101324.156
101324.123
101324.089
101324.054
101324.017
101323.979
101323.94
101323.9
101323.858
101323.815
101323.771
101323.725
101323.678
101323.629
101323.578
101323.526
101323.473
101323.418
101323.361
101323.302
101323.242
101323.18
101323.116
101323.05
101322.982
101322.912
101322.841
101322.767
101322.691
101322.613
101322.533
101322.451
101322.366
101322.279
101322.19
101322.099
101322.005
101321.909
101321.81
101321.709
101321.605
101321.499
101321.39
101321.278
101321.164
101321.047
101320.927
101320.805
101320.679
101320.551
101320.42
101320.286
101320.15
101320.01
101319.867
101319.722
101319.573
101319.421
101319.266
101319.109
101318.948
101318.784
101318.617
101318.446
101318.273
101318.097
101317.917
101317.734
101317.549
101317.36
101317.168
101316.973
101316.774
101316.573
101316.369
101316.161
101315.951
101315.737
101315.521
101315.302
101315.08
101314.854
101314.627
101314.396
101314.162
101313.926
101313.688
101313.446
101313.202
101312.956
101312.707
101312.456
101312.203
101311.947
101311.69
101311.43
101311.169
101310.905
101310.64
101310.373
101310.105
101309.835
101309.563
101309.291
101309.017
101308.742
101308.466
101308.19
101307.913
101307.635
101307.357
101307.078
101306.799
101306.52
101306.241
101305.963
101305.684
101305.407
101305.129
101304.853
101304.577
101304.303
101304.029
101303.757
101303.487
101303.218
101302.951
101302.686
101302.423
101302.162
101301.903
101301.647
101301.394
101301.143
101300.896
101300.651
101300.41
101300.172
101299.937
101299.707
101299.48
101299.257
101299.038
101298.823
101298.613
101298.407
101298.205
101298.009
101297.817
101297.629
101297.447
101297.27
101297.099
101296.932
101296.771
101296.615
101296.465
101296.321
101296.182
101296.049
101295.922
101295.801
101295.685
101295.576
101295.472
101295.375
101295.284
101295.199
101295.119
101295.047
101294.98
101294.919
101294.865
101294.816
101294.774
101294.738
101294.707
101294.683
101294.665
101294.653
101294.647
101294.646
101294.651
101294.662
101294.679
101294.701
101294.729
101294.762
101294.8
101294.844
101294.893
101294.946
101295.005
101295.068
101295.136
101295.209
101295.286
101295.368
101295.454
101295.543
101295.637
101295.735
101295.836
101295.941
101296.049
101296.16
101296.275
101296.392
101296.513
101296.636
101296.762
101296.89
101297.02
101297.152
101297.287
101297.423
101297.561
101297.701
101297.842
101297.984
101298.127
101298.272
101298.417
101298.563
101298.709
101298.856
101299.004
101299.152
101299.299
101299.447
101299.595
101299.742
101299.89
101300.036
101300.183
101300.328
101300.473
101300.617
101300.761
101300.903
101301.044
101301.184
101301.323
101301.461
101301.597
101301.732
101301.866
101301.998
101302.128
101302.257
101302.384
101302.51
101302.634
101302.756
101302.877
101302.996
101303.113
101303.228
101303.341
101303.453
101303.562
101303.67
101303.776
101303.88
101303.983
101304.083
101304.182
101304.279
101304.374
101304.467
101304.559
101304.649
101304.737
101304.823
101304.908
101304.991
101305.072
101305.152
101305.23
101305.307
101305.382
101305.456
101305.528
101305.599
101305.669
101305.737
101305.804
101305.87
101305.934
101305.998
101306.06
101306.121
101306.181
101306.24
101306.298
101306.355
101306.411
101306.467
101306.521
101306.574
101306.627
101306.679
101306.731
101306.781
101306.831
101306.881
101306.929
101306.978
101307.025
101307.072
101307.119
101307.165
101307.211
101307.256
101307.301
101307.346
101307.39
101307.434
101307.478
101307.521
101307.564
101307.607
101307.649
101307.692
101307.734
101307.775
101307.817
101307.858
101307.9
101307.941
101307.981
101308.022
101308.062
101308.103
101308.143
101308.183
101308.222
101308.262
101308.301
101308.34
101308.379
101308.418
101308.456
101308.495
101308.533
101308.571
101308.608
101308.646
101308.683
101308.719
101308.756
101308.792
101308.828
101308.864
101308.899
101308.934
101308.969
101309.003
101309.037
101309.071
101309.104
101309.137
101309.169
101309.201
101309.233
101309.264
101309.295
101309.325
101309.355
101309.385
101309.414
101309.442
101309.47
101309.498
101309.525
101309.552
101309.578
101309.603
101309.629
101309.653
101309.677
101309.701
101309.725
101309.747
101309.77
101309.792
101309.813
101309.834
101309.855
101309.875
101309.895
101309.914
101309.933
101309.952
101309.97
101309.988
101310.005
101310.022
101310.039
101310.056
101310.072
101310.088
101310.104
101310.12
101310.135
101310.151
101310.166
101310.181
101310.195
101310.21
101310.225
101310.239
101310.254
101310.268
101310.283
101310.297
101310.312
101310.326
101310.341
101310.355
101310.37
101310.385
101310.4
101310.415
101310.43
101310.446
101310.462
101310.477
101310.493
101310.51
101310.526
101310.543
101310.56
101310.577
101310.594
101310.612
101310.63
101310.648
101310.667
101310.685
101310.704
101310.723
101310.743
101310.763
101310.782
101310.803
101310.823
101310.844
101310.864
101310.885
101310.906
101310.928
101310.949
101310.971
101310.993
101311.014
101311.036
101311.058
101311.08
101311.102
101311.124
101311.146
101311.168
101311.19
101311.212
101311.234
101311.256
101311.278
101311.299
101311.321
101311.342
101311.363
101311.384
101311.404
101311.425
101311.445
101311.465
101311.485
101311.504
101311.523
101311.542
101311.56
101311.579
101311.596
101311.614
101311.631
101311.648
101311.665
101311.681
101311.697
101311.713
101311.728
101311.744
101311.758
101311.773
101311.787
101311.801
101311.815
101311.828
101311.842
101311.855
101311.867
101311.88
101311.892
101311.904
101311.916
101311.928
101311.94
101311.951
101311.963
101311.974
101311.985
101311.996
101312.007
101312.018
101312.029
101312.04
101312.05
101312.061
101312.071
101312.082
101312.092
101312.103
101312.113
101312.124
101312.134
101312.144
101312.155
101312.165
101312.175
101312.186
101312.196
101312.206
101312.216
101312.226
101312.237
101312.247
101312.257
101312.267
101312.277
101312.286
101312.296
101312.306
101312.316
101312.325
101312.335
101312.344
101312.354
101312.363
101312.372
101312.381
101312.39
101312.399
101312.408
101312.417
101312.425
101312.434
101312.442
101312.45
101312.458
101312.466
101312.474
101312.482
101312.49
101312.498
101312.506
101312.513
101312.521
101312.529
101312.536
101312.544
101312.552
101312.559
101312.567
101312.575
101312.583
101312.59
101312.599
101312.607
101312.615
101312.623
101312.632
101312.641
101312.65
101312.659
101312.668
101312.678
101312.687
101312.697
101312.707
101312.717
101312.728
101312.738
101312.749
101312.759
101312.77
101312.781
101312.791
101312.802
101312.813
101312.823
101312.833
101312.843
101312.853
101312.863
101312.872
101312.881
101312.889
101312.897
101312.904
101312.91
101312.916
101312.922
101312.926
101312.93
101312.933
101312.935
101312.936
101312.936
101312.935
101312.933
101312.931
101312.928
101312.924
101312.919
101312.914
101312.909
101312.904
101312.898
101312.894
101312.89
101312.889
101312.89
101312.892
101312.878
101312.857
101313.192
101313.352
101313.277
101312.76
101312.641
101312.586
101312.664
101312.698
101312.776
101312.81
101312.865
101312.886
101312.912
101312.919
101312.927
101312.929
101312.932
101312.933
101312.935
101312.936
101312.938
101312.94
101312.941
101312.943
101312.944
101312.946
101312.947
101312.948
101312.949
101312.95
101312.951
101312.952
101312.952
101312.952
101312.952
101312.952
101312.951
101312.951
101312.95
101312.949
101312.947
101312.946
101312.944
101312.942
101312.94
101312.938
101312.936
101312.933
101312.93
101312.927
101312.924
101312.921
101312.918
101312.914
101312.91
101312.906
101312.902
101312.898
101312.894
101312.89
101312.885
101312.881
101312.876
101312.872
101312.867
101312.862
101312.857
101312.852
101312.847
101312.841
101312.836
101312.831
101312.826
101312.82
101312.815
101312.809
101312.804
101312.799
101312.793
101312.788
101312.782
101312.777
101312.771
101312.766
101312.76
101312.755
101312.75
101312.744
101312.739
101312.734
101312.728
101312.723
101312.718
101312.713
101312.708
101312.703
101312.698
101312.693
101312.688
101312.683
101312.678
101312.674
101312.669
101312.664
101312.66
101312.655
101312.651
101312.646
101312.642
101312.637
101312.633
101312.629
101312.625
101312.62
101312.616
101312.612
101312.608
101312.604
101312.6
101312.596
101312.592
101312.588
101312.584
101312.58
101312.576
101312.573
101312.569
101312.565
101312.561
101312.557
101312.553
101312.55
101312.546
101312.542
101312.538
101312.535
101312.531
101312.527
101312.523
101312.519
101312.515
101312.512
101312.508
101312.504
101312.5
101312.496
101312.492
101312.488
101312.484
101312.48
101312.476
101312.472
101312.468
101312.464
101312.46
101312.456
101312.452
101312.448
101312.443
101312.439
101312.435
101312.431
101312.426
101312.422
101312.417
101312.413
101312.409
101312.404
101312.4
101312.395
101312.39
101312.386
101312.381
101312.377
101312.372
101312.367
101312.363
101312.358
101312.353
101312.348
101312.343
101312.338
101312.333
101312.328
101312.323
101312.318
101312.313
101312.308
101312.303
101312.298
101312.293
101312.288
101312.283
101312.278
101312.273
101312.267
101312.262
101312.257
101312.252
101312.246
101312.241
101312.236
101312.23
101312.225
101312.22
101312.214
101312.209
101312.204
101312.198
101312.193
101312.187
101312.182
101312.176
101312.171
101312.165
101312.16
101312.154
101312.149
101312.143
101312.138
101312.132
101312.127
101312.121
101312.116
101312.11
101312.104
101312.099
101312.093
101312.087
101312.082
101312.076
101312.07
101312.065
101312.059
101312.053
101312.047
101312.042
101312.036
101312.03
101312.024
101312.018
101312.012
101312.007
101312.001
101311.995
101311.989
101311.983
101311.977
101311.971
101311.965
101311.959
101311.952
101311.946
101311.94
101311.934
101311.928
101311.921
101311.915
101311.909
101311.902
101311.896
101311.889
101311.883
101311.876
101311.87
101311.863
101311.856
101311.85
101311.843
101311.836
101311.829
101311.822
101311.815
101311.808
101311.801
101311.793
101311.786
101311.779
101311.772
101311.764
101311.757
101311.749
101311.741
101311.734
101311.726
101311.718
101311.71
101311.702
101311.694
101311.686
101311.678
101311.669
101311.661
101311.652
101311.644
101311.635
101311.627
101311.618
101311.609
101311.6
101311.591
101311.582
101311.573
101311.564
101311.555
101311.545
101311.536
101311.527
101311.517
101311.507
101311.498
101311.488
101311.478
101311.468
101311.458
101311.448
101311.438
101311.428
101311.418
101311.407
101311.397
101311.387
101311.376
101311.366
101311.355
101311.345
101311.334
101311.323
101311.312
101311.302
101311.291
101311.28
101311.269
101311.258
101311.247
101311.236
101311.225
101311.214
101311.203
101311.192
101311.18
101311.169
101311.158
101311.147
101311.136
101311.124
101311.113
101311.102
101311.091
101311.08
101311.068
101311.057
101311.046
101311.035
101311.023
101311.012
101311.001
101310.99
101310.979
101310.968
101310.956
101310.945
101310.934
101310.923
101310.912
101310.901
101310.89
101310.879
101310.869
101310.858
101310.847
101310.836
101310.825
101310.815
101310.804
101310.794
101310.783
101310.773
101310.762
101310.752
101310.741
101310.731
101310.721
101310.711
101310.701
101310.691
101310.681
101310.671
101310.661
101310.651
101310.641
101310.631
101310.622
101310.612
101310.603
101310.593
101310.584
101310.574
101310.565
101310.556
101310.546
101310.537
101310.528
101310.519
101310.51
101310.501
101310.492
101310.483
101310.475
101310.466
101310.457
101310.448
101310.44
101310.431
101310.423
101310.414
101310.406
101310.397
101310.389
101310.381
101310.372
101310.364
101310.356
101310.348
101310.34
101310.331
101310.323
101310.315
101310.307
101310.299
101310.291
101310.283
101310.275
101310.267
101310.259
101310.251
101310.243
101310.235
101310.227
101310.219
101310.211
101310.203
101310.195
101310.186
101310.178
101310.17
101310.162
101310.154
101310.146
101310.138
101310.13
101310.121
101310.113
101310.105
101310.096
101310.088
101310.08
101310.071
101310.063
101310.054
101310.045
101310.037
101310.028
101310.019
101310.01
101310.001
101309.993
101309.983
101309.974
101309.965
101309.956
101309.947
101309.937
101309.928
101309.918
101309.909
101309.899
101309.889
101309.879
101309.869
101309.859
101309.849
101309.839
101309.828
101309.818
101309.807
101309.797
101309.786
101309.775
101309.764
101309.753
101309.742
101309.731
101309.719
101309.708
101309.696
101309.685
101309.673
101309.661
101309.649
101309.637
101309.625
101309.612
101309.6
101309.586
101309.57
101309.554
101309.536
101309.517
101309.496
101309.473
101309.448
101309.421
101309.392
101309.36
101309.325
101309.287
101309.245
101309.199
101309.149
101309.095
101309.035
101308.969
101308.898
101308.819
101308.733
101308.639
101308.536
101308.423
101308.3
101308.166
101308.02
101307.861
101307.688
101307.498
101307.291
101307.062
101306.806
101306.517
101306.184
101305.79
101305.315
101304.729
101303.996
101303.07
101301.909
101300.482
101298.8
101296.946
101295.126
101293.687
101293.106
101293.885
101296.37
101300.542
101305.905
101311.575
101316.596
101320.353
101322.742
101324.038
101324.64
101324.882
101324.966
101324.992
101324.999
101325
101325.001
101325.001
101325.001
101325.001
101325.001
101325.001
101325.001
101325.001
101325.001
101325.001
101325
101325
101325
)
;

boundaryField
{
    closed
    {
        type            zeroGradient;
    }
    open
    {
        type            waveTransmissive;
        gamma           1.25;
        fieldInf        101325;
        lInf            1;
        value           uniform 101325;
    }
    sides
    {
        type            empty;
    }
}


// ************************************************************************* //
