/*--------------------------------*- C++ -*----------------------------------*\
| =========                 |                                                 |
| \\      /  F ield         | OpenFOAM: The Open Source CFD Toolbox           |
|  \\    /   O peration     | Version:  2206                                  |
|   \\  /    A nd           | Website:  www.openfoam.com                      |
|    \\/     M anipulation  |                                                 |
\*---------------------------------------------------------------------------*/
FoamFile
{
    version     2.0;
    format      ascii;
    arch        "LSB;label=32;scalar=64";
    class       surfaceScalarField;
    location    "1.6e-05";
    object      phi;
}
// * * * * * * * * * * * * * * * * * * * * * * * * * * * * * * * * * * * * * //

dimensions      [1 0 -1 0 0 0 0];

oriented        oriented;

internalField   nonuniform List<scalar> 
3182
(
5.69281785e-18
-2.12306357e-18
-2.43742096e-18
-2.17953317e-18
-7.54435978e-21
-3.9465467e-23
-2.7752645e-24
1.0031691e-25
6.2103997e-24
1.12342854e-22
1.49084278e-19
4.29939394e-18
3.66373064e-18
1.0198345e-18
1.28017383e-18
-1.29257335e-18
-4.810136e-18
-4.75381493e-18
-5.04450824e-18
4.22264111e-18
7.33851969e-20
2.71208076e-21
1.39458409e-18
2.47075171e-18
4.18668376e-18
4.2866693e-18
6.90755136e-18
2.32354392e-18
-2.91012633e-19
-1.60424803e-19
-7.20510029e-19
-1.36469326e-18
-5.81201943e-18
-6.8107369e-18
-3.15234566e-18
-5.77730552e-18
-7.34147421e-18
-7.21313773e-18
-7.97721065e-18
-5.15872732e-18
-2.69963804e-18
-4.10936146e-19
2.60471489e-18
6.14486242e-18
7.41102106e-18
8.67537601e-18
1.05057056e-17
1.14822132e-17
1.14895203e-17
1.06384907e-17
8.9018757e-18
6.32984435e-18
3.04502737e-18
-9.57608486e-20
-3.45967851e-18
-6.69526224e-18
-9.30989834e-18
-1.2771363e-17
-1.56134845e-17
-1.84475939e-17
-2.16928402e-17
-2.36904304e-17
-2.61238036e-17
-2.84616198e-17
-3.03531466e-17
-3.10080845e-17
-3.23233082e-17
-3.2950074e-17
-3.47003836e-17
-3.52197071e-17
-3.64649374e-17
-3.75608413e-17
-3.72500804e-17
-3.74401021e-17
-3.91925175e-17
-3.91785997e-17
-3.96844265e-17
-3.96899892e-17
-3.97610291e-17
-3.92107481e-17
-3.93004258e-17
-4.00469771e-17
-4.04789323e-17
-4.04968737e-17
-4.36394371e-17
-4.31203253e-17
-4.53160547e-17
-4.72509474e-17
-4.69458562e-17
-4.85463344e-17
-5.06387858e-17
-5.19643629e-17
-5.24825541e-17
-5.33211835e-17
-5.41123686e-17
-5.66141701e-17
-5.87909864e-17
-5.92055074e-17
-5.82804028e-17
-5.87397628e-17
-6.24309732e-17
-5.98965056e-17
-6.23857059e-17
-6.26471806e-17
-6.15241809e-17
-6.11772863e-17
-6.35995641e-17
-6.36196719e-17
-6.18924125e-17
-6.05562682e-17
-5.82749727e-17
-5.64776695e-17
-6.05741918e-17
-6.50425832e-17
-6.22635294e-17
-6.64550941e-17
-6.27003897e-17
-6.58969893e-17
-6.35848452e-17
-6.22208079e-17
-6.3615614e-17
-6.68353911e-17
-6.60128297e-17
-6.86359017e-17
-6.50806086e-17
-6.84035148e-17
-6.76702853e-17
-6.95690107e-17
-6.95181159e-17
-6.83048363e-17
-7.24463874e-17
-7.14086328e-17
-7.27808889e-17
-7.13994941e-17
-7.24314169e-17
-7.78528267e-17
-7.61432123e-17
-7.82174503e-17
-7.52727256e-17
-7.48344147e-17
-7.25082798e-17
-6.99636283e-17
-7.09989506e-17
-7.75898563e-17
-7.69032813e-17
-7.54580374e-17
-7.39947547e-17
-7.28589189e-17
-7.5069004e-17
-7.58180598e-17
-7.46026532e-17
-7.46958685e-17
-7.36235893e-17
-7.3982353e-17
-7.50515234e-17
-7.67171072e-17
-7.84945507e-17
-7.73284932e-17
-7.78149839e-17
-7.86607936e-17
-7.94267857e-17
-8.14343805e-17
-7.98883598e-17
-8.18639434e-17
-8.02494603e-17
-7.83162421e-17
-8.11871766e-17
-7.84132424e-17
-8.15853005e-17
-8.15516368e-17
-8.00067723e-17
-8.34697132e-17
-8.09237932e-17
-8.1524671e-17
-8.18136974e-17
-8.17461464e-17
-8.65868528e-17
-8.66766702e-17
-8.71923962e-17
-8.71471055e-17
-8.86552522e-17
-8.87238657e-17
-8.58758364e-17
-8.5780846e-17
-8.70966286e-17
-8.48735865e-17
-8.48767132e-17
-8.32901125e-17
-8.51067646e-17
-8.49051111e-17
-8.66170444e-17
-8.9602942e-17
-8.83612242e-17
-9.00404093e-17
-9.01891517e-17
-8.93749391e-17
-9.13843425e-17
-9.03934043e-17
-8.89093045e-17
-9.00037844e-17
-8.81643691e-17
-8.49630851e-17
-8.55292833e-17
-8.49370204e-17
-8.56963108e-17
-8.50825654e-17
-8.52362281e-17
-8.59121735e-17
-8.54179264e-17
-9.08306957e-17
-8.8850341e-17
-8.8552633e-17
-8.99058008e-17
-9.12516578e-17
-9.02737141e-17
-8.97379522e-17
-9.04899088e-17
-9.19706994e-17
-9.04599823e-17
-9.01191775e-17
-9.23531609e-17
-9.31533644e-17
-9.2159662e-17
-9.24498162e-17
-9.38721357e-17
-9.20887834e-17
-9.32912906e-17
-9.48793056e-17
-9.34179481e-17
-9.50023281e-17
-9.58809943e-17
-9.8751702e-17
-1.0023183e-16
-1.00956027e-16
-1.07406007e-16
-1.051649e-16
-1.06108836e-16
-1.06947625e-16
-1.05609061e-16
-1.07444054e-16
-1.07602458e-16
-1.07377134e-16
-1.0928265e-16
-1.07093043e-16
-1.09307486e-16
-1.10680858e-16
-1.11645722e-16
-1.09898484e-16
-1.13803754e-16
-1.1527108e-16
-1.17352508e-16
-1.161755e-16
-1.20140354e-16
-1.15431452e-16
-1.17723155e-16
-1.16900588e-16
-1.18115922e-16
-1.17039283e-16
-1.20446222e-16
-1.17209257e-16
-1.17265089e-16
-1.17532924e-16
-1.16630105e-16
-1.18514265e-16
-1.18186143e-16
-1.19580142e-16
-1.17450176e-16
-1.19053713e-16
-1.19902883e-16
-1.21880558e-16
-1.20674648e-16
-1.20758552e-16
-1.22347443e-16
-1.21787743e-16
-1.23963592e-16
-1.19897259e-16
-1.20973419e-16
-1.20902318e-16
-1.20824313e-16
-1.2025816e-16
-1.19472474e-16
-1.19383925e-16
-1.19404051e-16
-1.17850974e-16
-1.19182305e-16
-1.18439694e-16
-1.2165447e-16
-1.19874311e-16
-1.20085954e-16
-1.2207847e-16
-1.22601878e-16
-1.2362194e-16
-1.24363079e-16
-1.29205244e-16
-1.28115892e-16
-1.28254739e-16
-1.27185682e-16
-1.26413914e-16
-1.25377048e-16
-1.24840691e-16
-1.24422133e-16
-1.25089489e-16
-1.26847664e-16
-1.25441921e-16
-1.24142401e-16
-1.23374525e-16
-1.22641472e-16
-1.24954711e-16
-1.23378097e-16
-1.21721576e-16
-1.19639947e-16
-1.23896614e-16
-1.22012739e-16
-1.2236177e-16
-1.26391429e-16
-1.24386221e-16
-1.27630481e-16
-1.23964002e-16
-1.23791917e-16
-1.23378404e-16
-1.22640321e-16
-1.28855309e-16
-1.30934902e-16
-1.30538014e-16
-1.25104929e-16
-1.26444016e-16
-1.2868982e-16
-1.26817585e-16
-1.26802853e-16
-1.26196104e-16
-1.22291898e-16
-1.21014508e-16
-1.22575287e-16
-1.19101781e-16
-1.18859991e-16
-1.19570492e-16
-1.19823424e-16
-1.22059164e-16
-1.21239092e-16
-1.18802818e-16
-1.20614618e-16
-1.20509667e-16
-1.18039375e-16
-1.16454012e-16
-1.15834811e-16
-1.19732636e-16
-1.20362461e-16
-1.22014987e-16
-1.25046638e-16
-1.24432628e-16
-1.23458076e-16
-1.22124462e-16
-1.24471055e-16
-1.24013621e-16
-1.24383238e-16
-1.26126158e-16
-1.22496583e-16
-1.25193413e-16
-1.26272718e-16
-1.24225095e-16
-1.25261118e-16
-1.25084614e-16
-1.24905421e-16
-1.22901773e-16
-1.24298804e-16
-1.23622498e-16
-1.22901685e-16
-1.22076897e-16
-1.1908264e-16
-1.20477576e-16
-1.15788124e-16
-1.15101856e-16
-1.16653341e-16
-1.19376432e-16
-1.19832512e-16
-1.21425364e-16
-1.21471888e-16
-1.21627141e-16
-1.19959294e-16
-1.21844751e-16
-1.18188466e-16
-1.17728738e-16
-1.19300688e-16
-1.1740189e-16
-1.16368484e-16
-1.13463699e-16
-1.10894725e-16
-1.13590141e-16
-1.11005845e-16
-1.08462719e-16
-1.08444824e-16
-1.01915249e-16
-1.01446772e-16
-1.00357788e-16
-9.96111487e-17
-1.00635496e-16
-1.016207e-16
-9.92764625e-17
-9.58211881e-17
-9.62939569e-17
-9.50002242e-17
-9.4379972e-17
-9.20530865e-17
-9.20273759e-17
-9.41467565e-17
-9.30540047e-17
-9.80699638e-17
-9.30187448e-17
-9.46197346e-17
-9.2907395e-17
-9.10503607e-17
-9.1418897e-17
-9.51739725e-17
-9.60004725e-17
-9.36822925e-17
-9.18951364e-17
-9.13002524e-17
-9.09322032e-17
-8.87978907e-17
-9.08306447e-17
-9.01692473e-17
-9.0169695e-17
-8.87824621e-17
-8.97736049e-17
-9.03368456e-17
-9.3585776e-17
-9.2955609e-17
-9.19823427e-17
-9.21009347e-17
-9.3445093e-17
-9.3592393e-17
-9.46156419e-17
-9.58081535e-17
-9.24599835e-17
-8.85154991e-17
-9.16832405e-17
-8.82173044e-17
-8.71059088e-17
-8.52204332e-17
-8.69137557e-17
-8.71713674e-17
-8.28464518e-17
-8.3750791e-17
-8.37893256e-17
-8.10137015e-17
-8.21407891e-17
-8.22503986e-17
-8.22474783e-17
-7.93636851e-17
-7.95759598e-17
-7.75628364e-17
-7.86541012e-17
-7.71668619e-17
-7.70663061e-17
-7.84704477e-17
-7.50726627e-17
-7.60399733e-17
-7.43245431e-17
-7.5295648e-17
-7.48588175e-17
-7.64339236e-17
-7.18197577e-17
-7.00941298e-17
-7.17995009e-17
-7.04805449e-17
-6.98120201e-17
-7.06324766e-17
-7.10311367e-17
-7.17419815e-17
-7.34327326e-17
-6.98066071e-17
-6.92525252e-17
-6.86283194e-17
-6.83537782e-17
-6.6155069e-17
-7.01123551e-17
-7.05212482e-17
-6.94241117e-17
-6.73863281e-17
-7.00081044e-17
-6.85159759e-17
-6.49633987e-17
-6.195815e-17
-6.37522805e-17
-6.13765298e-17
-6.20724713e-17
-6.04587304e-17
-6.21573675e-17
-5.9045592e-17
-5.88062566e-17
-5.87332665e-17
-5.77390871e-17
-5.49378103e-17
-5.48347882e-17
-5.46927328e-17
-5.32488856e-17
-5.51085398e-17
-5.24564159e-17
-5.34671811e-17
-5.34290889e-17
-5.40913911e-17
-5.17032761e-17
-5.37801226e-17
-5.09009724e-17
-4.88527415e-17
-4.7216836e-17
-4.79121951e-17
-5.01149934e-17
-4.97664914e-17
-4.3377053e-17
-4.71161059e-17
-4.79263847e-17
-5.00338679e-17
-5.18653221e-17
-4.66936073e-17
-4.57250818e-17
-4.70706625e-17
-4.5686297e-17
-4.36280417e-17
-4.09753202e-17
-4.08786761e-17
-4.16281518e-17
-4.27262253e-17
-4.22274932e-17
-4.27594828e-17
-3.98738901e-17
-4.27010978e-17
-3.98748337e-17
-4.04543803e-17
-3.93850013e-17
-4.01131528e-17
-3.99363255e-17
-4.01520039e-17
-3.84470919e-17
-4.05590834e-17
-3.95150118e-17
-3.92511998e-17
-3.93372106e-17
-3.89915639e-17
-3.92759146e-17
-3.92171027e-17
-3.65132814e-17
-3.94477563e-17
-3.83388217e-17
-3.48196072e-17
-3.41731173e-17
-3.31338219e-17
-3.27529805e-17
-3.23646351e-17
-3.10494052e-17
-3.1060232e-17
-2.7617793e-17
-2.77529522e-17
-2.48614243e-17
-2.68290572e-17
-2.55088137e-17
-2.58118858e-17
-2.28018243e-17
-1.94271786e-17
-1.92373347e-17
-2.12599224e-17
-1.95524457e-17
-1.8745414e-17
-1.77905996e-17
-1.81790277e-17
-1.57853275e-17
-1.44849075e-17
-1.67913288e-17
-1.69995912e-17
-1.39610864e-17
-1.36352678e-17
-1.40105298e-17
-1.01723898e-17
-1.16757328e-17
-8.90054341e-18
-1.10514921e-17
-1.37409318e-17
-1.55402433e-17
-1.03697283e-17
-9.58361571e-18
-6.34042599e-18
-7.4704967e-18
-9.74030562e-18
-6.3114004e-18
-4.31477442e-18
-8.91895635e-18
-7.04933583e-18
-7.45596232e-18
-6.98309793e-18
-2.84853376e-18
-5.07335857e-18
-6.02812773e-18
-5.61032507e-18
-5.7168123e-18
-4.5381115e-18
-4.04882061e-18
-3.37749195e-18
-5.03838347e-18
-2.1300196e-18
-2.75012276e-18
-3.88495303e-18
-4.37527931e-19
-1.81302886e-18
-3.12482368e-18
-1.82379938e-18
-1.61780018e-18
-2.63766141e-18
-3.22504366e-18
-2.93800952e-18
4.96176999e-19
5.04477058e-19
1.86699765e-18
8.65492352e-19
-2.38729545e-18
1.83826705e-18
2.7411935e-18
4.73714912e-18
2.07290642e-18
4.05492222e-18
3.04482096e-18
2.50839482e-18
3.65281425e-18
4.45588192e-18
8.00846943e-18
6.39977201e-18
4.0443967e-18
7.58883697e-18
6.00039852e-18
5.68146536e-18
7.77798656e-18
9.28270203e-18
1.17111136e-17
1.32448289e-17
1.18121546e-17
1.08436129e-17
1.23634058e-17
1.32675193e-17
9.12695852e-18
1.06028179e-17
9.05861731e-18
1.10530566e-17
1.20927412e-17
1.04198429e-17
1.31498007e-17
1.1912509e-17
1.0303182e-17
1.03945165e-17
1.30632985e-17
1.31960193e-17
1.51052274e-17
1.65120637e-17
1.62155652e-17
1.77300078e-17
1.70102452e-17
1.58333081e-17
1.57061801e-17
1.46746504e-17
1.40171711e-17
1.3233887e-17
1.45274998e-17
1.65372755e-17
1.71360021e-17
1.69593819e-17
1.50917517e-17
1.66938198e-17
1.80654571e-17
1.8641336e-17
2.13566323e-17
1.82085935e-17
2.00958777e-17
1.93650673e-17
1.93756191e-17
1.94217107e-17
2.21366735e-17
2.38070835e-17
2.25563576e-17
2.31909033e-17
2.32892851e-17
2.42274234e-17
2.6239393e-17
3.14155567e-17
3.11515762e-17
3.46161205e-17
3.83587416e-17
4.09557443e-17
3.86341982e-17
4.00126334e-17
3.85070666e-17
3.61953295e-17
4.18958386e-17
4.29230911e-17
4.35022567e-17
4.70548554e-17
4.82946037e-17
4.75227442e-17
4.855713e-17
4.7675372e-17
5.04766941e-17
5.30370412e-17
4.98253298e-17
5.35980116e-17
5.47547931e-17
5.28304547e-17
5.29829878e-17
5.81067166e-17
5.72705553e-17
6.10510069e-17
6.17349872e-17
6.27103333e-17
5.83036569e-17
6.28718238e-17
6.15487895e-17
6.47563554e-17
6.41829163e-17
6.18540739e-17
5.97785685e-17
5.88703029e-17
5.85743821e-17
5.55337904e-17
5.77515263e-17
5.67633056e-17
5.38644707e-17
5.55337367e-17
5.33933092e-17
5.22518906e-17
5.08706022e-17
5.43988021e-17
5.71330735e-17
5.39579803e-17
5.49068543e-17
5.44150522e-17
5.42420995e-17
5.19109464e-17
5.36273441e-17
5.64020765e-17
5.78596319e-17
5.64038519e-17
5.41533144e-17
5.47592041e-17
5.85870443e-17
5.83734477e-17
5.73508924e-17
5.87065965e-17
5.90329264e-17
5.67189287e-17
5.56022253e-17
5.6975135e-17
6.20636569e-17
5.9672806e-17
5.76108273e-17
6.20665804e-17
5.88087236e-17
5.82462379e-17
6.26067853e-17
5.9934064e-17
5.92717777e-17
6.13548478e-17
5.48396655e-17
5.38851809e-17
5.50844302e-17
5.52703597e-17
5.64878337e-17
5.17417091e-17
5.03231123e-17
5.34744153e-17
5.52308164e-17
5.52503021e-17
5.71481606e-17
5.94242122e-17
5.84220095e-17
5.62249172e-17
6.06768197e-17
6.0844976e-17
5.91388185e-17
6.08092546e-17
6.36049725e-17
6.17390894e-17
6.21570839e-17
6.48173822e-17
6.19099141e-17
5.91728549e-17
6.14374628e-17
6.40569408e-17
6.3267849e-17
6.40729855e-17
6.37331222e-17
6.41676363e-17
6.22327163e-17
6.16240908e-17
6.06303211e-17
6.42894907e-17
6.09993728e-17
6.65251137e-17
6.30908866e-17
6.14611297e-17
6.09001815e-17
6.09790876e-17
5.84120064e-17
6.11049756e-17
5.86347632e-17
6.44504771e-17
6.25519088e-17
6.39376567e-17
6.3321875e-17
6.51601433e-17
6.44610394e-17
6.34975005e-17
6.64118707e-17
6.28784637e-17
6.22819476e-17
6.17061207e-17
6.31314444e-17
6.4470054e-17
6.29172424e-17
6.44699242e-17
6.22832219e-17
6.73556062e-17
6.54746688e-17
7.09380285e-17
6.86540403e-17
6.94149176e-17
6.98150577e-17
7.18053836e-17
7.33062997e-17
7.58995347e-17
7.3767533e-17
7.46350985e-17
7.31582997e-17
7.70377972e-17
7.61227004e-17
7.44964612e-17
7.39645138e-17
7.15745636e-17
7.14774028e-17
6.8677191e-17
7.03020401e-17
6.70306733e-17
6.66622505e-17
6.99924209e-17
6.9361908e-17
7.1986557e-17
7.68285992e-17
7.86040616e-17
7.54991149e-17
7.43990057e-17
7.10552495e-17
6.96759179e-17
7.31655246e-17
7.11894696e-17
7.06773507e-17
6.96526394e-17
7.12055631e-17
7.10251408e-17
7.21328063e-17
7.1156085e-17
7.21931321e-17
7.32499782e-17
7.60611717e-17
7.37231343e-17
7.19284422e-17
7.0310524e-17
7.07574537e-17
7.10730153e-17
7.12418362e-17
6.99445678e-17
6.90593536e-17
6.78342758e-17
6.70506358e-17
6.78603235e-17
6.39625069e-17
6.0721154e-17
5.79936401e-17
5.80368966e-17
5.92263663e-17
5.88418566e-17
5.68198297e-17
5.7009319e-17
5.73104751e-17
5.51414318e-17
5.42129445e-17
5.7584807e-17
5.47011612e-17
5.67626825e-17
5.2900267e-17
5.42162072e-17
5.54750893e-17
5.2079483e-17
5.12887327e-17
5.03682714e-17
5.11462284e-17
4.97984994e-17
4.95083939e-17
4.95046493e-17
5.38335871e-17
5.19090295e-17
5.42917988e-17
5.89079451e-17
5.76709954e-17
5.8053328e-17
6.15228559e-17
6.04210322e-17
5.92927073e-17
5.90604717e-17
6.13969966e-17
6.16144064e-17
6.1254605e-17
6.30462896e-17
6.58175268e-17
6.6462954e-17
6.46517374e-17
6.22414839e-17
6.21148013e-17
6.44110114e-17
6.31874033e-17
6.26154267e-17
6.36728142e-17
6.39470167e-17
6.58273522e-17
6.62063474e-17
6.70316276e-17
7.05865366e-17
6.80286326e-17
6.64037766e-17
6.60015674e-17
6.54932543e-17
6.49135989e-17
6.60165877e-17
6.25786418e-17
6.13530694e-17
6.4077027e-17
6.28616112e-17
6.19540189e-17
6.3592258e-17
6.10611027e-17
6.47345777e-17
6.37512819e-17
6.51758118e-17
6.30926249e-17
6.3341366e-17
5.92100481e-17
6.28666319e-17
6.47236355e-17
6.31394719e-17
6.4889639e-17
6.26665829e-17
6.60821017e-17
6.80609204e-17
6.46400678e-17
6.53934497e-17
6.592652e-17
6.2876991e-17
6.29631116e-17
6.40471555e-17
6.00605102e-17
5.93500281e-17
6.19608042e-17
5.88237249e-17
6.176899e-17
6.08891297e-17
6.30873927e-17
6.17609649e-17
6.00706633e-17
6.19904015e-17
6.11648891e-17
6.16618906e-17
6.69168912e-17
6.41156343e-17
6.52264732e-17
6.62798483e-17
6.71681681e-17
6.41653869e-17
6.22281651e-17
6.15824251e-17
6.38229732e-17
6.44908648e-17
6.66692499e-17
6.33441186e-17
6.0760512e-17
5.8664314e-17
5.79062096e-17
5.62540154e-17
5.63588847e-17
6.02994144e-17
5.95297846e-17
5.82474082e-17
5.34953611e-17
5.63936078e-17
5.67333675e-17
5.49691238e-17
5.36370875e-17
5.32403997e-17
5.29294175e-17
5.34102304e-17
5.08370473e-17
5.34137325e-17
5.16200022e-17
5.19457254e-17
5.44743936e-17
5.39615696e-17
5.38001629e-17
5.36717701e-17
5.45666686e-17
5.45595437e-17
5.59528796e-17
5.13911928e-17
5.19156937e-17
5.01628473e-17
4.74627298e-17
4.84124514e-17
4.68406291e-17
4.41881977e-17
4.24216866e-17
4.10329204e-17
4.23496087e-17
4.42073189e-17
4.24534213e-17
4.45344214e-17
4.35161038e-17
4.26946612e-17
4.21899748e-17
4.30245157e-17
4.31638765e-17
3.87976312e-17
4.03139529e-17
4.28078072e-17
4.33672989e-17
3.93668095e-17
3.81153024e-17
3.82830718e-17
4.10146698e-17
3.71266214e-17
3.81352131e-17
3.95860352e-17
3.85557393e-17
3.69302931e-17
3.58130475e-17
3.538993e-17
3.43203642e-17
3.30084023e-17
2.80929711e-17
3.03279918e-17
3.12634091e-17
3.1446292e-17
2.80504101e-17
3.09674831e-17
3.10907244e-17
3.13475671e-17
2.5755625e-17
2.80775307e-17
2.54800199e-17
2.10084782e-17
2.15924706e-17
2.22991107e-17
2.26144375e-17
2.29504726e-17
2.3392883e-17
2.04088672e-17
1.98517017e-17
2.05716633e-17
1.95783945e-17
2.02073913e-17
1.97475732e-17
1.93888423e-17
2.13613583e-17
2.44818263e-17
2.42206247e-17
2.02650496e-17
1.89140586e-17
1.63593109e-17
1.61162629e-17
2.09403357e-17
2.37226989e-17
2.27316973e-17
2.19263586e-17
2.26814373e-17
1.90479226e-17
1.6464972e-17
1.66262445e-17
1.41454858e-17
1.8587218e-17
1.90560735e-17
1.96889237e-17
2.03990402e-17
2.12878459e-17
1.75728304e-17
1.53931766e-17
1.32090866e-17
1.51736832e-17
1.65119056e-17
1.53063555e-17
1.51823159e-17
1.4370096e-17
1.85630467e-17
1.56384319e-17
1.74206305e-17
1.48214794e-17
1.50077752e-17
1.29918172e-17
1.50738053e-17
1.30340318e-17
1.05237064e-17
8.81701458e-18
9.46683166e-18
9.60393292e-18
8.99098378e-18
4.19584792e-18
2.51977651e-18
1.79313364e-18
2.47484577e-18
1.73950676e-19
-2.17991634e-18
-6.84487747e-19
-3.14781771e-18
-1.69556668e-18
-5.27408117e-18
-3.82654247e-18
-7.83344623e-18
-9.00181548e-18
-1.15521754e-17
-1.06150373e-17
-1.2415165e-17
-1.3051254e-17
-1.40457853e-17
-1.6371358e-17
-1.9883831e-17
-2.04818077e-17
-2.13850689e-17
-1.97664815e-17
-2.21234479e-17
-2.07638917e-17
-2.1607692e-17
-2.2263204e-17
-2.18812814e-17
-2.27978376e-17
-2.18264821e-17
-2.08648211e-17
-1.93741514e-17
-2.18737076e-17
-1.99092217e-17
-1.80633534e-17
-1.74211403e-17
-1.93636314e-17
-1.96649603e-17
-1.71132819e-17
-1.98203717e-17
-1.91094185e-17
-1.82767411e-17
-1.68391645e-17
-1.72988153e-17
-1.91665527e-17
-1.7699247e-17
-1.85436808e-17
-2.03922674e-17
-2.27833747e-17
-2.01408862e-17
-2.03375198e-17
-2.11546899e-17
-2.07220921e-17
-1.91292469e-17
-2.48409872e-17
-2.2573286e-17
-2.46599001e-17
-2.70950422e-17
-2.62651609e-17
-2.77886593e-17
-2.9907999e-17
-3.05059039e-17
-3.06987322e-17
-3.25129771e-17
-3.15592736e-17
-3.11124681e-17
-3.15482932e-17
-3.28024619e-17
-3.22259976e-17
-3.22784929e-17
-3.50127994e-17
-3.4061043e-17
-3.67232525e-17
-3.37567432e-17
-3.6862646e-17
-3.53276596e-17
-3.65757581e-17
-3.81782795e-17
-4.1040714e-17
-4.11237937e-17
-4.15061006e-17
-4.42194758e-17
-4.73731573e-17
-4.71620785e-17
-4.5229732e-17
-4.77397005e-17
-4.57150086e-17
-4.91338096e-17
-4.87271679e-17
-5.21218631e-17
-5.02427517e-17
-5.4076615e-17
-5.57803034e-17
-5.71648329e-17
-5.47914977e-17
-5.84843007e-17
-5.83092708e-17
-5.27915083e-17
-5.50680454e-17
-5.57050784e-17
-5.85741943e-17
-5.92792388e-17
-6.40904339e-17
-6.04511125e-17
-6.03426418e-17
-6.21911043e-17
-6.23132609e-17
-6.36873603e-17
-6.32606998e-17
-6.2638516e-17
-6.24444595e-17
-6.43733457e-17
-6.45899095e-17
-6.55980904e-17
-6.59073968e-17
-6.39565084e-17
-6.86495455e-17
-6.61667446e-17
-6.72587139e-17
-6.96307285e-17
-6.69019298e-17
-6.98211116e-17
-6.77841175e-17
-6.88104809e-17
-6.58730438e-17
-6.38119306e-17
-6.54824698e-17
-6.37569867e-17
-7.10287908e-17
-6.8624259e-17
-6.88460787e-17
-6.79200174e-17
-7.07535519e-17
-7.03927683e-17
-7.31099972e-17
-7.43460856e-17
-7.15933523e-17
-7.27065808e-17
-7.10465766e-17
-7.23738237e-17
-7.32139834e-17
-7.1372522e-17
-7.2389796e-17
-7.31368128e-17
-7.24221623e-17
-7.17628068e-17
-6.93359335e-17
-6.97944829e-17
-7.28246908e-17
-7.16825478e-17
-7.38208089e-17
-7.62584971e-17
-7.84322327e-17
-7.74547428e-17
-7.85454995e-17
-7.81145783e-17
-7.65707241e-17
-7.61268426e-17
-7.87681603e-17
-7.54048502e-17
-7.71688992e-17
-8.29777299e-17
-7.93771279e-17
-7.89654143e-17
-8.23737673e-17
-8.13764683e-17
-8.13508195e-17
-8.06510036e-17
-7.92910058e-17
-8.26754935e-17
-7.98404896e-17
-8.04710762e-17
-8.21100619e-17
-8.13663957e-17
-8.22855696e-17
-8.10944742e-17
-8.0387177e-17
-8.15927092e-17
-8.1137431e-17
-7.75332312e-17
-7.73393247e-17
-7.86445212e-17
-8.05947401e-17
-8.15044908e-17
-7.94770173e-17
-7.93486628e-17
-7.63095762e-17
-7.61751305e-17
-7.72384894e-17
-7.6565234e-17
-7.53732144e-17
-7.98762785e-17
-7.98894129e-17
-7.86420716e-17
-8.34172075e-17
-8.09107356e-17
-8.0210997e-17
-7.79126674e-17
-7.92534337e-17
-8.35952032e-17
-8.57403846e-17
-8.49318197e-17
-8.28681439e-17
-8.49012451e-17
-8.33573285e-17
-8.39948394e-17
-8.62325385e-17
-8.56060001e-17
-8.51153998e-17
-8.86554175e-17
-8.42193506e-17
-8.04844188e-17
-8.24356282e-17
-7.95334289e-17
-8.07767928e-17
-7.75914899e-17
-7.7941871e-17
-7.56263939e-17
-7.57081527e-17
-7.78715961e-17
-7.68370471e-17
-7.63637303e-17
-7.40963119e-17
-7.60966617e-17
-7.4016218e-17
-7.48949401e-17
-7.41717764e-17
-7.16597954e-17
-7.17178271e-17
-7.52002512e-17
-7.53259567e-17
-7.45934992e-17
-7.35678749e-17
-7.44484322e-17
-7.19305549e-17
-6.934536e-17
-6.89596693e-17
-6.70875729e-17
-6.65978437e-17
-6.81080902e-17
-6.86590892e-17
-6.82025278e-17
-6.77822677e-17
-6.75901235e-17
-6.73044262e-17
-6.73286226e-17
-6.58657198e-17
-6.64574856e-17
-6.4847107e-17
-6.45466154e-17
-6.49002624e-17
-6.65228643e-17
-6.35519985e-17
-6.31160836e-17
-6.26186286e-17
-6.09020459e-17
-6.3915251e-17
-6.39683431e-17
-6.38570629e-17
-6.27818425e-17
-6.1852695e-17
-6.40777691e-17
-6.26585915e-17
-6.36914371e-17
-6.66885948e-17
-6.37696651e-17
-5.98175538e-17
-6.14623703e-17
-5.68445918e-17
-6.00382383e-17
-6.38224233e-17
-6.15688308e-17
-6.13881623e-17
-6.00959435e-17
-6.05676292e-17
-6.11340008e-17
-5.83162488e-17
-5.94552146e-17
-6.45634578e-17
-6.20549353e-17
-6.27797341e-17
-6.0253454e-17
-6.50391699e-17
-6.34660612e-17
-6.06001498e-17
-6.04327568e-17
-5.92025664e-17
-6.08119474e-17
-5.85708884e-17
-5.86695295e-17
-6.17753021e-17
-6.01675795e-17
-5.94490579e-17
-5.90958518e-17
-6.32600081e-17
-6.19378289e-17
-6.09320274e-17
-5.89212227e-17
-5.79540362e-17
-6.10162492e-17
-6.08662632e-17
-6.06868711e-17
-6.06745863e-17
-6.01420337e-17
-6.08492605e-17
-5.88274479e-17
-6.30221398e-17
-6.0649164e-17
-6.28568273e-17
-6.17763587e-17
-6.0569259e-17
-6.00114152e-17
-6.33244624e-17
-6.56282055e-17
-6.63981978e-17
-6.645603e-17
-6.71290234e-17
-6.71767032e-17
-6.61338752e-17
-6.40921066e-17
-6.33804963e-17
-6.74325316e-17
-6.64992289e-17
-6.86114144e-17
-6.97350416e-17
-6.75271187e-17
-6.87526538e-17
-6.63998011e-17
-6.81778884e-17
-6.97566194e-17
-6.74272687e-17
-6.93897971e-17
-6.50590556e-17
-6.57452204e-17
-6.67970099e-17
-6.65260011e-17
-6.63130871e-17
-6.83098183e-17
-6.87450645e-17
-6.77088416e-17
-6.58036022e-17
-6.61526082e-17
-6.55920916e-17
-6.52028208e-17
-6.51700502e-17
-6.49750647e-17
-6.54577153e-17
-6.58976992e-17
-6.43476573e-17
-6.35874517e-17
-6.41047977e-17
-6.19508679e-17
-6.07570606e-17
-6.23298582e-17
-6.1508554e-17
-5.89497304e-17
-5.77791795e-17
-5.88973373e-17
-6.11680106e-17
-6.11667892e-17
-6.05160779e-17
-5.73344833e-17
-6.07363452e-17
-6.06571494e-17
-5.88673037e-17
-5.94840459e-17
-5.85943645e-17
-5.73486095e-17
-5.62515963e-17
-5.82730275e-17
-5.73475226e-17
-6.09516737e-17
-5.80853526e-17
-5.7600221e-17
-5.75121975e-17
-5.59656947e-17
-5.59427564e-17
-5.63349153e-17
-5.85817957e-17
-5.89784676e-17
-5.77900338e-17
-6.23193909e-17
-5.79066157e-17
-6.03529969e-17
-5.93922375e-17
-5.71199222e-17
-6.20887177e-17
-6.08561866e-17
-5.96564911e-17
-5.67830476e-17
-5.7033348e-17
-5.14311932e-17
-5.06837726e-17
-5.51532674e-17
-5.10693446e-17
-5.35075277e-17
-5.40522456e-17
-5.18669973e-17
-4.90429244e-17
-4.73103792e-17
-4.74745887e-17
-4.43219289e-17
-4.22555621e-17
-4.02418972e-17
-3.92254703e-17
-3.75571093e-17
-3.91617297e-17
-3.89557472e-17
-3.74781056e-17
-3.72399743e-17
-3.34245086e-17
-3.35964962e-17
-3.28256404e-17
-3.35026117e-17
-3.25389881e-17
-3.20639468e-17
-2.7922999e-17
-3.04039128e-17
-2.768222e-17
-2.71014344e-17
-2.73996643e-17
-2.58691979e-17
-2.41705677e-17
-2.19780937e-17
-1.64635581e-17
-1.99298934e-17
-1.66674121e-17
-1.90465552e-17
-1.57647252e-17
-1.83635931e-17
-1.97274457e-17
-1.61768973e-17
-1.6733348e-17
-1.47867232e-17
-1.60987402e-17
-1.66295271e-17
-1.89223013e-17
-1.85294527e-17
-1.80542978e-17
-1.70022709e-17
-1.42631523e-17
-1.22800271e-17
-9.98760138e-18
-1.20101405e-17
-1.1985417e-17
-8.92004425e-18
-7.66548261e-18
-1.10204875e-17
-1.00086461e-17
-9.16168868e-18
-8.63078879e-18
-9.76186293e-18
-1.03297639e-17
-7.61077914e-18
-8.33496415e-18
-6.42089465e-18
-4.55456005e-18
-4.66383721e-18
-4.55756822e-18
-5.87199373e-18
-3.28106859e-18
-5.02331286e-18
-3.87982483e-18
-5.60632367e-18
-1.22671686e-18
-2.77951072e-18
2.80124453e-20
-4.14598482e-18
-5.95823507e-18
-3.97105978e-18
-8.46127504e-18
-8.03761218e-18
-9.02165688e-18
-1.26597455e-18
-2.9720202e-18
-1.74706799e-18
-1.69183086e-18
-3.51079113e-18
-7.53506513e-18
-4.65752359e-18
-4.21395959e-18
-1.90320025e-18
2.36173527e-19
-8.75329128e-19
-1.06384015e-18
3.69387448e-18
7.60372526e-18
4.08809993e-18
4.67250623e-18
9.65084229e-18
1.0856375e-17
1.1360422e-17
1.51718032e-17
8.99269141e-18
9.55235224e-18
1.44701079e-17
1.4490483e-17
8.02693648e-18
1.21343122e-17
9.85987097e-18
8.75288356e-18
9.75845438e-18
1.09101288e-17
1.31194888e-17
1.07623444e-17
1.19346034e-17
1.17033278e-17
1.14099341e-17
1.33948554e-17
1.64195876e-17
1.38390203e-17
1.38394558e-17
1.30379606e-17
1.18034231e-17
1.41834601e-17
1.71291403e-17
1.74511177e-17
2.190579e-17
2.31134627e-17
2.3486169e-17
2.69486741e-17
2.66313126e-17
3.03729001e-17
3.18483092e-17
3.37784282e-17
3.85927643e-17
3.92624702e-17
3.88360649e-17
4.09524093e-17
4.44900282e-17
4.54295475e-17
4.67005164e-17
4.7235939e-17
4.87740247e-17
5.09338781e-17
5.13079448e-17
5.3455757e-17
6.07771158e-17
6.62277501e-17
6.9398807e-17
7.35567728e-17
8.01893045e-17
7.98776787e-17
8.69797796e-17
8.97120934e-17
9.59767093e-17
1.02079264e-16
1.0844509e-16
1.16549804e-16
1.25497207e-16
1.37726905e-16
1.44385006e-16
1.57170702e-16
1.70457851e-16
1.81241511e-16
1.91969982e-16
2.08063149e-16
2.23716008e-16
2.41877573e-16
2.57712754e-16
2.77272648e-16
2.97608853e-16
3.199852e-16
3.44278496e-16
3.71021565e-16
3.99973001e-16
4.27842768e-16
4.59507617e-16
4.92431808e-16
5.29100838e-16
5.69613066e-16
6.12627591e-16
6.55372466e-16
7.02436397e-16
7.52461778e-16
8.10009865e-16
8.71647814e-16
9.33134843e-16
1.00526865e-15
1.0792671e-15
1.1600646e-15
1.24885726e-15
1.34271448e-15
1.44223407e-15
1.55011089e-15
1.66545541e-15
1.7892102e-15
1.92568662e-15
2.0732834e-15
2.23013641e-15
2.39562926e-15
2.57797275e-15
2.76829285e-15
2.97692183e-15
3.20199391e-15
3.44127724e-15
3.70138128e-15
3.97661731e-15
4.27614872e-15
4.5982692e-15
4.94226737e-15
5.31240265e-15
5.7108527e-15
6.13356043e-15
6.59159092e-15
7.08293309e-15
7.61359603e-15
8.1755709e-15
8.78774391e-15
9.4384162e-15
1.01393148e-14
1.08897985e-14
1.1695263e-14
1.25598493e-14
1.34892109e-14
1.44864024e-14
1.55532239e-14
1.66998758e-14
1.79284375e-14
1.9240472e-14
2.06507051e-14
2.21666233e-14
2.37888468e-14
2.55307832e-14
2.73934695e-14
2.93910735e-14
3.15307319e-14
3.38214868e-14
3.62804672e-14
3.89107515e-14
4.17302728e-14
4.47514455e-14
4.79825236e-14
5.14403644e-14
5.51459306e-14
5.91130173e-14
6.33560119e-14
6.79032242e-14
7.27650862e-14
7.79671703e-14
8.35321354e-14
8.94871376e-14
9.5856941e-14
1.02671507e-13
1.09956877e-13
1.1774915e-13
1.26077922e-13
1.34987663e-13
1.44506215e-13
1.54682628e-13
1.65556596e-13
1.77185437e-13
1.89603776e-13
2.02870085e-13
2.17045565e-13
2.3218193e-13
2.48350345e-13
2.65616157e-13
2.84054861e-13
3.0373627e-13
3.24751408e-13
3.47182108e-13
3.71118786e-13
3.96664018e-13
4.23922451e-13
4.53009226e-13
4.84032483e-13
5.17127506e-13
5.52425996e-13
5.9006603e-13
6.30201728e-13
6.72986158e-13
7.18603878e-13
7.67222013e-13
8.19049086e-13
8.74272724e-13
9.33112117e-13
9.95805468e-13
1.06258512e-12
1.13372114e-12
1.20947692e-12
1.2901518e-12
1.37604867e-12
1.46750156e-12
1.5648502e-12
1.66846384e-12
1.7787382e-12
1.8960769e-12
2.0209292e-12
2.15375115e-12
2.29503217e-12
2.44530044e-12
2.60510207e-12
2.77502511e-12
2.95568553e-12
3.14773382e-12
3.35186895e-12
3.56882063e-12
3.79936704e-12
4.04432358e-12
4.30456591e-12
4.58099705e-12
4.8746041e-12
5.18640867e-12
5.51749128e-12
5.86900727e-12
6.24216127e-12
6.63824097e-12
7.0585957e-12
7.50465183e-12
7.97793299e-12
8.48001904e-12
9.01260178e-12
9.57745353e-12
1.01764559e-11
1.0811586e-11
1.1484937e-11
1.2198716e-11
1.29552426e-11
1.37569686e-11
1.46064912e-11
1.55065262e-11
1.64599621e-11
1.74698204e-11
1.85392904e-11
1.96717532e-11
2.08707437e-11
2.21399945e-11
2.34834511e-11
2.49052431e-11
2.64097346e-11
2.8001521e-11
2.96854268e-11
3.1466545e-11
3.3350217e-11
3.53420684e-11
3.74480185e-11
3.96742878e-11
4.20274246e-11
4.45142977e-11
4.71421434e-11
4.9918549e-11
5.28515061e-11
5.59493846e-11
5.92210017e-11
6.26756003e-11
6.63228814e-11
7.01730383e-11
7.42367695e-11
7.85252944e-11
8.30503887e-11
8.78243976e-11
9.2860278e-11
9.81716135e-11
1.03772636e-10
1.09678277e-10
1.15904173e-10
1.22466715e-10
1.29383072e-10
1.36671228e-10
1.44350005e-10
1.52439135e-10
1.60959241e-10
1.6993193e-10
1.79379805e-10
1.89326512e-10
1.99796778e-10
2.10816479e-10
2.22412656e-10
2.34613573e-10
2.47448785e-10
2.60949168e-10
2.75146975e-10
2.90075895e-10
3.05771117e-10