/*--------------------------------*- C++ -*----------------------------------*\
| =========                 |                                                 |
| \\      /  F ield         | OpenFOAM: The Open Source CFD Toolbox           |
|  \\    /   O peration     | Version:  2206                                  |
|   \\  /    A nd           | Website:  www.openfoam.com                      |
|    \\/     M anipulation  |                                                 |
\*---------------------------------------------------------------------------*/
FoamFile
{
    version     2.0;
    format      ascii;
    arch        "LSB;label=32;scalar=64";
    class       volScalarField;
    location    "1.6e-05";
    object      PVsourcePV;
}
// * * * * * * * * * * * * * * * * * * * * * * * * * * * * * * * * * * * * * //

dimensions      [1 -3 -1 0 0 0 0];

internalField   nonuniform List<scalar> 
3183
(
0
0
0
0
0
0
0
0
0
0
0
0
0
0
0
0
0
0
0
0
0
0
0
0
0
0
0
0
0
0
0
0
0
0
0
0
0
0
0
0
0
0
0
0
0
0
0
0
0
0
0
0
0
0
0
0
0
0
0
0
0
0
0
0
0
0
0
0
0
0
0
0
0
0
0
0
0
0
0
0
0
0
0
0
0
0
0
0
0
0
0
0
0
0
0
0
0
0
0
0
0
0
0
0
0
0
0
0
0
0
0
0
0
0
0
0
0
0
0
0
0
0
0
0
0
0
0
0
0
0
0
0
0
0
0
0
0
0
0
0
0
0
0
0
0
0
0
0
0
0
0
0
0
0
0
0
0
0
0
0
0
0
0
0
0
0
0
0
0
0
0
0
0
0
0
0
0
0
0
0
0
0
0
0
0
0
0
0
0
0
0
0
0
0
0
0
0
0
0
0
0
0
0
0
0
0
0
0
0
0
0
0
0
0
0
0
0
0
0
0
0
0
0
0
0
0
0
0
0
0
0
0
0
0
0
0
0
0
0
0
0
0
0
0
0
0
0
0
0
0
0
0
0
0
0
0
0
0
0
0
0
0
0
0
0
0
0
0
0
0
0
0
0
0
0
0
0
0
0
0
0
0
0
0
0
0
0
0
0
0
0
0
0
0
0
0
0
0
0
0
0
0
0
0
0
0
0
0
0
0
0
0
0
0
0
0
0
0
0
0
0
0
0
0
0
0
0
0
0
0
0
0
0
0
0
0
0
0
0
0
0
0
0
0
0
0
0
0
0
0
0
0
0
0
0
0
0
0
0
0
0
0
0
0
0
0
0
0
0
0
0
0
0
0
0
0
0
0
0
0
0
0
0
0
0
0
0
0
0
0
0
0
0
0
0
0
0
0
0
0
0
0
0
0
0
0
0
0
0
0
0
0
0
0
0
0
0
0
0
0
0
0
0
0
0
0
0
0
0
0
0
0
0
0
0
0
0
0
0
0
0
0
0
0
0
0
0
0
0
0
0
0
0
0
0
0
0
0
0
0
0
0
0
0
0
0
0
0
0
0
0
0
0
0
0
0
0
0
0
0
0
0
0
0
0
0
0
0
0
0
0
0
0
0
0
0
0
0
0
0
0
0
0
0
0
0
0
0
0
0
0
0
0
0
0
0
0
0
0
0
0
0
0
0
0
0
0
0
0
0
0
0
0
0
0
0
0
0
0
0
0
0
0
0
0
0
0
0
0
0
0
0
0
0
0
0
0
0
0
0
0
0
0
0
0
0
0
0
0
0
0
0
0
0
0
0
0
0
0
0
0
0
0
0
0
0
0
0
0
0
0
0
0
0
0
0
0
0
0
0
0
0
0
0
0
0
0
0
0
0
0
0
0
0
0
0
0
0
0
0
0
0
0
0
0
0
0
0
0
0
0
0
0
0
0
0
0
0
0
0
0
0
0
0
0
0
0
0
0
0
0
0
0
0
0
0
0
0
0
0
0
0
0
0
0
0
0
0
0
0
0
0
0
0
0
0
0
0
0
0
0
0
0
0
0
0
0
0
0
0
0
0
0
0
0
0
0
0
0
0
0
0
0
0
0
0
0
0
0
0
0
0
0
0
0
0
0
0
0
0
0
0
0
0
0
0
0
0
0
0
0
0
0
0
0
0
0
0
0
0
0
0
0
0
0
0
0
0
0
0
0
0
0
0
0
0
0
0
0
0
0
0
0
0
0
0
0
0
0
0
0
0
0
0
0
0
0
0
0
0
0
0
0
0
0
0
0
0
0
0
0
0
0
0
0
0
0
0
0
0
0
0
0
0
0
0
0
0
0
0
0
0
0
0
0
0
0
0
0
0
0
0
0
0
0
0
0
0
0
0
0
0
0
0
0
0
0
0
0
0
0
0
0
0
0
0
0
0
0
0
0
0
0
0
0
0
0
0
0
0
0
0
0
0
0
0
0
0
0
0
0
0
0
0
0
0
0
0
0
0
0
0
0
0
0
0
0
0
0
0
0
0
0
0
0
0
0
0
0
0
0
0
0
0
0
0
0
0
0
0
0
0
0
0
0
0
0
0
0
0
0
0
0
0
0
0
0
0
0
0
0
0
0
0
0
0
0
0
0
0
0
0
0
0
0
0
0
0
0
0
0
0
0
0
0
0
0
0
0
0
0
0
0
0
0
0
0
0
0
0
0
0
0
0
0
0
0
0
0
0
0
0
0
0
0
0
0
0
0
0
0
0
0
0
0
0
0
0
0
0
0
0
0
0
0
0
0
0
0
0
0
0
0
0
0
0
0
0
0
0
0
0
0
0
0
0
0
0
0
0
0
0
0
0
0
0
0
0
0
0
0
0
0
0
0
0
0
0
0
0
0
0
0
0
0
0
0
0
0
0
0
0
0
0
0
0
0
0
0
0
0
0
0
0
0
0
0
0
0
0
0
0
0
0
0
0
0
0
0
0
0
0
0
0
0
0
0
0
0
0
0
0
0
0
0
0
0
0
0
0
0
0
0
0
0
0
0
0
0
0
0
0
0
0
0
0
0
0
0
0
0
0
0
0
0
0
0
0
0
0
0
0
0
0
0
0
0
0
0
0
0
0
0
0
0
0
0
0
0
0
0
0
0
0
0
0
0
0
0
0
0
0
0
0
0
0
0
0
0
0
0
0
0
0
0
0
0
0
0
0
0
0
0
0
0
0
0
0
0
0
0
0
0
0
0
0
0
0
0
0
0
0
0
0
0
0
0
0
0
0
0
0
0
0
0
0
0
0
0
0
0
0
0
0
0
0
0
0
0
0
0
0
0
0
0
0
0
0
0
0
0
0
0
0
0
0
0
0
0
0
0
0
0
0
0
0
0
0
0
0
0
0
0
0
0
0
0
0
0
0
0
0
0
0
0
0
0
0
0
0
0
0
0
0
0
0
0
0
0
0
0
0
0
0
0
0
0
0
0
0
0
0
0
0
0
0
0
0
0
0
0
0
0
0
0
0
0
0
0
0
0
0
0
0
0
0
0
0
0
0
0
0
0
0
0
0
0
0
0
0
0
0
0
0
0
0
0
0
0
0
0
0
0
0
0
0
0
0
0
0
0
0
0
0
0
0
0
0
0
0
0
0
0
0
0
0
0
0
0
0
0
0
0
0
0
0
0
0
0
0
0
0
0
0
0
0
0
0
0
0
0
0
0
0
0
0
0
0
0
0
0
0
0
0
0
0
0
0
0
0
0
0
0
0
0
0
0
0
0
0
0
0
0
0
0
0
0
0
0
0
0
0
0
0
0
0
0
0
0
0
0
0
0
0
0
0
0
0
0
0
0
0
0
0
0
0
0
0
0
0
0
0
0
0
0
0
0
0
0
0
0
0
0
0
0
0
0
0
0
0
0
0
0
0
0
0
0
0
0
0
0
0
0
0
0
0
0
0
0
0
0
0
0
0
0
0
0
0
0
0
0
0
0
0
0
0
0
0
0
0
0
0
0
0
0
0
0
0
0
0
0
0
0
0
0
0
0
0
0
0
0
0
0
0
0
0
0
0
0
0
0
0
0
0
0
0
0
0
0
0
0
0
0
0
0
0
0
0
0
0
0
0
0
0
0
0
0
0
0
0
0
0
0
0
0
0
0
0
0
0
0
0
0
0
0
0
0
0
0
0
0
0
0
0
0
0
0
0
0
0
0
0
0
0
0
0
0
0
0
0
0
0
0
0
0
0
0
0
0
0
0
0
0
0
0
0
0
0
0
0
0
0
0
0
0
0
0
0
0
0
0
0
0
0
0
0
0
0
0
0
0
0
0
0
0
0
0
0
0
0
0
0
0
0
0
0
0
0
0
0
0
0
0
0
0
0
0
0
0
0
0
0
0
0
0
0
0
0
0
0
0
0
0
0
0
0
0
0
0
0
0
0
0
0
0
0
0
0
0
0
0
0
0
0
0
0
0
0
0
0
0
0
0
0
0
0
0
0
0
0
0
0
0
0
0
0
0
0
0
0
0
0
0
0
0
0
0
0
0
0
0
0
0
0
0
0
0
0
0
0
0
0
0
0
0
0
0
0
0
0
0
0
0
0
0
0
0
0
0
0
0
0
0
0
0
0
0
0
0
0
0
0
0
0
0
0
0
0
0
0
0
0
0
0
0
0
0
0
0
0
0
0
0
0
0
0
0
0
0
0
0
0
0
0
0
0
0
0
0
0
0
0
0
0
0
0
0
0
0
0
0
0
0
0
0
0
0
0
0
0
0
0
0
0
0
0
0
0
0
0
0
0
0
0
0
0
0
0
0
0
0
0
0
0
0
0
0
0
0
0
0
0
0
0
0
0
0
0
0
0
0
0
0
0
0
0
0
0
0
0
0
0
0
0
0
0
0
0
0
0
0
0
0
0
0
0
0
0
0
0
0
0
0
0
0
0
0
0
0
0
0
0
0
0
0
0
0
0
0
0
0
0
0
0
0
0
0
0
0
0
0
0
0
0
0
0
0
0
0
0
0
0
0
0
0
0
0
0
0
0
0
0
0
0
0
0
0
0
0
0
0
0
0
0
0
0
0
0
0
0
0
0
0
0
0
0
0
0
0
0
0
0
0
0
0
0
0
0
0
0
0
0
0
0
0
0
0
0
0
0
0
0
0
0
0
0
0
0
0
0
0
0
0
0
0
0
0
0
0
0
0
0
0
0
0
0
0
0
0
0
0
0
0
0
0
0
0
0
0
0
0
0
0
0
0
0
0
0
0
0
0
0
0
0
0
0
0
0
0
0
0
0
0
0
0
0
0
0
0
0
0
0
0
0
0
0
0
0
0
0
0
0
0
0
0
0
0
0
0
0
0
0
0
0
0
0
0
0
0
0
0
0
0
0
0
0
0
0
0
0
0
0
0
0
0
0
0
0
0
0
0
0
0
0
0
0
0
0
0
0
0
0
0
0
0
0
0
0
0
0
0
0
0
0
0
0
0
0
0
0
0
0
0
0
0
0
0
0
0
0
0
0
0
0
0
0
0
0
0
0
0
0
0
0
0
0
0
0
0
0
0
0
0
0
0
0
0
0
0
0
0
0
0
0
0
0
0
0
0
0
0
0
0
0
0
0
0
0
0
0
0
0
0
0
0
0
0
0
0
0
0
0
0
0
0
0
0
0
0
0
0
0
0
0
0
0
0
0
0
0
0
0
0
0
0
0
0
0
0
0
0
0
0
0
0
0
0
0
0
0
0
0
0
0
0
0
0
0
0
0
0
0
0
0
0
0
0
0
0
0
0
0
0
0
0
0
0
0
0
0
0
0
0
0
0
0
0
0
0
0
0
0
0
0
0
0
0
0
0
0
0
0
0
1.97829192e-298
8.87664184e-299
1.10652421e-295
5.02688837e-296
6.12818687e-293
2.8181929e-293
3.36049521e-290
1.56411426e-290
1.82462539e-287
8.5938529e-288
9.80937932e-285
4.67455681e-285
5.22160766e-282
2.51726686e-282
2.75206461e-279
1.34190478e-279
1.43615315e-276
7.08229541e-277
7.42037677e-274
3.70056511e-274
3.79602295e-271
1.9136345e-271
1.92266325e-268
9.80121966e-269
9.64144793e-266
4.9692022e-266
4.7867229e-263
2.49480431e-263
2.35278858e-260
1.2392702e-260
1.14489836e-257
6.09384522e-258
5.51544335e-255
2.96622727e-255
2.63034458e-252
1.42920927e-252
1.24180111e-249
6.81640707e-250
5.80345031e-247
3.21789963e-247
2.68473947e-244
1.50360867e-244
1.22937863e-241
6.95391934e-242
5.57213898e-239
3.18304802e-239
2.49974235e-236
1.44198492e-236
1.10991306e-233
6.46497045e-234
4.87736842e-231
2.86842842e-231
2.12112663e-228
1.25943425e-228
9.12877879e-226
5.47195301e-226
3.88779604e-223
2.35247459e-223
1.6383913e-220
1.00069692e-220
6.83176353e-218
4.21166165e-218
2.81854959e-215
1.75369822e-215
1.15046065e-212
7.22408421e-213
4.64564028e-210
2.9438267e-210
1.85575433e-207
1.18663452e-207
7.33278087e-205
4.73118174e-205
2.8659018e-202
1.86569907e-202
1.10781724e-199
7.2761731e-200
4.23504216e-197
2.80622691e-197
1.60102264e-194
1.07020859e-194
5.98485054e-192
4.03558182e-192
2.21202413e-189
1.50452965e-189
8.0829581e-187
5.54517889e-187
2.91982253e-184
2.02028408e-184
1.04257781e-181
7.27531338e-182
3.67946823e-179
2.58935781e-179
1.28334447e-176
9.10731992e-177
4.42321861e-174
3.16521078e-174
1.50634398e-171
1.08688045e-171
5.0681833e-169
3.68705615e-169
1.68450692e-166
1.23551034e-166
5.53010752e-164
4.08911675e-164
1.79300115e-161
1.33651825e-161
5.74060375e-159
4.31346367e-159
1.81470551e-156
1.37443632e-156
5.66324813e-154
4.32324003e-154
1.74450693e-151
1.34219893e-151
5.30349044e-149
4.1122665e-149
1.59097924e-146
1.24317931e-146
4.70879448e-144
3.70768629e-144
1.37474902e-141
1.09072299e-141
3.95848008e-139
3.16439536e-139
1.12394369e-136
9.05213595e-137
3.14621207e-134
2.55276784e-134
8.68103544e-132
7.09551273e-132
2.36050086e-129
1.9434661e-129
6.32398653e-127
5.24439523e-127
1.66890923e-124
1.39392515e-124
4.33736489e-122
3.64842132e-122
1.1098453e-119
9.40119826e-120
2.79530377e-117
2.38429706e-117
6.92798973e-115
5.95000588e-115
1.68916912e-112
1.4605945e-112
4.05038951e-110
3.5258722e-110
9.54865002e-108
8.3674124e-108
2.21241065e-105
1.95146063e-105
5.0363737e-103
4.47117352e-103
1.12600621e-100
1.00604581e-100
2.47154333e-98
2.22219224e-98
5.32384528e-96
4.81656502e-96
1.12493665e-93
1.02399997e-93
2.33067463e-91
2.13438982e-91
4.7323919e-89
4.35965742e-89
9.41256298e-87
8.72202766e-87
1.83287596e-84
1.70819641e-84
3.49230521e-82
3.27316744e-82
6.50707924e-80
6.13265272e-80
1.18489317e-77
1.12279739e-77
2.10716223e-75
2.00739291e-75
3.65703636e-73
3.50208492e-73
6.18925604e-71
5.95727739e-71
1.02062725e-68
9.87268624e-69
1.63844166e-66
1.5925823e-66
2.55809474e-64
2.49821521e-64
3.88042017e-62
3.80685744e-62
5.71263355e-60
5.62882268e-60
8.15208321e-58
8.06556334e-58
1.12618552e-55
1.11840106e-55
1.50398879e-53
1.49824721e-53
1.93865324e-51
1.93522946e-51
2.40790773e-49
2.40455205e-49
2.87642803e-47
2.86696545e-47
3.29795994e-45
3.27437508e-45
3.62090464e-43
3.58189507e-43
3.79705813e-41
3.73852093e-41
3.79217355e-39
3.79355719e-39
3.594494e-37
3.58593569e-37
3.22300733e-35
3.20889731e-35
2.72166113e-33
2.70807445e-33
2.1539075e-31
2.14309615e-31
1.5884041e-29
1.57794096e-29
1.08421345e-27
1.07345352e-27
6.79482973e-26
6.67842674e-26
3.87159874e-24
3.87195248e-24
1.98023611e-22
1.97850018e-22
8.95857895e-21
8.94164143e-21
3.51123306e-19
3.50001658e-19
1.15961961e-17
1.15350025e-17
3.10068034e-16
3.0854244e-16
6.30442473e-15
6.3363337e-15
1.12786023e-10
1.13873909e-10
0.00371825998
0.0165153954
0.508815492
0.619576956
0.683745743
0.619693441
0.2251453
0.185742467
0.0360961722
0.0316778392
0.00831444465
0.00753941405
0.0016903819
0.00159267242
0.00030886215
0.000302085702
5.24066649e-05
5.23731147e-05
8.79497059e-06
8.80289039e-06
1.84932575e-06
1.85018452e-06
8.25103602e-07
8.2562134e-07
6.85400888e-07
6.85419321e-07
6.6746909e-07
6.67473181e-07
6.65311791e-07
6.65313033e-07
6.65067402e-07
6.65068236e-07
6.65040917e-07
6.65042418e-07
6.65037458e-07
6.65040254e-07
6.65037489e-07
6.65038167e-07
6.65038218e-07
6.65036886e-07
6.65038783e-07
6.65037438e-07
6.65038842e-07
6.65038232e-07
6.65038455e-07
6.65038332e-07
6.65038951e-07
6.65038437e-07
6.65039612e-07
6.65038422e-07
6.65039214e-07
6.65038576e-07
6.65038881e-07
6.65038916e-07
6.65038796e-07
6.65038806e-07
6.65038488e-07
6.65039839e-07
6.65037813e-07
6.65038933e-07
6.65038458e-07
6.6503929e-07
6.65037938e-07
6.65038007e-07
6.65038263e-07
6.65038575e-07
6.65038005e-07
6.65039042e-07
6.65037906e-07
6.65039403e-07
6.65037361e-07
6.65038063e-07
6.65037946e-07
6.65039006e-07
6.65037561e-07
6.65039019e-07
6.65038582e-07
6.65039236e-07
6.6503797e-07
6.65039369e-07
6.6503801e-07
6.6503848e-07
6.65038368e-07
6.65038552e-07
6.65038613e-07
6.6503799e-07
6.65039333e-07
6.6503816e-07
6.65039167e-07
6.65036392e-07
6.65040433e-07
6.65037491e-07
6.65039437e-07
6.65038128e-07
6.65039717e-07
6.65038084e-07
6.65038895e-07
6.65038914e-07
6.6503908e-07
6.65039063e-07
6.65038459e-07
6.65038698e-07
6.65039005e-07
6.65038556e-07
6.65038513e-07
6.65039226e-07
6.65038572e-07
6.6503788e-07
6.6503846e-07
6.650387e-07
6.65038103e-07
6.65038969e-07
6.65038195e-07
6.65038375e-07
6.65038191e-07
6.650386e-07
6.65037616e-07
6.65039491e-07
6.6503726e-07
6.65040177e-07
6.65037462e-07
6.65039379e-07
6.65037209e-07
6.65038954e-07
6.65038623e-07
6.65038914e-07
6.65038043e-07
6.65040132e-07
6.6503837e-07
6.65039437e-07
6.65039271e-07
6.6503891e-07
6.65039893e-07
6.65039367e-07
6.65038656e-07
6.65040342e-07
6.65038438e-07
6.65039395e-07
6.65038821e-07
6.65038298e-07
6.65038638e-07
6.65038795e-07
6.65037727e-07
6.65039448e-07
6.65037419e-07
6.6503882e-07
6.65037621e-07
6.65039122e-07
6.65038746e-07
6.65037717e-07
6.65039511e-07
6.65037794e-07
6.65039844e-07
6.650378e-07
6.65039577e-07
6.65038855e-07
6.65038752e-07
6.6503849e-07
6.6503876e-07
6.65037938e-07
6.65040577e-07
6.65037314e-07
6.65040826e-07
6.65037719e-07
6.6504105e-07
6.65037834e-07
6.65039457e-07
6.65038866e-07
6.65038378e-07
6.65038269e-07
6.65038309e-07
6.65038167e-07
6.65038615e-07
6.65039307e-07
6.65037829e-07
6.65038852e-07
6.65039428e-07
6.65039195e-07
6.65039087e-07
6.65039459e-07
6.6503974e-07
6.65039534e-07
6.65039079e-07
6.65039829e-07
6.65038703e-07
6.65038363e-07
6.65039271e-07
6.65038697e-07
6.65039058e-07
6.65038217e-07
6.65040056e-07
6.65037861e-07
6.65039545e-07
6.6503865e-07
6.65039605e-07
6.65038208e-07
6.65038905e-07
6.65038614e-07
6.65039297e-07
6.65038182e-07
6.65040712e-07
6.65037595e-07
6.65040318e-07
6.65038327e-07
6.65039244e-07
6.65038799e-07
6.65038795e-07
6.65038912e-07
6.65039957e-07
6.65039529e-07
6.65039157e-07
6.65039565e-07
6.65039033e-07
6.65039116e-07
6.65039574e-07
6.65039443e-07
6.65038667e-07
6.6503897e-07
6.65038732e-07
6.65039801e-07
6.65038727e-07
6.65039034e-07
6.65039051e-07
6.65039484e-07
6.65039374e-07
6.65038675e-07
6.65041123e-07
6.65037658e-07
6.65039731e-07
6.65039688e-07
6.65038827e-07
6.65039871e-07
6.65038566e-07
6.65039796e-07
6.65039041e-07
6.65039859e-07
6.65038955e-07
6.65039917e-07
6.65038877e-07
6.65039833e-07
6.65039632e-07
6.65040681e-07
6.650382e-07
6.65041159e-07
6.65037617e-07
6.65040168e-07
6.65038425e-07
6.65039316e-07
6.65039217e-07
6.6503787e-07
6.65040031e-07
6.65038544e-07
6.65039541e-07
6.65038672e-07
6.65040011e-07
6.6503943e-07
6.65038838e-07
6.65039674e-07
6.65039501e-07
6.65039889e-07
6.6503948e-07
6.65039419e-07
6.6503963e-07
6.65038633e-07
6.650398e-07
6.65038336e-07
6.65039813e-07
6.65038736e-07
6.65039395e-07
6.65038094e-07
6.65040382e-07
6.65038106e-07
6.65039798e-07
6.65039575e-07
6.6503935e-07
6.65040002e-07
6.65039125e-07
6.65039592e-07
6.65038999e-07
6.65038896e-07
6.65039786e-07
6.65038878e-07
6.65038935e-07
6.65039261e-07
6.65039167e-07
6.65039126e-07
6.65039201e-07
6.65039683e-07
6.65039115e-07
6.65039937e-07
6.65039426e-07
6.65038905e-07
6.65040558e-07
6.65038586e-07
6.65038738e-07
6.65039247e-07
6.6503941e-07
6.65039685e-07
6.65040845e-07
6.65039965e-07
6.65039292e-07
6.65040045e-07
6.65040069e-07
6.65039389e-07
6.65039241e-07
6.65039401e-07
6.65039465e-07
6.65039168e-07
6.6503843e-07
6.65040057e-07
6.65038063e-07
6.65040665e-07
6.65038476e-07
6.65040612e-07
6.65039353e-07
6.65039763e-07
6.65040055e-07
6.65039397e-07
6.6503978e-07
6.65038148e-07
6.65040696e-07
6.65037567e-07
6.65041199e-07
6.6503794e-07
6.6504068e-07
6.65038896e-07
6.65038963e-07
6.6503994e-07
6.65039483e-07
6.65039845e-07
6.65040076e-07
6.65039356e-07
6.65040002e-07
6.65039565e-07
6.65039168e-07
6.65039496e-07
6.65039843e-07
6.65040355e-07
6.65038849e-07
6.6504e-07
6.6503955e-07
6.65040639e-07
6.65039922e-07
6.65040346e-07
6.65040065e-07
6.65039552e-07
6.65039111e-07
6.6504048e-07
6.65039844e-07
6.65039204e-07
6.65040778e-07
6.65039537e-07
6.65039651e-07
6.65039462e-07
6.65039121e-07
6.65039653e-07
6.65039872e-07
6.65039157e-07
6.6504063e-07
6.65039428e-07
6.65039437e-07
6.65039664e-07
6.65039832e-07
6.65039998e-07
6.65039864e-07
6.65039483e-07
6.65040148e-07
6.65039292e-07
6.65040738e-07
6.65040047e-07
6.65040379e-07
6.65039997e-07
6.65040351e-07
6.65039522e-07
6.65041077e-07
6.65039214e-07
6.65040154e-07
6.65039678e-07
6.65040174e-07
6.65039887e-07
6.65040116e-07
6.65039599e-07
6.65040183e-07
6.65039623e-07
6.65040289e-07
6.65040268e-07
6.65039075e-07
6.65040447e-07
6.65038433e-07
6.65040944e-07
6.6503851e-07
6.65040434e-07
6.65039134e-07
6.6504016e-07
6.65039581e-07
6.65040066e-07
6.65040083e-07
6.65040157e-07
6.65040207e-07
6.65039978e-07
6.65040115e-07
6.65039852e-07
6.65039473e-07
6.65040453e-07
6.65038356e-07
6.65041439e-07
6.65038406e-07
6.65040925e-07
6.6503979e-07
6.65039742e-07
6.65040199e-07
6.65040407e-07
6.6503974e-07
6.65040275e-07
6.65039758e-07
6.65039574e-07
6.65040285e-07
6.65040247e-07
6.65040071e-07
6.65040681e-07
6.65040545e-07
6.65040547e-07
6.65039389e-07
6.65041664e-07
6.65039341e-07
6.6504118e-07
6.65039937e-07
6.65040756e-07
6.65039939e-07
6.65040902e-07
6.65039851e-07
6.65041103e-07
6.65040625e-07
6.65039575e-07
6.65041329e-07
6.65039786e-07
6.65041162e-07
6.65040291e-07
6.6504071e-07
6.65040444e-07
6.65040051e-07
6.65040342e-07
6.65039622e-07
6.65040381e-07
6.65039954e-07
6.65040314e-07
6.65040378e-07
6.65040704e-07
6.65040021e-07
6.65040488e-07
6.65040445e-07
6.6504058e-07
6.65040282e-07
6.65040042e-07
6.65039847e-07
6.65040388e-07
6.6504024e-07
6.65040188e-07
6.65040483e-07
6.6504061e-07
6.65040227e-07
6.65039896e-07
6.65040229e-07
6.65040714e-07
6.65039501e-07
6.65041677e-07
6.65040567e-07
6.65040933e-07
6.65039885e-07
6.65041284e-07
6.65039571e-07
6.65039996e-07
6.65039797e-07
6.65039517e-07
6.65040312e-07
6.65040548e-07
6.65040547e-07
6.65040964e-07
6.65039753e-07
6.65040262e-07
6.65039813e-07
6.65040686e-07
6.65039639e-07
6.65040353e-07
6.65039915e-07
6.65039979e-07
6.6503984e-07
6.65039607e-07
6.65040639e-07
6.6503996e-07
6.65040527e-07
6.65039958e-07
6.65042002e-07
6.65039342e-07
6.65041775e-07
6.65038316e-07
6.65041809e-07
6.65039499e-07
6.65040867e-07
6.65039591e-07
6.65040199e-07
6.65039983e-07
6.65040839e-07
6.65040642e-07
6.65040572e-07
6.65039601e-07
6.65041469e-07
6.65039975e-07
6.65040478e-07
6.6504039e-07
6.65040677e-07
6.6504017e-07
6.65040739e-07
6.65040434e-07
6.65040705e-07
6.65040442e-07
6.65040533e-07
6.65040755e-07
6.65040463e-07
6.65040428e-07
6.65040809e-07
6.65040639e-07
6.65040722e-07
6.65040569e-07
6.65040743e-07
6.65040607e-07
6.65040736e-07
6.65040765e-07
6.65040825e-07
6.65040819e-07
6.65040878e-07
6.65040987e-07
6.65041013e-07
6.65040987e-07
6.65041114e-07
6.65041181e-07
6.65041179e-07
6.65041281e-07
6.65041364e-07
6.65041489e-07
6.65041546e-07
6.6504165e-07
6.65041784e-07
6.65041884e-07
6.65042044e-07
6.65042241e-07
6.65042446e-07
6.65042631e-07
6.65042919e-07
6.65043188e-07
6.65043475e-07
6.65043778e-07
6.65044043e-07
6.65044266e-07
6.65044462e-07
6.65044582e-07
6.65044638e-07
6.65044655e-07
6.65044677e-07
6.6504472e-07
6.65044695e-07
6.65044714e-07
6.65044711e-07
6.65044702e-07
6.65044717e-07
6.65044714e-07
6.65044705e-07
6.65044723e-07
6.65044698e-07
6.65044708e-07
6.650447e-07
6.65044703e-07
6.65044703e-07
6.65044702e-07
6.65044713e-07
6.650447e-07
6.65044688e-07
6.65044731e-07
)
;

boundaryField
{
    closed
    {
        type            calculated;
        value           uniform 0;
    }
    open
    {
        type            calculated;
        value           uniform 0;
    }
    sides
    {
        type            empty;
    }
}


// ************************************************************************* //
