/*--------------------------------*- C++ -*----------------------------------*\
| =========                 |                                                 |
| \\      /  F ield         | OpenFOAM: The Open Source CFD Toolbox           |
|  \\    /   O peration     | Version:  2206                                  |
|   \\  /    A nd           | Website:  www.openfoam.com                      |
|    \\/     M anipulation  |                                                 |
\*---------------------------------------------------------------------------*/
FoamFile
{
    version     2.0;
    format      ascii;
    arch        "LSB;label=32;scalar=64";
    class       volScalarField;
    location    "1.6e-05";
    object      sourcePV;
}
// * * * * * * * * * * * * * * * * * * * * * * * * * * * * * * * * * * * * * //

dimensions      [1 -3 -1 0 0 0 0];

internalField   nonuniform List<scalar> 
3183
(
0
0
0
0
0
0
0
0
0
0
0
0
0
0
0
0
0
0
0
0
0
0
0
0
0
0
0
0
0
0
0
0
0
0
0
0
0
0
0
0
0
0
0
0
0
0
0
0
0
0
0
0
0
0
0
0
0
0
0
0
0
0
0
0
0
0
0
0
0
0
0
0
0
0
0
0
0
0
0
0
0
0
0
0
0
0
0
0
0
0
0
0
0
0
0
0
0
0
0
0
0
0
0
0
0
0
0
0
0
0
0
0
0
0
0
0
0
0
0
0
0
0
0
0
0
0
0
0
0
0
0
0
0
0
0
0
0
0
0
0
0
0
0
0
0
0
0
0
0
0
0
0
0
0
0
0
0
0
0
0
0
0
0
0
0
0
0
0
0
0
0
0
0
0
0
0
0
0
0
0
0
0
0
0
0
0
0
0
0
0
0
0
0
0
0
0
0
0
0
0
0
0
0
0
0
0
0
0
0
0
0
0
0
0
0
0
0
0
0
0
0
0
0
0
0
0
0
0
0
0
0
0
0
0
0
0
0
0
0
0
0
0
0
0
0
0
0
0
0
0
0
0
0
0
0
0
0
0
0
0
0
0
0
0
0
0
0
0
0
0
0
0
0
0
0
0
0
0
0
0
0
0
0
0
0
0
0
0
0
0
0
0
0
0
0
0
0
0
0
0
0
0
0
0
0
0
0
0
0
0
0
0
0
0
0
0
0
0
0
0
0
0
0
0
0
0
0
0
0
0
0
0
0
0
0
0
0
0
0
0
0
0
0
0
0
0
0
0
0
0
0
0
0
0
0
0
0
0
0
0
0
0
0
0
0
0
0
0
0
0
0
0
0
0
0
0
0
0
0
0
0
0
0
0
0
0
0
0
0
0
0
0
0
0
0
0
0
0
0
0
0
0
0
0
0
0
0
0
0
0
0
0
0
0
0
0
0
0
0
0
0
0
0
0
0
0
0
0
0
0
0
0
0
0
0
0
0
0
0
0
0
0
0
0
0
0
0
0
0
0
0
0
0
0
0
0
0
0
0
0
0
0
0
0
0
0
0
0
0
0
0
0
0
0
0
0
0
0
0
0
0
0
0
0
0
0
0
0
0
0
0
0
0
0
0
0
0
0
0
0
0
0
0
0
0
0
0
0
0
0
0
0
0
0
0
0
0
0
0
0
0
0
0
0
0
0
0
0
0
0
0
0
0
0
0
0
0
0
0
0
0
0
0
0
0
0
0
0
0
0
0
0
0
0
0
0
0
0
0
0
0
0
0
0
0
0
0
0
0
0
0
0
0
0
0
0
0
0
0
0
0
0
0
0
0
0
0
0
0
0
0
0
0
0
0
0
0
0
0
0
0
0
0
0
0
0
0
0
0
0
0
0
0
0
0
0
0
0
0
0
0
0
0
0
0
0
0
0
0
0
0
0
0
0
0
0
0
0
0
0
0
0
0
0
0
0
0
0
0
0
0
0
0
0
0
0
0
0
0
0
0
0
0
0
0
0
0
0
0
0
0
0
0
0
0
0
0
0
0
0
0
0
0
0
0
0
0
0
0
0
0
0
0
0
0
0
0
0
0
0
0
0
0
0
0
0
0
0
0
0
0
0
0
0
0
0
0
0
0
0
0
0
0
0
0
0
0
0
0
0
0
0
0
0
0
0
0
0
0
0
0
0
0
0
0
0
0
0
0
0
0
0
0
0
0
0
0
0
0
0
0
0
0
0
0
0
0
0
0
0
0
0
0
0
0
0
0
0
0
0
0
0
0
0
0
0
0
0
0
0
0
0
0
0
0
0
0
0
0
0
0
0
0
0
0
0
0
0
0
0
0
0
0
0
0
0
0
0
0
0
0
0
0
0
0
0
0
0
0
0
0
0
0
0
0
0
0
0
0
0
0
0
0
0
0
0
0
0
0
0
0
0
0
0
0
0
0
0
0
0
0
0
0
0
0
0
0
0
0
0
0
0
0
0
0
0
0
0
0
0
0
0
0
0
0
0
0
0
0
0
0
0
0
0
0
0
0
0
0
0
0
0
0
0
0
0
0
0
0
0
0
0
0
0
0
0
0
0
0
0
0
0
0
0
0
0
0
0
0
0
0
0
0
0
0
0
0
0
0
0
0
0
0
0
0
0
0
0
0
0
0
0
0
0
0
0
0
0
0
0
0
0
0
0
0
0
0
0
0
0
0
0
0
0
0
0
0
0
0
0
0
0
0
0
0
0
0
0
0
0
0
0
0
0
0
0
0
0
0
0
0
0
0
0
0
0
0
0
0
0
0
0
0
0
0
0
0
0
0
0
0
0
0
0
0
0
0
0
0
0
0
0
0
0
0
0
0
0
0
0
0
0
0
0
0
0
0
0
0
0
0
0
0
0
0
0
0
0
0
0
0
0
0
0
0
0
0
0
0
0
0
0
0
0
0
0
0
0
0
0
0
0
0
0
0
0
0
0
0
0
0
0
0
0
0
0
0
0
0
0
0
0
0
0
0
0
0
0
0
0
0
0
0
0
0
0
0
0
0
0
0
0
0
0
0
0
0
0
0
0
0
0
0
0
0
0
0
0
0
0
0
0
0
0
0
0
0
0
0
0
0
0
0
0
0
0
0
0
0
0
0
0
0
0
0
0
0
0
0
0
0
0
0
0
0
0
0
0
0
0
0
0
0
0
0
0
0
0
0
0
0
0
0
0
0
0
0
0
0
0
0
0
0
0
0
0
0
0
0
0
0
0
0
0
0
0
0
0
0
0
0
0
0
0
0
0
0
0
0
0
0
0
0
0
0
0
0
0
0
0
0
0
0
0
0
0
0
0
0
0
0
0
0
0
0
0
0
0
0
0
0
0
0
0
0
0
0
0
0
0
0
0
0
0
0
0
0
0
0
0
0
0
0
0
0
0
0
0
0
0
0
0
0
0
0
0
0
0
0
0
0
0
0
0
0
0
0
0
0
0
0
0
0
0
0
0
0
0
0
0
0
0
0
0
0
0
0
0
0
0
0
0
0
0
0
0
0
0
0
0
0
0
0
0
0
0
0
0
0
0
0
0
0
0
0
0
0
0
0
0
0
0
0
0
0
0
0
0
0
0
0
0
0
0
0
0
0
0
0
0
0
0
0
0
0
0
0
0
0
0
0
0
0
0
0
0
0
0
0
0
0
0
0
0
0
0
0
0
0
0
0
0
0
0
0
0
0
0
0
0
0
0
0
0
0
0
0
0
0
0
0
0
0
0
0
0
0
0
0
0
0
0
0
0
0
0
0
0
0
0
0
0
0
0
0
0
0
0
0
0
0
0
0
0
0
0
0
0
0
0
0
0
0
0
0
0
0
0
0
0
0
0
0
0
0
0
0
0
0
0
0
0
0
0
0
0
0
0
0
0
0
0
0
0
0
0
0
0
0
0
0
0
0
0
0
0
0
0
0
0
0
0
0
0
0
0
0
0
0
0
0
0
0
0
0
0
0
0
0
0
0
0
0
0
0
0
0
0
0
0
0
0
0
0
0
0
0
0
0
0
0
0
0
0
0
0
0
0
0
0
0
0
0
0
0
0
0
0
0
0
0
0
0
0
0
0
0
0
0
0
0
0
0
0
0
0
0
0
0
0
0
0
0
0
0
0
0
0
0
0
0
0
0
0
0
0
0
0
0
0
0
0
0
0
0
0
0
0
0
0
0
0
0
0
0
0
0
0
0
0
0
0
0
0
0
0
0
0
0
0
0
0
0
0
0
0
0
0
0
0
0
0
0
0
0
0
0
0
0
0
0
0
0
0
0
0
0
0
0
0
0
0
0
0
0
0
0
0
0
0
0
0
0
0
0
0
0
0
0
0
0
0
0
0
0
0
0
0
0
0
0
0
0
0
0
0
0
0
0
0
0
0
0
0
0
0
0
0
0
0
0
0
0
0
0
0
0
0
0
0
0
0
0
0
0
0
0
0
0
0
0
0
0
0
0
0
0
0
0
0
0
0
0
0
0
0
0
0
0
0
0
0
0
0
0
0
0
0
0
0
0
0
0
0
0
0
0
0
0
0
0
0
0
0
0
0
0
0
0
0
0
0
0
0
0
0
0
0
0
0
0
0
0
0
0
0
0
0
0
0
0
0
0
0
0
0
0
0
0
0
0
0
0
0
0
0
0
0
0
0
0
0
0
0
0
0
0
0
0
0
0
0
0
0
0
0
0
0
0
0
0
0
0
0
0
0
0
0
0
0
0
0
0
0
0
0
0
0
0
0
0
0
0
0
0
0
0
0
0
0
0
0
0
0
0
0
0
0
0
0
0
0
0
0
0
0
0
0
0
0
0
0
0
0
0
0
0
0
0
0
0
0
0
0
0
0
0
0
0
0
0
0
0
0
0
0
0
0
0
0
0
0
0
0
0
0
0
0
0
0
0
0
0
0
0
0
0
0
0
0
0
0
0
0
0
0
0
0
0
0
0
0
0
0
0
0
0
0
0
0
0
0
0
0
0
0
0
0
0
0
0
0
0
0
0
0
0
0
0
0
0
0
0
0
0
0
0
0
0
0
0
0
0
0
0
0
0
0
0
0
0
0
0
0
0
0
0
0
0
0
0
0
0
0
0
0
0
0
0
0
0
0
0
0
0
0
0
0
0
0
0
0
0
0
0
0
0
0
0
0
0
0
0
0
0
0
0
0
0
0
0
0
0
0
0
0
0
0
0
0
0
0
0
0
0
0
0
0
0
0
0
0
0
0
0
0
0
0
0
0
0
0
0
0
0
0
0
0
0
0
0
0
0
0
0
0
0
0
0
0
0
0
0
0
0
0
0
0
0
0
0
0
0
0
0
0
0
0
0
0
0
0
0
0
0
0
0
0
0
0
0
0
0
0
0
0
0
0
0
0
0
0
0
0
0
0
0
0
0
0
0
0
0
0
0
0
0
0
0
0
0
0
0
0
0
0
0
0
0
0
0
0
0
0
0
0
0
0
0
0
0
0
0
0
0
0
0
0
0
0
0
0
0
0
0
0
0
0
0
0
0
0
0
0
0
0
0
0
0
0
0
0
0
0
0
0
0
0
0
0
0
0
0
0
0
0
0
0
0
0
0
0
0
0
0
0
0
0
0
0
0
0
0
0
0
0
0
0
0
0
0
0
0
0
0
0
0
0
0
0
0
0
0
0
0
0
0
0
0
0
0
0
0
0
0
0
0
0
0
0
0
0
0
0
0
0
0
0
0
0
0
0
0
0
0
0
0
0
0
0
0
0
0
0
0
0
0
0
0
0
0
0
0
0
0
0
0
0
0
0
0
0
0
0
0
0
0
0
0
0
0
0
0
0
0
0
0
0
0
1.0716868e-300
0
6.11419419e-298
2.70914384e-298
3.45389891e-295
1.54977247e-295
1.93188009e-292
8.77644199e-293
1.06991985e-289
4.92028163e-290
5.86708697e-287
2.73078633e-287
3.18561259e-284
1.50040036e-284
1.71261906e-281
8.16130649e-282
9.1164023e-279
4.394895e-279
4.80482827e-276
2.3428309e-276
2.50737909e-273
1.23649761e-273
1.29552322e-270
6.46081485e-271
6.62747464e-268
3.34101355e-268
3.35677685e-265
1.71119447e-265
1.68329993e-262
8.67572772e-263
8.3571372e-260
4.35567765e-260
4.10773244e-257
2.16364125e-257
1.9988775e-254
1.06392414e-254
9.62940989e-252
5.17873477e-252
4.59231733e-249
2.49525578e-249
2.16805996e-246
1.19007618e-246
1.01322411e-243
5.61812941e-244
4.68728535e-241
2.62514965e-241
2.14637156e-238
1.21408444e-238
9.72839476e-236
5.55728201e-236
4.36429897e-233
2.51756077e-233
1.93779668e-230
1.12871888e-230
8.51539517e-228
5.0079878e-228
3.70327397e-225
2.19884566e-225
1.59379305e-222
9.55348013e-223
6.78770123e-220
4.10718426e-220
2.86046658e-217
1.74711626e-217
1.19275727e-214
7.35313806e-215
4.92090437e-212
3.06178088e-212
2.0085887e-209
1.26125251e-209
8.11082113e-207
5.13962562e-207
3.23996059e-204
2.07174464e-204
1.28022986e-201
8.26016793e-202
5.00357658e-199
3.25732311e-199
1.93413758e-196
1.27034671e-196
7.39395807e-194
4.89939021e-194
2.79522466e-191
1.86847666e-191
1.04489477e-188
7.04572036e-189
3.86197186e-186
2.62675759e-186
1.41120327e-183
9.68132516e-184
5.09771676e-181
3.52721301e-181
1.82023609e-178
1.27019661e-178
6.42398181e-176
4.52075855e-176
2.2405905e-173
1.59004655e-173
7.72249523e-171
5.52613997e-171
2.62992524e-168
1.89758405e-168
8.84853879e-166
6.43722956e-166
2.94097981e-163
2.15707691e-163
9.65501205e-161
7.13918696e-161
3.13039984e-158
2.33342657e-158
1.00225173e-155
7.53087414e-156
3.16829348e-153
2.39962771e-153
9.88746219e-151
7.54794268e-151
3.04573382e-148
2.34334446e-148
9.25936141e-146
7.1796041e-146
2.77768988e-143
2.17046616e-143
8.22108202e-141
6.47324771e-141
2.40017366e-138
1.90429274e-138
6.91110847e-136
5.52471634e-136
1.96229275e-133
1.58041198e-133
5.49297013e-131
4.45687615e-131
1.51562156e-128
1.23880523e-128
4.12119731e-126
3.39309653e-126
1.1041045e-123
9.15618711e-124
2.91374783e-121
2.43365324e-121
7.57260328e-119
6.36977702e-119
1.93767837e-116
1.64135475e-116
4.8803195e-114
4.16274309e-114
1.20955739e-111
1.03881124e-111
2.94911956e-109
2.55005124e-109
7.07157309e-107
6.15581858e-107
1.66709835e-104
1.46086613e-104
3.86264668e-102
3.40705417e-102
8.79300241e-100
7.80621969e-100
1.96589371e-97
1.75645489e-97
4.31506631e-95
3.87972436e-95
9.29489891e-93
8.40923855e-93
1.96402635e-90
1.78780106e-90
4.06912372e-88
3.72643017e-88
8.26228074e-86
7.6115238e-86
1.64333892e-83
1.52277839e-83
3.20001726e-81
2.98233929e-81
6.09721399e-79
5.71462147e-79
1.13607065e-76
1.07069954e-76
2.06870442e-74
1.96029142e-74
3.67889353e-72
3.50470632e-72
6.38481802e-70
6.11428838e-70
1.08058191e-67
1.04008077e-67
1.78191262e-65
1.72367182e-65
2.8605545e-63
2.78048867e-63
4.46617637e-61
4.36163273e-61
6.77482371e-59
6.64639056e-59
9.97368417e-57
9.82735881e-57
1.42327182e-54
1.40816632e-54
1.96620675e-52
1.95261587e-52
2.6258133e-50
2.61578909e-50
3.38469376e-48
3.37871618e-48
4.20396494e-46
4.19810626e-46
5.02195432e-44
5.00543359e-44
5.75790666e-42
5.71672988e-42
6.32173566e-40
6.25362888e-40
6.62928197e-38
6.52708189e-38
6.62075398e-36
6.62316967e-36
6.27562534e-34
6.2606834e-34
5.62704695e-32
5.60241227e-32
4.75174686e-30
4.72802588e-30
3.76050607e-28
3.74163054e-28
2.77319395e-26
2.75492636e-26
1.89292775e-24
1.87414198e-24
1.18630899e-22
1.1659862e-22
6.75942237e-21
6.76003997e-21
3.45729328e-19
3.4542625e-19
1.56407787e-17
1.56112075e-17
6.13026011e-16
6.11067726e-16
2.02457932e-14
2.01389553e-14
5.41347631e-13
5.38684098e-13
1.10068921e-11
1.1062602e-11
1.46933503e-08
1.48080588e-08
0.0871751052
0.350351465
7.59475806
8.90544385
8.66361812
7.75249492
2.69389747
2.21415812
0.423954263
0.372060364
0.0976542368
0.088551401
0.0198537528
0.0187061422
0.00362762247
0.0035480322
0.000615519236
0.000615125185
0.000103294178
0.000103387197
2.17166706e-05
2.1726757e-05
9.68704742e-06
9.69312831e-06
8.04622075e-06
8.04643725e-06
7.83560944e-06
7.83565748e-06
7.81027168e-06
7.81028627e-06
7.8074013e-06
7.80741109e-06
7.80709023e-06
7.80710785e-06
7.8070496e-06
7.80708244e-06
7.80704996e-06
7.80705793e-06
7.80705853e-06
7.80704289e-06
7.80706516e-06
7.80704937e-06
7.80706586e-06
7.80705869e-06
7.8070613e-06
7.80705986e-06
7.80706713e-06
7.8070611e-06
7.8070749e-06
7.80706092e-06
7.80707022e-06
7.80706273e-06
7.80706631e-06
7.80706673e-06
7.80706532e-06
7.80706544e-06
7.8070617e-06
7.80707756e-06
7.80705377e-06
7.80706693e-06
7.80706135e-06
7.80707112e-06
7.80705524e-06
7.80705605e-06
7.80705906e-06
7.80706272e-06
7.80705603e-06
7.8070682e-06
7.80705487e-06
7.80707245e-06
7.80704846e-06
7.80705671e-06
7.80705533e-06
7.80706779e-06
7.80705081e-06
7.80706793e-06
7.8070628e-06
7.80707049e-06
7.80705562e-06
7.80707204e-06
7.80705608e-06
7.8070616e-06
7.80706029e-06
7.80706245e-06
7.80706317e-06
7.80705585e-06
7.80707162e-06
7.80705784e-06
7.80706967e-06
7.80703708e-06
7.80708454e-06
7.80704999e-06
7.80707284e-06
7.80705747e-06
7.80707613e-06
7.80705695e-06
7.80706647e-06
7.80706671e-06
7.80706866e-06
7.80706845e-06
7.80706136e-06
7.80706416e-06
7.80706777e-06
7.80706249e-06
7.80706199e-06
7.80707036e-06
7.80706268e-06
7.80705456e-06
7.80706137e-06
7.80706419e-06
7.80705717e-06
7.80706735e-06
7.80705825e-06
7.80706037e-06
7.80705821e-06
7.80706301e-06
7.80705146e-06
7.80707347e-06
7.80704727e-06
7.80708153e-06
7.80704964e-06
7.80707216e-06
7.80704668e-06
7.80706717e-06
7.80706329e-06
7.80706671e-06
7.80705648e-06
7.807081e-06
7.80706031e-06
7.80707284e-06
7.80707089e-06
7.80706665e-06
7.8070782e-06
7.80707202e-06
7.80706367e-06
7.80708347e-06
7.80706111e-06
7.80707235e-06
7.8070656e-06
7.80705946e-06
7.80706345e-06
7.8070653e-06
7.80705276e-06
7.80707298e-06
7.80704915e-06
7.80706559e-06
7.80705152e-06
7.80706914e-06
7.80706473e-06
7.80705264e-06
7.80707372e-06
7.80705355e-06
7.80707763e-06
7.80705362e-06
7.80707449e-06
7.80706601e-06
7.8070648e-06
7.80706172e-06
7.8070649e-06
7.80705524e-06
7.80708624e-06
7.80704791e-06
7.80708916e-06
7.80705266e-06
7.80709179e-06
7.80705402e-06
7.80707308e-06
7.80706613e-06
7.8070604e-06
7.80705912e-06
7.8070596e-06
7.80705793e-06
7.80706319e-06
7.80707131e-06
7.80705395e-06
7.80706598e-06
7.80707274e-06
7.80707e-06
7.80706873e-06
7.8070731e-06
7.8070764e-06
7.80707398e-06
7.80706863e-06
7.80707745e-06
7.80706423e-06
7.80706024e-06
7.80707089e-06
7.80706415e-06
7.80706839e-06
7.80705852e-06
7.80708011e-06
7.80705434e-06
7.80707411e-06
7.8070636e-06
7.80707482e-06
7.80705841e-06
7.80706659e-06
7.80706318e-06
7.8070712e-06
7.80705811e-06
7.80708781e-06
7.80705121e-06
7.80708319e-06
7.80705981e-06
7.80707057e-06
7.80706535e-06
7.80706531e-06
7.80706667e-06
7.80707895e-06
7.80707392e-06
7.80706956e-06
7.80707434e-06
7.8070681e-06
7.80706908e-06
7.80707445e-06
7.80707291e-06
7.8070638e-06
7.80706736e-06
7.80706457e-06
7.80707712e-06
7.8070645e-06
7.80706811e-06
7.80706831e-06
7.8070734e-06
7.80707211e-06
7.80706389e-06
7.80709264e-06
7.80705195e-06
7.80707629e-06
7.80707579e-06
7.80706568e-06
7.80707794e-06
7.80706262e-06
7.80707706e-06
7.80706819e-06
7.8070778e-06
7.80706718e-06
7.80707848e-06
7.80706627e-06
7.8070775e-06
7.80707514e-06
7.80708745e-06
7.80705832e-06
7.80709307e-06
7.80705147e-06
7.80708143e-06
7.80706096e-06
7.80707142e-06
7.80707026e-06
7.80705444e-06
7.80707982e-06
7.80706235e-06
7.80707407e-06
7.80706386e-06
7.80707959e-06
7.80707276e-06
7.80706581e-06
7.80707562e-06
7.8070736e-06
7.80707816e-06
7.80707335e-06
7.80707264e-06
7.80707512e-06
7.8070634e-06
7.80707711e-06
7.80705992e-06
7.80707726e-06
7.80706461e-06
7.80707235e-06
7.80705707e-06
7.80708395e-06
7.80705721e-06
7.80707709e-06
7.80707447e-06
7.80707182e-06
7.80707948e-06
7.80706918e-06
7.80707466e-06
7.8070677e-06
7.80706648e-06
7.80707695e-06
7.80706628e-06
7.80706695e-06
7.80707077e-06
7.80706967e-06
7.8070692e-06
7.80707007e-06
7.80707573e-06
7.80706906e-06
7.80707872e-06
7.80707271e-06
7.80706659e-06
7.80708601e-06
7.80706285e-06
7.80706463e-06
7.80707061e-06
7.80707252e-06
7.80707575e-06
7.80708938e-06
7.80707904e-06
7.80707114e-06
7.80707999e-06
7.80708026e-06
7.80707228e-06
7.80707054e-06
7.80707243e-06
7.80707317e-06
7.80706968e-06
7.80706102e-06
7.80708013e-06
7.80705671e-06
7.80708726e-06
7.80706156e-06
7.80708665e-06
7.80707185e-06
7.80707667e-06
7.8070801e-06
7.80707237e-06
7.80707687e-06
7.8070577e-06
7.80708763e-06
7.80705088e-06
7.80709354e-06
7.80705526e-06
7.80708744e-06
7.80706649e-06
7.80706728e-06
7.80707875e-06
7.80707339e-06
7.80707764e-06
7.80708035e-06
7.8070719e-06
7.80707948e-06
7.80707434e-06
7.80706968e-06
7.80707354e-06
7.80707762e-06
7.80708362e-06
7.80706593e-06
7.80707946e-06
7.80707417e-06
7.80708697e-06
7.80707854e-06
7.80708353e-06
7.80708022e-06
7.80707419e-06
7.80706902e-06
7.80708509e-06
7.80707763e-06
7.80707011e-06
7.8070886e-06
7.80707401e-06
7.80707536e-06
7.80707314e-06
7.80706913e-06
7.80707538e-06
7.80707795e-06
7.80706956e-06
7.80708685e-06
7.80707274e-06
7.80707285e-06
7.80707551e-06
7.80707749e-06
7.80707944e-06
7.80707786e-06
7.80707339e-06
7.80708119e-06
7.80707114e-06
7.80708812e-06
7.80708001e-06
7.80708391e-06
7.80707942e-06
7.80708358e-06
7.80707384e-06
7.8070921e-06
7.80707022e-06
7.80708127e-06
7.80707568e-06
7.8070815e-06
7.80707812e-06
7.80708081e-06
7.80707474e-06
7.80708161e-06
7.80707503e-06
7.80708285e-06
7.8070826e-06
7.80706859e-06
7.8070847e-06
7.80706105e-06
7.80709055e-06
7.80706195e-06
7.80708455e-06
7.80706929e-06
7.80708133e-06
7.80707453e-06
7.80708023e-06
7.80708043e-06
7.8070813e-06
7.80708188e-06
7.80707919e-06
7.8070808e-06
7.80707772e-06
7.80707326e-06
7.80708477e-06
7.80706015e-06
7.80709636e-06
7.80706073e-06
7.80709032e-06
7.80707699e-06
7.80707643e-06
7.80708179e-06
7.80708423e-06
7.80707641e-06
7.80708269e-06
7.80707662e-06
7.80707445e-06
7.8070828e-06
7.80708236e-06
7.80708029e-06
7.80708745e-06
7.80708586e-06
7.80708588e-06
7.80707228e-06
7.807099e-06
7.80707172e-06
7.80709331e-06
7.80707872e-06
7.80708833e-06
7.80707874e-06
7.80709005e-06
7.80707771e-06
7.80709241e-06
7.8070868e-06
7.80707446e-06
7.80709507e-06
7.80707694e-06
7.8070931e-06
7.80708287e-06
7.80708779e-06
7.80708467e-06
7.80708005e-06
7.80708347e-06
7.80707502e-06
7.80708393e-06
7.80707892e-06
7.80708314e-06
7.8070839e-06
7.80708773e-06
7.8070797e-06
7.80708519e-06
7.80708468e-06
7.80708627e-06
7.80708277e-06
7.80707995e-06
7.80707766e-06
7.80708401e-06
7.80708228e-06
7.80708166e-06
7.80708512e-06
7.80708662e-06
7.80708213e-06
7.80707823e-06
7.80708215e-06
7.80708785e-06
7.80707359e-06
7.80709916e-06
7.80708612e-06
7.80709041e-06
7.8070781e-06
7.80709454e-06
7.80707442e-06
7.80707941e-06
7.80707708e-06
7.80707378e-06
7.80708312e-06
7.80708589e-06
7.80708588e-06
7.80709078e-06
7.80707656e-06
7.80708253e-06
7.80707726e-06
7.80708752e-06
7.80707521e-06
7.8070836e-06
7.80707846e-06
7.8070792e-06
7.80707757e-06
7.80707484e-06
7.80708696e-06
7.80707898e-06
7.80708564e-06
7.80707896e-06
7.80710297e-06
7.80707173e-06
7.8071003e-06
7.80705967e-06
7.8071007e-06
7.80707357e-06
7.80708964e-06
7.80707465e-06
7.80708179e-06
7.80707926e-06
7.80708931e-06
7.807087e-06
7.80708617e-06
7.80707477e-06
7.80709671e-06
7.80707916e-06
7.80708507e-06
7.80708403e-06
7.80708741e-06
7.80708145e-06
7.80708813e-06
7.80708455e-06
7.80708774e-06
7.80708465e-06
7.80708572e-06
7.80708832e-06
7.80708489e-06
7.80708449e-06
7.80708896e-06
7.80708696e-06
7.80708793e-06
7.80708614e-06
7.80708819e-06
7.80708659e-06
7.8070881e-06
7.80708844e-06
7.80708915e-06
7.80708907e-06
7.80708976e-06
7.80709104e-06
7.80709135e-06
7.80709104e-06
7.80709254e-06
7.80709332e-06
7.8070933e-06
7.8070945e-06
7.80709548e-06
7.80709694e-06
7.80709761e-06
7.80709884e-06
7.80710041e-06
7.80710158e-06
7.80710347e-06
7.80710578e-06
7.80710818e-06
7.80711035e-06
7.80711374e-06
7.8071169e-06
7.80712027e-06
7.80712382e-06
7.80712694e-06
7.80712956e-06
7.80713186e-06
7.80713327e-06
7.80713393e-06
7.80713413e-06
7.80713438e-06
7.80713489e-06
7.8071346e-06
7.80713483e-06
7.80713479e-06
7.80713468e-06
7.80713486e-06
7.80713482e-06
7.80713471e-06
7.80713492e-06
7.80713464e-06
7.80713475e-06
7.80713466e-06
7.80713469e-06
7.80713469e-06
7.80713468e-06
7.80713481e-06
7.80713466e-06
7.80713452e-06
7.80713502e-06
)
;

boundaryField
{
    closed
    {
        type            calculated;
        value           uniform 0;
    }
    open
    {
        type            calculated;
        value           uniform 0;
    }
    sides
    {
        type            empty;
    }
}


// ************************************************************************* //
