/*--------------------------------*- C++ -*----------------------------------*\
| =========                 |                                                 |
| \\      /  F ield         | OpenFOAM: The Open Source CFD Toolbox           |
|  \\    /   O peration     | Version:  2206                                  |
|   \\  /    A nd           | Website:  www.openfoam.com                      |
|    \\/     M anipulation  |                                                 |
\*---------------------------------------------------------------------------*/
FoamFile
{
    version     2.0;
    format      ascii;
    arch        "LSB;label=32;scalar=64";
    class       volVectorField;
    location    "1.6e-05";
    object      U;
}
// * * * * * * * * * * * * * * * * * * * * * * * * * * * * * * * * * * * * * //

dimensions      [0 1 -1 0 0 0 0];

internalField   nonuniform List<vector> 
3183
(
(4.76002224e-13 0 0)
(1.94608855e-13 0 0)
(-3.41284259e-13 0 0)
(-4.09015555e-13 0 0)
(-1.70055032e-13 0 0)
(-1.15467712e-17 0 0)
(-8.76776041e-19 0 0)
(-8.2603084e-23 0 0)
(3.01999732e-20 0 0)
(1.83605429e-18 0 0)
(2.85251251e-14 0 0)
(2.84956491e-13 0 0)
(7.06781918e-13 0 0)
(2.7564814e-13 0 0)
(1.78254646e-13 0 0)
(1.46957069e-14 0 0)
(-3.83138121e-13 0 0)
(-6.92160725e-13 0 0)
(-9.54935854e-13 0 0)
(-2.30027324e-13 0 0)
(3.60122603e-13 0 0)
(2.01547159e-16 0 0)
(1.36654657e-13 0 0)
(3.70301013e-13 0 0)
(4.53692458e-13 0 0)
(7.77248063e-13 0 0)
(9.0770316e-13 0 0)
(7.72152139e-13 0 0)
(1.43269818e-13 0 0)
(1.34494328e-13 0 0)
(-3.11543868e-14 0 0)
(-4.01152555e-16 0 0)
(-6.38041934e-13 0 0)
(-9.19226693e-13 0 0)
(-7.45279831e-13 0 0)
(-7.44317247e-13 0 0)
(-1.0823044e-12 0 0)
(-1.14983442e-12 0 0)
(-1.21141664e-12 0 0)
(-1.09934129e-12 0 0)
(-6.5592363e-13 0 0)
(-1.78202543e-13 0 0)
(4.3344109e-13 0 0)
(4.31517175e-13 0 0)
(1.07881727e-12 0 0)
(1.45665765e-12 0 0)
(1.33822215e-12 0 0)
(1.68850343e-12 0 0)
(1.6221712e-12 0 0)
(1.7452199e-12 0 0)
(1.40140241e-12 0 0)
(1.3985874e-12 0 0)
(5.63504528e-13 0 0)
(3.56198047e-13 0 0)
(-8.85889963e-14 0 0)
(-7.54777454e-13 0 0)
(-1.1605472e-12 0 0)
(-1.56470448e-12 0 0)
(-2.19968592e-12 0 0)
(-2.53066045e-12 0 0)
(-2.98611473e-12 0 0)
(-3.67042497e-12 0 0)
(-3.75983492e-12 0 0)
(-4.56148726e-12 0 0)
(-4.28958623e-12 0 0)
(-4.76064073e-12 0 0)
(-5.16451038e-12 0 0)
(-4.6881899e-12 0 0)
(-5.07814254e-12 0 0)
(-5.57585497e-12 0 0)
(-5.54165262e-12 0 0)
(-5.74643899e-12 0 0)
(-5.35786996e-12 0 0)
(-5.68403761e-12 0 0)
(-6.44903115e-12 0 0)
(-5.96774142e-12 0 0)
(-5.9949694e-12 0 0)
(-5.92889743e-12 0 0)
(-6.00940996e-12 0 0)
(-5.97817132e-12 0 0)
(-6.97249499e-12 0 0)
(-5.63656698e-12 0 0)
(-5.9871736e-12 0 0)
(-6.81111344e-12 0 0)
(-6.46316236e-12 0 0)
(-6.22117735e-12 0 0)
(-6.98556611e-12 0 0)
(-7.46937143e-12 0 0)
(-6.44042306e-12 0 0)
(-7.02521711e-12 0 0)
(-8.25541531e-12 0 0)
(-7.98509825e-12 0 0)
(-7.5736679e-12 0 0)
(-8.40774529e-12 0 0)
(-8.43297289e-12 0 0)
(-9.22613579e-12 0 0)
(-8.93795403e-12 0 0)
(-8.41933187e-12 0 0)
(-9.55097392e-12 0 0)
(-8.81082426e-12 0 0)
(-9.57749106e-12 0 0)
(-9.51948601e-12 0 0)
(-9.4797339e-12 0 0)
(-1.00876317e-11 0 0)
(-9.24478695e-12 0 0)
(-9.04575784e-12 0 0)
(-9.32276047e-12 0 0)
(-9.85000899e-12 0 0)
(-1.06759101e-11 0 0)
(-1.0128553e-11 0 0)
(-8.81378008e-12 0 0)
(-8.17838426e-12 0 0)
(-8.55306562e-12 0 0)
(-9.89410176e-12 0 0)
(-9.5607617e-12 0 0)
(-1.05152773e-11 0 0)
(-9.4475302e-12 0 0)
(-9.61204384e-12 0 0)
(-9.61650317e-12 0 0)
(-1.04523525e-11 0 0)
(-1.03372794e-11 0 0)
(-9.68902702e-12 0 0)
(-9.56599795e-12 0 0)
(-1.01535146e-11 0 0)
(-1.02250663e-11 0 0)
(-1.02660436e-11 0 0)
(-1.01717615e-11 0 0)
(-1.14373979e-11 0 0)
(-1.05167339e-11 0 0)
(-1.06247448e-11 0 0)
(-1.02495424e-11 0 0)
(-1.03462202e-11 0 0)
(-1.18990246e-11 0 0)
(-1.15720805e-11 0 0)
(-1.02474816e-11 0 0)
(-1.17214058e-11 0 0)
(-1.27116356e-11 0 0)
(-1.18994452e-11 0 0)
(-1.19582715e-11 0 0)
(-1.07437611e-11 0 0)
(-1.16883012e-11 0 0)
(-1.10722113e-11 0 0)
(-1.13431538e-11 0 0)
(-1.15220175e-11 0 0)
(-1.07988988e-11 0 0)
(-1.20805837e-11 0 0)
(-1.16243773e-11 0 0)
(-1.16216554e-11 0 0)
(-1.16545659e-11 0 0)
(-1.13763292e-11 0 0)
(-1.10668496e-11 0 0)
(-1.21592227e-11 0 0)
(-1.19985551e-11 0 0)
(-1.07596381e-11 0 0)
(-1.18863208e-11 0 0)
(-1.0975574e-11 0 0)
(-1.24497537e-11 0 0)
(-1.25720962e-11 0 0)
(-1.16569093e-11 0 0)
(-1.21662891e-11 0 0)
(-1.20266868e-11 0 0)
(-1.2336652e-11 0 0)
(-1.21398032e-11 0 0)
(-1.23001493e-11 0 0)
(-1.31105822e-11 0 0)
(-1.21330109e-11 0 0)
(-1.20097429e-11 0 0)
(-1.17861343e-11 0 0)
(-1.21425281e-11 0 0)
(-1.30624741e-11 0 0)
(-1.2554246e-11 0 0)
(-1.17282396e-11 0 0)
(-1.29816303e-11 0 0)
(-1.23926376e-11 0 0)
(-1.2753653e-11 0 0)
(-1.27779394e-11 0 0)
(-1.33744856e-11 0 0)
(-1.33224668e-11 0 0)
(-1.26954203e-11 0 0)
(-1.48186539e-11 0 0)
(-1.2926057e-11 0 0)
(-1.40438073e-11 0 0)
(-1.28787029e-11 0 0)
(-1.28905492e-11 0 0)
(-1.34608407e-11 0 0)
(-1.38218451e-11 0 0)
(-1.30160942e-11 0 0)
(-1.30112391e-11 0 0)
(-1.31207233e-11 0 0)
(-1.23864265e-11 0 0)
(-1.2720428e-11 0 0)
(-1.38898899e-11 0 0)
(-1.36583553e-11 0 0)
(-1.41353202e-11 0 0)
(-1.45727223e-11 0 0)
(-1.33494714e-11 0 0)
(-1.38020193e-11 0 0)
(-1.37839833e-11 0 0)
(-1.43540216e-11 0 0)
(-1.37998369e-11 0 0)
(-1.35208561e-11 0 0)
(-1.33761916e-11 0 0)
(-1.28899431e-11 0 0)
(-1.40559195e-11 0 0)
(-1.33519645e-11 0 0)
(-1.28889751e-11 0 0)
(-1.24418355e-11 0 0)
(-1.29744863e-11 0 0)
(-1.45492839e-11 0 0)
(-1.3590049e-11 0 0)
(-1.30218541e-11 0 0)
(-1.39171344e-11 0 0)
(-1.33057656e-11 0 0)
(-1.4647481e-11 0 0)
(-1.42871499e-11 0 0)
(-1.43829312e-11 0 0)
(-1.37471893e-11 0 0)
(-1.365605e-11 0 0)
(-1.32683136e-11 0 0)
(-1.4289473e-11 0 0)
(-1.41197734e-11 0 0)
(-1.48084658e-11 0 0)
(-1.43847723e-11 0 0)
(-1.39768328e-11 0 0)
(-1.41041331e-11 0 0)
(-1.43671034e-11 0 0)
(-1.35465638e-11 0 0)
(-1.52744193e-11 0 0)
(-1.39530628e-11 0 0)
(-1.46041616e-11 0 0)
(-1.45405231e-11 0 0)
(-1.51800045e-11 0 0)
(-1.55847855e-11 0 0)
(-1.55205916e-11 0 0)
(-1.63217687e-11 0 0)
(-1.58515804e-11 0 0)
(-1.53059429e-11 0 0)
(-1.679498e-11 0 0)
(-1.69439358e-11 0 0)
(-1.62463798e-11 0 0)
(-1.69112816e-11 0 0)
(-1.69324853e-11 0 0)
(-1.60438494e-11 0 0)
(-1.57347812e-11 0 0)
(-1.69835832e-11 0 0)
(-1.69731465e-11 0 0)
(-1.67542703e-11 0 0)
(-1.69340388e-11 0 0)
(-1.75339849e-11 0 0)
(-1.76846853e-11 0 0)
(-1.70187617e-11 0 0)
(-1.85274805e-11 0 0)
(-1.8169308e-11 0 0)
(-1.8263422e-11 0 0)
(-1.88383744e-11 0 0)
(-1.7504898e-11 0 0)
(-1.82048303e-11 0 0)
(-1.75063827e-11 0 0)
(-1.81081721e-11 0 0)
(-1.80979421e-11 0 0)
(-1.80743038e-11 0 0)
(-1.8979688e-11 0 0)
(-1.86179684e-11 0 0)
(-1.71250613e-11 0 0)
(-1.84710321e-11 0 0)
(-1.90331144e-11 0 0)
(-1.80055708e-11 0 0)
(-1.86428811e-11 0 0)
(-1.84502748e-11 0 0)
(-1.83873043e-11 0 0)
(-1.78752469e-11 0 0)
(-1.91961494e-11 0 0)
(-1.91247935e-11 0 0)
(-1.81942448e-11 0 0)
(-1.93554841e-11 0 0)
(-1.76944049e-11 0 0)
(-1.90140363e-11 0 0)
(-1.92742921e-11 0 0)
(-1.83433856e-11 0 0)
(-1.83817025e-11 0 0)
(-1.78478101e-11 0 0)
(-1.82614946e-11 0 0)
(-1.84510536e-11 0 0)
(-1.85232839e-11 0 0)
(-1.79036303e-11 0 0)
(-1.80036859e-11 0 0)
(-1.78133452e-11 0 0)
(-1.89856104e-11 0 0)
(-1.89532756e-11 0 0)
(-1.80857436e-11 0 0)
(-1.92275623e-11 0 0)
(-1.88809218e-11 0 0)
(-1.92054567e-11 0 0)
(-1.91746473e-11 0 0)
(-1.92605983e-11 0 0)
(-1.91001394e-11 0 0)
(-1.97496553e-11 0 0)
(-1.9839553e-11 0 0)
(-1.92688829e-11 0 0)
(-1.97036261e-11 0 0)
(-1.86831387e-11 0 0)
(-1.99737937e-11 0 0)
(-1.84760347e-11 0 0)
(-1.96792777e-11 0 0)
(-2.00555991e-11 0 0)
(-1.99141248e-11 0 0)
(-1.8210482e-11 0 0)
(-1.84324917e-11 0 0)
(-1.93488223e-11 0 0)
(-1.90871058e-11 0 0)
(-1.84615042e-11 0 0)
(-1.88193974e-11 0 0)
(-1.84556542e-11 0 0)
(-1.88072937e-11 0 0)
(-1.91037719e-11 0 0)
(-1.94523803e-11 0 0)
(-1.93446686e-11 0 0)
(-1.97009817e-11 0 0)
(-1.91850221e-11 0 0)
(-1.87824237e-11 0 0)
(-1.93155467e-11 0 0)
(-1.9319218e-11 0 0)
(-1.97451882e-11 0 0)
(-1.9909102e-11 0 0)
(-1.98262128e-11 0 0)
(-1.93248242e-11 0 0)
(-2.01846933e-11 0 0)
(-1.92150811e-11 0 0)
(-1.97635468e-11 0 0)
(-1.99987153e-11 0 0)
(-1.86187712e-11 0 0)
(-1.86883009e-11 0 0)
(-1.90609071e-11 0 0)
(-1.85431307e-11 0 0)
(-1.77055694e-11 0 0)
(-1.83624384e-11 0 0)
(-1.7878387e-11 0 0)
(-1.96621264e-11 0 0)
(-1.83863077e-11 0 0)
(-1.87556726e-11 0 0)
(-1.83576574e-11 0 0)
(-1.89309434e-11 0 0)
(-1.7917316e-11 0 0)
(-1.73824382e-11 0 0)
(-1.83621807e-11 0 0)
(-1.82779767e-11 0 0)
(-1.90266816e-11 0 0)
(-1.8446114e-11 0 0)
(-1.8344436e-11 0 0)
(-1.99258272e-11 0 0)
(-1.91210177e-11 0 0)
(-1.90779444e-11 0 0)
(-1.90031294e-11 0 0)
(-1.91964447e-11 0 0)
(-1.85435794e-11 0 0)
(-1.93469636e-11 0 0)
(-1.94780546e-11 0 0)
(-1.92110978e-11 0 0)
(-1.97851305e-11 0 0)
(-1.81140924e-11 0 0)
(-1.92145538e-11 0 0)
(-2.00713789e-11 0 0)
(-1.92416626e-11 0 0)
(-1.92458321e-11 0 0)
(-1.82389218e-11 0 0)
(-1.94145224e-11 0 0)
(-1.87501888e-11 0 0)
(-1.92837065e-11 0 0)
(-1.8444647e-11 0 0)
(-1.84214623e-11 0 0)
(-1.78206055e-11 0 0)
(-1.8218456e-11 0 0)
(-1.79242463e-11 0 0)
(-1.78026012e-11 0 0)
(-1.82281127e-11 0 0)
(-1.93964909e-11 0 0)
(-1.84841018e-11 0 0)
(-1.86041454e-11 0 0)
(-1.90502241e-11 0 0)
(-1.8619787e-11 0 0)
(-1.8897531e-11 0 0)
(-1.74573106e-11 0 0)
(-1.86828245e-11 0 0)
(-1.81277326e-11 0 0)
(-1.75136022e-11 0 0)
(-1.8262584e-11 0 0)
(-1.71202399e-11 0 0)
(-1.77725797e-11 0 0)
(-1.74225694e-11 0 0)
(-1.68449755e-11 0 0)
(-1.62349206e-11 0 0)
(-1.6508958e-11 0 0)
(-1.57656879e-11 0 0)
(-1.509031e-11 0 0)
(-1.56693308e-11 0 0)
(-1.52271817e-11 0 0)
(-1.54028189e-11 0 0)
(-1.63126111e-11 0 0)
(-1.48235925e-11 0 0)
(-1.40899601e-11 0 0)
(-1.54183886e-11 0 0)
(-1.46984244e-11 0 0)
(-1.40360218e-11 0 0)
(-1.40615884e-11 0 0)
(-1.42819502e-11 0 0)
(-1.40370389e-11 0 0)
(-1.52586449e-11 0 0)
(-1.50833191e-11 0 0)
(-1.37568774e-11 0 0)
(-1.42509957e-11 0 0)
(-1.47388181e-11 0 0)
(-1.38662931e-11 0 0)
(-1.41175274e-11 0 0)
(-1.44178406e-11 0 0)
(-1.52480705e-11 0 0)
(-1.4330321e-11 0 0)
(-1.40931557e-11 0 0)
(-1.33475273e-11 0 0)
(-1.48448896e-11 0 0)
(-1.37909282e-11 0 0)
(-1.39753539e-11 0 0)
(-1.37301769e-11 0 0)
(-1.3189028e-11 0 0)
(-1.37204268e-11 0 0)
(-1.40433631e-11 0 0)
(-1.43549212e-11 0 0)
(-1.44180789e-11 0 0)
(-1.40892615e-11 0 0)
(-1.45403855e-11 0 0)
(-1.35354304e-11 0 0)
(-1.39894086e-11 0 0)
(-1.5281699e-11 0 0)
(-1.45870644e-11 0 0)
(-1.45142882e-11 0 0)
(-1.36388555e-11 0 0)
(-1.34375677e-11 0 0)
(-1.39405779e-11 0 0)
(-1.43696457e-11 0 0)
(-1.27405252e-11 0 0)
(-1.32097783e-11 0 0)
(-1.33496783e-11 0 0)
(-1.34113286e-11 0 0)
(-1.33680239e-11 0 0)
(-1.22419168e-11 0 0)
(-1.29673373e-11 0 0)
(-1.24437345e-11 0 0)
(-1.30283909e-11 0 0)
(-1.28392209e-11 0 0)
(-1.25337831e-11 0 0)
(-1.17612492e-11 0 0)
(-1.19792515e-11 0 0)
(-1.20590612e-11 0 0)
(-1.25475242e-11 0 0)
(-1.20093662e-11 0 0)
(-1.16616773e-11 0 0)
(-1.1445267e-11 0 0)
(-1.20964088e-11 0 0)
(-1.13153581e-11 0 0)
(-1.20826991e-11 0 0)
(-1.05520509e-11 0 0)
(-1.18471707e-11 0 0)
(-1.22377469e-11 0 0)
(-1.06012919e-11 0 0)
(-1.08662244e-11 0 0)
(-1.09033166e-11 0 0)
(-1.10257582e-11 0 0)
(-1.11232647e-11 0 0)
(-1.03320179e-11 0 0)
(-1.05666775e-11 0 0)
(-1.1590039e-11 0 0)
(-1.08724536e-11 0 0)
(-1.02355372e-11 0 0)
(-1.05682854e-11 0 0)
(-1.06166922e-11 0 0)
(-1.04018067e-11 0 0)
(-1.07682231e-11 0 0)
(-1.04383335e-11 0 0)
(-1.1247057e-11 0 0)
(-1.09765429e-11 0 0)
(-1.03904697e-11 0 0)
(-1.05230009e-11 0 0)
(-1.0890723e-11 0 0)
(-1.01304359e-11 0 0)
(-8.92447381e-12 0 0)
(-1.01339251e-11 0 0)
(-9.58168351e-12 0 0)
(-9.6422067e-12 0 0)
(-9.97130952e-12 0 0)
(-9.28234214e-12 0 0)
(-8.56657823e-12 0 0)
(-8.88967822e-12 0 0)
(-9.36574087e-12 0 0)
(-8.85429965e-12 0 0)
(-8.76334637e-12 0 0)
(-8.2019296e-12 0 0)
(-8.4270559e-12 0 0)
(-8.38073643e-12 0 0)
(-8.8022909e-12 0 0)
(-7.76735349e-12 0 0)
(-7.96774361e-12 0 0)
(-8.82238402e-12 0 0)
(-7.49041634e-12 0 0)
(-7.85486811e-12 0 0)
(-8.39564686e-12 0 0)
(-7.14580963e-12 0 0)
(-7.79989313e-12 0 0)
(-8.11201858e-12 0 0)
(-6.78324603e-12 0 0)
(-7.54755552e-12 0 0)
(-6.84686608e-12 0 0)
(-7.39503518e-12 0 0)
(-7.34613504e-12 0 0)
(-8.03747946e-12 0 0)
(-7.11008211e-12 0 0)
(-8.10050029e-12 0 0)
(-6.78495127e-12 0 0)
(-7.43842283e-12 0 0)
(-6.56818313e-12 0 0)
(-6.60863283e-12 0 0)
(-6.47449767e-12 0 0)
(-7.80412469e-12 0 0)
(-6.26258373e-12 0 0)
(-6.30798763e-12 0 0)
(-6.54603493e-12 0 0)
(-6.82863556e-12 0 0)
(-6.14907028e-12 0 0)
(-6.61082134e-12 0 0)
(-6.42035214e-12 0 0)
(-6.07220113e-12 0 0)
(-6.40315811e-12 0 0)
(-6.38955426e-12 0 0)
(-5.62961788e-12 0 0)
(-6.06718086e-12 0 0)
(-6.87849211e-12 0 0)
(-5.78550086e-12 0 0)
(-6.63229477e-12 0 0)
(-5.67288533e-12 0 0)
(-5.51311095e-12 0 0)
(-5.83699303e-12 0 0)
(-6.92844879e-12 0 0)
(-6.03877833e-12 0 0)
(-5.03681043e-12 0 0)
(-6.01146906e-12 0 0)
(-6.1035667e-12 0 0)
(-5.70314129e-12 0 0)
(-4.89559786e-12 0 0)
(-6.22854848e-12 0 0)
(-4.53080505e-12 0 0)
(-5.06606218e-12 0 0)
(-5.48642777e-12 0 0)
(-4.22002259e-12 0 0)
(-4.21275556e-12 0 0)
(-4.22191721e-12 0 0)
(-4.26426891e-12 0 0)
(-4.72932102e-12 0 0)
(-4.02842855e-12 0 0)
(-3.4113006e-12 0 0)
(-3.44620063e-12 0 0)
(-3.60118864e-12 0 0)
(-2.26253751e-12 0 0)
(-2.85885087e-12 0 0)
(-3.29478005e-12 0 0)
(-2.99689624e-12 0 0)
(-3.03446454e-12 0 0)
(-3.23509544e-12 0 0)
(-2.12193916e-12 0 0)
(-1.53035752e-12 0 0)
(-2.59420914e-12 0 0)
(-2.06673001e-12 0 0)
(-2.86158202e-12 0 0)
(-2.71135373e-12 0 0)
(-1.65822306e-12 0 0)
(-1.69535332e-12 0 0)
(-2.09482506e-12 0 0)
(-1.530747e-12 0 0)
(-1.64641912e-12 0 0)
(-2.3393132e-12 0 0)
(-1.6982337e-12 0 0)
(-1.40227411e-12 0 0)
(-1.83268075e-12 0 0)
(-1.53224373e-12 0 0)
(-1.84639386e-12 0 0)
(1.47140779e-13 0 0)
(-1.68768408e-12 0 0)
(-1.07981464e-12 0 0)
(-7.85546035e-13 0 0)
(-8.97170389e-13 0 0)
(-1.75220677e-12 0 0)
(-8.37340636e-13 0 0)
(-1.08001026e-12 0 0)
(-7.2054786e-13 0 0)
(-7.48771583e-13 0 0)
(-7.965095e-13 0 0)
(-7.60253007e-13 0 0)
(-4.50148448e-13 0 0)
(-1.07008059e-12 0 0)
(-4.92584828e-13 0 0)
(-3.21011772e-13 0 0)
(-7.02531545e-13 0 0)
(-2.43038408e-13 0 0)
(-1.33958716e-13 0 0)
(-8.109799e-13 0 0)
(-1.65386967e-13 0 0)
(-8.88827064e-13 0 0)
(2.09357334e-14 0 0)
(-1.67497089e-13 0 0)
(8.14122959e-14 0 0)
(-5.32383272e-13 0 0)
(-7.80048717e-13 0 0)
(-6.70050323e-13 0 0)
(2.08533502e-13 0 0)
(9.76254577e-13 0 0)
(3.58561994e-13 0 0)
(-8.15539511e-13 0 0)
(-1.33115076e-13 0 0)
(8.81727584e-13 0 0)
(3.1719355e-13 0 0)
(7.68546475e-13 0 0)
(-5.83003778e-15 0 0)
(9.91504945e-13 0 0)
(7.16242718e-13 0 0)
(-3.46283999e-13 0 0)
(6.71020445e-13 0 0)
(1.56540315e-12 0 0)
(6.79605017e-13 0 0)
(1.11293774e-12 0 0)
(4.0368203e-13 0 0)
(1.20731812e-12 0 0)
(1.28182956e-12 0 0)
(1.29412929e-12 0 0)
(1.37109226e-12 0 0)
(8.12085136e-13 0 0)
(2.63537973e-12 0 0)
(1.87114369e-12 0 0)
(1.56465822e-12 0 0)
(1.96243561e-12 0 0)
(2.21940772e-12 0 0)
(2.10695227e-12 0 0)
(1.2584071e-12 0 0)
(1.07100607e-12 0 0)
(1.66113225e-12 0 0)
(1.82082613e-12 0 0)
(2.09939259e-12 0 0)
(1.92128782e-12 0 0)
(1.53902486e-12 0 0)
(1.71566433e-12 0 0)
(1.99906368e-12 0 0)
(2.11644884e-12 0 0)
(1.48472897e-12 0 0)
(2.55636091e-12 0 0)
(2.06399544e-12 0 0)
(2.70938555e-12 0 0)
(2.92759865e-12 0 0)
(2.84868441e-12 0 0)
(1.83996727e-12 0 0)
(2.58621717e-12 0 0)
(3.00197186e-12 0 0)
(1.89057399e-12 0 0)
(2.34748626e-12 0 0)
(1.3944288e-12 0 0)
(2.24492201e-12 0 0)
(3.14634305e-12 0 0)
(2.76094127e-12 0 0)
(1.93352922e-12 0 0)
(3.17803783e-12 0 0)
(2.365927e-12 0 0)
(2.88147634e-12 0 0)
(3.14251976e-12 0 0)
(2.99402118e-12 0 0)
(2.46261283e-12 0 0)
(3.95054345e-12 0 0)
(2.48802595e-12 0 0)
(2.84318381e-12 0 0)
(2.7305019e-12 0 0)
(4.04634708e-12 0 0)
(3.21501811e-12 0 0)
(3.81724606e-12 0 0)
(3.56371013e-12 0 0)
(4.07932309e-12 0 0)
(3.58096395e-12 0 0)
(4.17330739e-12 0 0)
(5.15913736e-12 0 0)
(5.06731543e-12 0 0)
(5.84500076e-12 0 0)
(5.73436411e-12 0 0)
(5.78734966e-12 0 0)
(6.29238088e-12 0 0)
(6.13825175e-12 0 0)
(5.52190369e-12 0 0)
(6.01752353e-12 0 0)
(6.98762737e-12 0 0)
(6.33852462e-12 0 0)
(7.20539838e-12 0 0)
(7.16212619e-12 0 0)
(7.88851524e-12 0 0)
(7.61958217e-12 0 0)
(7.29444431e-12 0 0)
(7.59021321e-12 0 0)
(7.5071547e-12 0 0)
(8.77939636e-12 0 0)
(7.79093317e-12 0 0)
(8.19255195e-12 0 0)
(8.41893213e-12 0 0)
(7.96433396e-12 0 0)
(8.99125052e-12 0 0)
(8.90446263e-12 0 0)
(9.50437215e-12 0 0)
(8.91816946e-12 0 0)
(9.25192781e-12 0 0)
(9.18858453e-12 0 0)
(9.87796484e-12 0 0)
(8.66632613e-12 0 0)
(9.96486668e-12 0 0)
(1.01094628e-11 0 0)
(9.96600365e-12 0 0)
(9.21880418e-12 0 0)
(8.9172325e-12 0 0)
(9.03672251e-12 0 0)
(9.26689206e-12 0 0)
(8.33430958e-12 0 0)
(8.5088732e-12 0 0)
(8.62257821e-12 0 0)
(8.30749088e-12 0 0)
(8.7172264e-12 0 0)
(8.03436218e-12 0 0)
(8.71004934e-12 0 0)
(7.63375243e-12 0 0)
(8.49710946e-12 0 0)
(8.62471827e-12 0 0)
(8.57633421e-12 0 0)
(8.33810423e-12 0 0)
(7.88865906e-12 0 0)
(7.93965866e-12 0 0)
(7.44832063e-12 0 0)
(8.4932496e-12 0 0)
(8.779082e-12 0 0)
(9.09581441e-12 0 0)
(8.00066801e-12 0 0)
(9.25576473e-12 0 0)
(8.6260783e-12 0 0)
(8.97114737e-12 0 0)
(8.59195218e-12 0 0)
(9.214265e-12 0 0)
(9.52324956e-12 0 0)
(8.75821413e-12 0 0)
(8.28967559e-12 0 0)
(8.9277832e-12 0 0)
(8.46910627e-12 0 0)
(9.80089569e-12 0 0)
(8.876963e-12 0 0)
(9.48902797e-12 0 0)
(8.58693637e-12 0 0)
(9.79039286e-12 0 0)
(8.69267358e-12 0 0)
(9.31313891e-12 0 0)
(9.00852366e-12 0 0)
(9.97910978e-12 0 0)
(8.52905023e-12 0 0)
(8.37706566e-12 0 0)
(8.17636319e-12 0 0)
(9.03827032e-12 0 0)
(8.50747972e-12 0 0)
(8.06914097e-12 0 0)
(7.64435491e-12 0 0)
(7.96065512e-12 0 0)
(8.87165301e-12 0 0)
(7.93534725e-12 0 0)
(8.80767066e-12 0 0)
(9.64655064e-12 0 0)
(8.88847917e-12 0 0)
(9.14988228e-12 0 0)
(8.58084906e-12 0 0)
(8.85745166e-12 0 0)
(9.18621062e-12 0 0)
(9.13502266e-12 0 0)
(1.00378506e-11 0 0)
(9.67671295e-12 0 0)
(9.76014138e-12 0 0)
(9.94968414e-12 0 0)
(9.34692765e-12 0 0)
(9.61076395e-12 0 0)
(8.96623557e-12 0 0)
(9.54764253e-12 0 0)
(9.48970258e-12 0 0)
(9.85114123e-12 0 0)
(1.04040895e-11 0 0)
(9.28581963e-12 0 0)
(1.0055467e-11 0 0)
(8.60196464e-12 0 0)
(9.86801938e-12 0 0)
(9.29740731e-12 0 0)
(1.04226913e-11 0 0)
(9.13448434e-12 0 0)
(9.80403407e-12 0 0)
(9.65741289e-12 0 0)
(9.72244836e-12 0 0)
(8.92275875e-12 0 0)
(9.44368864e-12 0 0)
(8.94625187e-12 0 0)
(8.86399392e-12 0 0)
(9.871918e-12 0 0)
(9.52218719e-12 0 0)
(9.86124722e-12 0 0)
(9.13625739e-12 0 0)
(1.01533214e-11 0 0)
(1.02894721e-11 0 0)
(1.04338625e-11 0 0)
(9.53729224e-12 0 0)
(9.61592531e-12 0 0)
(9.23971643e-12 0 0)
(1.01728634e-11 0 0)
(9.10352826e-12 0 0)
(9.98792946e-12 0 0)
(1.03242151e-11 0 0)
(9.38493086e-12 0 0)
(9.6326061e-12 0 0)
(1.05700921e-11 0 0)
(1.01737022e-11 0 0)
(1.07126367e-11 0 0)
(1.08438611e-11 0 0)
(1.05167369e-11 0 0)
(1.05373358e-11 0 0)
(1.11208539e-11 0 0)
(1.12246944e-11 0 0)
(1.19489204e-11 0 0)
(1.11015018e-11 0 0)
(1.13864621e-11 0 0)
(1.11788129e-11 0 0)
(1.19400454e-11 0 0)
(1.20177069e-11 0 0)
(1.09237646e-11 0 0)
(1.2263736e-11 0 0)
(1.04945546e-11 0 0)
(1.10908639e-11 0 0)
(1.07705003e-11 0 0)
(1.0808865e-11 0 0)
(9.87804675e-12 0 0)
(1.00923594e-11 0 0)
(1.05066956e-11 0 0)
(1.09792404e-11 0 0)
(1.09526963e-11 0 0)
(1.13868913e-11 0 0)
(1.20140677e-11 0 0)
(1.22273853e-11 0 0)
(1.07800764e-11 0 0)
(1.1651529e-11 0 0)
(1.0662528e-11 0 0)
(1.13745898e-11 0 0)
(1.09444928e-11 0 0)
(1.14560643e-11 0 0)
(1.03585051e-11 0 0)
(1.12257032e-11 0 0)
(1.09292486e-11 0 0)
(1.101021e-11 0 0)
(1.09463277e-11 0 0)
(1.05560375e-11 0 0)
(1.12957969e-11 0 0)
(1.17328711e-11 0 0)
(1.23625664e-11 0 0)
(1.03408786e-11 0 0)
(1.13112638e-11 0 0)
(1.00760741e-11 0 0)
(1.16873216e-11 0 0)
(1.10106941e-11 0 0)
(1.10163396e-11 0 0)
(9.99044305e-12 0 0)
(1.06865949e-11 0 0)
(1.0541813e-11 0 0)
(1.0297865e-11 0 0)
(1.05599697e-11 0 0)
(9.30119007e-12 0 0)
(9.17059632e-12 0 0)
(9.00327188e-12 0 0)
(9.45351756e-12 0 0)
(9.01334325e-12 0 0)
(8.27571929e-12 0 0)
(8.91216443e-12 0 0)
(9.31526373e-12 0 0)
(8.61174237e-12 0 0)
(7.83194425e-12 0 0)
(8.88585624e-12 0 0)
(8.70528602e-12 0 0)
(8.25064264e-12 0 0)
(8.85290848e-12 0 0)
(8.38715957e-12 0 0)
(8.05303211e-12 0 0)
(8.49167242e-12 0 0)
(7.71893587e-12 0 0)
(7.86158832e-12 0 0)
(7.79554993e-12 0 0)
(7.55000766e-12 0 0)
(7.41689341e-12 0 0)
(8.1241732e-12 0 0)
(8.30517715e-12 0 0)
(7.62973845e-12 0 0)
(8.37708539e-12 0 0)
(8.40393615e-12 0 0)
(9.60968206e-12 0 0)
(9.36711988e-12 0 0)
(8.59429006e-12 0 0)
(9.25494154e-12 0 0)
(9.2381819e-12 0 0)
(8.78591575e-12 0 0)
(9.34651188e-12 0 0)
(9.5998341e-12 0 0)
(9.83867679e-12 0 0)
(9.49360188e-12 0 0)
(9.77578707e-12 0 0)
(1.03187802e-11 0 0)
(9.94251575e-12 0 0)
(9.41588598e-12 0 0)
(9.2733579e-12 0 0)
(1.03531746e-11 0 0)
(9.19492142e-12 0 0)
(9.6676245e-12 0 0)
(9.51096346e-12 0 0)
(1.0449797e-11 0 0)
(1.04846817e-11 0 0)
(8.92143143e-12 0 0)
(1.07568266e-11 0 0)
(1.06027834e-11 0 0)
(1.08821934e-11 0 0)
(9.80126245e-12 0 0)
(1.07526409e-11 0 0)
(1.02226434e-11 0 0)
(9.84769154e-12 0 0)
(9.51458223e-12 0 0)
(1.02685034e-11 0 0)
(9.54425124e-12 0 0)
(9.09631631e-12 0 0)
(1.0414071e-11 0 0)
(9.15381296e-12 0 0)
(9.85735219e-12 0 0)
(9.30082583e-12 0 0)
(9.96878525e-12 0 0)
(1.03437404e-11 0 0)
(9.05974621e-12 0 0)
(9.94414015e-12 0 0)
(1.00274658e-11 0 0)
(8.88534787e-12 0 0)
(8.85629231e-12 0 0)
(1.03034731e-11 0 0)
(1.02094705e-11 0 0)
(1.03611362e-11 0 0)
(9.83172514e-12 0 0)
(1.02605214e-11 0 0)
(1.01116527e-11 0 0)
(1.01583025e-11 0 0)
(9.76633901e-12 0 0)
(1.03427315e-11 0 0)
(9.41564356e-12 0 0)
(9.7509891e-12 0 0)
(9.99411249e-12 0 0)
(9.80814578e-12 0 0)
(8.73614698e-12 0 0)
(9.60479147e-12 0 0)
(9.47906785e-12 0 0)
(9.50046279e-12 0 0)
(8.80121449e-12 0 0)
(9.38961412e-12 0 0)
(9.21676501e-12 0 0)
(1.0045532e-11 0 0)
(9.55567565e-12 0 0)
(1.02522318e-11 0 0)
(9.18731395e-12 0 0)
(9.52568192e-12 0 0)
(9.85135543e-12 0 0)
(1.02067976e-11 0 0)
(1.07117119e-11 0 0)
(1.03083218e-11 0 0)
(9.56287462e-12 0 0)
(9.74580549e-12 0 0)
(1.0030211e-11 0 0)
(9.67908377e-12 0 0)
(9.89632327e-12 0 0)
(1.04440915e-11 0 0)
(9.39360138e-12 0 0)
(9.22196046e-12 0 0)
(9.06910317e-12 0 0)
(9.57248988e-12 0 0)
(8.64153789e-12 0 0)
(8.77035748e-12 0 0)
(9.06010336e-12 0 0)
(9.63867925e-12 0 0)
(8.61317559e-12 0 0)
(8.41732706e-12 0 0)
(8.62025446e-12 0 0)
(8.95591229e-12 0 0)
(8.29696592e-12 0 0)
(8.60689353e-12 0 0)
(7.03352741e-12 0 0)
(9.04540733e-12 0 0)
(8.30237902e-12 0 0)
(7.55384144e-12 0 0)
(8.33024059e-12 0 0)
(8.85370828e-12 0 0)
(7.50686411e-12 0 0)
(8.00112052e-12 0 0)
(8.90341118e-12 0 0)
(7.88770266e-12 0 0)
(8.35904264e-12 0 0)
(7.6283443e-12 0 0)
(8.7708698e-12 0 0)
(8.51407481e-12 0 0)
(8.41835473e-12 0 0)
(8.15549509e-12 0 0)
(6.76954752e-12 0 0)
(8.23560169e-12 0 0)
(7.34430383e-12 0 0)
(7.65702544e-12 0 0)
(6.73607703e-12 0 0)
(6.58926308e-12 0 0)
(6.44225435e-12 0 0)
(6.56443946e-12 0 0)
(6.69677454e-12 0 0)
(5.97543676e-12 0 0)
(7.38332686e-12 0 0)
(6.90174451e-12 0 0)
(6.73475607e-12 0 0)
(6.43769319e-12 0 0)
(7.1235461e-12 0 0)
(6.60930548e-12 0 0)
(6.4775216e-12 0 0)
(5.50930887e-12 0 0)
(6.97983156e-12 0 0)
(5.57801782e-12 0 0)
(6.47164461e-12 0 0)
(6.86176954e-12 0 0)
(5.44514924e-12 0 0)
(6.28681554e-12 0 0)
(6.39844382e-12 0 0)
(5.10845941e-12 0 0)
(6.30850867e-12 0 0)
(6.16849094e-12 0 0)
(6.76475552e-12 0 0)
(4.6548638e-12 0 0)
(6.16459424e-12 0 0)
(5.61409472e-12 0 0)
(4.79177953e-12 0 0)
(4.2064843e-12 0 0)
(4.23626638e-12 0 0)
(4.99214829e-12 0 0)
(5.01061086e-12 0 0)
(3.90498963e-12 0 0)
(4.77013387e-12 0 0)
(4.520454e-12 0 0)
(4.73284372e-12 0 0)
(4.61985642e-12 0 0)
(3.75642519e-12 0 0)
(4.50874127e-12 0 0)
(4.32650406e-12 0 0)
(2.44051886e-12 0 0)
(2.9976038e-12 0 0)
(3.47105381e-12 0 0)
(3.45592846e-12 0 0)
(3.76666168e-12 0 0)
(3.27013654e-12 0 0)
(3.44930665e-12 0 0)
(3.54590403e-12 0 0)
(2.56106262e-12 0 0)
(2.52578892e-12 0 0)
(3.70569496e-12 0 0)
(3.24639138e-12 0 0)
(2.91436025e-12 0 0)
(3.66656103e-12 0 0)
(3.53411868e-12 0 0)
(3.62685143e-12 0 0)
(2.68856844e-12 0 0)
(2.60752139e-12 0 0)
(2.07360368e-12 0 0)
(3.22798426e-12 0 0)
(4.19644674e-12 0 0)
(3.84388107e-12 0 0)
(2.86032156e-12 0 0)
(3.11404996e-12 0 0)
(3.28682525e-12 0 0)
(3.17037481e-12 0 0)
(2.49004123e-12 0 0)
(2.78067122e-12 0 0)
(2.38733913e-12 0 0)
(2.6144212e-12 0 0)
(3.05788327e-12 0 0)
(3.02403213e-12 0 0)
(3.14577154e-12 0 0)
(3.10569236e-12 0 0)
(1.52189963e-12 0 0)
(2.41959694e-12 0 0)
(2.30845287e-12 0 0)
(2.22082104e-12 0 0)
(3.12018112e-12 0 0)
(2.23049395e-12 0 0)
(1.72399836e-12 0 0)
(2.73924844e-12 0 0)
(2.19856463e-12 0 0)
(3.47724652e-12 0 0)
(1.73785722e-12 0 0)
(2.27302402e-12 0 0)
(2.84938434e-12 0 0)
(1.43104639e-12 0 0)
(1.84507445e-12 0 0)
(2.48300826e-12 0 0)
(1.79335371e-12 0 0)
(9.92724882e-13 0 0)
(1.42049422e-12 0 0)
(1.02689516e-12 0 0)
(1.35609627e-13 0 0)
(1.0489816e-12 0 0)
(7.46240266e-13 0 0)
(4.48079498e-13 0 0)
(7.02338066e-13 0 0)
(-3.56468837e-13 0 0)
(-3.44208464e-13 0 0)
(9.28860101e-15 0 0)
(-3.6070301e-13 0 0)
(-6.72680446e-13 0 0)
(-6.62103138e-13 0 0)
(-7.00938892e-13 0 0)
(-1.12432257e-12 0 0)
(-1.87666904e-12 0 0)
(-1.12834634e-12 0 0)
(-2.58582762e-12 0 0)
(-1.96482698e-12 0 0)
(-1.57057148e-12 0 0)
(-2.70021323e-12 0 0)
(-2.83389119e-12 0 0)
(-3.25890903e-12 0 0)
(-2.80695568e-12 0 0)
(-3.71586309e-12 0 0)
(-3.5993814e-12 0 0)
(-3.29903284e-12 0 0)
(-3.00224587e-12 0 0)
(-3.03730768e-12 0 0)
(-3.73947347e-12 0 0)
(-3.03874194e-12 0 0)
(-3.95574685e-12 0 0)
(-2.81888875e-12 0 0)
(-2.82769954e-12 0 0)
(-3.80385976e-12 0 0)
(-3.18646648e-12 0 0)
(-2.34350381e-12 0 0)
(-2.85623276e-12 0 0)
(-2.88132719e-12 0 0)
(-2.9396006e-12 0 0)
(-3.00772606e-12 0 0)
(-2.78610373e-12 0 0)
(-3.3111315e-12 0 0)
(-2.89465013e-12 0 0)
(-2.46521136e-12 0 0)
(-2.71846625e-12 0 0)
(-2.95974036e-12 0 0)
(-2.7861846e-12 0 0)
(-2.34584877e-12 0 0)
(-3.20685012e-12 0 0)
(-3.26431766e-12 0 0)
(-3.58739324e-12 0 0)
(-3.20803266e-12 0 0)
(-2.40602559e-12 0 0)
(-3.47731195e-12 0 0)
(-3.42053728e-12 0 0)
(-3.34325779e-12 0 0)
(-3.49190208e-12 0 0)
(-3.2302403e-12 0 0)
(-4.3553536e-12 0 0)
(-3.45152118e-12 0 0)
(-4.57646563e-12 0 0)
(-4.51882072e-12 0 0)
(-4.68894239e-12 0 0)
(-4.03544394e-12 0 0)
(-5.76092812e-12 0 0)
(-4.50535576e-12 0 0)
(-4.39047007e-12 0 0)
(-5.43108635e-12 0 0)
(-4.54078162e-12 0 0)
(-5.13016611e-12 0 0)
(-4.52025631e-12 0 0)
(-6.07344171e-12 0 0)
(-4.14386187e-12 0 0)
(-5.69997284e-12 0 0)
(-5.68581553e-12 0 0)
(-5.1684528e-12 0 0)
(-5.20728175e-12 0 0)
(-5.56501616e-12 0 0)
(-6.24882014e-12 0 0)
(-5.79608537e-12 0 0)
(-6.12545642e-12 0 0)
(-6.08639931e-12 0 0)
(-6.7605021e-12 0 0)
(-6.58826984e-12 0 0)
(-7.12157679e-12 0 0)
(-7.29754616e-12 0 0)
(-6.87677115e-12 0 0)
(-7.77241625e-12 0 0)
(-6.99389803e-12 0 0)
(-7.04947952e-12 0 0)
(-6.61312034e-12 0 0)
(-8.14358988e-12 0 0)
(-7.93011139e-12 0 0)
(-8.64811114e-12 0 0)
(-8.00591483e-12 0 0)
(-8.67321626e-12 0 0)
(-7.75276912e-12 0 0)
(-9.78746966e-12 0 0)
(-8.68694814e-12 0 0)
(-8.78796856e-12 0 0)
(-8.91369569e-12 0 0)
(-8.88076052e-12 0 0)
(-8.90573398e-12 0 0)
(-9.26611348e-12 0 0)
(-9.27853387e-12 0 0)
(-9.61540949e-12 0 0)
(-9.223837e-12 0 0)
(-9.47670234e-12 0 0)
(-9.37059854e-12 0 0)
(-1.00583678e-11 0 0)
(-9.61429143e-12 0 0)
(-9.94008464e-12 0 0)
(-1.05809837e-11 0 0)
(-9.52209126e-12 0 0)
(-1.02923316e-11 0 0)
(-9.72907332e-12 0 0)
(-9.45658697e-12 0 0)
(-1.04264183e-11 0 0)
(-1.08328254e-11 0 0)
(-1.03287936e-11 0 0)
(-1.02638964e-11 0 0)
(-1.08453939e-11 0 0)
(-1.14043122e-11 0 0)
(-1.00893145e-11 0 0)
(-1.05120832e-11 0 0)
(-1.06753024e-11 0 0)
(-9.79444886e-12 0 0)
(-9.90638955e-12 0 0)
(-1.05858945e-11 0 0)
(-9.49363921e-12 0 0)
(-1.13778648e-11 0 0)
(-9.98070883e-12 0 0)
(-1.05254647e-11 0 0)
(-1.1302959e-11 0 0)
(-1.14750667e-11 0 0)
(-1.09538746e-11 0 0)
(-1.04420304e-11 0 0)
(-1.17849101e-11 0 0)
(-1.07327896e-11 0 0)
(-1.15508383e-11 0 0)
(-1.07506699e-11 0 0)
(-1.08175466e-11 0 0)
(-1.07198817e-11 0 0)
(-1.16896476e-11 0 0)
(-1.14585847e-11 0 0)
(-1.15225065e-11 0 0)
(-1.02955356e-11 0 0)
(-1.07443502e-11 0 0)
(-1.06151765e-11 0 0)
(-1.12505991e-11 0 0)
(-1.09224215e-11 0 0)
(-1.04973491e-11 0 0)
(-1.17889856e-11 0 0)
(-1.26059798e-11 0 0)
(-1.22422448e-11 0 0)
(-1.13288591e-11 0 0)
(-1.21093412e-11 0 0)
(-1.20655551e-11 0 0)
(-1.19315291e-11 0 0)
(-1.17719144e-11 0 0)
(-1.19716375e-11 0 0)
(-1.16215924e-11 0 0)
(-1.15691489e-11 0 0)
(-1.31362612e-11 0 0)
(-1.19293093e-11 0 0)
(-1.22196441e-11 0 0)
(-1.29557724e-11 0 0)
(-1.22350093e-11 0 0)
(-1.27234263e-11 0 0)
(-1.27152067e-11 0 0)
(-1.23520176e-11 0 0)
(-1.23825951e-11 0 0)
(-1.28655934e-11 0 0)
(-1.19706771e-11 0 0)
(-1.24144703e-11 0 0)
(-1.21022728e-11 0 0)
(-1.24482207e-11 0 0)
(-1.31549148e-11 0 0)
(-1.22060932e-11 0 0)
(-1.29228556e-11 0 0)
(-1.20811588e-11 0 0)
(-1.17878876e-11 0 0)
(-1.22119572e-11 0 0)
(-1.21774937e-11 0 0)
(-1.26506494e-11 0 0)
(-1.28742923e-11 0 0)
(-1.15264857e-11 0 0)
(-1.24215445e-11 0 0)
(-1.11799671e-11 0 0)
(-1.21243251e-11 0 0)
(-1.17248192e-11 0 0)
(-1.20428681e-11 0 0)
(-1.17292106e-11 0 0)
(-1.23246476e-11 0 0)
(-1.24077172e-11 0 0)
(-1.2066327e-11 0 0)
(-1.2927453e-11 0 0)
(-1.2761012e-11 0 0)
(-1.17689438e-11 0 0)
(-1.18837132e-11 0 0)
(-1.27573631e-11 0 0)
(-1.27089033e-11 0 0)
(-1.30974939e-11 0 0)
(-1.27146738e-11 0 0)
(-1.29816245e-11 0 0)
(-1.31052225e-11 0 0)
(-1.24468478e-11 0 0)
(-1.3645423e-11 0 0)
(-1.33171397e-11 0 0)
(-1.26114249e-11 0 0)
(-1.31979772e-11 0 0)
(-1.37423926e-11 0 0)
(-1.28404088e-11 0 0)
(-1.22084782e-11 0 0)
(-1.27078196e-11 0 0)
(-1.24625972e-11 0 0)
(-1.21721017e-11 0 0)
(-1.23003875e-11 0 0)
(-1.19496774e-11 0 0)
(-1.16568922e-11 0 0)
(-1.18798472e-11 0 0)
(-1.15973653e-11 0 0)
(-1.16385933e-11 0 0)
(-1.17508531e-11 0 0)
(-1.16510125e-11 0 0)
(-1.14420062e-11 0 0)
(-1.12935632e-11 0 0)
(-1.17421846e-11 0 0)
(-1.16948786e-11 0 0)
(-1.14691528e-11 0 0)
(-1.15089501e-11 0 0)
(-1.13220323e-11 0 0)
(-1.08573431e-11 0 0)
(-1.12393951e-11 0 0)
(-1.18976376e-11 0 0)
(-1.11598096e-11 0 0)
(-1.05219897e-11 0 0)
(-1.15402257e-11 0 0)
(-1.04869795e-11 0 0)
(-9.62967214e-12 0 0)
(-1.08751325e-11 0 0)
(-1.08949454e-11 0 0)
(-1.00471506e-11 0 0)
(-1.12288031e-11 0 0)
(-9.77290562e-12 0 0)
(-1.00122798e-11 0 0)
(-9.98822352e-12 0 0)
(-1.10141361e-11 0 0)
(-1.01253121e-11 0 0)