/*--------------------------------*- C++ -*----------------------------------*\
| =========                 |                                                 |
| \\      /  F ield         | OpenFOAM: The Open Source CFD Toolbox           |
|  \\    /   O peration     | Version:  2206                                  |
|   \\  /    A nd           | Website:  www.openfoam.com                      |
|    \\/     M anipulation  |                                                 |
\*---------------------------------------------------------------------------*/
FoamFile
{
    version     2.0;
    format      ascii;
    arch        "LSB;label=32;scalar=64";
    class       volScalarField;
    location    "9.4e-06";
    object      PVsourcePV;
}
// * * * * * * * * * * * * * * * * * * * * * * * * * * * * * * * * * * * * * //

dimensions      [1 -3 -1 0 0 0 0];

internalField   nonuniform List<scalar> 
3183
(
0
0
0
0
0
0
0
0
0
0
0
0
0
0
0
0
0
0
0
0
0
0
0
0
0
0
0
0
0
0
0
0
0
0
0
0
0
0
0
0
0
0
0
0
0
0
0
0
0
0
0
0
0
0
0
0
0
0
0
0
0
0
0
0
0
0
0
0
0
0
0
0
0
0
0
0
0
0
0
0
0
0
0
0
0
0
0
0
0
0
0
0
0
0
0
0
0
0
0
0
0
0
0
0
0
0
0
0
0
0
0
0
0
0
0
0
0
0
0
0
0
0
0
0
0
0
0
0
0
0
0
0
0
0
0
0
0
0
0
0
0
0
0
0
0
0
0
0
0
0
0
0
0
0
0
0
0
0
0
0
0
0
0
0
0
0
0
0
0
0
0
0
0
0
0
0
0
0
0
0
0
0
0
0
0
0
0
0
0
0
0
0
0
0
0
0
0
0
0
0
0
0
0
0
0
0
0
0
0
0
0
0
0
0
0
0
0
0
0
0
0
0
0
0
0
0
0
0
0
0
0
0
0
0
0
0
0
0
0
0
0
0
0
0
0
0
0
0
0
0
0
0
0
0
0
0
0
0
0
0
0
0
0
0
0
0
0
0
0
0
0
0
0
0
0
0
0
0
0
0
0
0
0
0
0
0
0
0
0
0
0
0
0
0
0
0
0
0
0
0
0
0
0
0
0
0
0
0
0
0
0
0
0
0
0
0
0
0
0
0
0
0
0
0
0
0
0
0
0
0
0
0
0
0
0
0
0
0
0
0
0
0
0
0
0
0
0
0
0
0
0
0
0
0
0
0
0
0
0
0
0
0
0
0
0
0
0
0
0
0
0
0
0
0
0
0
0
0
0
0
0
0
0
0
0
0
0
0
0
0
0
0
0
0
0
0
0
0
0
0
0
0
0
0
0
0
0
0
0
0
0
0
0
0
0
0
0
0
0
0
0
0
0
0
0
0
0
0
0
0
0
0
0
0
0
0
0
0
0
0
0
0
0
0
0
0
0
0
0
0
0
0
0
0
0
0
0
0
0
0
0
0
0
0
0
0
0
0
0
0
0
0
0
0
0
0
0
0
0
0
0
0
0
0
0
0
0
0
0
0
0
0
0
0
0
0
0
0
0
0
0
0
0
0
0
0
0
0
0
0
0
0
0
0
0
0
0
0
0
0
0
0
0
0
0
0
0
0
0
0
0
0
0
0
0
0
0
0
0
0
0
0
0
0
0
0
0
0
0
0
0
0
0
0
0
0
0
0
0
0
0
0
0
0
0
0
0
0
0
0
0
0
0
0
0
0
0
0
0
0
0
0
0
0
0
0
0
0
0
0
0
0
0
0
0
0
0
0
0
0
0
0
0
0
0
0
0
0
0
0
0
0
0
0
0
0
0
0
0
0
0
0
0
0
0
0
0
0
0
0
0
0
0
0
0
0
0
0
0
0
0
0
0
0
0
0
0
0
0
0
0
0
0
0
0
0
0
0
0
0
0
0
0
0
0
0
0
0
0
0
0
0
0
0
0
0
0
0
0
0
0
0
0
0
0
0
0
0
0
0
0
0
0
0
0
0
0
0
0
0
0
0
0
0
0
0
0
0
0
0
0
0
0
0
0
0
0
0
0
0
0
0
0
0
0
0
0
0
0
0
0
0
0
0
0
0
0
0
0
0
0
0
0
0
0
0
0
0
0
0
0
0
0
0
0
0
0
0
0
0
0
0
0
0
0
0
0
0
0
0
0
0
0
0
0
0
0
0
0
0
0
0
0
0
0
0
0
0
0
0
0
0
0
0
0
0
0
0
0
0
0
0
0
0
0
0
0
0
0
0
0
0
0
0
0
0
0
0
0
0
0
0
0
0
0
0
0
0
0
0
0
0
0
0
0
0
0
0
0
0
0
0
0
0
0
0
0
0
0
0
0
0
0
0
0
0
0
0
0
0
0
0
0
0
0
0
0
0
0
0
0
0
0
0
0
0
0
0
0
0
0
0
0
0
0
0
0
0
0
0
0
0
0
0
0
0
0
0
0
0
0
0
0
0
0
0
0
0
0
0
0
0
0
0
0
0
0
0
0
0
0
0
0
0
0
0
0
0
0
0
0
0
0
0
0
0
0
0
0
0
0
0
0
0
0
0
0
0
0
0
0
0
0
0
0
0
0
0
0
0
0
0
0
0
0
0
0
0
0
0
0
0
0
0
0
0
0
0
0
0
0
0
0
0
0
0
0
0
0
0
0
0
0
0
0
0
0
0
0
0
0
0
0
0
0
0
0
0
0
0
0
0
0
0
0
0
0
0
0
0
0
0
0
0
0
0
0
0
0
0
0
0
0
0
0
0
0
0
0
0
0
0
0
0
0
0
0
0
0
0
0
0
0
0
0
0
0
0
0
0
0
0
0
0
0
0
0
0
0
0
0
0
0
0
0
0
0
0
0
0
0
0
0
0
0
0
0
0
0
0
0
0
0
0
0
0
0
0
0
0
0
0
0
0
0
0
0
0
0
0
0
0
0
0
0
0
0
0
0
0
0
0
0
0
0
0
0
0
0
0
0
0
0
0
0
0
0
0
0
0
0
0
0
0
0
0
0
0
0
0
0
0
0
0
0
0
0
0
0
0
0
0
0
0
0
0
0
0
0
0
0
0
0
0
0
0
0
0
0
0
0
0
0
0
0
0
0
0
0
0
0
0
0
0
0
0
0
0
0
0
0
0
0
0
0
0
0
0
0
0
0
0
0
0
0
0
0
0
0
0
0
0
0
0
0
0
0
0
0
0
0
0
0
0
0
0
0
0
0
0
0
0
0
0
0
0
0
0
0
0
0
0
0
0
0
0
0
0
0
0
0
0
0
0
0
0
0
0
0
0
0
0
0
0
0
0
0
0
0
0
0
0
0
0
0
0
0
0
0
0
0
0
0
0
0
0
0
0
0
0
0
0
0
0
0
0
0
0
0
0
0
0
0
0
0
0
0
0
0
0
0
0
0
0
0
0
0
0
0
0
0
0
0
0
0
0
0
0
0
0
0
0
0
0
0
0
0
0
0
0
0
0
0
0
0
0
0
0
0
0
0
0
0
0
0
0
0
0
0
0
0
0
0
0
0
0
0
0
0
0
0
0
0
0
0
0
0
0
0
0
0
0
0
0
0
0
0
0
0
0
0
0
0
0
0
0
0
0
0
0
0
0
0
0
0
0
0
0
0
0
0
0
0
0
0
0
0
0
0
0
0
0
0
0
0
0
0
0
0
0
0
0
0
0
0
0
0
0
0
0
0
0
0
0
0
0
0
0
0
0
0
0
0
0
0
0
0
0
0
0
0
0
0
0
0
0
0
0
0
0
0
0
0
0
0
0
0
0
0
0
0
0
0
0
0
0
0
0
0
0
0
0
0
0
0
0
0
0
0
0
0
0
0
0
0
0
0
0
0
0
0
0
0
0
0
0
0
0
0
0
0
0
0
0
0
0
0
0
0
0
0
0
0
0
0
0
0
0
0
0
0
0
0
0
0
0
0
0
0
0
0
0
0
0
0
0
0
0
0
0
0
0
0
0
0
0
0
0
0
0
0
0
0
0
0
0
0
0
0
0
0
0
0
0
0
0
0
0
0
0
0
0
0
0
0
0
0
0
0
0
0
0
0
0
0
0
0
0
0
0
0
0
0
0
0
0
0
0
0
0
0
0
0
0
0
0
0
0
0
0
0
0
0
0
0
0
0
0
0
0
0
0
0
0
0
0
0
0
0
0
0
0
0
0
0
0
0
0
0
0
0
0
0
0
0
0
0
0
0
0
0
0
0
0
0
0
0
0
0
0
0
0
0
0
0
0
0
0
0
0
0
0
0
0
0
0
0
0
0
0
0
0
0
0
0
0
0
0
0
0
0
0
0
0
0
0
0
0
0
0
0
0
0
0
0
0
0
0
0
0
0
0
0
0
0
0
0
0
0
0
0
0
0
0
0
0
0
0
0
0
0
0
0
0
0
0
0
0
0
0
0
0
0
0
0
0
0
0
0
0
0
0
0
0
0
0
0
0
0
0
0
0
0
0
0
0
0
0
0
0
0
0
0
0
0
0
0
0
0
0
0
0
0
0
0
0
0
0
0
0
0
0
0
0
0
0
0
0
0
0
0
0
0
0
0
0
0
0
0
0
0
0
0
0
0
0
0
0
0
0
0
0
0
0
0
0
0
0
0
0
0
0
0
0
0
0
0
0
0
0
0
0
0
0
0
0
0
0
0
0
0
0
0
0
0
0
0
0
0
0
0
0
0
0
0
0
0
0
0
0
0
0
0
0
0
0
0
0
0
0
0
0
0
0
0
0
0
0
0
0
0
0
0
0
0
0
0
0
0
0
0
0
0
0
0
0
0
0
0
0
0
0
0
0
0
0
0
0
0
0
0
0
0
0
0
0
0
0
0
0
0
0
0
0
0
0
0
0
0
0
0
0
0
0
0
0
0
0
0
0
0
0
0
0
0
0
0
0
0
0
0
0
0
0
0
0
0
0
0
0
0
0
0
0
0
0
0
0
0
0
0
0
0
0
0
0
0
0
0
0
0
0
0
0
0
0
0
0
0
0
0
0
0
0
0
0
0
0
0
0
0
0
0
0
0
0
0
0
0
0
0
0
0
0
0
0
0
0
0
0
0
0
0
0
0
0
0
0
0
0
0
0
0
0
0
0
0
0
0
0
0
0
0
0
0
0
0
0
0
0
0
0
0
0
0
0
0
0
0
0
0
0
0
0
0
0
0
0
0
0
0
0
0
0
0
0
0
0
0
0
0
0
0
0
0
0
0
0
0
0
0
0
0
0
0
0
0
0
0
0
0
0
0
0
0
0
0
0
0
0
0
0
0
0
0
0
0
0
0
0
0
0
0
0
0
0
0
0
0
0
0
0
0
0
0
0
0
0
0
0
0
0
0
0
0
0
0
0
0
0
0
0
0
0
0
0
0
0
0
0
0
0
0
0
0
0
0
0
0
0
0
0
0
0
0
0
0
0
0
0
0
0
0
0
0
0
0
0
0
0
0
0
0
0
0
0
0
0
0
0
0
0
0
0
0
0
0
0
0
0
0
0
0
0
0
0
0
0
0
0
0
0
0
0
0
0
0
0
0
0
0
0
0
0
0
0
0
0
0
0
0
0
0
0
0
0
0
0
0
0
0
0
0
0
0
0
0
0
0
0
0
0
0
0
0
0
0
0
0
0
0
0
0
0
0
0
0
0
0
0
0
0
0
0
0
0
0
0
0
0
0
0
0
0
0
0
0
0
0
0
0
0
0
0
0
0
0
0
0
0
0
0
0
0
0
0
0
0
0
0
0
0
0
0
0
0
0
0
0
0
0
0
0
0
0
0
0
0
0
0
0
3.56279499e-300
0
4.44337656e-297
0
5.39454318e-294
0
6.38026321e-291
0
7.35637996e-288
0
8.27387652e-285
0
9.08304201e-282
0
9.7380326e-279
0
1.02012316e-275
0
1.04468262e-272
0
1.04631304e-269
0
1.02533754e-266
0
9.83491827e-264
0
9.23704808e-261
0
8.49775082e-258
1.30986927e-259
7.65990743e-255
2.68765166e-256
6.76742468e-252
3.64547688e-253
5.86174823e-249
4.21045721e-250
4.97909552e-246
4.4333017e-247
4.14860258e-243
4.37911288e-244
3.3914309e-240
4.11856101e-241
2.72075297e-237
3.72041798e-238
2.14244347e-234
3.24602884e-235
1.65625446e-231
2.74590283e-232
1.2572451e-228
2.25828102e-229
9.37260966e-226
1.80931795e-226
6.86303506e-223
1.41440631e-223
4.93684591e-220
1.08016325e-220
3.48914064e-217
8.06656911e-218
2.42312764e-214
5.89552297e-215
1.65375824e-211
4.21967927e-212
1.10930363e-208
2.95939386e-209
7.31395322e-206
2.03468603e-206
4.74038813e-203
1.37194913e-203
3.02042696e-200
9.07557525e-201
1.89210132e-197
5.89161586e-198
1.16537903e-194
3.75430474e-195
7.05761932e-192
2.34884764e-192
4.20276678e-189
1.44308669e-189
2.46100562e-186
8.70788102e-187
1.41710112e-183
5.16148647e-184
8.02429944e-181
3.00558926e-181
4.46822557e-178
1.71956533e-178
2.44672327e-175
9.66664395e-176
1.31750733e-172
5.33982717e-173
6.97642237e-170
2.89862946e-170
3.63256696e-167
1.54627006e-167
1.85986607e-164
8.10610284e-165
9.36309339e-162
4.17613064e-162
4.63452797e-159
2.11430024e-159
2.25535685e-156
1.05191285e-156
1.07899644e-153
5.14277944e-154
5.07443026e-151
2.47058786e-151
2.34574447e-148
1.16616759e-148
1.06576098e-145
5.40814947e-146
4.75860926e-143
2.46392255e-143
2.08781732e-140
1.10269253e-140
9.00002739e-138
4.84712155e-138
3.81132599e-135
2.09248916e-135
1.58535503e-132
8.87022462e-133
6.47630629e-130
3.6917712e-130
2.59779955e-127
1.50832388e-127
1.02301695e-124
6.04837993e-125
3.9543466e-122
2.38005471e-122
1.49999937e-119
9.18862657e-120
5.58258344e-117
3.47965114e-117
2.03799828e-114
1.29223312e-114
7.29602601e-112
4.70497489e-112
2.56073655e-109
1.67906861e-109
8.80873164e-107
5.87150468e-107
2.96891172e-104
2.01125251e-104
9.80105889e-102
6.7464771e-102
3.16801474e-99
2.21527608e-99
1.00225015e-96
7.11795857e-97
3.10216495e-94
2.23709719e-94
9.39001972e-92
6.87430444e-92
2.77831203e-89
2.06436571e-89
8.03145796e-87
6.0554105e-87
2.26713455e-84
1.73408023e-84
6.24573815e-82
4.84524868e-82
1.67822305e-79
1.32013529e-79
4.39532484e-77
3.50501837e-77
1.12124814e-74
9.06198796e-75
2.78388893e-72
2.27974046e-72
6.72178684e-70
5.57591966e-70
1.57693518e-67
1.3247297e-67
3.59103622e-65
3.05418148e-65
7.92950616e-63
6.82588624e-63
1.69587918e-60
1.47712699e-60
3.5084972e-58
3.09116269e-58
7.01175277e-56
6.24695191e-56
1.35161276e-53
1.21728598e-53
2.50881982e-51
2.28328955e-51
4.47578203e-49
4.1148887e-49
7.65857315e-47
7.11008382e-47
1.25398963e-44
1.17514533e-44
1.95959137e-42
1.85293187e-42
2.91384797e-40
2.77890922e-40
4.10881917e-38
3.95044516e-38
5.47279758e-36
5.30221321e-36
6.8542428e-34
6.68820338e-34
8.02851741e-32
7.88585992e-32
8.73903043e-30
8.6349153e-30
8.77196492e-28
8.71133315e-28
8.04323813e-26
8.01594569e-26
6.65773221e-24
6.63946438e-24
4.89991431e-22
4.86325569e-22
3.14256256e-20
3.08226875e-20
1.7081897e-18
1.68491137e-18
7.55169437e-17
7.45973419e-17
2.54532401e-15
2.55532671e-15
1.52414651e-11
1.53612371e-11
0.0267880041
0.0933113422
0.756067736
0.767821481
0.332459652
0.272011361
0.0390934464
0.0334398173
0.00643606204
0.00592376167
0.000935441476
0.000905281501
0.000122806694
0.000122315359
1.53328167e-05
1.53544638e-05
2.28262055e-06
2.28846197e-06
8.38806363e-07
8.4005923e-07
6.93017685e-07
6.93035899e-07
6.79211006e-07
6.79216261e-07
6.78004845e-07
6.78006036e-07
6.77906987e-07
6.77907167e-07
6.77897779e-07
6.7789937e-07
6.77898285e-07
6.77898743e-07
6.7789723e-07
6.77900214e-07
6.77896546e-07
6.77898977e-07
6.77898343e-07
6.77897415e-07
6.77898258e-07
6.77897709e-07
6.77898352e-07
6.77897393e-07
6.77899137e-07
6.77897672e-07
6.7789858e-07
6.77898341e-07
6.77898614e-07
6.77898302e-07
6.77898073e-07
6.77898052e-07
6.77898803e-07
6.77897639e-07
6.77898953e-07
6.77897783e-07
6.77898555e-07
6.77898754e-07
6.77897904e-07
6.77898635e-07
6.77897977e-07
6.77898276e-07
6.77898039e-07
6.77898625e-07
6.77897883e-07
6.77898427e-07
6.77898241e-07
6.77898104e-07
6.77898841e-07
6.77898014e-07
6.77898182e-07
6.77897307e-07
6.77898161e-07
6.77897605e-07
6.77897453e-07
6.77899061e-07
6.77897171e-07
6.77899642e-07
6.77897913e-07
6.77899344e-07
6.77898497e-07
6.77898867e-07
6.77897716e-07
6.77899163e-07
6.77897417e-07
6.77899092e-07
6.77897677e-07
6.77898818e-07
6.77898252e-07
6.77897455e-07
6.77898541e-07
6.77897325e-07
6.77899078e-07
6.778981e-07
6.77898528e-07
6.77898224e-07
6.77899149e-07
6.77898777e-07
6.77897915e-07
6.77898784e-07
6.77898798e-07
6.77898781e-07
6.77898303e-07
6.77898581e-07
6.77898702e-07
6.77899547e-07
6.77898018e-07
6.77898662e-07
6.77898378e-07
6.77898719e-07
6.77897775e-07
6.77898999e-07
6.77898033e-07
6.77897652e-07
6.77898432e-07
6.77898202e-07
6.7789773e-07
6.77898312e-07
6.77898151e-07
6.77899e-07
6.77898454e-07
6.77898886e-07
6.77898081e-07
6.77898917e-07
6.77897956e-07
6.77899342e-07
6.77898048e-07
6.77898814e-07
6.77897916e-07
6.77899198e-07
6.77897917e-07
6.77899235e-07
6.77898025e-07
6.77898702e-07
6.77899345e-07
6.7789942e-07
6.7789921e-07
6.77898307e-07
6.77900267e-07
6.77898e-07
6.77899324e-07
6.778982e-07
6.77898482e-07
6.77898208e-07
6.77898061e-07
6.77898036e-07
6.77898686e-07
6.77897964e-07
6.77898117e-07
6.77898263e-07
6.77899023e-07
6.77898073e-07
6.77899629e-07
6.77896856e-07
6.77900048e-07
6.77897821e-07
6.77899092e-07
6.77898807e-07
6.77898716e-07
6.77898268e-07
6.77899424e-07
6.77899367e-07
6.77899493e-07
6.77898286e-07
6.77899718e-07
6.77898219e-07
6.77899564e-07
6.77898968e-07
6.77898394e-07
6.77898632e-07
6.77899023e-07
6.77897785e-07
6.77899465e-07
6.77897672e-07
6.77898431e-07
6.77898398e-07
6.77899252e-07
6.7789881e-07
6.77899287e-07
6.77899314e-07
6.77898523e-07
6.77900193e-07
6.77899363e-07
6.7789987e-07
6.77899681e-07
6.77899266e-07
6.77899088e-07
6.77898817e-07
6.77898601e-07
6.77898806e-07
6.77898564e-07
6.77899557e-07
6.77898959e-07
6.7789802e-07
6.7789999e-07
6.77898662e-07
6.77899618e-07
6.77898606e-07
6.77899111e-07
6.77898338e-07
6.77899504e-07
6.77898121e-07
6.77899904e-07
6.7789873e-07
6.77899637e-07
6.77898468e-07
6.77899556e-07
6.77899097e-07
6.77898988e-07
6.77898775e-07
6.77900259e-07
6.77899038e-07
6.778998e-07
6.77898784e-07
6.77899817e-07
6.77899372e-07
6.77899128e-07
6.77899663e-07
6.77898867e-07
6.77899728e-07
6.77898977e-07
6.77899839e-07
6.77898908e-07
6.7789939e-07
6.77898895e-07
6.77898691e-07
6.77898905e-07
6.77898413e-07
6.77899613e-07
6.77898857e-07
6.77899222e-07
6.77899949e-07
6.77899001e-07
6.77898943e-07
6.77899495e-07
6.77899657e-07
6.77899154e-07
6.77899524e-07
6.77899419e-07
6.77899646e-07
6.77899843e-07
6.77900171e-07
6.77899189e-07
6.77900102e-07
6.77899745e-07
6.77899497e-07
6.7789908e-07
6.77899916e-07
6.77898918e-07
6.7789959e-07
6.7789852e-07
6.77898786e-07
6.77899575e-07
6.77899511e-07
6.77899517e-07
6.77899317e-07
6.77898871e-07
6.77900212e-07
6.77898902e-07
6.77900336e-07
6.7789973e-07
6.77899028e-07
6.77899804e-07
6.77899877e-07
6.7789983e-07
6.77899343e-07
6.77900758e-07
6.77899019e-07
6.77899167e-07
6.77898872e-07
6.77899904e-07
6.77898121e-07
6.77900594e-07
6.77898705e-07
6.77899054e-07
6.77899862e-07
6.778992e-07
6.77900417e-07
6.77899614e-07
6.77899684e-07
6.77899841e-07
6.77899536e-07
6.77899622e-07
6.77898972e-07
6.77899343e-07
6.77899861e-07
6.77899235e-07
6.77899113e-07
6.77899063e-07
6.7789896e-07
6.77899577e-07
6.77899575e-07
6.77899349e-07
6.7789968e-07
6.77899627e-07
6.77899561e-07
6.77899785e-07
6.77899005e-07
6.77898939e-07
6.77899746e-07
6.77900115e-07
6.77900005e-07
6.7789954e-07
6.77899898e-07
6.77899376e-07
6.77900203e-07
6.77899268e-07
6.77900055e-07
6.7790001e-07
6.77899319e-07
6.77899927e-07
6.77900269e-07
6.77899871e-07
6.77899953e-07
6.77899604e-07
6.77899734e-07
6.77899116e-07
6.77899753e-07
6.77900382e-07
6.77898698e-07
6.77900849e-07
6.77899271e-07
6.77900074e-07
6.77899603e-07
6.77900261e-07
6.77899581e-07
6.77899782e-07
6.77899803e-07
6.77899764e-07
6.77900161e-07
6.7789983e-07
6.77900182e-07
6.77899554e-07
6.77900004e-07
6.77899618e-07
6.77899409e-07
6.77900141e-07
6.77899326e-07
6.77900159e-07
6.77899693e-07
6.77899024e-07
6.77900094e-07
6.77899564e-07
6.77899898e-07
6.77899394e-07
6.77900161e-07
6.77899897e-07
6.77900354e-07
6.77899505e-07
6.7790012e-07
6.77899828e-07
6.77899586e-07
6.77900438e-07
6.77900447e-07
6.77899287e-07
6.77899726e-07
6.77900538e-07
6.77899203e-07
6.7790085e-07
6.77899538e-07
6.77899715e-07
6.77899879e-07
6.77900555e-07
6.77899598e-07
6.77900534e-07
6.77899932e-07
6.77899743e-07
6.77900508e-07
6.77900129e-07
6.77900922e-07
6.77900409e-07
6.77901088e-07
6.77900281e-07
6.77900733e-07
6.77900369e-07
6.7790049e-07
6.77899751e-07
6.77900372e-07
6.77899792e-07
6.77900268e-07
6.77900519e-07
6.77900214e-07
6.77900583e-07
6.77900265e-07
6.77900591e-07
6.77900115e-07
6.77900328e-07
6.77899226e-07
6.77900357e-07
6.77899743e-07
6.77899864e-07
6.77900398e-07
6.7789993e-07
6.779003e-07
6.77899877e-07
6.7789984e-07
6.77900804e-07
6.77900165e-07
6.77901098e-07
6.77900293e-07
6.77900421e-07
6.77900302e-07
6.77900134e-07
6.7790019e-07
6.77899368e-07
6.77901384e-07
6.77899693e-07
6.77900613e-07
6.77899787e-07
6.77900993e-07
6.77900529e-07
6.77900398e-07
6.77900724e-07
6.77900695e-07
6.77900124e-07
6.77900739e-07
6.77900817e-07
6.77900376e-07
6.77900694e-07
6.77900451e-07
6.77900259e-07
6.7790064e-07
6.77900174e-07
6.77900969e-07
6.77899926e-07
6.77901122e-07
6.77901133e-07
6.77900581e-07
6.77900959e-07
6.77901022e-07
6.7790013e-07
6.77901191e-07
6.77900562e-07
6.77900899e-07
6.77900798e-07
6.77901227e-07
6.77900858e-07
6.77901072e-07
6.7790053e-07
6.77902078e-07
6.77900249e-07
6.77901676e-07
6.77900639e-07
6.77901036e-07
6.77900151e-07
6.7790125e-07
6.77900943e-07
6.77900955e-07
6.77900721e-07
6.77901898e-07
6.77901116e-07
6.77900467e-07
6.77900936e-07
6.77900672e-07
6.77901028e-07
6.77900511e-07
6.77901164e-07
6.7790144e-07
6.77900334e-07
6.77901484e-07
6.77900498e-07
6.77900562e-07
6.77900989e-07
6.77901453e-07
6.7789998e-07
6.77901558e-07
6.77900489e-07
6.77901819e-07
6.77900907e-07
6.7790075e-07
6.77901418e-07
6.77900949e-07
6.77901856e-07
6.77900705e-07
6.77900758e-07
6.77902161e-07
6.77899326e-07
6.77902395e-07
6.77900185e-07
6.77901823e-07
6.77900353e-07
6.77901354e-07
6.77900606e-07
6.77901533e-07
6.77900434e-07
6.77901134e-07
6.77900652e-07
6.77901322e-07
6.77901127e-07
6.779003e-07
6.77901895e-07
6.77900713e-07
6.77901918e-07
6.77901235e-07
6.77901456e-07
6.77901231e-07
6.77902649e-07
6.77899751e-07
6.77901962e-07
6.7790003e-07
6.77902576e-07
6.77899954e-07
6.77902142e-07
6.77900351e-07
6.77902748e-07
6.77901061e-07
6.77901496e-07
6.77901741e-07
6.77901345e-07
6.77901818e-07
6.77901563e-07
6.77901401e-07
6.77901598e-07
6.7790136e-07
6.77901628e-07
6.77901768e-07
6.77901855e-07
6.77901783e-07
6.77901441e-07
6.77901813e-07
6.77901685e-07
6.77901571e-07
6.77901952e-07
6.77901921e-07
6.77901969e-07
6.77901979e-07
6.77901969e-07
6.77901991e-07
6.77902134e-07
6.77902181e-07
6.77902207e-07
6.7790228e-07
6.77902323e-07
6.7790243e-07
6.77902492e-07
6.77902507e-07
6.7790261e-07
6.77902657e-07
6.77902647e-07
6.77902703e-07
6.77902759e-07
6.77902817e-07
6.77902818e-07
6.7790283e-07
6.77902869e-07
6.77902857e-07
6.77902868e-07
6.77902883e-07
6.7790289e-07
6.7790285e-07
6.77902898e-07
6.77902874e-07
6.77902875e-07
6.77902879e-07
6.77902882e-07
6.77902882e-07
6.77902895e-07
6.77902884e-07
6.77902886e-07
6.7790287e-07
6.7790286e-07
6.77902888e-07
6.77902872e-07
6.77902875e-07
6.77902884e-07
6.77902878e-07
6.77902888e-07
6.77902884e-07
6.7790288e-07
6.77902895e-07
6.77902874e-07
6.77902883e-07
6.77902871e-07
6.77902891e-07
6.77902884e-07
6.77902877e-07
6.77902887e-07
6.77902869e-07
6.77902864e-07
6.77902896e-07
)
;

boundaryField
{
    closed
    {
        type            calculated;
        value           uniform 0;
    }
    open
    {
        type            calculated;
        value           uniform 0;
    }
    sides
    {
        type            empty;
    }
}


// ************************************************************************* //
