/*--------------------------------*- C++ -*----------------------------------*\
| =========                 |                                                 |
| \\      /  F ield         | OpenFOAM: The Open Source CFD Toolbox           |
|  \\    /   O peration     | Version:  2206                                  |
|   \\  /    A nd           | Website:  www.openfoam.com                      |
|    \\/     M anipulation  |                                                 |
\*---------------------------------------------------------------------------*/
FoamFile
{
    version     2.0;
    format      ascii;
    arch        "LSB;label=32;scalar=64";
    class       volScalarField;
    location    "9.4e-06";
    object      sourcePV;
}
// * * * * * * * * * * * * * * * * * * * * * * * * * * * * * * * * * * * * * //

dimensions      [1 -3 -1 0 0 0 0];

internalField   nonuniform List<scalar> 
3183
(
0
0
0
0
0
0
0
0
0
0
0
0
0
0
0
0
0
0
0
0
0
0
0
0
0
0
0
0
0
0
0
0
0
0
0
0
0
0
0
0
0
0
0
0
0
0
0
0
0
0
0
0
0
0
0
0
0
0
0
0
0
0
0
0
0
0
0
0
0
0
0
0
0
0
0
0
0
0
0
0
0
0
0
0
0
0
0
0
0
0
0
0
0
0
0
0
0
0
0
0
0
0
0
0
0
0
0
0
0
0
0
0
0
0
0
0
0
0
0
0
0
0
0
0
0
0
0
0
0
0
0
0
0
0
0
0
0
0
0
0
0
0
0
0
0
0
0
0
0
0
0
0
0
0
0
0
0
0
0
0
0
0
0
0
0
0
0
0
0
0
0
0
0
0
0
0
0
0
0
0
0
0
0
0
0
0
0
0
0
0
0
0
0
0
0
0
0
0
0
0
0
0
0
0
0
0
0
0
0
0
0
0
0
0
0
0
0
0
0
0
0
0
0
0
0
0
0
0
0
0
0
0
0
0
0
0
0
0
0
0
0
0
0
0
0
0
0
0
0
0
0
0
0
0
0
0
0
0
0
0
0
0
0
0
0
0
0
0
0
0
0
0
0
0
0
0
0
0
0
0
0
0
0
0
0
0
0
0
0
0
0
0
0
0
0
0
0
0
0
0
0
0
0
0
0
0
0
0
0
0
0
0
0
0
0
0
0
0
0
0
0
0
0
0
0
0
0
0
0
0
0
0
0
0
0
0
0
0
0
0
0
0
0
0
0
0
0
0
0
0
0
0
0
0
0
0
0
0
0
0
0
0
0
0
0
0
0
0
0
0
0
0
0
0
0
0
0
0
0
0
0
0
0
0
0
0
0
0
0
0
0
0
0
0
0
0
0
0
0
0
0
0
0
0
0
0
0
0
0
0
0
0
0
0
0
0
0
0
0
0
0
0
0
0
0
0
0
0
0
0
0
0
0
0
0
0
0
0
0
0
0
0
0
0
0
0
0
0
0
0
0
0
0
0
0
0
0
0
0
0
0
0
0
0
0
0
0
0
0
0
0
0
0
0
0
0
0
0
0
0
0
0
0
0
0
0
0
0
0
0
0
0
0
0
0
0
0
0
0
0
0
0
0
0
0
0
0
0
0
0
0
0
0
0
0
0
0
0
0
0
0
0
0
0
0
0
0
0
0
0
0
0
0
0
0
0
0
0
0
0
0
0
0
0
0
0
0
0
0
0
0
0
0
0
0
0
0
0
0
0
0
0
0
0
0
0
0
0
0
0
0
0
0
0
0
0
0
0
0
0
0
0
0
0
0
0
0
0
0
0
0
0
0
0
0
0
0
0
0
0
0
0
0
0
0
0
0
0
0
0
0
0
0
0
0
0
0
0
0
0
0
0
0
0
0
0
0
0
0
0
0
0
0
0
0
0
0
0
0
0
0
0
0
0
0
0
0
0
0
0
0
0
0
0
0
0
0
0
0
0
0
0
0
0
0
0
0
0
0
0
0
0
0
0
0
0
0
0
0
0
0
0
0
0
0
0
0
0
0
0
0
0
0
0
0
0
0
0
0
0
0
0
0
0
0
0
0
0
0
0
0
0
0
0
0
0
0
0
0
0
0
0
0
0
0
0
0
0
0
0
0
0
0
0
0
0
0
0
0
0
0
0
0
0
0
0
0
0
0
0
0
0
0
0
0
0
0
0
0
0
0
0
0
0
0
0
0
0
0
0
0
0
0
0
0
0
0
0
0
0
0
0
0
0
0
0
0
0
0
0
0
0
0
0
0
0
0
0
0
0
0
0
0
0
0
0
0
0
0
0
0
0
0
0
0
0
0
0
0
0
0
0
0
0
0
0
0
0
0
0
0
0
0
0
0
0
0
0
0
0
0
0
0
0
0
0
0
0
0
0
0
0
0
0
0
0
0
0
0
0
0
0
0
0
0
0
0
0
0
0
0
0
0
0
0
0
0
0
0
0
0
0
0
0
0
0
0
0
0
0
0
0
0
0
0
0
0
0
0
0
0
0
0
0
0
0
0
0
0
0
0
0
0
0
0
0
0
0
0
0
0
0
0
0
0
0
0
0
0
0
0
0
0
0
0
0
0
0
0
0
0
0
0
0
0
0
0
0
0
0
0
0
0
0
0
0
0
0
0
0
0
0
0
0
0
0
0
0
0
0
0
0
0
0
0
0
0
0
0
0
0
0
0
0
0
0
0
0
0
0
0
0
0
0
0
0
0
0
0
0
0
0
0
0
0
0
0
0
0
0
0
0
0
0
0
0
0
0
0
0
0
0
0
0
0
0
0
0
0
0
0
0
0
0
0
0
0
0
0
0
0
0
0
0
0
0
0
0
0
0
0
0
0
0
0
0
0
0
0
0
0
0
0
0
0
0
0
0
0
0
0
0
0
0
0
0
0
0
0
0
0
0
0
0
0
0
0
0
0
0
0
0
0
0
0
0
0
0
0
0
0
0
0
0
0
0
0
0
0
0
0
0
0
0
0
0
0
0
0
0
0
0
0
0
0
0
0
0
0
0
0
0
0
0
0
0
0
0
0
0
0
0
0
0
0
0
0
0
0
0
0
0
0
0
0
0
0
0
0
0
0
0
0
0
0
0
0
0
0
0
0
0
0
0
0
0
0
0
0
0
0
0
0
0
0
0
0
0
0
0
0
0
0
0
0
0
0
0
0
0
0
0
0
0
0
0
0
0
0
0
0
0
0
0
0
0
0
0
0
0
0
0
0
0
0
0
0
0
0
0
0
0
0
0
0
0
0
0
0
0
0
0
0
0
0
0
0
0
0
0
0
0
0
0
0
0
0
0
0
0
0
0
0
0
0
0
0
0
0
0
0
0
0
0
0
0
0
0
0
0
0
0
0
0
0
0
0
0
0
0
0
0
0
0
0
0
0
0
0
0
0
0
0
0
0
0
0
0
0
0
0
0
0
0
0
0
0
0
0
0
0
0
0
0
0
0
0
0
0
0
0
0
0
0
0
0
0
0
0
0
0
0
0
0
0
0
0
0
0
0
0
0
0
0
0
0
0
0
0
0
0
0
0
0
0
0
0
0
0
0
0
0
0
0
0
0
0
0
0
0
0
0
0
0
0
0
0
0
0
0
0
0
0
0
0
0
0
0
0
0
0
0
0
0
0
0
0
0
0
0
0
0
0
0
0
0
0
0
0
0
0
0
0
0
0
0
0
0
0
0
0
0
0
0
0
0
0
0
0
0
0
0
0
0
0
0
0
0
0
0
0
0
0
0
0
0
0
0
0
0
0
0
0
0
0
0
0
0
0
0
0
0
0
0
0
0
0
0
0
0
0
0
0
0
0
0
0
0
0
0
0
0
0
0
0
0
0
0
0
0
0
0
0
0
0
0
0
0
0
0
0
0
0
0
0
0
0
0
0
0
0
0
0
0
0
0
0
0
0
0
0
0
0
0
0
0
0
0
0
0
0
0
0
0
0
0
0
0
0
0
0
0
0
0
0
0
0
0
0
0
0
0
0
0
0
0
0
0
0
0
0
0
0
0
0
0
0
0
0
0
0
0
0
0
0
0
0
0
0
0
0
0
0
0
0
0
0
0
0
0
0
0
0
0
0
0
0
0
0
0
0
0
0
0
0
0
0
0
0
0
0
0
0
0
0
0
0
0
0
0
0
0
0
0
0
0
0
0
0
0
0
0
0
0
0
0
0
0
0
0
0
0
0
0
0
0
0
0
0
0
0
0
0
0
0
0
0
0
0
0
0
0
0
0
0
0
0
0
0
0
0
0
0
0
0
0
0
0
0
0
0
0
0
0
0
0
0
0
0
0
0
0
0
0
0
0
0
0
0
0
0
0
0
0
0
0
0
0
0
0
0
0
0
0
0
0
0
0
0
0
0
0
0
0
0
0
0
0
0
0
0
0
0
0
0
0
0
0
0
0
0
0
0
0
0
0
0
0
0
0
0
0
0
0
0
0
0
0
0
0
0
0
0
0
0
0
0
0
0
0
0
0
0
0
0
0
0
0
0
0
0
0
0
0
0
0
0
0
0
0
0
0
0
0
0
0
0
0
0
0
0
0
0
0
0
0
0
0
0
0
0
0
0
0
0
0
0
0
0
0
0
0
0
0
0
0
0
0
0
0
0
0
0
0
0
0
0
0
0
0
0
0
0
0
0
0
0
0
0
0
0
0
0
0
0
0
0
0
0
0
0
0
0
0
0
0
0
0
0
0
0
0
0
0
0
0
0
0
0
0
0
0
0
0
0
0
0
0
0
0
0
0
0
0
0
0
0
0
0
0
0
0
0
0
0
0
0
0
0
0
0
0
0
0
0
0
0
0
0
0
0
0
0
0
0
0
0
0
0
0
0
0
0
0
0
0
0
0
0
0
0
0
0
0
0
0
0
0
0
0
0
0
0
0
0
0
0
0
0
0
0
0
0
0
0
0
0
0
0
0
0
0
0
0
0
0
0
0
0
0
0
0
0
0
0
0
0
0
0
0
0
0
0
0
0
0
0
0
0
0
0
0
0
0
0
0
0
0
0
0
0
0
0
0
0
0
0
0
0
0
0
0
0
0
0
0
0
0
0
0
0
0
0
0
0
0
0
0
0
0
0
0
0
0
0
0
0
0
0
0
0
0
0
0
0
0
0
0
0
0
0
0
0
0
0
0
0
0
0
0
0
0
0
0
0
0
0
0
0
0
0
0
0
0
0
0
0
0
0
0
0
0
0
0
0
0
0
0
0
0
0
0
0
0
0
0
0
0
0
0
0
0
0
0
0
0
0
0
0
0
0
0
0
0
0
0
0
0
0
0
0
0
0
0
0
0
0
0
0
0
0
0
0
0
0
0
0
0
0
0
0
0
0
0
0
0
0
0
0
0
0
0
0
0
0
0
0
0
0
0
0
0
0
0
0
0
0
0
0
0
0
0
0
0
0
0
0
0
0
0
0
0
0
0
0
0
0
0
0
0
0
0
0
0
0
0
0
0
0
0
0
0
0
0
0
0
0
0
0
0
0
0
0
0
0
0
0
0
0
0
0
0
0
0
0
0
0
0
0
0
0
0
0
0
0
0
0
0
0
0
0
0
0
0
0
0
0
0
0
0
0
0
0
0
0
0
0
0
0
0
0
0
0
0
0
0
0
0
0
0
0
0
0
0
0
0
0
0
0
0
0
0
0
0
0
0
0
0
0
0
0
0
0
0
0
0
0
0
0
0
0
0
0
0
0
0
0
0
0
0
0
0
0
0
0
0
0
0
0
0
0
0
0
0
0
0
0
0
0
0
0
0
0
0
0
0
0
0
0
0
0
0
0
0
0
0
0
0
0
0
0
0
0
0
0
0
0
0
0
4.85129389e-300
0
6.22028205e-297
0
7.757689e-294
0
9.41833035e-291
0
1.11392985e-287
0
1.28435002e-284
0
1.4445357e-281
0
1.58580787e-278
0
1.70016264e-275
0
1.78103254e-272
0
1.82391088e-269
0
1.82675743e-266
0
1.79013631e-263
0
1.71707791e-260
0
1.61269578e-257
0
1.48362191e-254
2.28690013e-256
1.33734287e-251
4.69236974e-253
1.18152435e-248
6.36463632e-250
1.02340234e-245
7.35103521e-247
8.69300047e-243
7.7400993e-244
7.24304324e-240
7.64549108e-241
5.92109757e-237
7.19059369e-238
4.75016129e-234
6.49547596e-235
3.74049102e-231
5.6672402e-232
2.89165386e-228
4.79407043e-229
2.19502361e-225
3.94273174e-226
1.63636347e-222
3.15888734e-223
1.19821696e-219
2.4694113e-220
8.6192369e-217
1.88585649e-217
6.09168896e-214
1.40834191e-214
4.23053738e-211
1.02929907e-211
2.88729572e-208
7.36713601e-209
1.93673267e-205
5.16680431e-206
1.27694274e-202
3.55235735e-203
8.27624135e-200
2.39528533e-200
5.27336197e-197
1.58450425e-197
3.30341878e-194
1.02861693e-194
2.03463469e-191
6.55463884e-192
1.23218942e-188
4.10085196e-189
7.3376085e-186
2.51948435e-186
4.29666853e-183
1.52030853e-183
2.47411616e-180
9.01143674e-181
1.40096205e-177
5.24745684e-178
7.80107288e-175
3.00218828e-175
4.27173298e-172
1.6876989e-172
2.30023541e-169
9.32280168e-170
1.21801325e-166
5.06071578e-167
6.34209691e-164
2.69963215e-164
3.24713928e-161
1.4152441e-161
1.63470202e-158
7.29110447e-159
8.09142015e-156
3.69135577e-156
3.93762643e-153
1.83653414e-153
1.88381937e-150
8.97877615e-151
8.85944536e-148
4.31339815e-148
4.09543413e-145
2.03601143e-145
1.86071159e-142
9.44208556e-143
8.30805361e-140
4.30176119e-140
3.64511925e-137
1.92519035e-137
1.57131435e-134
8.46258717e-135
6.65419221e-132
3.65327582e-132
2.76787058e-129
1.54865209e-129
1.130698e-126
6.44546156e-127
4.53549699e-124
2.63338193e-124
1.7860848e-121
1.05598636e-121
6.90389183e-119
4.15533637e-119
2.61884818e-116
1.60424187e-116
9.74662975e-114
6.07512125e-114
3.55814021e-111
2.25610918e-111
1.27381283e-108
8.21441339e-109
4.4707887e-106
2.93148507e-106
1.53791603e-103
1.02510572e-103
5.18342155e-101
3.51144478e-101
1.7111664e-98
1.17786711e-98
5.5310354e-96
3.86764944e-96
1.74982805e-93
1.24272404e-93
5.41606829e-91
3.90574691e-91
1.63940309e-88
1.20018448e-88
4.85065363e-86
3.60417509e-86
1.40221186e-83
1.05721383e-83
3.95818913e-81
3.02752983e-81
1.09044312e-78
8.45931733e-79
2.93000881e-76
2.30482357e-76
7.67379553e-74
6.11940989e-74
1.95758659e-71
1.58213204e-71
4.86039034e-69
3.98019777e-69
1.17355644e-66
9.73499546e-67
2.75317037e-64
2.31284494e-64
6.26958841e-62
5.33229398e-62
1.3844121e-59
1.19173115e-59
2.96083464e-57
2.5789153e-57
6.12548357e-55
5.39685944e-55
1.22418158e-52
1.09065503e-52
2.35978008e-50
2.125259e-50
4.38014732e-48
3.98639412e-48
7.81426569e-46
7.1841822e-46
1.33710992e-43
1.24134919e-43
2.18933989e-41
2.05168567e-41
3.42124963e-39
3.23503287e-39
5.08728577e-37
4.85169627e-37
7.17358542e-35
6.8970803e-35
9.55495466e-33
9.25713148e-33
1.19668192e-30
1.16769311e-30
1.40169847e-28
1.3767919e-28
1.5257469e-26
1.50756945e-26
1.53149693e-24
1.52091124e-24
1.40426856e-22
1.39950357e-22
1.16237315e-20
1.15918377e-20
8.55475803e-19
8.49075576e-19
5.48659845e-17
5.38133152e-17
2.98232757e-15
2.94168595e-15
1.31844996e-13
1.30239463e-13
4.44387996e-12
4.46134368e-12
2.9746144e-09
2.99375361e-09
0.548159394
1.71594334
10.2213701
10.1021851
4.01627565
3.26823958
0.459403254
0.392755028
0.0755923872
0.0695753523
0.0109868787
0.0106326458
0.00144237679
0.001436606
0.000180082037
0.000180336285
2.68057748e-05
2.6874383e-05
9.84798814e-06
9.86270322e-06
8.13568103e-06
8.13589495e-06
7.97351978e-06
7.97358149e-06
7.95935326e-06
7.95936724e-06
7.9582039e-06
7.95820602e-06
7.95809575e-06
7.95811444e-06
7.9581017e-06
7.95810708e-06
7.9580893e-06
7.95812435e-06
7.95808128e-06
7.95810982e-06
7.95810237e-06
7.95809148e-06
7.95810138e-06
7.95809493e-06
7.95810248e-06
7.95809122e-06
7.9581117e-06
7.95809449e-06
7.95810516e-06
7.95810235e-06
7.95810556e-06
7.9581019e-06
7.95809921e-06
7.95809896e-06
7.95810779e-06
7.95809411e-06
7.95810954e-06
7.9580958e-06
7.95810487e-06
7.9581072e-06
7.95809723e-06
7.95810581e-06
7.95809808e-06
7.95810159e-06
7.9580988e-06
7.95810569e-06
7.95809697e-06
7.95810336e-06
7.95810118e-06
7.95809957e-06
7.95810823e-06
7.95809851e-06
7.95810049e-06
7.9580902e-06
7.95810023e-06
7.95809371e-06
7.95809192e-06
7.95811082e-06
7.95808862e-06
7.95811764e-06
7.95809733e-06
7.95811413e-06
7.95810418e-06
7.95810853e-06
7.95809501e-06
7.95811201e-06
7.95809151e-06
7.95811118e-06
7.95809456e-06
7.95810796e-06
7.95810131e-06
7.95809195e-06
7.9581047e-06
7.95809042e-06
7.95811102e-06
7.95809952e-06
7.95810455e-06
7.95810098e-06
7.95811184e-06
7.95810748e-06
7.95809735e-06
7.95810755e-06
7.95810772e-06
7.95810752e-06
7.95810191e-06
7.95810517e-06
7.95810659e-06
7.95811652e-06
7.95809856e-06
7.95810612e-06
7.95810279e-06
7.95810679e-06
7.9580957e-06
7.95811008e-06
7.95809874e-06
7.95809426e-06
7.95810342e-06
7.95810072e-06
7.95809518e-06
7.95810201e-06
7.95810012e-06
7.95811009e-06
7.95810368e-06
7.95810876e-06
7.9580993e-06
7.95810912e-06
7.95809783e-06
7.95811411e-06
7.95809891e-06
7.95810791e-06
7.95809736e-06
7.95811242e-06
7.95809737e-06
7.95811286e-06
7.95809865e-06
7.9581066e-06
7.95811414e-06
7.95811503e-06
7.95811256e-06
7.95810195e-06
7.95812498e-06
7.95809835e-06
7.9581139e-06
7.9581007e-06
7.95810402e-06
7.9581008e-06
7.95809907e-06
7.95809877e-06
7.95810641e-06
7.95809793e-06
7.95809973e-06
7.95810144e-06
7.95811036e-06
7.95809921e-06
7.95811748e-06
7.95808491e-06
7.9581224e-06
7.95809625e-06
7.95811118e-06
7.95810783e-06
7.95810676e-06
7.95810149e-06
7.95811507e-06
7.95811441e-06
7.95811589e-06
7.95810171e-06
7.95811853e-06
7.95810092e-06
7.95811671e-06
7.95810971e-06
7.95810298e-06
7.95810577e-06
7.95811036e-06
7.95809583e-06
7.95811556e-06
7.95809449e-06
7.95810341e-06
7.95810302e-06
7.95811305e-06
7.95810786e-06
7.95811346e-06
7.95811378e-06
7.95810449e-06
7.95812411e-06
7.95811435e-06
7.95812032e-06
7.95811809e-06
7.95811322e-06
7.95811112e-06
7.95810794e-06
7.9581054e-06
7.95810782e-06
7.95810497e-06
7.95811664e-06
7.95810961e-06
7.95809858e-06
7.95812172e-06
7.95810612e-06
7.95811735e-06
7.95810547e-06
7.9581114e-06
7.95810232e-06
7.95811602e-06
7.95809977e-06
7.95812072e-06
7.95810693e-06
7.95811757e-06
7.95810385e-06
7.95811663e-06
7.95811124e-06
7.95810996e-06
7.95810745e-06
7.95812488e-06
7.95811054e-06
7.95811949e-06
7.95810755e-06
7.95811969e-06
7.95811446e-06
7.9581116e-06
7.95811788e-06
7.95810853e-06
7.95811864e-06
7.95810982e-06
7.95811994e-06
7.95810901e-06
7.95811467e-06
7.95810887e-06
7.95810646e-06
7.95810898e-06
7.9581032e-06
7.9581173e-06
7.95810841e-06
7.9581127e-06
7.95812124e-06
7.95811011e-06
7.95810943e-06
7.95811591e-06
7.95811782e-06
7.95811191e-06
7.95811625e-06
7.95811502e-06
7.95811768e-06
7.95812e-06
7.95812385e-06
7.95811232e-06
7.95812304e-06
7.95811884e-06
7.95811593e-06
7.95811104e-06
7.95812086e-06
7.95810913e-06
7.95811702e-06
7.95810446e-06
7.95810758e-06
7.95811685e-06
7.9581161e-06
7.95811616e-06
7.95811382e-06
7.95810858e-06
7.95812433e-06
7.95810894e-06
7.95812579e-06
7.95811866e-06
7.95811042e-06
7.95811954e-06
7.9581204e-06
7.95811984e-06
7.95811412e-06
7.95813074e-06
7.95811032e-06
7.95811205e-06
7.95810859e-06
7.95812072e-06
7.95809977e-06
7.95812882e-06
7.95810663e-06
7.95811073e-06
7.95812022e-06
7.95811245e-06
7.95812673e-06
7.95811731e-06
7.95811813e-06
7.95811998e-06
7.95811639e-06
7.9581174e-06
7.95810977e-06
7.95811412e-06
7.95812021e-06
7.95811286e-06
7.95811142e-06
7.95811084e-06
7.95810963e-06
7.95811687e-06
7.95811685e-06
7.95811419e-06
7.95811808e-06
7.95811746e-06
7.95811668e-06
7.95811932e-06
7.95811016e-06
7.95810937e-06
7.95811885e-06
7.9581232e-06
7.95812189e-06
7.95811644e-06
7.95812064e-06
7.95811451e-06
7.95812422e-06
7.95811324e-06
7.95812249e-06
7.95812196e-06
7.95811384e-06
7.95812098e-06
7.958125e-06
7.95812033e-06
7.95812129e-06
7.95811719e-06
7.95811872e-06
7.95811146e-06
7.95811894e-06
7.95812632e-06
7.95810655e-06
7.95813181e-06
7.95811328e-06
7.95812271e-06
7.95811718e-06
7.9581249e-06
7.95811692e-06
7.95811928e-06
7.95811952e-06
7.95811907e-06
7.95812373e-06
7.95811984e-06
7.95812398e-06
7.9581166e-06
7.95812188e-06
7.95811735e-06
7.95811489e-06
7.95812349e-06
7.95811393e-06
7.9581237e-06
7.95811824e-06
7.95811038e-06
7.95812294e-06
7.95811671e-06
7.95812064e-06
7.95811472e-06
7.95812374e-06
7.95812063e-06
7.95812599e-06
7.95811603e-06
7.95812325e-06
7.95811982e-06
7.95811698e-06
7.95812699e-06
7.95812709e-06
7.95811346e-06
7.95811862e-06
7.95812816e-06
7.95811248e-06
7.95813182e-06
7.95811642e-06
7.95811849e-06
7.95812042e-06
7.95812835e-06
7.95811712e-06
7.95812811e-06
7.95812104e-06
7.95811882e-06
7.9581278e-06
7.95812335e-06
7.95813266e-06
7.95812665e-06
7.95813462e-06
7.95812513e-06
7.95813045e-06
7.95812617e-06
7.95812759e-06
7.95811892e-06
7.9581262e-06
7.95811939e-06
7.95812499e-06
7.95812793e-06
7.95812435e-06
7.95812868e-06
7.95812495e-06
7.95812878e-06
7.95812319e-06
7.9581257e-06
7.95811275e-06
7.95812603e-06
7.95811882e-06
7.95812024e-06
7.95812651e-06
7.95812101e-06
7.95812537e-06
7.95812039e-06
7.95811997e-06
7.95813128e-06
7.95812378e-06
7.95813473e-06
7.95812528e-06
7.95812679e-06
7.95812539e-06
7.95812342e-06
7.95812408e-06
7.95811442e-06
7.9581381e-06
7.95811823e-06
7.95812904e-06
7.95811934e-06
7.9581335e-06
7.95812806e-06
7.95812651e-06
7.95813035e-06
7.95813001e-06
7.95812329e-06
7.95813051e-06
7.95813144e-06
7.95812626e-06
7.95813e-06
7.95812714e-06
7.95812488e-06
7.95812936e-06
7.95812388e-06
7.95813323e-06
7.95812097e-06
7.95813502e-06
7.95813514e-06
7.95812866e-06
7.9581331e-06
7.95813384e-06
7.95812337e-06
7.95813583e-06
7.95812844e-06
7.9581324e-06
7.95813121e-06
7.95813625e-06
7.95813191e-06
7.95813443e-06
7.95812807e-06
7.95814624e-06
7.95812476e-06
7.95814152e-06
7.95812935e-06
7.95813401e-06
7.95812361e-06
7.95813652e-06
7.95813292e-06
7.95813306e-06
7.9581303e-06
7.95814413e-06
7.95813494e-06
7.95812733e-06
7.95813283e-06
7.95812973e-06
7.95813391e-06
7.95812785e-06
7.95813551e-06
7.95813875e-06
7.95812576e-06
7.95813927e-06
7.95812769e-06
7.95812844e-06
7.95813346e-06
7.9581389e-06
7.95812161e-06
7.95814014e-06
7.95812758e-06
7.9581432e-06
7.9581325e-06
7.95813065e-06
7.95813849e-06
7.95813298e-06
7.95814364e-06
7.95813012e-06
7.95813075e-06
7.95814722e-06
7.95811392e-06
7.95814997e-06
7.95812401e-06
7.95814326e-06
7.95812598e-06
7.95813774e-06
7.95812896e-06
7.95813985e-06
7.95812693e-06
7.95813516e-06
7.9581295e-06
7.95813737e-06
7.95813508e-06
7.95812537e-06
7.95814409e-06
7.95813022e-06
7.95814437e-06
7.95813634e-06
7.95813895e-06
7.9581363e-06
7.95815296e-06
7.95811892e-06
7.95814489e-06
7.95812219e-06
7.9581521e-06
7.9581213e-06
7.95814699e-06
7.95812596e-06
7.95815411e-06
7.9581343e-06
7.95813941e-06
7.95814229e-06
7.95813763e-06
7.95814319e-06
7.95814019e-06
7.9581383e-06
7.95814061e-06
7.95813781e-06
7.95814096e-06
7.95814261e-06
7.95814363e-06
7.95814278e-06
7.95813877e-06
7.95814313e-06
7.95814164e-06
7.95814029e-06
7.95814477e-06
7.9581444e-06
7.95814497e-06
7.95814508e-06
7.95814497e-06
7.95814523e-06
7.9581469e-06
7.95814746e-06
7.95814776e-06
7.95814861e-06
7.95814912e-06
7.95815038e-06
7.9581511e-06
7.95815128e-06
7.95815249e-06
7.95815304e-06
7.95815293e-06
7.95815358e-06
7.95815425e-06
7.95815493e-06
7.95815494e-06
7.95815508e-06
7.95815553e-06
7.95815539e-06
7.95815552e-06
7.9581557e-06
7.95815579e-06
7.95815531e-06
7.95815588e-06
7.95815559e-06
7.9581556e-06
7.95815566e-06
7.95815569e-06
7.95815569e-06
7.95815584e-06
7.95815571e-06
7.95815573e-06
7.95815555e-06
7.95815542e-06
7.95815576e-06
7.95815557e-06
7.9581556e-06
7.95815571e-06
7.95815564e-06
7.95815576e-06
7.95815571e-06
7.95815567e-06
7.95815584e-06
7.95815559e-06
7.9581557e-06
7.95815556e-06
7.9581558e-06
7.95815571e-06
7.95815563e-06
7.95815574e-06
7.95815554e-06
7.95815548e-06
7.95815586e-06
)
;

boundaryField
{
    closed
    {
        type            calculated;
        value           uniform 0;
    }
    open
    {
        type            calculated;
        value           uniform 0;
    }
    sides
    {
        type            empty;
    }
}


// ************************************************************************* //
