/*--------------------------------*- C++ -*----------------------------------*\
| =========                 |                                                 |
| \\      /  F ield         | OpenFOAM: The Open Source CFD Toolbox           |
|  \\    /   O peration     | Version:  2206                                  |
|   \\  /    A nd           | Website:  www.openfoam.com                      |
|    \\/     M anipulation  |                                                 |
\*---------------------------------------------------------------------------*/
FoamFile
{
    version     2.0;
    format      ascii;
    arch        "LSB;label=32;scalar=64";
    class       volScalarField;
    location    "1.98e-05";
    object      rho;
}
// * * * * * * * * * * * * * * * * * * * * * * * * * * * * * * * * * * * * * //

dimensions      [1 -3 0 0 0 0 0];

internalField   nonuniform List<scalar> 
3183
(
1.03926466
1.03926466
1.03926466
1.03926466
1.03926466
1.03926466
1.03926466
1.03926466
1.03926466
1.03926466
1.03926466
1.03926466
1.03926466
1.03926466
1.03926466
1.03926466
1.03926466
1.03926466
1.03926466
1.03926466
1.03926466
1.03926466
1.03926466
1.03926466
1.03926466
1.03926466
1.03926466
1.03926466
1.03926466
1.03926466
1.03926466
1.03926466
1.03926466
1.03926466
1.03926466
1.03926466
1.03926466
1.03926466
1.03926466
1.03926466
1.03926466
1.03926466
1.03926466
1.03926466
1.03926466
1.03926466
1.03926466
1.03926466
1.03926466
1.03926466
1.03926466
1.03926466
1.03926466
1.03926466
1.03926466
1.03926466
1.03926466
1.03926466
1.03926466
1.03926466
1.03926466
1.03926466
1.03926466
1.03926466
1.03926466
1.03926466
1.03926466
1.03926466
1.03926466
1.03926466
1.03926466
1.03926466
1.03926466
1.03926466
1.03926466
1.03926466
1.03926466
1.03926466
1.03926466
1.03926466
1.03926466
1.03926466
1.03926466
1.03926466
1.03926466
1.03926466
1.03926466
1.03926466
1.03926466
1.03926466
1.03926466
1.03926466
1.03926466
1.03926466
1.03926466
1.03926466
1.03926466
1.03926466
1.03926466
1.03926466
1.03926466
1.03926466
1.03926466
1.03926466
1.03926466
1.03926466
1.03926466
1.03926466
1.03926466
1.03926466
1.03926466
1.03926466
1.03926466
1.03926466
1.03926466
1.03926466
1.03926466
1.03926466
1.03926466
1.03926466
1.03926466
1.03926466
1.03926466
1.03926466
1.03926466
1.03926466
1.03926466
1.03926466
1.03926466
1.03926466
1.03926466
1.03926466
1.03926466
1.03926466
1.03926466
1.03926466
1.03926466
1.03926466
1.03926466
1.03926466
1.03926466
1.03926466
1.03926466
1.03926466
1.03926466
1.03926466
1.03926466
1.03926466
1.03926466
1.03926466
1.03926466
1.03926466
1.03926466
1.03926466
1.03926466
1.03926466
1.03926466
1.03926466
1.03926466
1.03926466
1.03926466
1.03926466
1.03926466
1.03926466
1.03926466
1.03926466
1.03926466
1.03926466
1.03926466
1.03926466
1.03926466
1.03926466
1.03926466
1.03926466
1.03926466
1.03926466
1.03926466
1.03926466
1.03926466
1.03926466
1.03926466
1.03926466
1.03926466
1.03926466
1.03926466
1.03926466
1.03926466
1.03926466
1.03926466
1.03926466
1.03926466
1.03926466
1.03926466
1.03926466
1.03926466
1.03926466
1.03926466
1.03926466
1.03926466
1.03926466
1.03926466
1.03926466
1.03926466
1.03926466
1.03926466
1.03926466
1.03926466
1.03926466
1.03926466
1.03926466
1.03926466
1.03926466
1.03926466
1.03926466
1.03926466
1.03926466
1.03926466
1.03926466
1.03926466
1.03926466
1.03926466
1.03926466
1.03926466
1.03926466
1.03926466
1.03926466
1.03926466
1.03926466
1.03926466
1.03926466
1.03926466
1.03926466
1.03926466
1.03926466
1.03926466
1.03926466
1.03926466
1.03926466
1.03926466
1.03926466
1.03926466
1.03926466
1.03926466
1.03926466
1.03926466
1.03926466
1.03926466
1.03926466
1.03926466
1.03926466
1.03926466
1.03926466
1.03926466
1.03926466
1.03926466
1.03926466
1.03926466
1.03926466
1.03926466
1.03926466
1.03926466
1.03926466
1.03926466
1.03926466
1.03926466
1.03926466
1.03926466
1.03926466
1.03926466
1.03926466
1.03926466
1.03926466
1.03926466
1.03926466
1.03926466
1.03926466
1.03926466
1.03926466
1.03926466
1.03926466
1.03926466
1.03926466
1.03926466
1.03926466
1.03926466
1.03926466
1.03926466
1.03926466
1.03926466
1.03926466
1.03926466
1.03926466
1.03926466
1.03926466
1.03926466
1.03926466
1.03926466
1.03926466
1.03926466
1.03926466
1.03926466
1.03926466
1.03926466
1.03926466
1.03926466
1.03926466
1.03926466
1.03926466
1.03926466
1.03926466
1.03926466
1.03926466
1.03926466
1.03926466
1.03926466
1.03926466
1.03926466
1.03926466
1.03926466
1.03926466
1.03926466
1.03926466
1.03926466
1.03926466
1.03926466
1.03926466
1.03926466
1.03926466
1.03926466
1.03926466
1.03926466
1.03926466
1.03926466
1.03926466
1.03926466
1.03926466
1.03926466
1.03926466
1.03926466
1.03926466
1.03926466
1.03926466
1.03926466
1.03926466
1.03926466
1.03926466
1.03926466
1.03926466
1.03926466
1.03926466
1.03926466
1.03926466
1.03926466
1.03926466
1.03926466
1.03926466
1.03926466
1.03926466
1.03926466
1.03926466
1.03926466
1.03926466
1.03926466
1.03926466
1.03926466
1.03926466
1.03926466
1.03926466
1.03926466
1.03926466
1.03926466
1.03926466
1.03926466
1.03926466
1.03926466
1.03926466
1.03926466
1.03926466
1.03926466
1.03926466
1.03926466
1.03926466
1.03926466
1.03926466
1.03926466
1.03926466
1.03926466
1.03926466
1.03926466
1.03926466
1.03926466
1.03926466
1.03926466
1.03926466
1.03926466
1.03926466
1.03926466
1.03926466
1.03926466
1.03926466
1.03926466
1.03926466
1.03926466
1.03926466
1.03926466
1.03926466
1.03926466
1.03926466
1.03926466
1.03926466
1.03926466
1.03926466
1.03926466
1.03926466
1.03926466
1.03926466
1.03926466
1.03926466
1.03926466
1.03926466
1.03926466
1.03926466
1.03926466
1.03926466
1.03926466
1.03926466
1.03926466
1.03926466
1.03926466
1.03926466
1.03926466
1.03926466
1.03926466
1.03926466
1.03926466
1.03926466
1.03926466
1.03926466
1.03926466
1.03926466
1.03926466
1.03926466
1.03926466
1.03926466
1.03926466
1.03926466
1.03926466
1.03926466
1.03926466
1.03926466
1.03926466
1.03926466
1.03926466
1.03926466
1.03926466
1.03926466
1.03926466
1.03926466
1.03926466
1.03926466
1.03926466
1.03926466
1.03926466
1.03926466
1.03926466
1.03926466
1.03926466
1.03926466
1.03926466
1.03926466
1.03926466
1.03926466
1.03926466
1.03926466
1.03926466
1.03926466
1.03926466
1.03926466
1.03926466
1.03926466
1.03926466
1.03926466
1.03926466
1.03926466
1.03926466
1.03926466
1.03926466
1.03926466
1.03926466
1.03926466
1.03926466
1.03926466
1.03926466
1.03926466
1.03926466
1.03926466
1.03926466
1.03926466
1.03926466
1.03926466
1.03926466
1.03926466
1.03926466
1.03926466
1.03926466
1.03926466
1.03926466
1.03926466
1.03926466
1.03926466
1.03926466
1.03926466
1.03926466
1.03926466
1.03926466
1.03926466
1.03926466
1.03926466
1.03926466
1.03926466
1.03926466
1.03926466
1.03926466
1.03926466
1.03926466
1.03926466
1.03926466
1.03926466
1.03926466
1.03926466
1.03926466
1.03926466
1.03926466
1.03926466
1.03926466
1.03926466
1.03926466
1.03926466
1.03926466
1.03926466
1.03926466
1.03926466
1.03926466
1.03926466
1.03926466
1.03926466
1.03926466
1.03926466
1.03926466
1.03926466
1.03926466
1.03926466
1.03926466
1.03926466
1.03926466
1.03926466
1.03926466
1.03926466
1.03926466
1.03926466
1.03926466
1.03926466
1.03926466
1.03926466
1.03926466
1.03926466
1.03926466
1.03926466
1.03926466
1.03926466
1.03926466
1.03926466
1.03926466
1.03926466
1.03926466
1.03926466
1.03926466
1.03926466
1.03926466
1.03926466
1.03926466
1.03926466
1.03926466
1.03926466
1.03926466
1.03926466
1.03926466
1.03926466
1.03926466
1.03926466
1.03926466
1.03926466
1.03926466
1.03926466
1.03926466
1.03926466
1.03926466
1.03926466
1.03926466
1.03926466
1.03926466
1.03926466
1.03926466
1.03926466
1.03926466
1.03926466
1.03926466
1.03926466
1.03926466
1.03926466
1.03926466
1.03926466
1.03926466
1.03926466
1.03926466
1.03926466
1.03926466
1.03926466
1.03926466
1.03926466
1.03926466
1.03926466
1.03926466
1.03926466
1.03926466
1.03926466
1.03926466
1.03926466
1.03926466
1.03926466
1.03926466
1.03926466
1.03926466
1.03926466
1.03926466
1.03926466
1.03926466
1.03926466
1.03926466
1.03926466
1.03926466
1.03926466
1.03926466
1.03926466
1.03926466
1.03926466
1.03926466
1.03926466
1.03926466
1.03926466
1.03926466
1.03926466
1.03926466
1.03926466
1.03926466
1.03926466
1.03926466
1.03926466
1.03926466
1.03926466
1.03926466
1.03926466
1.03926466
1.03926466
1.03926466
1.03926466
1.03926466
1.03926466
1.03926466
1.03926466
1.03926466
1.03926466
1.03926466
1.03926466
1.03926466
1.03926466
1.03926466
1.03926466
1.03926466
1.03926466
1.03926466
1.03926466
1.03926466
1.03926466
1.03926466
1.03926466
1.03926466
1.03926466
1.03926466
1.03926466
1.03926466
1.03926466
1.03926466
1.03926466
1.03926466
1.03926466
1.03926466
1.03926466
1.03926466
1.03926466
1.03926466
1.03926466
1.03926466
1.03926466
1.03926466
1.03926466
1.03926466
1.03926466
1.03926466
1.03926466
1.03926466
1.03926466
1.03926466
1.03926466
1.03926466
1.03926466
1.03926466
1.03926466
1.03926466
1.03926466
1.03926466
1.03926466
1.03926466
1.03926466
1.03926466
1.03926466
1.03926466
1.03926466
1.03926466
1.03926466
1.03926466
1.03926466
1.03926466
1.03926466
1.03926466
1.03926466
1.03926466
1.03926466
1.03926466
1.03926466
1.03926466
1.03926466
1.03926466
1.03926466
1.03926466
1.03926466
1.03926466
1.03926466
1.03926466
1.03926466
1.03926466
1.03926466
1.03926466
1.03926466
1.03926466
1.03926466
1.03926466
1.03926466
1.03926466
1.03926466
1.03926466
1.03926466
1.03926466
1.03926466
1.03926466
1.03926466
1.03926466
1.03926466
1.03926466
1.03926466
1.03926466
1.03926466
1.03926466
1.03926466
1.03926466
1.03926466
1.03926466
1.03926466
1.03926466
1.03926466
1.03926466
1.03926466
1.03926466
1.03926466
1.03926466
1.03926466
1.03926466
1.03926466
1.03926466
1.03926466
1.03926466
1.03926466
1.03926466
1.03926466
1.03926466
1.03926466
1.03926466
1.03926466
1.03926466
1.03926466
1.03926466
1.03926466
1.03926466
1.03926466
1.03926466
1.03926466
1.03926466
1.03926466
1.03926466
1.03926466
1.03926466
1.03926466
1.03926466
1.03926466
1.03926466
1.03926466
1.03926466
1.03926466
1.03926466
1.03926466
1.03926466
1.03926466
1.03926466
1.03926466
1.03926466
1.03926466
1.03926466
1.03926466
1.03926466
1.03926466
1.03926466
1.03926466
1.03926466
1.03926466
1.03926466
1.03926466
1.03926466
1.03926466
1.03926466
1.03926466
1.03926466
1.03926466
1.03926466
1.03926466
1.03926466
1.03926466
1.03926466
1.03926466
1.03926466
1.03926466
1.03926466
1.03926466
1.03926466
1.03926466
1.03926466
1.03926466
1.03926466
1.03926466
1.03926466
1.03926466
1.03926466
1.03926466
1.03926466
1.03926466
1.03926466
1.03926466
1.03926466
1.03926466
1.03926466
1.03926466
1.03926466
1.03926466
1.03926466
1.03926466
1.03926466
1.03926466
1.03926466
1.03926466
1.03926466
1.03926466
1.03926466
1.03926466
1.03926466
1.03926466
1.03926466
1.03926466
1.03926466
1.03926466
1.03926466
1.03926466
1.03926466
1.03926466
1.03926466
1.03926466
1.03926466
1.03926466
1.03926466
1.03926466
1.03926466
1.03926466
1.03926466
1.03926466
1.03926466
1.03926466
1.03926466
1.03926466
1.03926466
1.03926466
1.03926466
1.03926466
1.03926466
1.03926466
1.03926466
1.03926466
1.03926466
1.03926466
1.03926466
1.03926466
1.03926466
1.03926466
1.03926466
1.03926466
1.03926466
1.03926466
1.03926466
1.03926466
1.03926466
1.03926466
1.03926466
1.03926466
1.03926466
1.03926466
1.03926466
1.03926466
1.03926466
1.03926466
1.03926466
1.03926466
1.03926466
1.03926466
1.03926466
1.03926466
1.03926466
1.03926466
1.03926466
1.03926466
1.03926466
1.03926466
1.03926466
1.03926466
1.03926466
1.03926466
1.03926466
1.03926466
1.03926466
1.03926466
1.03926466
1.03926466
1.03926466
1.03926466
1.03926466
1.03926466
1.03926466
1.03926466
1.03926466
1.03926466
1.03926466
1.03926466
1.03926466
1.03926466
1.03926466
1.03926466
1.03926466
1.03926466
1.03926466
1.03926466
1.03926466
1.03926466
1.03926466
1.03926466
1.03926466
1.03926466
1.03926466
1.03926466
1.03926466
1.03926466
1.03926466
1.03926466
1.03926466
1.03926466
1.03926466
1.03926466
1.03926466
1.03926466
1.03926466
1.03926466
1.03926466
1.03926466
1.03926466
1.03926466
1.03926466
1.03926466
1.03926466
1.03926466
1.03926466
1.03926466
1.03926466
1.03926466
1.03926466
1.03926466
1.03926466
1.03926466
1.03926466
1.03926466
1.03926466
1.03926466
1.03926466
1.03926466
1.03926466
1.03926466
1.03926466
1.03926466
1.03926466
1.03926466
1.03926466
1.03926466
1.03926466
1.03926466
1.03926466
1.03926466
1.03926466
1.03926466
1.03926466
1.03926466
1.03926466
1.03926466
1.03926466
1.03926466
1.03926466
1.03926466
1.03926466
1.03926466
1.03926466
1.03926466
1.03926466
1.03926466
1.03926466
1.03926466
1.03926466
1.03926466
1.03926466
1.03926466
1.03926466
1.03926466
1.03926466
1.03926466
1.03926466
1.03926466
1.03926466
1.03926466
1.03926466
1.03926466
1.03926466
1.03926466
1.03926466
1.03926466
1.03926466
1.03926466
1.03926466
1.03926466
1.03926466
1.03926466
1.03926466
1.03926466
1.03926466
1.03926466
1.03926466
1.03926466
1.03926466
1.03926466
1.03926466
1.03926466
1.03926466
1.03926466
1.03926466
1.03926466
1.03926466
1.03926466
1.03926466
1.03926466
1.03926466
1.03926466
1.03926466
1.03926466
1.03926466
1.03926466
1.03926466
1.03926466
1.03926466
1.03926466
1.03926466
1.03926466
1.03926466
1.03926466
1.03926466
1.03926466
1.03926466
1.03926466
1.03926466
1.03926466
1.03926466
1.03926466
1.03926466
1.03926466
1.03926466
1.03926466
1.03926466
1.03926466
1.03926466
1.03926466
1.03926466
1.03926466
1.03926466
1.03926466
1.03926466
1.03926466
1.03926466
1.03926466
1.03926466
1.03926466
1.03926466
1.03926466
1.03926466
1.03926466
1.03926466
1.03926466
1.03926466
1.03926466
1.03926466
1.03926466
1.03926466
1.03926466
1.03926466
1.03926466
1.03926466
1.03926466
1.03926466
1.03926466
1.03926466
1.03926466
1.03926466
1.03926466
1.03926466
1.03926466
1.03926466
1.03926466
1.03926466
1.03926466
1.03926466
1.03926466
1.03926466
1.03926466
1.03926466
1.03926466
1.03926466
1.03926466
1.03926466
1.03926466
1.03926466
1.03926466
1.03926466
1.03926466
1.03926466
1.03926466
1.03926466
1.03926466
1.03926466
1.03926466
1.03926466
1.03926466
1.03926466
1.03926466
1.03926466
1.03926466
1.03926466
1.03926466
1.03926466
1.03926466
1.03926466
1.03926466
1.03926466
1.03926466
1.03926466
1.03926466
1.03926466
1.03926466
1.03926466
1.03926466
1.03926466
1.03926466
1.03926466
1.03926466
1.03926466
1.03926466
1.03926466
1.03926466
1.03926466
1.03926466
1.03926466
1.03926466
1.03926466
1.03926466
1.03926466
1.03926466
1.03926466
1.03926466
1.03926466
1.03926466
1.03926466
1.03926466
1.03926466
1.03926466
1.03926466
1.03926466
1.03926466
1.03926466
1.03926466
1.03926466
1.03926466
1.03926466
1.03926466
1.03926466
1.03926466
1.03926466
1.03926466
1.03926466
1.03926466
1.03926466
1.03926466
1.03926466
1.03926466
1.03926466
1.03926466
1.03926466
1.03926466
1.03926466
1.03926466
1.03926466
1.03926466
1.03926466
1.03926466
1.03926466
1.03926466
1.03926466
1.03926466
1.03926466
1.03926466
1.03926466
1.03926466
1.03926466
1.03926466
1.03926466
1.03926466
1.03926466
1.03926466
1.03926466
1.03926466
1.03926466
1.03926466
1.03926466
1.03926466
1.03926466
1.03926466
1.03926466
1.03926466
1.03926466
1.03926466
1.03926466
1.03926466
1.03926466
1.03926466
1.03926466
1.03926466
1.03926466
1.03926466
1.03926466
1.03926466
1.03926466
1.03926466
1.03926466
1.03926466
1.03926466
1.03926466
1.03926466
1.03926466
1.03926466
1.03926466
1.03926466
1.03926466
1.03926466
1.03926466
1.03926466
1.03926466
1.03926466
1.03926466
1.03926466
1.03926466
1.03926466
1.03926466
1.03926466
1.03926466
1.03926466
1.03926466
1.03926466
1.03926466
1.03926466
1.03926466
1.03926466
1.03926466
1.03926466
1.03926466
1.03926466
1.03926466
1.03926466
1.03926466
1.03926466
1.03926466
1.03926466
1.03926466
1.03926466
1.03926466
1.03926466
1.03926466
1.03926466
1.03926466
1.03926466
1.03926466
1.03926466
1.03926466
1.03926466
1.03926466
1.03926466
1.03926466
1.03926466
1.03926466
1.03926466
1.03926466
1.03926466
1.03926466
1.03926466
1.03926466
1.03926466
1.03926466
1.03926466
1.03926466
1.03926466
1.03926466
1.03926466
1.03926466
1.03926466
1.03926466
1.03926466
1.03926466
1.03926466
1.03926466
1.03926466
1.03926466
1.03926466
1.03926466
1.03926466
1.03926466
1.03926466
1.03926466
1.03926466
1.03926466
1.03926466
1.03926466
1.03926466
1.03926466
1.03926466
1.03926466
1.03926466
1.03926466
1.03926466
1.03926466
1.03926466
1.03926466
1.03926466
1.03926466
1.03926466
1.03926466
1.03926466
1.03926466
1.03926466
1.03926466
1.03926466
1.03926466
1.03926466
1.03926466
1.03926466
1.03926466
1.03926466
1.03926466
1.03926466
1.03926466
1.03926466
1.03926466
1.03926466
1.03926466
1.03926466
1.03926466
1.03926466
1.03926466
1.03926466
1.03926466
1.03926466
1.03926466
1.03926466
1.03926466
1.03926466
1.03926466
1.03926466
1.03926466
1.03926466
1.03926466
1.03926466
1.03926466
1.03926466
1.03926466
1.03926466
1.03926466
1.03926466
1.03926466
1.03926466
1.03926466
1.03926466
1.03926466
1.03926466
1.03926466
1.03926466
1.03926466
1.03926466
1.03926466
1.03926466
1.03926466
1.03926466
1.03926466
1.03926466
1.03926466
1.03926466
1.03926466
1.03926466
1.03926466
1.03926466
1.03926466
1.03926466
1.03926466
1.03926466
1.03926466
1.03926466
1.03926466
1.03926466
1.03926466
1.03926466
1.03926466
1.03926466
1.03926466
1.03926466
1.03926466
1.03926466
1.03926466
1.03926466
1.03926466
1.03926466
1.03926466
1.03926466
1.03926466
1.03926466
1.03926466
1.03926466
1.03926466
1.03926466
1.03926466
1.03926466
1.03926466
1.03926466
1.03926466
1.03926466
1.03926466
1.03926466
1.03926466
1.03926466
1.03926466
1.03926466
1.03926466
1.03926466
1.03926466
1.03926466
1.03926466
1.03926466
1.03926466
1.03926466
1.03926466
1.03926466
1.03926466
1.03926466
1.03926466
1.03926466
1.03926466
1.03926466
1.03926466
1.03926466
1.03926466
1.03926466
1.03926466
1.03926466
1.03926466
1.03926466
1.03926466
1.03926466
1.03926466
1.03926466
1.03926466
1.03926466
1.03926466
1.03926466
1.03926466
1.03926466
1.03926466
1.03926466
1.03926466
1.03926466
1.03926466
1.03926466
1.03926466
1.03926466
1.03926466
1.03926466
1.03926466
1.03926466
1.03926466
1.03926466
1.03926466
1.03926466
1.03926466
1.03926466
1.03926466
1.03926466
1.03926466
1.03926466
1.03926466
1.03926466
1.03926466
1.03926466
1.03926466
1.03926466
1.03926466
1.03926466
1.03926466
1.03926466
1.03926466
1.03926466
1.03926466
1.03926466
1.03926466
1.03926466
1.03926466
1.03926466
1.03926466
1.03926466
1.03926466
1.03926466
1.03926466
1.03926466
1.03926466
1.03926466
1.03926466
1.03926466
1.03926466
1.03926466
1.03926466
1.03926466
1.03926466
1.03926466
1.03926466
1.03926466
1.03926466
1.03926466
1.03926466
1.03926466
1.03926466
1.03926466
1.03926466
1.03926466
1.03926466
1.03926466
1.03926466
1.03926466
1.03926466
1.03926466
1.03926466
1.03926466
1.03926466
1.03926466
1.03926466
1.03926466
1.03926466
1.03926466
1.03926466
1.03926466
1.03926466
1.03926466
1.03926466
1.03926466
1.03926466
1.03926466
1.03926466
1.03926466
1.03926466
1.03926466
1.03926466
1.03926466
1.03926466
1.03926466
1.03926466
1.03926466
1.03926466
1.03926466
1.03926466
1.03926466
1.03926466
1.03926466
1.03926466
1.03926466
1.03926466
1.03926466
1.03926466
1.03926466
1.03926466
1.03926466
1.03926466
1.03926466
1.03926466
1.03926466
1.03926466
1.03926466
1.03926466
1.03926466
1.03926466
1.03926466
1.03926466
1.03926466
1.03926466
1.03926466
1.03926466
1.03926466
1.03926466
1.03926466
1.03926466
1.03926466
1.03926466
1.03926466
1.03926466
1.03926466
1.03926466
1.03926466
1.03926466
1.03926466
1.03926466
1.03926466
1.03926466
1.03926466
1.03926466
1.03926466
1.03926466
1.03926466
1.03926466
1.03926466
1.03926466
1.03926466
1.03926465
1.03926465
1.03926465
1.03926465
1.03926465
1.03926465
1.03926465
1.03926465
1.03926465
1.03926465
1.03926465
1.03926465
1.03926465
1.03926465
1.03926465
1.03926465
1.03926464
1.03926464
1.03926464
1.03926464
1.03926464
1.03926464
1.03926464
1.03926464
1.03926464
1.03926463
1.03926463
1.03926463
1.03926463
1.03926463
1.03926463
1.03926462
1.03926462
1.03926462
1.03926462
1.03926462
1.03926461
1.03926461
1.03926461
1.0392646
1.0392646
1.0392646
1.03926459
1.03926459
1.03926459
1.03926458
1.03926458
1.03926458
1.03926457
1.03926457
1.03926456
1.03926456
1.03926455
1.03926455
1.03926454
1.03926453
1.03926453
1.03926452
1.03926451
1.03926451
1.0392645
1.03926449
1.03926448
1.03926447
1.03926446
1.03926445
1.03926444
1.03926443
1.03926442
1.03926441
1.0392644
1.03926439
1.03926437
1.03926436
1.03926435
1.03926433
1.03926431
1.0392643
1.03926428
1.03926426
1.03926424
1.03926423
1.0392642
1.03926418
1.03926416
1.03926414
1.03926411
1.03926409
1.03926406
1.03926404
1.03926401
1.03926398
1.03926395
1.03926392
1.03926388
1.03926385
1.03926381
1.03926377
1.03926373
1.03926369
1.03926365
1.03926361
1.03926356
1.03926351
1.03926346
1.03926341
1.03926336
1.0392633
1.03926324
1.03926318
1.03926312
1.03926305
1.03926299
1.03926292
1.03926284
1.03926277
1.03926269
1.03926261
1.03926252
1.03926243
1.03926234
1.03926225
1.03926215
1.03926205
1.03926194
1.03926183
1.03926172
1.0392616
1.03926148
1.03926135
1.03926122
1.03926109
1.03926095
1.0392608
1.03926065
1.03926049
1.03926033
1.03926017
1.03926
1.03925982
1.03925963
1.03925944
1.03925925
1.03925904
1.03925883
1.03925862
1.03925839
1.03925816
1.03925792
1.03925768
1.03925742
1.03925716
1.03925689
1.03925661
1.03925632
1.03925603
1.03925572
1.0392554
1.03925508
1.03925474
1.0392544
1.03925404
1.03925368
1.0392533
1.03925291
1.03925251
1.0392521
1.03925168
1.03925124
1.03925079
1.03925033
1.03924986
1.03924937
1.03924887
1.03924836
1.03924783
1.03924729
1.03924673
1.03924616
1.03924558
1.03924498
1.03924436
1.03924372
1.03924307
1.03924241
1.03924173
1.03924103
1.03924031
1.03923957
1.03923882
1.03923805
1.03923726
1.03923645
1.03923562
1.03923478
1.03923391
1.03923302
1.03923212
1.03923119
1.03923024
1.03922928
1.03922829
1.03922728
1.03922624
1.03922519
1.03922411
1.03922302
1.0392219
1.03922075
1.03921959
1.0392184
1.03921719
1.03921595
1.03921469
1.03921341
1.0392121
1.03921077
1.03920942
1.03920804
1.03920664
1.03920521
1.03920376
1.03920228
1.03920078
1.03919926
1.03919771
1.03919613
1.03919454
1.03919291
1.03919126
1.03918959
1.0391879
1.03918617
1.03918443
1.03918266
1.03918087
1.03917905
1.03917721
1.03917535
1.03917346
1.03917155
1.03916961
1.03916766
1.03916568
1.03916368
1.03916166
1.03915962
1.03915755
1.03915547
1.03915337
1.03915124
1.0391491
1.03914694
1.03914476
1.03914256
1.03914034
1.03913811
1.03913586
1.0391336
1.03913132
1.03912903
1.03912672
1.0391244
1.03912207
1.03911972
1.03911737
1.039115
1.03911263
1.03911025
1.03910785
1.03910546
1.03910305
1.03910064
1.03909823
1.03909581
1.03909339
1.03909096
1.03908854
1.03908611
1.03908369
1.03908127
1.03907885
1.03907643
1.03907402
1.03907162
1.03906922
1.03906683
1.03906445
1.03906208
1.03905971
1.03905736
1.03905503
1.0390527
1.0390504
1.0390481
1.03904583
1.03904357
1.03904133
1.03903911
1.03903691
1.03903474
1.03903258
1.03903045
1.03902835
1.03902627
1.03902422
1.0390222
1.0390202
1.03901824
1.0390163
1.0390144
1.03901253
1.03901069
1.03900889
1.03900712
1.03900538
1.03900369
1.03900203
1.03900041
1.03899882
1.03899728
1.03899578
1.03899431
1.03899289
1.03899151
1.03899017
1.03898888
1.03898763
1.03898642
1.03898526
1.03898414
1.03898306
1.03898203
1.03898105
1.03898011
1.03897922
1.03897838
1.03897758
1.03897683
1.03897612
1.03897546
1.03897485
1.03897429
1.03897377
1.03897329
1.03897287
1.03897249
1.03897216
1.03897187
1.03897163
1.03897143
1.03897128
1.03897118
1.03897111
1.0389711
1.03897112
1.03897119
1.0389713
1.03897146
1.03897165
1.03897189
1.03897216
1.03897248
1.03897283
1.03897323
1.03897366
1.03897412
1.03897463
1.03897517
1.03897574
1.03897635
1.03897699
1.03897766
1.03897836
1.03897909
1.03897986
1.03898065
1.03898147
1.03898231
1.03898319
1.03898408
1.038985
1.03898594
1.03898691
1.0389879
1.0389889
1.03898993
1.03899097
1.03899203
1.03899311
1.0389942
1.03899531
1.03899643
1.03899756
1.03899871
1.03899986
1.03900103
1.0390022
1.03900339
1.03900458
1.03900577
1.03900697
1.03900818
1.03900939
1.0390106
1.03901182
1.03901303
1.03901425
1.03901547
1.03901668
1.0390179
1.03901911
1.03902032
1.03902153
1.03902273
1.03902393
1.03902513
1.03902631
1.0390275
1.03902867
1.03902984
1.039031
1.03903215
1.0390333
1.03903443
1.03903556
1.03903668
1.03903778
1.03903888
1.03903997
1.03904104
1.03904211
1.03904316
1.0390442
1.03904523
1.03904625
1.03904726
1.03904825
1.03904923
1.0390502
1.03905116
1.03905211
1.03905304
1.03905396
1.03905487
1.03905577
1.03905665
1.03905752
1.03905838
1.03905923
1.03906006
1.03906088
1.03906169
1.03906249
1.03906328
1.03906405
1.03906482
1.03906557
1.03906631
1.03906704
1.03906776
1.03906847
1.03906917
1.03906985
1.03907053
1.0390712
1.03907185
1.0390725
1.03907314
1.03907377
1.03907439
1.039075
1.0390756
1.03907619
1.03907678
1.03907736
1.03907793
1.03907849
1.03907904
1.03907959
1.03908013
1.03908066
1.03908118
1.0390817
1.03908222
1.03908272
1.03908322
1.03908372
1.0390842
1.03908469
1.03908516
1.03908563
1.0390861
1.03908656
1.03908702
1.03908747
1.03908792
1.03908836
1.0390888
1.03908923
1.03908966
1.03909008
1.0390905
1.03909092
1.03909133
1.03909174
1.03909215
1.03909255
1.03909294
1.03909334
1.03909373
1.03909411
1.0390945
1.03909488
1.03909525
1.03909562
1.03909599
1.03909636
1.03909672
1.03909708
1.03909744
1.03909779
1.03909814
1.03909848
1.03909883
1.03909917
1.0390995
1.03909984
1.03910016
1.03910049
1.03910081
1.03910113
1.03910145
1.03910176
1.03910207
1.03910238
1.03910269
1.03910299
1.03910328
1.03910358
1.03910387
1.03910416
1.03910444
1.03910472
1.039105
1.03910528
1.03910555
1.03910582
1.03910608
1.03910635
1.03910661
1.03910686
1.03910712
1.03910737
1.03910762
1.03910786
1.0391081
1.03910834
1.03910858
1.03910881
1.03910904
1.03910927
1.0391095
1.03910972
1.03910995
1.03911016
1.03911038
1.0391106
1.03911081
1.03911102
1.03911123
1.03911143
1.03911164
1.03911184
1.03911204
1.03911224
1.03911244
1.03911264
1.03911283
1.03911302
1.03911322
1.03911341
1.0391136
1.03911379
1.03911397
1.03911416
1.03911435
1.03911453
1.03911472
1.0391149
1.03911509
1.03911527
1.03911545
1.03911564
1.03911582
1.039116
1.03911619
1.03911637
1.03911655
1.03911673
1.03911691
1.0391171
1.03911728
1.03911746
1.03911765
1.03911783
1.03911801
1.0391182
1.03911838
1.03911857
1.03911875
1.03911894
1.03911912
1.03911931
1.03911949
1.03911968
1.03911987
1.03912005
1.03912024
1.03912043
1.03912062
1.03912081
1.039121
1.03912118
1.03912137
1.03912156
1.03912175
1.03912194
1.03912213
1.03912232
1.03912251
1.0391227
1.03912289
1.03912307
1.03912326
1.03912345
1.03912364
1.03912382
1.03912401
1.0391242
1.03912438
1.03912457
1.03912475
1.03912493
1.03912512
1.0391253
1.03912548
1.03912566
1.03912583
1.03912601
1.03912619
1.03912636
1.03912654
1.03912671
1.03912688
1.03912705
1.03912722
1.03912738
1.03912755
1.03912771
1.03912788
1.03912804
1.0391282
1.03912835
1.03912851
1.03912867
1.03912882
1.03912897
1.03912912
1.03912927
1.03912942
1.03912956
1.03912971
1.03912985
1.03912999
1.03913013
1.03913027
1.03913041
1.03913054
1.03913067
1.03913081
1.03913094
1.03913107
1.0391312
1.03913132
1.03913145
1.03913157
1.0391317
1.03913182
1.03913194
1.03913206
1.03913218
1.03913229
1.03913241
1.03913253
1.03913264
1.03913275
1.03913287
1.03913298
1.03913309
1.0391332
1.03913331
1.03913342
1.03913353
1.03913363
1.03913374
1.03913385
1.03913395
1.03913406
1.03913416
1.03913427
1.03913437
1.03913448
1.03913458
1.03913469
1.03913479
1.03913489
1.039135
1.0391351
1.0391352
1.03913531
1.03913541
1.03913551
1.03913562
1.03913572
1.03913583
1.03913593
1.03913604
1.03913614
1.03913625
1.03913636
1.03913647
1.03913658
1.03913669
1.0391368
1.03913691
1.03913703
1.03913714
1.03913726
1.03913738
1.0391375
1.03913762
1.03913775
1.03913787
1.039138
1.03913813
1.03913827
1.0391384
1.03913854
1.03913869
1.03913883
1.03913898
1.03913914
1.0391393
1.03913946
1.03913962
1.0391398
1.03913997
1.03914015
1.03914034
1.03914053
1.03914073
1.03914093
1.03914114
1.03914136
1.03914158
1.03914181
1.03914205
1.0391423
1.03914255
1.03914281
1.03914308
1.03914336
1.03914365
1.03914395
1.03914426
1.03914458
1.0391449
1.03914524
1.03914559
1.03914595
1.03914632
1.0391467
1.0391471
1.0391475
1.03914792
1.03914834
1.03914879
1.03914924
1.0391497
1.03915018
1.03915067
1.03915117
1.03915168
1.0391522
1.03915274
1.03915329
1.03915385
1.03915442
1.039155
1.03915559
1.0391562
1.03915681
1.03915743
1.03915806
1.0391587
1.03915935
1.03916001
1.03916067
1.03916134
1.03916202
1.03916269
1.03916338
1.03916407
1.03916476
1.03916545
1.03916614
1.03916684
1.03916753
1.03916823
1.03916892
1.03916961
1.03917029
1.03917098
1.03917166
1.03917233
1.039173
1.03917366
1.03917431
1.03917496
1.0391756
1.03917623
1.03917685
1.03917746
1.03917807
1.03917866
1.03917925
1.03917982
1.03918039
1.03918095
1.0391815
1.03918204
1.03918257
1.03918309
1.03918361
1.03918411
1.03918461
1.0391851
1.03918558
1.03918606
1.03918653
1.03918699
1.03918745
1.0391879
1.03918834
1.03918877
1.0391892
1.03918962
1.03919003
1.03919044
1.03919083
1.03919122
1.03919159
1.03919195
1.0391923
1.03919264
1.03919296
1.03919326
1.03919354
1.0391938
1.03919405
1.03919426
1.03919446
1.03919462
1.03919476
1.03919487
1.03919495
1.039195
1.03919502
1.039195
1.03919496
1.03919488
1.03919477
1.03919463
1.03919446
1.03919426
1.03919403
1.03919379
1.03919352
1.03919323
1.03919293
1.03919262
1.0391923
1.03919198
1.03919166
1.03919134
1.03919103
1.03919073
1.03919045
1.03919018
1.03918993
1.0391897
1.0391895
1.03918931
1.03918915
1.03918902
1.03918891
1.03918882
1.03918875
1.0391887
1.03918866
1.03918865
1.03918865
1.03918868
1.0391887
1.03918928
1.03918934
1.03920403
1.03920411
1.03952067
1.03952014
1.03814431
1.03813738
0.850023896
0.84847764
0.45343091
0.425544186
0.33036894
0.320801961
0.289071614
0.285512325
0.27262476
0.271307694
0.265979033
0.265564723
0.263674925
0.263577751
0.263015878
0.262997498
0.26284963
0.262846977
0.262812239
0.262811979
0.262804628
0.262804612
0.262803197
0.262803195
0.262802944
0.262802945
0.262802906
0.262802909
0.262802908
0.262802914
0.262802921
0.26280293
0.26280294
0.262802952
0.262802966
0.262802981
0.262802997
0.262803016
0.262803035
0.262803056
0.262803079
0.262803102
0.262803128
0.262803155
0.262803183
0.262803212
0.262803243
0.262803274
0.262803307