/*--------------------------------*- C++ -*----------------------------------*\
| =========                 |                                                 |
| \\      /  F ield         | OpenFOAM: The Open Source CFD Toolbox           |
|  \\    /   O peration     | Version:  2206                                  |
|   \\  /    A nd           | Website:  www.openfoam.com                      |
|    \\/     M anipulation  |                                                 |
\*---------------------------------------------------------------------------*/
FoamFile
{
    version     2.0;
    format      ascii;
    arch        "LSB;label=32;scalar=64";
    class       volScalarField;
    location    "1.98e-05";
    object      sourcePV;
}
// * * * * * * * * * * * * * * * * * * * * * * * * * * * * * * * * * * * * * //

dimensions      [1 -3 -1 0 0 0 0];

internalField   nonuniform List<scalar> 
3183
(
0
0
0
0
0
0
0
0
0
0
0
0
0
0
0
0
0
0
0
0
0
0
0
0
0
0
0
0
0
0
0
0
0
0
0
0
0
0
0
0
0
0
0
0
0
0
0
0
0
0
0
0
0
0
0
0
0
0
0
0
0
0
0
0
0
0
0
0
0
0
0
0
0
0
0
0
0
0
0
0
0
0
0
0
0
0
0
0
0
0
0
0
0
0
0
0
0
0
0
0
0
0
0
0
0
0
0
0
0
0
0
0
0
0
0
0
0
0
0
0
0
0
0
0
0
0
0
0
0
0
0
0
0
0
0
0
0
0
0
0
0
0
0
0
0
0
0
0
0
0
0
0
0
0
0
0
0
0
0
0
0
0
0
0
0
0
0
0
0
0
0
0
0
0
0
0
0
0
0
0
0
0
0
0
0
0
0
0
0
0
0
0
0
0
0
0
0
0
0
0
0
0
0
0
0
0
0
0
0
0
0
0
0
0
0
0
0
0
0
0
0
0
0
0
0
0
0
0
0
0
0
0
0
0
0
0
0
0
0
0
0
0
0
0
0
0
0
0
0
0
0
0
0
0
0
0
0
0
0
0
0
0
0
0
0
0
0
0
0
0
0
0
0
0
0
0
0
0
0
0
0
0
0
0
0
0
0
0
0
0
0
0
0
0
0
0
0
0
0
0
0
0
0
0
0
0
0
0
0
0
0
0
0
0
0
0
0
0
0
0
0
0
0
0
0
0
0
0
0
0
0
0
0
0
0
0
0
0
0
0
0
0
0
0
0
0
0
0
0
0
0
0
0
0
0
0
0
0
0
0
0
0
0
0
0
0
0
0
0
0
0
0
0
0
0
0
0
0
0
0
0
0
0
0
0
0
0
0
0
0
0
0
0
0
0
0
0
0
0
0
0
0
0
0
0
0
0
0
0
0
0
0
0
0
0
0
0
0
0
0
0
0
0
0
0
0
0
0
0
0
0
0
0
0
0
0
0
0
0
0
0
0
0
0
0
0
0
0
0
0
0
0
0
0
0
0
0
0
0
0
0
0
0
0
0
0
0
0
0
0
0
0
0
0
0
0
0
0
0
0
0
0
0
0
0
0
0
0
0
0
0
0
0
0
0
0
0
0
0
0
0
0
0
0
0
0
0
0
0
0
0
0
0
0
0
0
0
0
0
0
0
0
0
0
0
0
0
0
0
0
0
0
0
0
0
0
0
0
0
0
0
0
0
0
0
0
0
0
0
0
0
0
0
0
0
0
0
0
0
0
0
0
0
0
0
0
0
0
0
0
0
0
0
0
0
0
0
0
0
0
0
0
0
0
0
0
0
0
0
0
0
0
0
0
0
0
0
0
0
0
0
0
0
0
0
0
0
0
0
0
0
0
0
0
0
0
0
0
0
0
0
0
0
0
0
0
0
0
0
0
0
0
0
0
0
0
0
0
0
0
0
0
0
0
0
0
0
0
0
0
0
0
0
0
0
0
0
0
0
0
0
0
0
0
0
0
0
0
0
0
0
0
0
0
0
0
0
0
0
0
0
0
0
0
0
0
0
0
0
0
0
0
0
0
0
0
0
0
0
0
0
0
0
0
0
0
0
0
0
0
0
0
0
0
0
0
0
0
0
0
0
0
0
0
0
0
0
0
0
0
0
0
0
0
0
0
0
0
0
0
0
0
0
0
0
0
0
0
0
0
0
0
0
0
0
0
0
0
0
0
0
0
0
0
0
0
0
0
0
0
0
0
0
0
0
0
0
0
0
0
0
0
0
0
0
0
0
0
0
0
0
0
0
0
0
0
0
0
0
0
0
0
0
0
0
0
0
0
0
0
0
0
0
0
0
0
0
0
0
0
0
0
0
0
0
0
0
0
0
0
0
0
0
0
0
0
0
0
0
0
0
0
0
0
0
0
0
0
0
0
0
0
0
0
0
0
0
0
0
0
0
0
0
0
0
0
0
0
0
0
0
0
0
0
0
0
0
0
0
0
0
0
0
0
0
0
0
0
0
0
0
0
0
0
0
0
0
0
0
0
0
0
0
0
0
0
0
0
0
0
0
0
0
0
0
0
0
0
0
0
0
0
0
0
0
0
0
0
0
0
0
0
0
0
0
0
0
0
0
0
0
0
0
0
0
0
0
0
0
0
0
0
0
0
0
0
0
0
0
0
0
0
0
0
0
0
0
0
0
0
0
0
0
0
0
0
0
0
0
0
0
0
0
0
0
0
0
0
0
0
0
0
0
0
0
0
0
0
0
0
0
0
0
0
0
0
0
0
0
0
0
0
0
0
0
0
0
0
0
0
0
0
0
0
0
0
0
0
0
0
0
0
0
0
0
0
0
0
0
0
0
0
0
0
0
0
0
0
0
0
0
0
0
0
0
0
0
0
0
0
0
0
0
0
0
0
0
0
0
0
0
0
0
0
0
0
0
0
0
0
0
0
0
0
0
0
0
0
0
0
0
0
0
0
0
0
0
0
0
0
0
0
0
0
0
0
0
0
0
0
0
0
0
0
0
0
0
0
0
0
0
0
0
0
0
0
0
0
0
0
0
0
0
0
0
0
0
0
0
0
0
0
0
0
0
0
0
0
0
0
0
0
0
0
0
0
0
0
0
0
0
0
0
0
0
0
0
0
0
0
0
0
0
0
0
0
0
0
0
0
0
0
0
0
0
0
0
0
0
0
0
0
0
0
0
0
0
0
0
0
0
0
0
0
0
0
0
0
0
0
0
0
0
0
0
0
0
0
0
0
0
0
0
0
0
0
0
0
0
0
0
0
0
0
0
0
0
0
0
0
0
0
0
0
0
0
0
0
0
0
0
0
0
0
0
0
0
0
0
0
0
0
0
0
0
0
0
0
0
0
0
0
0
0
0
0
0
0
0
0
0
0
0
0
0
0
0
0
0
0
0
0
0
0
0
0
0
0
0
0
0
0
0
0
0
0
0
0
0
0
0
0
0
0
0
0
0
0
0
0
0
0
0
0
0
0
0
0
0
0
0
0
0
0
0
0
0
0
0
0
0
0
0
0
0
0
0
0
0
0
0
0
0
0
0
0
0
0
0
0
0
0
0
0
0
0
0
0
0
0
0
0
0
0
0
0
0
0
0
0
0
0
0
0
0
0
0
0
0
0
0
0
0
0
0
0
0
0
0
0
0
0
0
0
0
0
0
0
0
0
0
0
0
0
0
0
0
0
0
0
0
0
0
0
0
0
0
0
0
0
0
0
0
0
0
0
0
0
0
0
0
0
0
0
0
0
0
0
0
0
0
0
0
0
0
0
0
0
0
0
0
0
0
0
0
0
0
0
0
0
0
0
0
0
0
0
0
0
0
0
0
0
0
0
0
0
0
0
0
0
0
0
0
0
0
0
0
0
0
0
0
0
0
0
0
0
0
0
0
0
0
0
0
0
0
0
0
0
0
0
0
0
0
0
0
0
0
0
0
0
0
0
0
0
0
0
0
0
0
0
0
0
0
0
0
0
0
0
0
0
0
0
0
0
0
0
0
0
0
0
0
0
0
0
0
0
0
0
0
0
0
0
0
0
0
0
0
0
0
0
0
0
0
0
0
0
0
0
0
0
0
0
0
0
0
0
0
0
0
0
0
0
0
0
0
0
0
0
0
0
0
0
0
0
0
0
0
0
0
0
0
0
0
0
0
0
0
0
0
0
0
0
0
0
0
0
0
0
0
0
0
0
0
0
0
0
0
0
0
0
0
0
0
0
0
0
0
0
0
0
0
0
0
0
0
0
0
0
0
0
0
0
0
0
0
0
0
0
0
0
0
0
0
0
0
0
0
0
0
0
0
0
0
0
0
0
0
0
0
0
0
0
0
0
0
0
0
0
0
0
0
0
0
0
0
0
0
0
0
0
0
0
0
0
0
0
0
0
0
0
0
0
0
0
0
0
0
0
0
0
0
0
0
0
0
0
0
0
0
0
0
0
0
0
0
0
0
0
0
0
0
0
0
0
0
0
0
0
0
0
0
0
0
0
0
0
0
0
0
0
0
0
0
0
0
0
0
0
0
0
0
0
0
0
0
0
0
0
0
0
0
0
0
0
0
0
0
0
0
0
0
0
0
0
0
0
0
0
0
0
0
0
0
0
0
0
0
0
0
0
0
0
0
0
0
0
0
0
0
0
0
0
0
0
0
0
0
0
0
0
0
0
0
0
0
0
0
0
0
0
0
0
0
0
0
0
0
0
0
0
0
0
0
0
0
0
0
0
0
0
0
0
0
0
0
0
0
0
0
0
0
0
0
0
0
0
0
0
0
0
0
0
0
0
0
0
0
0
0
0
0
0
0
0
0
0
0
0
0
0
0
0
0
0
0
0
0
0
0
0
0
0
0
0
0
0
0
0
0
0
0
0
0
0
0
0
0
0
0
0
0
0
0
0
0
0
0
0
0
0
0
0
0
0
0
0
0
0
0
0
0
0
0
0
0
0
0
0
0
0
0
0
0
0
0
0
0
0
0
0
0
0
0
0
0
0
0
0
0
0
0
0
0
0
0
0
0
0
0
0
0
0
0
0
0
0
0
0
0
0
0
0
0
0
0
0
0
0
0
0
0
0
0
0
0
0
0
0
0
0
0
0
0
0
0
0
0
0
0
0
0
0
0
0
0
0
0
0
0
0
0
0
0
0
0
0
0
0
0
0
0
0
0
0
0
0
0
0
0
0
0
0
0
0
0
0
0
0
0
0
0
0
0
0
0
0
0
0
0
0
0
0
0
0
0
0
0
0
0
0
0
0
0
0
0
0
0
0
0
0
0
0
0
0
0
0
0
0
0
0
0
0
0
0
0
0
0
0
0
0
0
0
0
0
0
0
0
0
0
0
0
0
0
0
0
0
0
0
0
0
0
0
0
0
0
0
0
0
0
0
0
0
0
0
0
0
0
0
0
0
0
0
0
0
0
0
0
0
0
0
0
0
0
0
0
0
0
0
0
0
0
0
0
0
0
0
0
0
0
0
0
0
0
0
0
0
0
0
0
0
0
0
0
0
0
0
0
0
0
0
0
0
0
0
0
0
0
0
0
0
0
0
0
0
0
0
0
0
0
0
0
0
0
0
0
0
0
0
0
0
0
0
0
0
0
0
0
0
0
0
0
0
0
0
0
0
0
0
0
0
0
0
0
0
0
0
0
0
0
0
0
0
0
0
0
0
0
0
0
0
0
0
0
0
0
0
0
0
0
0
0
0
0
0
0
0
0
0
0
0
0
0
0
0
0
0
0
0
0
0
0
0
0
0
0
0
0
0
0
0
0
0
0
0
0
0
0
0
0
0
0
0
0
1.87605162e-298
1.10441297e-298
8.66743045e-296
5.13985555e-296
3.97144526e-293
2.37227575e-293
1.80471947e-290
1.08583792e-290
8.13323918e-288
4.9287946e-288
3.6349585e-285
2.21861621e-285
1.61103999e-282
9.90326609e-283
7.0806404e-280
4.38347505e-280
3.08592967e-277
1.92393791e-277
1.33362645e-274
8.37302096e-275
5.71483883e-272
3.61311175e-272
2.42818509e-269
1.54588172e-269
1.02294784e-266
6.5575633e-267
4.27272009e-264
2.75794612e-264
1.76937326e-261
1.14996979e-261
7.26411647e-259
4.75291705e-259
2.95650183e-256
1.94790339e-256
1.19285769e-253
7.9134133e-254
4.77086112e-251
3.18718184e-251
1.89140483e-248
1.27203513e-248
7.43246894e-246
5.03198909e-246
2.89483141e-243
1.9729195e-243
1.11746787e-240
7.66634278e-241
4.2751148e-238
2.95226762e-238
1.6208401e-235
1.12665402e-235
6.08962031e-233
4.26060035e-233
2.26712356e-230
1.59651758e-230
8.36318392e-228
5.92755835e-228
3.05671807e-225
2.1804844e-225
1.10688226e-222
7.94657785e-223
3.97085473e-220
2.8690063e-220
1.41116084e-217
1.02607812e-217
4.96765644e-215
3.6349582e-215
1.7321313e-212
1.27544024e-212
5.98184425e-210
4.43234174e-210
2.04589962e-207
1.52541699e-207
6.92942852e-205
5.19870262e-205
2.32403337e-202
1.75436628e-202
7.71766822e-200
5.86180397e-200
2.53743291e-197
1.93907141e-197
8.25909744e-195
6.34998191e-195
2.66111655e-192
2.05840535e-192
8.48693853e-190
6.60437064e-190
2.67889354e-187
2.09717794e-187
8.36829986e-185
6.59025734e-185
2.58675477e-182
2.04923311e-182
7.91165004e-180
6.30462947e-180
2.39402578e-177
1.91894667e-177
7.16630443e-175
5.7777116e-175
2.12187408e-172
1.72064558e-172
6.21374731e-170
5.06781819e-170
1.79948113e-167
1.47602764e-167
5.15286968e-165
4.25069512e-165
1.45883397e-162
1.21021858e-162
4.08283945e-160
3.40604699e-160
1.12943554e-157
9.47464808e-158
3.08776561e-155
2.60460497e-155
8.34161025e-153
7.07498613e-153
2.22646032e-150
1.89867546e-150
5.87048638e-148
5.03328484e-148
1.52883099e-145
1.31783113e-145
3.93188565e-143
3.40725688e-143
9.9844801e-141
8.69788488e-141
2.50298163e-138
2.19184672e-138
6.19325721e-136
5.45149592e-136
1.51226692e-133
1.33797638e-133
3.64335229e-131
3.23983997e-131
8.65863557e-129
7.73842982e-129
2.02946733e-126
1.82282364e-126
4.69033699e-124
4.23353986e-124
1.06860358e-121
9.69238526e-122
2.39947889e-119
2.18686736e-119
5.30881775e-117
4.86151258e-117
1.15703784e-114
1.06454853e-114
2.48341698e-112
2.29555474e-112
5.24786235e-110
4.87321903e-110
1.0914878e-107
1.01817592e-107
2.23370701e-105
2.09302819e-105
4.49640567e-103
4.23187992e-103
8.90002666e-101
8.41301547e-101
1.7316149e-98
1.64390706e-98
3.31044014e-96
3.15609257e-96
6.21622759e-94
5.95114876e-94
1.14603705e-91
1.1016753e-91
2.07355594e-89
2.00134542e-89
3.68029983e-87
3.56623543e-87
6.40465147e-85
6.2303214e-85
1.09228473e-82
1.06660656e-82
1.82463197e-80
1.78837522e-80
2.98381281e-78
2.93511304e-78
4.77384448e-76
4.71230082e-76
7.4678125e-74
7.39576682e-74
1.14145355e-71
1.13375864e-71
1.70355396e-69
1.69584169e-69
2.48061844e-67
2.47194966e-67
3.52145844e-65
3.50494159e-65
4.86937622e-63
4.82976541e-63
6.55257188e-61
6.48907413e-61
8.57226108e-59
8.43183529e-59
1.08913584e-56
1.08832765e-56
1.34208754e-54
1.33940713e-54
1.60245432e-52
1.598078e-52
1.85118517e-50
1.84679348e-50
2.06601907e-48
2.06340795e-48
2.22405092e-46
2.22257563e-46
2.30528475e-44
2.30096069e-44
2.29637375e-42
2.285925e-42
2.19368323e-40
2.1786939e-40
2.00487152e-38
1.98779656e-38
1.74838955e-36
1.73181026e-36
1.45060614e-34
1.43655586e-34
1.1412446e-32
1.1308535e-32
8.48183252e-31
8.41729959e-31
5.9293939e-29
5.90097237e-29
3.87952796e-27
3.87730643e-27
2.36199568e-25
2.35556454e-25
1.32924005e-23
1.32353814e-23
6.85746605e-22
6.82667495e-22
3.21110548e-20
3.20056784e-20
1.34819725e-18
1.34589486e-18
4.99720732e-17
4.99207501e-17
1.60247799e-15
1.60093923e-15
4.32522999e-14
4.32485492e-14
9.44620107e-13
9.4254732e-13
2.50468987e-11
2.50652194e-11
2.83929344e-08
2.95341274e-08
0.0366396678
0.157519184
5.88588846
7.36460939
9.88724485
9.30202139
4.44468619
3.74866502
1.01188337
0.837737691
0.210541596
0.187077411
0.0514165045
0.0469804957
0.0112803198
0.0106421112
0.00225688967
0.00219625524
0.000422900471
0.000420303486
7.96267171e-05
7.96310151e-05
1.93763197e-05
1.9390446e-05
9.49153681e-06
9.49370481e-06
7.97485617e-06
7.97478806e-06
7.75552297e-06
7.75559505e-06
7.72578018e-06
7.72578466e-06
7.72193482e-06
7.72194982e-06
7.72145888e-06
7.72147541e-06
7.7214193e-06
7.72140054e-06
7.72142013e-06
7.72138561e-06
7.72141488e-06
7.721396e-06
7.72140815e-06
7.72140293e-06
7.72141916e-06
7.72139926e-06
7.72141101e-06
7.72140787e-06
7.72141152e-06
7.7214118e-06
7.72141491e-06
7.72141435e-06
7.72141374e-06
7.72140935e-06
7.72141206e-06
7.72141246e-06
7.72140467e-06
7.72142104e-06
7.72140437e-06
7.72141862e-06
7.72139659e-06
7.72140915e-06
7.72140322e-06
7.72140991e-06
7.72139846e-06
7.72140442e-06
7.72139388e-06
7.72141441e-06
7.72139487e-06
7.72141692e-06
7.72139375e-06
7.72140844e-06
7.72139813e-06
7.72141256e-06
7.72139587e-06
7.72142401e-06
7.72137986e-06
7.72142597e-06
7.72140219e-06
7.72141909e-06
7.72140211e-06
7.72140484e-06
7.72140779e-06
7.72139788e-06
7.72141264e-06
7.7213981e-06
7.72140934e-06
7.72138992e-06
7.72141789e-06
7.72139679e-06
7.7214299e-06
7.72138913e-06
7.72142341e-06
7.72139618e-06
7.72142644e-06
7.72139758e-06
7.72141624e-06
7.72139974e-06
7.72141213e-06
7.72140867e-06
7.72141397e-06
7.72140034e-06
7.72141631e-06
7.72140372e-06
7.72140433e-06
7.72141237e-06
7.72140404e-06
7.72140953e-06
7.72141729e-06
7.72140574e-06
7.72141171e-06
7.72140084e-06
7.72140021e-06
7.72140307e-06
7.72139847e-06
7.72141666e-06
7.72138502e-06
7.72141994e-06
7.72139882e-06
7.72142187e-06
7.72139572e-06
7.72142215e-06
7.72139448e-06
7.72141693e-06
7.72140154e-06
7.72141429e-06
7.72139795e-06
7.72142332e-06
7.72139691e-06
7.72142901e-06
7.72140234e-06
7.72141719e-06
7.72140923e-06
7.72142154e-06
7.72141158e-06
7.72142038e-06
7.72140235e-06
7.72141393e-06
7.72140627e-06
7.72140521e-06
7.7214042e-06
7.72140127e-06
7.7213986e-06
7.72141524e-06
7.72138916e-06
7.72140916e-06
7.72139471e-06
7.72141298e-06
7.72140106e-06
7.72139781e-06
7.72142324e-06
7.72138918e-06
7.72141285e-06
7.72140029e-06
7.72142257e-06
7.72140084e-06
7.72141381e-06
7.72139705e-06
7.72142573e-06
7.72138491e-06
7.72142784e-06
7.72139731e-06
7.72142756e-06
7.72140647e-06
7.72142813e-06
7.72140384e-06
7.72141673e-06
7.72140674e-06
7.72140626e-06
7.72140092e-06
7.72140662e-06
7.72140427e-06
7.72140304e-06
7.72142412e-06
7.72140998e-06
7.72150908e-06
7.72152338e-06
7.72197195e-06
7.72201947e-06
7.72319294e-06
7.72318026e-06
7.72197551e-06
7.72196731e-06
7.72151361e-06
7.72150094e-06
7.72142563e-06
7.72141745e-06
7.72141731e-06
7.7214105e-06
7.72140523e-06
7.7214149e-06
7.72140483e-06
7.72142354e-06
7.72140606e-06
7.72141548e-06
7.72139895e-06
7.72141388e-06
7.72140416e-06
7.7214166e-06
7.72140256e-06
7.72141989e-06
7.72140249e-06
7.72143108e-06
7.7214032e-06
7.72142229e-06
7.72139906e-06
7.72141862e-06
7.72141002e-06
7.72141863e-06
7.72140364e-06
7.7214106e-06
7.72141204e-06
7.72140734e-06
7.72140846e-06
7.72141168e-06
7.72141386e-06
7.72140168e-06
7.72141693e-06
7.72141619e-06
7.72142358e-06
7.72140438e-06
7.72141984e-06
7.72140728e-06
7.72142717e-06
7.72141748e-06
7.72140683e-06
7.72141906e-06
7.72140073e-06
7.72142984e-06
7.72139838e-06
7.72141794e-06
7.72141059e-06
7.72141648e-06
7.72141589e-06
7.72141081e-06
7.72142161e-06
7.72141359e-06
7.72142078e-06
7.72141087e-06
7.72141892e-06
7.72141978e-06
7.72143113e-06
7.7214009e-06
7.72142686e-06
7.7214051e-06
7.72142673e-06
7.72140787e-06
7.72141864e-06
7.72140724e-06
7.72140646e-06
7.72141373e-06
7.72141978e-06
7.72140684e-06
7.721413e-06
7.72141583e-06
7.72140962e-06
7.72140604e-06
7.72141655e-06
7.7214111e-06
7.72142629e-06
7.72140921e-06
7.72142754e-06
7.72141914e-06
7.72140986e-06
7.72142452e-06
7.72139599e-06
7.72142444e-06
7.72139411e-06
7.72141482e-06
7.7214032e-06
7.72142922e-06
7.7214051e-06
7.72141847e-06
7.72140919e-06
7.72140827e-06
7.72141441e-06
7.72140968e-06
7.72141085e-06
7.72140937e-06
7.72141001e-06
7.72141003e-06
7.72141203e-06
7.72141497e-06
7.72141867e-06
7.72140962e-06
7.72140577e-06
7.72140894e-06
7.72141847e-06
7.72141134e-06
7.72141934e-06
7.72141668e-06
7.72141576e-06
7.7214202e-06
7.72140175e-06
7.72141157e-06
7.72141349e-06
7.72140597e-06
7.72141777e-06
7.72141881e-06
7.72142586e-06
7.72141322e-06
7.72141641e-06
7.72142287e-06
7.72141969e-06
7.72141317e-06
7.72142314e-06
7.72141219e-06
7.72141451e-06
7.7214067e-06
7.72142116e-06
7.72139586e-06
7.72141624e-06
7.72140218e-06
7.72141569e-06
7.72141507e-06
7.72141932e-06
7.72141942e-06
7.72140214e-06
7.72143157e-06
7.72139789e-06
7.72143331e-06
7.72139215e-06
7.72143402e-06
7.72140455e-06
7.72142582e-06
7.72140651e-06
7.7214269e-06
7.72139946e-06
7.72142626e-06
7.7214083e-06
7.72142858e-06
7.72140626e-06
7.72141574e-06
7.72141551e-06
7.72141909e-06
7.72141715e-06
7.72140639e-06
7.72143095e-06
7.7214116e-06
7.7214138e-06
7.7214245e-06
7.72142302e-06
7.72141064e-06
7.72142054e-06
7.72142411e-06
7.72140915e-06
7.72142e-06
7.72141024e-06
7.72143179e-06
7.72141051e-06
7.72141887e-06
7.72142215e-06
7.72141706e-06
7.72141303e-06
7.72140799e-06
7.72141292e-06
7.72141698e-06
7.72141294e-06
7.72142158e-06
7.72141641e-06
7.72142375e-06
7.72141362e-06
7.72141616e-06
7.72141772e-06
7.72142079e-06
7.72141264e-06
7.72142187e-06
7.72142036e-06
7.7214295e-06
7.72141286e-06
7.721422e-06
7.72141952e-06
7.72142569e-06
7.72141907e-06
7.7214359e-06
7.72141588e-06
7.7214273e-06
7.72141168e-06
7.72143119e-06
7.72141076e-06
7.72142777e-06
7.72142051e-06
7.72143077e-06
7.72141304e-06
7.72143014e-06
7.72141672e-06
7.72141305e-06
7.72142573e-06
7.72140985e-06
7.72142424e-06
7.72140714e-06
7.72141666e-06
7.72141374e-06
7.72141634e-06
7.72142283e-06
7.72142635e-06
7.72141317e-06
7.72142368e-06
7.72141898e-06
7.7214286e-06
7.72142328e-06
7.72141443e-06
7.7214138e-06
7.72142876e-06
7.72140064e-06
7.72142633e-06
7.72140622e-06
7.72142838e-06
7.72142098e-06
7.72142042e-06
7.72142325e-06
7.72141527e-06
7.72143361e-06
7.72141274e-06
7.72142273e-06
7.72141828e-06
7.72141014e-06
7.72142632e-06
7.72142483e-06
7.72142678e-06
7.72142006e-06
7.72142737e-06
7.72141675e-06
7.72143362e-06
7.72141687e-06
7.72143486e-06
7.72142296e-06
7.72142675e-06
7.72142351e-06
7.72142436e-06
7.72141626e-06
7.72142522e-06
7.72142972e-06
7.72142611e-06
7.72143293e-06
7.72142242e-06
7.72142866e-06
7.72142213e-06
7.72142401e-06
7.72142608e-06
7.72142257e-06
7.72142749e-06
7.72141675e-06
7.72142795e-06
7.72142544e-06
7.72143562e-06
7.72142066e-06
7.72142778e-06
7.72142086e-06
7.72142447e-06
7.72142295e-06
7.72142681e-06
7.72141928e-06
7.7214155e-06
7.721415e-06
7.72141538e-06
7.72142601e-06
7.72142386e-06
7.72141545e-06
7.72143557e-06
7.7214201e-06
7.72142838e-06
7.72140335e-06
7.72143776e-06
7.72141398e-06
7.72143838e-06
7.72142169e-06
7.72143028e-06
7.72142639e-06
7.72142648e-06
7.72141855e-06
7.72143354e-06
7.72141644e-06
7.72142183e-06
7.72142327e-06
7.72142506e-06
7.72142084e-06
7.72143109e-06
7.72142231e-06
7.72142465e-06
7.72141939e-06
7.72141964e-06
7.72142706e-06
7.72142804e-06
7.72141593e-06
7.72142503e-06
7.72142245e-06
7.72141304e-06
7.72143458e-06
7.72141138e-06
7.72143631e-06
7.72142102e-06
7.72143765e-06
7.72141416e-06
7.7214465e-06
7.7214086e-06
7.72144344e-06
7.72142007e-06
7.72142234e-06
7.72143085e-06
7.72142136e-06
7.72142663e-06
7.72142421e-06
7.72143418e-06
7.72142415e-06
7.72141427e-06
7.72143234e-06
7.7214224e-06
7.72142688e-06
7.72142839e-06
7.72142707e-06
7.72141792e-06
7.72142671e-06
7.72142365e-06
7.72142765e-06
7.72142291e-06
7.72142952e-06
7.7214283e-06
7.72142491e-06
7.72142497e-06
7.7214272e-06
7.72142761e-06
7.72142841e-06
7.72142559e-06
7.72142905e-06
7.72142663e-06
7.72142792e-06
7.72142839e-06
7.72142956e-06
7.72142834e-06
7.72142939e-06
7.72143049e-06
7.72143088e-06
7.7214304e-06
7.72143164e-06
7.72143225e-06
7.7214321e-06
7.72143309e-06
7.72143383e-06
7.72143525e-06
7.72143561e-06
7.72143638e-06
7.72143753e-06
7.72143818e-06
7.72143949e-06
7.72144105e-06
7.7214426e-06
7.72144341e-06
7.72144562e-06
7.72144749e-06
7.72144977e-06
7.72145225e-06
7.72145506e-06
7.72145868e-06
7.72146288e-06
7.7214674e-06
7.72147199e-06
7.72147639e-06
7.72148045e-06
7.72148366e-06
7.72148508e-06
7.72148631e-06
7.72148666e-06
7.72148664e-06
7.72148696e-06
7.721487e-06
7.72148682e-06
7.72148707e-06
7.72148679e-06
7.72148679e-06
7.72148679e-06
7.72148682e-06
7.72148673e-06
7.72148671e-06
7.7214868e-06
7.72148681e-06
7.72148657e-06
7.72148703e-06
)
;

boundaryField
{
    closed
    {
        type            calculated;
        value           uniform 0;
    }
    open
    {
        type            calculated;
        value           uniform 0;
    }
    sides
    {
        type            empty;
    }
}


// ************************************************************************* //
