/*--------------------------------*- C++ -*----------------------------------*\
| =========                 |                                                 |
| \\      /  F ield         | OpenFOAM: The Open Source CFD Toolbox           |
|  \\    /   O peration     | Version:  2206                                  |
|   \\  /    A nd           | Website:  www.openfoam.com                      |
|    \\/     M anipulation  |                                                 |
\*---------------------------------------------------------------------------*/
FoamFile
{
    version     2.0;
    format      ascii;
    arch        "LSB;label=32;scalar=64";
    class       volVectorField;
    location    "1.98e-05";
    object      U;
}
// * * * * * * * * * * * * * * * * * * * * * * * * * * * * * * * * * * * * * //

dimensions      [0 1 -1 0 0 0 0];

internalField   nonuniform List<vector> 
3183
(
(6.06117297e-13 0 0)
(3.3154637e-13 0 0)
(-4.49349905e-13 0 0)
(-5.98549427e-13 0 0)
(-2.09948749e-13 0 0)
(-1.81235635e-17 0 0)
(-1.3402605e-18 0 0)
(-1.45015303e-22 0 0)
(2.38137871e-19 0 0)
(5.76385104e-18 0 0)
(8.26927721e-14 0 0)
(3.98931598e-13 0 0)
(8.86605971e-13 0 0)
(4.01858168e-13 0 0)
(2.44638461e-13 0 0)
(-5.51879021e-14 0 0)
(-5.03071735e-13 0 0)
(-8.26513177e-13 0 0)
(-1.16900878e-12 0 0)
(-4.01342396e-13 0 0)
(3.59972586e-13 0 0)
(1.15078556e-13 0 0)
(1.78713411e-13 0 0)
(6.18996656e-13 0 0)
(8.6087072e-13 0 0)
(9.79058085e-13 0 0)
(7.72404547e-13 0 0)
(5.01081072e-13 0 0)
(2.07539994e-13 0 0)
(2.24510921e-13 0 0)
(5.03677931e-16 0 0)
(9.07021312e-14 0 0)
(-3.40690223e-13 0 0)
(-7.25879192e-13 0 0)
(-9.38915489e-13 0 0)
(-1.00930035e-12 0 0)
(-8.78511117e-13 0 0)
(-5.8567077e-13 0 0)
(-4.04332406e-13 0 0)
(-3.99700198e-13 0 0)
(-1.16961053e-13 0 0)
(4.02643462e-13 0 0)
(9.70957227e-13 0 0)
(6.62064133e-13 0 0)
(7.56243413e-13 0 0)
(6.75239172e-13 0 0)
(-2.1350498e-13 0 0)
(-9.40124807e-13 0 0)
(-1.61721561e-12 0 0)
(-2.05938352e-12 0 0)
(-2.77543906e-12 0 0)
(-3.20673293e-12 0 0)
(-4.27672143e-12 0 0)
(-4.46175172e-12 0 0)
(-4.83568284e-12 0 0)
(-5.43798607e-12 0 0)
(-5.7628811e-12 0 0)
(-5.93906267e-12 0 0)
(-6.30659102e-12 0 0)
(-6.33815976e-12 0 0)
(-6.70227273e-12 0 0)
(-7.64663972e-12 0 0)
(-7.39633331e-12 0 0)
(-8.19682111e-12 0 0)
(-8.04979959e-12 0 0)
(-8.65496533e-12 0 0)
(-9.10994604e-12 0 0)
(-9.11591169e-12 0 0)
(-9.46396687e-12 0 0)
(-9.99780785e-12 0 0)
(-1.020952e-11 0 0)
(-1.02588597e-11 0 0)
(-9.8858284e-12 0 0)
(-1.0633327e-11 0 0)
(-1.13771852e-11 0 0)
(-1.06958317e-11 0 0)
(-1.12240006e-11 0 0)
(-1.06262012e-11 0 0)
(-1.05771298e-11 0 0)
(-1.08101432e-11 0 0)
(-1.18443757e-11 0 0)
(-1.03380634e-11 0 0)
(-1.05877338e-11 0 0)
(-1.12751353e-11 0 0)
(-1.12916477e-11 0 0)
(-1.08466229e-11 0 0)
(-1.07276438e-11 0 0)
(-1.1736225e-11 0 0)
(-1.08048511e-11 0 0)
(-1.18203131e-11 0 0)
(-1.21027434e-11 0 0)
(-1.16350754e-11 0 0)
(-1.19724348e-11 0 0)
(-1.19077869e-11 0 0)
(-1.19332221e-11 0 0)
(-1.27229782e-11 0 0)
(-1.11476164e-11 0 0)
(-1.2519676e-11 0 0)
(-1.25764652e-11 0 0)
(-1.29886296e-11 0 0)
(-1.20121596e-11 0 0)
(-1.27167704e-11 0 0)
(-1.27511003e-11 0 0)
(-1.2061852e-11 0 0)
(-1.18094907e-11 0 0)
(-1.31228524e-11 0 0)
(-1.33597674e-11 0 0)
(-1.33273488e-11 0 0)
(-1.44299963e-11 0 0)
(-1.38563706e-11 0 0)
(-1.32146509e-11 0 0)
(-1.3854455e-11 0 0)
(-1.34826132e-11 0 0)
(-1.51992296e-11 0 0)
(-1.35911998e-11 0 0)
(-1.4281877e-11 0 0)
(-1.44256864e-11 0 0)
(-1.36000196e-11 0 0)
(-1.39859598e-11 0 0)
(-1.5532463e-11 0 0)
(-1.46521365e-11 0 0)
(-1.43242099e-11 0 0)
(-1.36512438e-11 0 0)
(-1.50465387e-11 0 0)
(-1.4954549e-11 0 0)
(-1.56655612e-11 0 0)
(-1.47924281e-11 0 0)
(-1.57594489e-11 0 0)
(-1.41824615e-11 0 0)
(-1.51445289e-11 0 0)
(-1.52401814e-11 0 0)
(-1.52918053e-11 0 0)
(-1.67098539e-11 0 0)
(-1.75979993e-11 0 0)
(-1.50726839e-11 0 0)
(-1.64722499e-11 0 0)
(-1.61527521e-11 0 0)
(-1.64474789e-11 0 0)
(-1.52884461e-11 0 0)
(-1.56085838e-11 0 0)
(-1.61533001e-11 0 0)
(-1.60548752e-11 0 0)
(-1.70267611e-11 0 0)
(-1.60885096e-11 0 0)
(-1.5297533e-11 0 0)
(-1.62415963e-11 0 0)
(-1.5696421e-11 0 0)
(-1.65197253e-11 0 0)
(-1.57168405e-11 0 0)
(-1.60490962e-11 0 0)
(-1.64362764e-11 0 0)
(-1.56768925e-11 0 0)
(-1.62194983e-11 0 0)
(-1.5635305e-11 0 0)
(-1.57021483e-11 0 0)
(-1.55600629e-11 0 0)
(-1.61914243e-11 0 0)
(-1.62283838e-11 0 0)
(-1.61822374e-11 0 0)
(-1.62439008e-11 0 0)
(-1.56285283e-11 0 0)
(-1.57401657e-11 0 0)
(-1.60109136e-11 0 0)
(-1.59524251e-11 0 0)
(-1.60955283e-11 0 0)
(-1.60381276e-11 0 0)
(-1.52598778e-11 0 0)
(-1.54203943e-11 0 0)
(-1.51355913e-11 0 0)
(-1.50403171e-11 0 0)
(-1.49984879e-11 0 0)
(-1.43982481e-11 0 0)
(-1.59453809e-11 0 0)
(-1.57745664e-11 0 0)
(-1.45453635e-11 0 0)
(-1.57581572e-11 0 0)
(-1.62727092e-11 0 0)
(-1.51034501e-11 0 0)
(-1.6209075e-11 0 0)
(-1.76938375e-11 0 0)
(-1.5973221e-11 0 0)
(-1.61744189e-11 0 0)
(-1.59113723e-11 0 0)
(-1.63006171e-11 0 0)
(-1.69537082e-11 0 0)
(-1.6677291e-11 0 0)
(-1.60356958e-11 0 0)
(-1.6042441e-11 0 0)
(-1.73384156e-11 0 0)
(-1.64012022e-11 0 0)
(-1.80166837e-11 0 0)
(-1.81047758e-11 0 0)
(-1.81101065e-11 0 0)
(-1.74657437e-11 0 0)
(-1.8471988e-11 0 0)
(-1.76152444e-11 0 0)
(-1.73650827e-11 0 0)
(-1.78634356e-11 0 0)
(-1.79518015e-11 0 0)
(-1.83741295e-11 0 0)
(-1.85323927e-11 0 0)
(-1.79799607e-11 0 0)
(-1.86009019e-11 0 0)
(-1.76282719e-11 0 0)
(-1.86105954e-11 0 0)
(-1.78795149e-11 0 0)
(-1.80688151e-11 0 0)
(-1.83673013e-11 0 0)
(-1.83806175e-11 0 0)
(-1.7802099e-11 0 0)
(-1.74623184e-11 0 0)
(-1.90481555e-11 0 0)
(-1.83718194e-11 0 0)
(-1.81485051e-11 0 0)
(-1.82252349e-11 0 0)
(-1.89471244e-11 0 0)
(-1.88217924e-11 0 0)
(-1.80395259e-11 0 0)
(-1.84945833e-11 0 0)
(-1.86801815e-11 0 0)
(-2.03165905e-11 0 0)
(-1.94875006e-11 0 0)
(-2.03812713e-11 0 0)
(-1.96963043e-11 0 0)
(-1.87888174e-11 0 0)
(-2.04393947e-11 0 0)
(-1.90982398e-11 0 0)
(-1.95416972e-11 0 0)
(-2.05543734e-11 0 0)
(-1.87158628e-11 0 0)
(-1.99693469e-11 0 0)
(-1.95109431e-11 0 0)
(-1.82475919e-11 0 0)
(-1.89865618e-11 0 0)
(-1.85668845e-11 0 0)
(-1.84609442e-11 0 0)
(-1.80621537e-11 0 0)
(-1.81128587e-11 0 0)
(-1.8059925e-11 0 0)
(-1.84959623e-11 0 0)
(-1.846666e-11 0 0)
(-1.80372072e-11 0 0)
(-1.80364238e-11 0 0)
(-1.73425568e-11 0 0)
(-1.86965006e-11 0 0)
(-1.91690147e-11 0 0)
(-1.76633332e-11 0 0)
(-1.89261485e-11 0 0)
(-1.80943662e-11 0 0)
(-1.96920033e-11 0 0)
(-1.92201321e-11 0 0)
(-1.88614382e-11 0 0)
(-1.97381086e-11 0 0)
(-1.94340418e-11 0 0)
(-1.87279347e-11 0 0)
(-1.89643183e-11 0 0)
(-1.856094e-11 0 0)
(-1.82966948e-11 0 0)
(-1.86242346e-11 0 0)
(-1.92344215e-11 0 0)
(-1.78281245e-11 0 0)
(-1.89177219e-11 0 0)
(-1.84294583e-11 0 0)
(-1.8890517e-11 0 0)
(-1.87126384e-11 0 0)
(-1.97068415e-11 0 0)
(-1.82958846e-11 0 0)
(-1.9492033e-11 0 0)
(-1.92222035e-11 0 0)
(-1.81865624e-11 0 0)
(-1.92225419e-11 0 0)
(-1.88403924e-11 0 0)
(-1.96421693e-11 0 0)
(-1.87168721e-11 0 0)
(-2.02480891e-11 0 0)
(-1.93276815e-11 0 0)
(-1.96101103e-11 0 0)
(-2.08033873e-11 0 0)
(-2.01178529e-11 0 0)
(-1.85340463e-11 0 0)
(-2.01227116e-11 0 0)
(-1.99575928e-11 0 0)
(-2.05358558e-11 0 0)
(-2.14867188e-11 0 0)
(-1.95590545e-11 0 0)
(-2.07362483e-11 0 0)
(-1.93833348e-11 0 0)
(-2.04866815e-11 0 0)
(-2.05052545e-11 0 0)
(-2.05307829e-11 0 0)
(-2.10976319e-11 0 0)
(-2.06705345e-11 0 0)
(-2.09318529e-11 0 0)
(-1.99258519e-11 0 0)
(-1.9970264e-11 0 0)
(-2.07162553e-11 0 0)
(-2.07513916e-11 0 0)
(-2.09787464e-11 0 0)
(-2.0734941e-11 0 0)
(-2.13111925e-11 0 0)
(-2.15155857e-11 0 0)
(-2.11500451e-11 0 0)
(-2.14644151e-11 0 0)
(-2.13169602e-11 0 0)
(-2.2175808e-11 0 0)
(-2.23361438e-11 0 0)
(-2.14827265e-11 0 0)
(-2.15041301e-11 0 0)
(-2.32575638e-11 0 0)
(-2.2080675e-11 0 0)
(-2.32667283e-11 0 0)
(-2.19696691e-11 0 0)
(-2.14916582e-11 0 0)
(-2.2522867e-11 0 0)
(-2.21894574e-11 0 0)
(-2.23608983e-11 0 0)
(-2.11611635e-11 0 0)
(-2.29715594e-11 0 0)
(-2.20866072e-11 0 0)
(-2.18114377e-11 0 0)
(-2.25782161e-11 0 0)
(-2.26702727e-11 0 0)
(-2.32697033e-11 0 0)
(-2.23795032e-11 0 0)
(-2.20700914e-11 0 0)
(-2.21998337e-11 0 0)
(-2.25010766e-11 0 0)
(-2.23392946e-11 0 0)
(-2.2074121e-11 0 0)
(-2.11037731e-11 0 0)
(-2.12036759e-11 0 0)
(-2.12579633e-11 0 0)
(-2.1846864e-11 0 0)
(-2.04672609e-11 0 0)
(-2.07470783e-11 0 0)
(-2.02645664e-11 0 0)
(-2.08406227e-11 0 0)
(-2.07969319e-11 0 0)
(-2.07893276e-11 0 0)
(-2.13974463e-11 0 0)
(-2.09848578e-11 0 0)
(-2.13051677e-11 0 0)
(-2.08970571e-11 0 0)
(-2.01343393e-11 0 0)
(-2.03005095e-11 0 0)
(-2.00245321e-11 0 0)
(-2.07200011e-11 0 0)
(-1.98181495e-11 0 0)
(-2.0542211e-11 0 0)
(-1.97852531e-11 0 0)
(-2.009235e-11 0 0)
(-1.98145684e-11 0 0)
(-1.97779054e-11 0 0)
(-1.93132408e-11 0 0)
(-1.97740968e-11 0 0)
(-1.92495375e-11 0 0)
(-2.09237111e-11 0 0)
(-2.05587752e-11 0 0)
(-2.07504907e-11 0 0)
(-1.95635522e-11 0 0)
(-2.03249753e-11 0 0)
(-2.06263398e-11 0 0)
(-2.02070117e-11 0 0)
(-1.98276248e-11 0 0)
(-1.90550237e-11 0 0)
(-2.00869121e-11 0 0)
(-1.95468721e-11 0 0)
(-2.04061487e-11 0 0)
(-1.97112938e-11 0 0)
(-2.00791239e-11 0 0)
(-1.97410774e-11 0 0)
(-1.9378677e-11 0 0)
(-1.94298875e-11 0 0)
(-1.88851148e-11 0 0)
(-1.94620571e-11 0 0)
(-2.0871939e-11 0 0)
(-1.96529678e-11 0 0)
(-1.92576935e-11 0 0)
(-1.9012716e-11 0 0)
(-2.05130089e-11 0 0)
(-1.89031139e-11 0 0)
(-1.8883085e-11 0 0)
(-2.02712262e-11 0 0)
(-1.9443689e-11 0 0)
(-2.01712218e-11 0 0)
(-1.98332957e-11 0 0)
(-2.00031466e-11 0 0)
(-1.98388734e-11 0 0)
(-1.98348821e-11 0 0)
(-1.91348213e-11 0 0)
(-1.90848067e-11 0 0)
(-1.87055337e-11 0 0)
(-1.91000521e-11 0 0)
(-1.84853443e-11 0 0)
(-1.78014604e-11 0 0)
(-1.85096856e-11 0 0)
(-1.911784e-11 0 0)
(-1.81290534e-11 0 0)
(-1.82718385e-11 0 0)
(-1.71896878e-11 0 0)
(-1.78666222e-11 0 0)
(-1.87286102e-11 0 0)
(-1.76002276e-11 0 0)
(-1.91595959e-11 0 0)
(-1.76325696e-11 0 0)
(-1.74043179e-11 0 0)
(-1.7264216e-11 0 0)
(-1.70465895e-11 0 0)
(-1.67413956e-11 0 0)
(-1.7100625e-11 0 0)
(-1.73566028e-11 0 0)
(-1.67609938e-11 0 0)
(-1.59423689e-11 0 0)
(-1.49744022e-11 0 0)
(-1.66073893e-11 0 0)
(-1.57797229e-11 0 0)
(-1.49735802e-11 0 0)
(-1.43960012e-11 0 0)
(-1.51009609e-11 0 0)
(-1.54157777e-11 0 0)
(-1.4531617e-11 0 0)
(-1.45156943e-11 0 0)
(-1.40647277e-11 0 0)
(-1.39548781e-11 0 0)
(-1.40257191e-11 0 0)
(-1.47100119e-11 0 0)
(-1.40492981e-11 0 0)
(-1.418031e-11 0 0)
(-1.44559577e-11 0 0)
(-1.45178314e-11 0 0)
(-1.44545531e-11 0 0)
(-1.42146319e-11 0 0)
(-1.48420142e-11 0 0)
(-1.43156183e-11 0 0)
(-1.35235304e-11 0 0)
(-1.46579339e-11 0 0)
(-1.48347803e-11 0 0)
(-1.40130394e-11 0 0)
(-1.40700916e-11 0 0)
(-1.43872906e-11 0 0)
(-1.35411725e-11 0 0)
(-1.46159538e-11 0 0)
(-1.38458586e-11 0 0)
(-1.45614581e-11 0 0)
(-1.39010078e-11 0 0)
(-1.30313825e-11 0 0)
(-1.32741573e-11 0 0)
(-1.40689892e-11 0 0)
(-1.35629102e-11 0 0)
(-1.26797646e-11 0 0)
(-1.36835441e-11 0 0)
(-1.33455104e-11 0 0)
(-1.36132174e-11 0 0)
(-1.36084669e-11 0 0)
(-1.2857219e-11 0 0)
(-1.23792473e-11 0 0)
(-1.26164625e-11 0 0)
(-1.10942738e-11 0 0)
(-1.24657889e-11 0 0)
(-1.1934714e-11 0 0)
(-1.11980392e-11 0 0)
(-1.00190566e-11 0 0)
(-1.10508393e-11 0 0)
(-1.12356921e-11 0 0)
(-1.11284898e-11 0 0)
(-1.13515284e-11 0 0)
(-1.07029694e-11 0 0)
(-1.07472671e-11 0 0)
(-1.0869629e-11 0 0)
(-1.07848584e-11 0 0)
(-1.08811933e-11 0 0)
(-1.08312195e-11 0 0)
(-1.10021916e-11 0 0)
(-1.0552716e-11 0 0)
(-9.54411737e-12 0 0)
(-9.77203138e-12 0 0)
(-1.12611047e-11 0 0)
(-1.06379283e-11 0 0)
(-1.02705285e-11 0 0)
(-1.04808921e-11 0 0)
(-9.74702163e-12 0 0)
(-1.00813305e-11 0 0)
(-1.01065769e-11 0 0)
(-9.91573567e-12 0 0)
(-8.9205916e-12 0 0)
(-8.84091289e-12 0 0)
(-1.0128694e-11 0 0)
(-9.61726565e-12 0 0)
(-9.36883551e-12 0 0)
(-9.49721867e-12 0 0)
(-1.00706275e-11 0 0)
(-9.53826312e-12 0 0)
(-9.86676715e-12 0 0)
(-1.05679581e-11 0 0)
(-1.05459044e-11 0 0)
(-9.94079719e-12 0 0)
(-1.06751847e-11 0 0)
(-1.00758148e-11 0 0)
(-1.02899422e-11 0 0)
(-1.01170822e-11 0 0)
(-1.08147652e-11 0 0)
(-1.03356057e-11 0 0)
(-9.32575611e-12 0 0)
(-9.68807245e-12 0 0)
(-9.87279512e-12 0 0)
(-1.02386169e-11 0 0)
(-9.55869209e-12 0 0)
(-8.15517476e-12 0 0)
(-9.72269841e-12 0 0)
(-8.83566227e-12 0 0)
(-8.52677315e-12 0 0)
(-9.45668552e-12 0 0)
(-8.56004266e-12 0 0)
(-8.31906751e-12 0 0)
(-8.49839473e-12 0 0)
(-8.95514922e-12 0 0)
(-8.60779073e-12 0 0)
(-7.83469461e-12 0 0)
(-7.57666569e-12 0 0)
(-8.3771429e-12 0 0)
(-8.82656309e-12 0 0)
(-8.66915366e-12 0 0)
(-7.42481134e-12 0 0)
(-7.79764737e-12 0 0)
(-8.0882096e-12 0 0)
(-7.92685041e-12 0 0)
(-7.42368173e-12 0 0)
(-7.43445151e-12 0 0)
(-7.06240652e-12 0 0)
(-7.96274448e-12 0 0)
(-8.04563487e-12 0 0)
(-6.23848661e-12 0 0)
(-6.70267433e-12 0 0)
(-7.72989765e-12 0 0)
(-7.15284344e-12 0 0)
(-6.75653464e-12 0 0)
(-6.6432928e-12 0 0)
(-6.78996099e-12 0 0)
(-6.57611254e-12 0 0)
(-6.02427126e-12 0 0)
(-5.77132406e-12 0 0)
(-6.00210442e-12 0 0)
(-5.67638344e-12 0 0)
(-5.89818479e-12 0 0)
(-6.13736038e-12 0 0)
(-5.03600213e-12 0 0)
(-5.63784801e-12 0 0)
(-5.22296752e-12 0 0)
(-5.7191332e-12 0 0)
(-4.75784754e-12 0 0)
(-5.22368493e-12 0 0)
(-4.85764179e-12 0 0)
(-4.62021915e-12 0 0)
(-4.00670119e-12 0 0)
(-4.48838755e-12 0 0)
(-3.99793357e-12 0 0)
(-3.05088656e-12 0 0)
(-3.39431124e-12 0 0)
(-4.50377752e-12 0 0)
(-3.84568156e-12 0 0)
(-3.53200772e-12 0 0)
(-4.97286641e-12 0 0)
(-4.46427335e-12 0 0)
(-4.26555667e-12 0 0)
(-5.06630116e-12 0 0)
(-3.03885016e-12 0 0)
(-4.01642137e-12 0 0)
(-3.87377399e-12 0 0)
(-4.57239768e-12 0 0)
(-3.26615979e-12 0 0)
(-4.40477786e-12 0 0)
(-4.1493483e-12 0 0)
(-3.57434841e-12 0 0)
(-3.56266477e-12 0 0)
(-2.86621342e-12 0 0)
(-2.74314833e-12 0 0)
(-4.03578534e-12 0 0)
(-2.55552018e-12 0 0)
(-3.05282408e-12 0 0)
(-2.73187665e-12 0 0)
(-3.62952368e-12 0 0)
(-2.87917951e-12 0 0)
(-2.21496475e-12 0 0)
(-2.47230942e-12 0 0)
(-2.57677681e-12 0 0)
(-1.62012325e-12 0 0)
(-1.99652236e-12 0 0)
(-2.48455812e-12 0 0)
(-1.85771166e-12 0 0)
(-3.43240413e-12 0 0)
(-1.75969105e-12 0 0)
(-2.09236604e-12 0 0)
(-2.36095122e-12 0 0)
(-2.03208582e-12 0 0)
(-2.13831622e-12 0 0)
(-2.97407237e-12 0 0)
(-1.53868584e-12 0 0)
(-1.98497348e-12 0 0)
(-7.73984687e-13 0 0)
(-3.64012545e-13 0 0)
(-9.62120915e-13 0 0)
(-1.68547146e-12 0 0)
(-1.39496863e-12 0 0)
(-1.41359262e-12 0 0)
(-3.39909699e-13 0 0)
(-1.93437649e-13 0 0)
(-4.52169252e-13 0 0)
(-9.49626116e-13 0 0)
(-7.79188951e-13 0 0)
(-6.00405928e-13 0 0)
(-1.07495204e-12 0 0)
(-1.11927348e-12 0 0)
(-1.94468663e-13 0 0)
(-6.45330237e-13 0 0)
(-4.3558834e-13 0 0)
(-7.70091948e-13 0 0)
(7.84863559e-13 0 0)
(6.41579182e-13 0 0)
(8.9634506e-14 0 0)
(1.01828086e-12 0 0)
(-4.34760291e-13 0 0)
(4.29772109e-13 0 0)
(-4.01571334e-13 0 0)
(-1.84332696e-13 0 0)
(7.26575445e-13 0 0)
(-8.36215395e-13 0 0)
(4.2184444e-13 0 0)
(-2.94427494e-13 0 0)
(-8.94640098e-14 0 0)
(4.41913832e-13 0 0)
(7.06716663e-13 0 0)
(1.16234774e-12 0 0)
(5.26849681e-13 0 0)
(1.6412535e-12 0 0)
(2.02653366e-12 0 0)
(1.33145179e-12 0 0)
(1.75470148e-12 0 0)
(1.99912515e-12 0 0)
(1.64015233e-12 0 0)
(1.92462106e-12 0 0)
(1.98508022e-12 0 0)
(1.52614864e-12 0 0)
(2.16869201e-12 0 0)
(2.46756043e-12 0 0)
(1.44354699e-12 0 0)
(9.93721657e-13 0 0)
(1.26483745e-12 0 0)
(2.2528487e-12 0 0)
(2.10389658e-12 0 0)
(2.90986646e-12 0 0)
(3.20655081e-12 0 0)
(2.82162854e-12 0 0)
(2.042406e-12 0 0)
(3.08656479e-12 0 0)
(2.24954104e-12 0 0)
(3.06785189e-12 0 0)
(2.67346407e-12 0 0)
(2.71465329e-12 0 0)
(2.74798288e-12 0 0)
(1.44891647e-12 0 0)
(3.04817111e-12 0 0)
(4.24670691e-12 0 0)
(2.61010382e-12 0 0)
(2.3013755e-12 0 0)
(2.79138685e-12 0 0)
(2.05174642e-12 0 0)
(1.72778165e-12 0 0)
(2.98161822e-12 0 0)
(3.18165806e-12 0 0)
(2.60130904e-12 0 0)
(3.0684557e-12 0 0)
(2.31427244e-12 0 0)
(2.80463821e-12 0 0)
(4.00843672e-12 0 0)
(2.06712101e-12 0 0)
(3.42926521e-12 0 0)
(2.12885333e-12 0 0)
(3.17481084e-12 0 0)
(2.75201565e-12 0 0)
(2.69102322e-12 0 0)
(3.18688751e-12 0 0)
(3.44766875e-12 0 0)
(2.81574624e-12 0 0)
(3.85738036e-12 0 0)
(3.53040384e-12 0 0)
(3.151034e-12 0 0)
(3.06958554e-12 0 0)
(3.32570984e-12 0 0)
(2.51090393e-12 0 0)
(2.37840936e-12 0 0)
(3.36444054e-12 0 0)
(4.1312616e-12 0 0)
(2.18244476e-12 0 0)
(3.08011914e-12 0 0)
(4.20021696e-12 0 0)
(3.80394836e-12 0 0)
(3.67133645e-12 0 0)
(3.40049091e-12 0 0)
(4.31646248e-12 0 0)
(4.92584441e-12 0 0)
(3.8704701e-12 0 0)
(3.8204141e-12 0 0)
(4.0223796e-12 0 0)
(3.58774856e-12 0 0)
(4.64245148e-12 0 0)
(4.60822953e-12 0 0)
(4.75235527e-12 0 0)
(5.17399067e-12 0 0)
(4.36223225e-12 0 0)
(5.27307142e-12 0 0)
(4.23474828e-12 0 0)
(4.31800242e-12 0 0)
(3.86109185e-12 0 0)
(4.05746001e-12 0 0)
(3.83421866e-12 0 0)
(3.67339503e-12 0 0)
(3.75870401e-12 0 0)
(4.45011497e-12 0 0)
(4.59697742e-12 0 0)
(4.57867891e-12 0 0)
(5.1193787e-12 0 0)
(2.93335946e-12 0 0)
(4.62071598e-12 0 0)
(4.67245173e-12 0 0)
(5.06065895e-12 0 0)
(4.64128002e-12 0 0)
(4.65585833e-12 0 0)
(4.8200984e-12 0 0)
(4.6133852e-12 0 0)
(5.4753038e-12 0 0)
(4.89740547e-12 0 0)
(4.80635926e-12 0 0)
(5.20099011e-12 0 0)
(4.35895791e-12 0 0)
(5.05414298e-12 0 0)
(5.896827e-12 0 0)
(4.71028819e-12 0 0)
(5.18230758e-12 0 0)
(5.44686043e-12 0 0)
(6.49107259e-12 0 0)
(5.20053307e-12 0 0)
(5.38776275e-12 0 0)
(5.53345647e-12 0 0)
(5.4861205e-12 0 0)
(5.43130386e-12 0 0)
(5.23199527e-12 0 0)
(5.64588032e-12 0 0)
(5.51535552e-12 0 0)
(5.36689859e-12 0 0)
(4.9090805e-12 0 0)
(4.63917978e-12 0 0)
(4.77357387e-12 0 0)
(4.68973994e-12 0 0)
(4.14459604e-12 0 0)
(5.7896681e-12 0 0)
(4.55611005e-12 0 0)
(5.24540935e-12 0 0)
(5.15655476e-12 0 0)
(5.71229767e-12 0 0)
(5.61125991e-12 0 0)
(5.11524043e-12 0 0)
(6.26141768e-12 0 0)
(4.82936334e-12 0 0)
(4.71679634e-12 0 0)
(4.83308427e-12 0 0)
(5.43703579e-12 0 0)
(4.8984241e-12 0 0)
(5.19684432e-12 0 0)
(6.27522778e-12 0 0)
(5.57918723e-12 0 0)
(5.61275384e-12 0 0)
(5.90165773e-12 0 0)
(5.78853907e-12 0 0)
(5.67869441e-12 0 0)
(5.50757401e-12 0 0)
(6.16545276e-12 0 0)
(6.65784147e-12 0 0)
(5.79226936e-12 0 0)
(5.74893081e-12 0 0)
(6.57170939e-12 0 0)
(6.789495e-12 0 0)
(7.3047396e-12 0 0)
(7.62254458e-12 0 0)
(6.26500291e-12 0 0)
(7.03227065e-12 0 0)
(6.94588624e-12 0 0)
(7.12777042e-12 0 0)
(6.61693451e-12 0 0)
(7.25242027e-12 0 0)
(6.64321481e-12 0 0)
(7.41993371e-12 0 0)
(7.04649464e-12 0 0)
(7.2536696e-12 0 0)
(6.22548064e-12 0 0)
(6.75469614e-12 0 0)
(7.04499965e-12 0 0)
(6.81697859e-12 0 0)
(6.86462812e-12 0 0)
(5.90173876e-12 0 0)
(7.06287575e-12 0 0)
(6.6874853e-12 0 0)
(7.59948902e-12 0 0)
(7.58661409e-12 0 0)
(7.10536899e-12 0 0)
(7.92087801e-12 0 0)
(7.93700857e-12 0 0)
(7.61010018e-12 0 0)
(7.32544057e-12 0 0)
(7.13739584e-12 0 0)
(7.3533597e-12 0 0)
(6.5860367e-12 0 0)
(7.06604629e-12 0 0)
(6.26290697e-12 0 0)
(7.48896688e-12 0 0)
(6.2697764e-12 0 0)
(6.60230303e-12 0 0)
(7.39424452e-12 0 0)
(5.80750743e-12 0 0)
(7.0245097e-12 0 0)
(7.07197665e-12 0 0)
(5.77279272e-12 0 0)
(6.66911965e-12 0 0)
(7.83317151e-12 0 0)
(6.34200721e-12 0 0)
(6.66757869e-12 0 0)
(6.32125248e-12 0 0)
(6.67215223e-12 0 0)
(5.84614592e-12 0 0)
(6.12197313e-12 0 0)
(6.15990648e-12 0 0)
(6.39480981e-12 0 0)
(5.89655619e-12 0 0)
(6.03147555e-12 0 0)
(5.82153789e-12 0 0)
(6.0866326e-12 0 0)
(5.26902668e-12 0 0)
(5.86644775e-12 0 0)
(4.69845274e-12 0 0)
(6.1378226e-12 0 0)
(5.05496534e-12 0 0)
(5.04154167e-12 0 0)
(4.92070965e-12 0 0)
(7.06934623e-12 0 0)
(5.58920826e-12 0 0)
(5.82598766e-12 0 0)
(5.8361067e-12 0 0)
(7.01751751e-12 0 0)
(6.67685332e-12 0 0)
(7.33894193e-12 0 0)
(5.72911559e-12 0 0)
(7.47550167e-12 0 0)
(7.12111588e-12 0 0)
(7.8596157e-12 0 0)
(7.41839869e-12 0 0)
(7.37381735e-12 0 0)
(7.25315965e-12 0 0)
(7.31294673e-12 0 0)
(6.40426261e-12 0 0)
(8.21777725e-12 0 0)
(7.41486408e-12 0 0)
(7.02546124e-12 0 0)
(7.3652895e-12 0 0)
(6.39679741e-12 0 0)
(7.20168228e-12 0 0)
(6.29316896e-12 0 0)
(6.69217612e-12 0 0)
(7.43708046e-12 0 0)
(7.41661546e-12 0 0)
(7.03664409e-12 0 0)
(8.44461489e-12 0 0)
(7.76476821e-12 0 0)
(5.91160517e-12 0 0)
(8.05113574e-12 0 0)
(8.16982309e-12 0 0)
(8.08750656e-12 0 0)
(6.59868457e-12 0 0)
(7.52302012e-12 0 0)
(8.2777746e-12 0 0)
(8.78467095e-12 0 0)
(7.9962555e-12 0 0)
(7.46468728e-12 0 0)
(8.67048063e-12 0 0)
(8.83604835e-12 0 0)
(8.33545338e-12 0 0)
(8.39646162e-12 0 0)
(8.36501469e-12 0 0)
(8.94492951e-12 0 0)
(8.85995166e-12 0 0)
(9.30080726e-12 0 0)
(8.04552182e-12 0 0)
(8.31386631e-12 0 0)
(9.47860781e-12 0 0)
(9.12400211e-12 0 0)
(8.88302936e-12 0 0)
(8.17629999e-12 0 0)
(9.22293346e-12 0 0)
(8.12743236e-12 0 0)
(9.03174535e-12 0 0)
(8.92565779e-12 0 0)
(9.04016682e-12 0 0)
(8.86297228e-12 0 0)
(9.04090649e-12 0 0)
(9.00966571e-12 0 0)
(9.36340038e-12 0 0)
(9.76493523e-12 0 0)
(9.89440546e-12 0 0)
(8.58133082e-12 0 0)
(9.07476972e-12 0 0)
(1.0053915e-11 0 0)
(9.55232683e-12 0 0)
(1.03328771e-11 0 0)
(9.65813431e-12 0 0)
(9.44251981e-12 0 0)
(9.08894121e-12 0 0)
(9.79868447e-12 0 0)
(9.11227247e-12 0 0)
(9.8458381e-12 0 0)
(9.0671615e-12 0 0)
(9.57954143e-12 0 0)
(1.01298793e-11 0 0)
(9.85117208e-12 0 0)
(9.94930663e-12 0 0)
(9.98682172e-12 0 0)
(1.06459315e-11 0 0)
(1.03741477e-11 0 0)
(1.07293347e-11 0 0)
(1.08307413e-11 0 0)
(1.0199729e-11 0 0)
(9.66925611e-12 0 0)
(1.0762229e-11 0 0)
(1.05033791e-11 0 0)
(1.03680941e-11 0 0)
(1.08072118e-11 0 0)
(1.0684891e-11 0 0)
(1.07976932e-11 0 0)
(1.02253627e-11 0 0)
(8.94959234e-12 0 0)
(1.00762647e-11 0 0)
(1.02928929e-11 0 0)
(1.00509055e-11 0 0)
(9.10465755e-12 0 0)
(9.57666099e-12 0 0)
(1.03682916e-11 0 0)
(9.80868653e-12 0 0)
(9.78099094e-12 0 0)
(1.03929868e-11 0 0)
(1.04692856e-11 0 0)
(9.71169828e-12 0 0)
(1.00643769e-11 0 0)
(1.00024709e-11 0 0)
(1.01458034e-11 0 0)
(1.05481367e-11 0 0)
(1.02862525e-11 0 0)
(9.86511268e-12 0 0)
(9.5442481e-12 0 0)
(9.76496175e-12 0 0)
(9.45917994e-12 0 0)
(9.95298289e-12 0 0)
(9.36802601e-12 0 0)
(9.88717206e-12 0 0)
(1.03122976e-11 0 0)
(1.03291911e-11 0 0)
(1.02904991e-11 0 0)
(1.05237266e-11 0 0)
(1.03167596e-11 0 0)
(9.93477523e-12 0 0)
(1.12276646e-11 0 0)
(1.01403033e-11 0 0)
(1.15114593e-11 0 0)
(1.12010573e-11 0 0)
(1.00452953e-11 0 0)
(1.1061398e-11 0 0)
(1.07491365e-11 0 0)
(1.0683068e-11 0 0)
(1.0754353e-11 0 0)
(1.03328094e-11 0 0)
(1.06122816e-11 0 0)
(1.01115592e-11 0 0)
(1.00020111e-11 0 0)
(9.8375075e-12 0 0)
(1.08267377e-11 0 0)
(1.13341841e-11 0 0)
(9.5472696e-12 0 0)
(1.05621742e-11 0 0)
(9.56354632e-12 0 0)
(1.00216519e-11 0 0)
(9.96888821e-12 0 0)
(9.42736446e-12 0 0)
(1.02106925e-11 0 0)
(9.19269515e-12 0 0)
(9.87587165e-12 0 0)
(8.4613055e-12 0 0)
(8.56178261e-12 0 0)
(8.3943249e-12 0 0)
(9.2929385e-12 0 0)
(8.12126652e-12 0 0)
(7.5169082e-12 0 0)
(7.92260943e-12 0 0)
(7.84515729e-12 0 0)
(7.45938682e-12 0 0)
(7.66365168e-12 0 0)
(7.62560141e-12 0 0)
(6.92198414e-12 0 0)
(7.05642473e-12 0 0)
(7.74736896e-12 0 0)
(7.50146469e-12 0 0)
(7.94494937e-12 0 0)
(7.59625521e-12 0 0)
(7.91350948e-12 0 0)
(7.1986053e-12 0 0)
(7.38206456e-12 0 0)
(7.75285794e-12 0 0)
(7.7113947e-12 0 0)
(7.0962248e-12 0 0)
(7.56694542e-12 0 0)
(6.74867807e-12 0 0)
(7.35160807e-12 0 0)
(6.57188027e-12 0 0)
(7.0609341e-12 0 0)
(6.79328402e-12 0 0)
(6.61311822e-12 0 0)
(7.04894644e-12 0 0)
(6.27698275e-12 0 0)
(6.46438707e-12 0 0)
(6.73303959e-12 0 0)
(6.14003079e-12 0 0)
(6.65941921e-12 0 0)
(5.76960754e-12 0 0)
(5.94764315e-12 0 0)
(4.783028e-12 0 0)
(4.81461631e-12 0 0)
(5.53787032e-12 0 0)
(4.31115743e-12 0 0)
(4.59672834e-12 0 0)
(4.50964247e-12 0 0)
(4.3901829e-12 0 0)
(4.06438817e-12 0 0)
(3.79384046e-12 0 0)
(3.78301907e-12 0 0)
(3.60155858e-12 0 0)
(3.37852212e-12 0 0)
(3.78533642e-12 0 0)
(4.28113718e-12 0 0)
(4.25010682e-12 0 0)
(3.89332715e-12 0 0)
(3.5633878e-12 0 0)
(3.9388106e-12 0 0)
(3.84244421e-12 0 0)
(3.74533175e-12 0 0)
(3.71083591e-12 0 0)
(3.57319508e-12 0 0)
(2.47410467e-12 0 0)
(3.3179706e-12 0 0)
(3.10649197e-12 0 0)
(2.43091706e-12 0 0)
(2.55157024e-12 0 0)
(1.6912703e-12 0 0)
(2.23766081e-12 0 0)
(2.03269402e-12 0 0)
(1.34193318e-12 0 0)
(1.93743154e-12 0 0)
(2.98152546e-12 0 0)
(2.79021195e-12 0 0)
(2.61500757e-12 0 0)
(1.6992972e-12 0 0)
(2.64947503e-12 0 0)
(1.32449222e-12 0 0)
(1.7790934e-12 0 0)
(2.36031393e-12 0 0)
(1.94069762e-12 0 0)
(2.3100169e-12 0 0)
(2.64289994e-12 0 0)
(2.34721021e-12 0 0)
(2.68928162e-12 0 0)
(2.29005924e-12 0 0)
(2.85111166e-12 0 0)
(2.58935437e-12 0 0)
(2.840931e-12 0 0)
(3.62269113e-12 0 0)
(2.61875041e-12 0 0)
(2.78420729e-12 0 0)
(2.37634441e-12 0 0)
(2.42428778e-12 0 0)
(2.23068904e-12 0 0)
(1.68402768e-12 0 0)
(1.67284091e-12 0 0)
(2.16447208e-12 0 0)
(1.01787099e-12 0 0)
(9.68976343e-13 0 0)
(1.79118046e-12 0 0)
(6.09386917e-13 0 0)
(1.10947331e-12 0 0)
(6.71447006e-13 0 0)
(1.08211641e-12 0 0)
(-3.06590876e-13 0 0)
(7.67176365e-13 0 0)
(4.73396611e-13 0 0)
(-7.87328583e-14 0 0)
(-8.60208108e-13 0 0)
(-1.25113447e-13 0 0)
(-8.18239977e-13 0 0)
(-8.24662991e-13 0 0)
(-7.02373438e-13 0 0)
(-1.76013848e-12 0 0)
(-1.64946523e-12 0 0)
(-2.20794302e-12 0 0)
(-1.42649903e-12 0 0)
(-2.01483228e-12 0 0)
(-3.49447534e-12 0 0)
(-2.66787137e-12 0 0)
(-3.74715502e-12 0 0)
(-2.45938646e-12 0 0)
(-2.69696027e-12 0 0)
(-3.59662306e-12 0 0)
(-3.54734332e-12 0 0)
(-3.58615811e-12 0 0)
(-3.02011055e-12 0 0)
(-4.01866523e-12 0 0)
(-3.38660516e-12 0 0)
(-3.74679512e-12 0 0)
(-4.10868016e-12 0 0)
(-3.90072588e-12 0 0)
(-4.27684826e-12 0 0)
(-4.36790531e-12 0 0)
(-4.74845921e-12 0 0)
(-4.16622727e-12 0 0)
(-4.87028181e-12 0 0)
(-5.09952033e-12 0 0)
(-6.9512106e-12 0 0)
(-5.46995623e-12 0 0)
(-5.04137844e-12 0 0)
(-5.7554728e-12 0 0)
(-5.66641562e-12 0 0)
(-5.7164214e-12 0 0)
(-6.44449287e-12 0 0)
(-6.18260631e-12 0 0)
(-6.05677929e-12 0 0)
(-5.56423492e-12 0 0)
(-6.37902549e-12 0 0)
(-6.28292511e-12 0 0)
(-5.87536876e-12 0 0)
(-5.49292727e-12 0 0)
(-5.9598277e-12 0 0)
(-6.47707217e-12 0 0)
(-6.13801029e-12 0 0)
(-6.25622645e-12 0 0)
(-6.54450138e-12 0 0)
(-6.85317415e-12 0 0)
(-4.97294601e-12 0 0)
(-5.99162559e-12 0 0)
(-6.13053756e-12 0 0)
(-6.8503819e-12 0 0)
(-6.44684094e-12 0 0)
(-6.03317375e-12 0 0)
(-5.42307102e-12 0 0)
(-6.1294541e-12 0 0)
(-7.06121884e-12 0 0)
(-6.11874098e-12 0 0)
(-6.94343988e-12 0 0)
(-8.14818861e-12 0 0)
(-7.0388309e-12 0 0)
(-7.44390528e-12 0 0)
(-7.1206099e-12 0 0)
(-7.55649454e-12 0 0)
(-6.88728881e-12 0 0)
(-6.14732445e-12 0 0)
(-6.41350979e-12 0 0)
(-6.30134759e-12 0 0)
(-6.81754623e-12 0 0)
(-7.26517316e-12 0 0)
(-6.40883825e-12 0 0)
(-7.00701211e-12 0 0)
(-7.49935461e-12 0 0)
(-6.90488497e-12 0 0)
(-7.01311746e-12 0 0)
(-6.80379093e-12 0 0)
(-7.01536871e-12 0 0)
(-7.88416397e-12 0 0)
(-7.38109783e-12 0 0)
(-7.71479034e-12 0 0)
(-7.9729787e-12 0 0)
(-7.54136649e-12 0 0)
(-6.95008428e-12 0 0)
(-7.03737477e-12 0 0)
(-8.40279635e-12 0 0)
(-8.03290226e-12 0 0)
(-8.60620441e-12 0 0)
(-9.33116058e-12 0 0)
(-8.49493293e-12 0 0)
(-8.36003299e-12 0 0)
(-9.48602714e-12 0 0)
(-8.82294794e-12 0 0)
(-9.41033659e-12 0 0)
(-8.72977026e-12 0 0)
(-7.07948672e-12 0 0)
(-9.72693974e-12 0 0)
(-9.22177162e-12 0 0)
(-9.17033132e-12 0 0)
(-8.94416109e-12 0 0)
(-9.85244865e-12 0 0)
(-9.98256907e-12 0 0)
(-9.82389832e-12 0 0)
(-1.05929784e-11 0 0)
(-1.04137209e-11 0 0)
(-1.10248768e-11 0 0)
(-1.15868686e-11 0 0)
(-1.00597304e-11 0 0)
(-1.14502447e-11 0 0)
(-1.13727076e-11 0 0)
(-1.1328189e-11 0 0)
(-1.04082865e-11 0 0)
(-1.04997645e-11 0 0)
(-1.03787382e-11 0 0)
(-1.01480447e-11 0 0)
(-1.07720372e-11 0 0)
(-1.1135347e-11 0 0)
(-1.04124739e-11 0 0)
(-1.01960573e-11 0 0)
(-1.02093278e-11 0 0)
(-1.02632248e-11 0 0)
(-1.05708134e-11 0 0)
(-1.0305645e-11 0 0)
(-1.01953731e-11 0 0)
(-9.78544423e-12 0 0)
(-1.01105374e-11 0 0)
(-1.08259549e-11 0 0)
(-9.96001136e-12 0 0)
(-9.79807428e-12 0 0)
(-9.40336723e-12 0 0)
(-1.01689181e-11 0 0)
(-9.56915589e-12 0 0)
(-1.04794178e-11 0 0)
(-9.84025202e-12 0 0)
(-1.01400596e-11 0 0)
(-1.07911755e-11 0 0)
(-9.59773341e-12 0 0)
(-9.56432887e-12 0 0)
(-9.87807266e-12 0 0)
(-1.00567885e-11 0 0)
(-9.59270262e-12 0 0)
(-9.54305043e-12 0 0)
(-9.74232066e-12 0 0)
(-9.89567704e-12 0 0)
(-9.88753515e-12 0 0)
(-9.03771251e-12 0 0)
(-1.00028206e-11 0 0)
(-1.01724739e-11 0 0)
(-1.04126278e-11 0 0)
(-9.41467931e-12 0 0)
(-9.50919329e-12 0 0)
(-1.04323251e-11 0 0)
(-9.31473838e-12 0 0)
(-9.96802767e-12 0 0)
(-9.33738332e-12 0 0)
(-9.2850386e-12 0 0)
(-9.26177329e-12 0 0)
(-9.68677375e-12 0 0)
(-9.50868114e-12 0 0)
(-9.65148243e-12 0 0)
(-9.17573631e-12 0 0)
(-8.99673826e-12 0 0)
(-9.08131007e-12 0 0)
(-9.55711264e-12 0 0)
(-8.5759428e-12 0 0)
(-8.69918848e-12 0 0)
(-9.30785938e-12 0 0)
(-8.8497305e-12 0 0)
(-9.76314408e-12 0 0)
(-8.38583157e-12 0 0)
(-9.6968872e-12 0 0)
(-9.3712302e-12 0 0)
(-8.98425199e-12 0 0)
(-9.05430715e-12 0 0)
(-9.68543607e-12 0 0)
(-8.9490058e-12 0 0)
(-9.14825729e-12 0 0)
(-8.3888202e-12 0 0)
(-9.59631467e-12 0 0)
(-9.28062123e-12 0 0)
(-9.17638103e-12 0 0)
(-9.19302441e-12 0 0)
(-9.13911969e-12 0 0)
(-9.3144578e-12 0 0)
(-1.01594683e-11 0 0)
(-9.97858195e-12 0 0)
(-1.01194275e-11 0 0)
(-9.60334849e-12 0 0)
(-9.94659859e-12 0 0)
(-1.08918332e-11 0 0)
(-9.98897715e-12 0 0)
(-1.01609995e-11 0 0)
(-9.81691941e-12 0 0)
(-9.79546305e-12 0 0)
(-9.99076071e-12 0 0)
(-9.21775325e-12 0 0)
(-9.88168522e-12 0 0)
(-9.60983812e-12 0 0)
(-8.95129467e-12 0 0)
(-9.45636221e-12 0 0)
(-9.82582001e-12 0 0)
(-1.01720907e-11 0 0)
(-9.507452e-12 0 0)
(-8.51083093e-12 0 0)
(-9.55463946e-12 0 0)
(-9.15836336e-12 0 0)
(-8.34763192e-12 0 0)
(-9.49118167e-12 0 0)
(-8.77092007e-12 0 0)
(-9.28750399e-12 0 0)
(-8.53458116e-12 0 0)
(-9.20970787e-12 0 0)
(-8.38528765e-12 0 0)
(-1.01127019e-11 0 0)
(-9.55167272e-12 0 0)
(-1.02443152e-11 0 0)
(-9.39499464e-12 0 0)
(-9.39176185e-12 0 0)
(-9.62419274e-12 0 0)
(-9.16906584e-12 0 0)
(-8.11773541e-12 0 0)
(-9.30690255e-12 0 0)
(-8.60133016e-12 0 0)
(-9.19535936e-12 0 0)
(-9.21341378e-12 0 0)
(-8.64902796e-12 0 0)
(-8.59682096e-12 0 0)
(-9.56954199e-12 0 0)
(-1.09005374e-11 0 0)
(-9.00444695e-12 0 0)
(-8.83286048e-12 0 0)
(-8.97814178e-12 0 0)
(-9.51447626e-12 0 0)
(-9.53170944e-12 0 0)
(-8.41864523e-12 0 0)
(-1.01023926e-11 0 0)
(-9.55447271e-12 0 0)
(-8.96927816e-12 0 0)
(-9.28162822e-12 0 0)
(-1.02905094e-11 0 0)
(-9.29792836e-12 0 0)
(-8.65075739e-12 0 0)
(-8.74421121e-12 0 0)
(-8.67945403e-12 0 0)
(-7.82262707e-12 0 0)
(-9.51679829e-12 0 0)
(-9.54842337e-12 0 0)
(-9.12552738e-12 0 0)
(-8.96313554e-12 0 0)
(-7.93352223e-12 0 0)
(-8.58667572e-12 0 0)
(-8.92333773e-12 0 0)
(-8.58628586e-12 0 0)