/*--------------------------------*- C++ -*----------------------------------*\
| =========                 |                                                 |
| \\      /  F ield         | OpenFOAM: The Open Source CFD Toolbox           |
|  \\    /   O peration     | Version:  2206                                  |
|   \\  /    A nd           | Website:  www.openfoam.com                      |
|    \\/     M anipulation  |                                                 |
\*---------------------------------------------------------------------------*/
FoamFile
{
    version     2.0;
    format      ascii;
    arch        "LSB;label=32;scalar=64";
    class       volScalarField;
    location    "6.4e-06";
    object      p;
}
// * * * * * * * * * * * * * * * * * * * * * * * * * * * * * * * * * * * * * //

dimensions      [1 -1 -2 0 0 0 0];

internalField   nonuniform List<scalar> 
3183
(
101325
101325
101325
101325
101325
101325
101325
101325
101325
101325
101325
101325
101325
101325
101325
101325
101325
101325
101325
101325
101325
101325
101325
101325
101325
101325
101325
101325
101325
101325
101325
101325
101325
101325
101325
101325
101325
101325
101325
101325
101325
101325
101325
101325
101325
101325
101325
101325
101325
101325
101325
101325
101325
101325
101325
101325
101325
101325
101325
101325
101325
101325
101325
101325
101325
101325
101325
101325
101325
101325
101325
101325
101325
101325
101325
101325
101325
101325
101325
101325
101325
101325
101325
101325
101325
101325
101325
101325
101325
101325
101325
101325
101325
101325
101325
101325
101325
101325
101325
101325
101325
101325
101325
101325
101325
101325
101325
101325
101325
101325
101325
101325
101325
101325
101325
101325
101325
101325
101325
101325
101325
101325
101325
101325
101325
101325
101325
101325
101325
101325
101325
101325
101325
101325
101325
101325
101325
101325
101325
101325
101325
101325
101325
101325
101325
101325
101325
101325
101325
101325
101325
101325
101325
101325
101325
101325
101325
101325
101325
101325
101325
101325
101325
101325
101325
101325
101325
101325
101325
101325
101325
101325
101325
101325
101325
101325
101325
101325
101325
101325
101325
101325
101325
101325
101325
101325
101325
101325
101325
101325
101325
101325
101325
101325
101325
101325
101325
101325
101325
101325
101325
101325
101325
101325
101325
101325
101325
101325
101325
101325
101325
101325
101325
101325
101325
101325
101325
101325
101325
101325
101325
101325
101325
101325
101325
101325
101325
101325
101325
101325
101325
101325
101325
101325
101325
101325
101325
101325
101325
101325
101325
101325
101325
101325
101325
101325
101325
101325
101325
101325
101325
101325
101325
101325
101325
101325
101325
101325
101325
101325
101325
101325
101325
101325
101325
101325
101325
101325
101325
101325
101325
101325
101325
101325
101325
101325
101325
101325
101325
101325
101325
101325
101325
101325
101325
101325
101325
101325
101325
101325
101325
101325
101325
101325
101325
101325
101325
101325
101325
101325
101325
101325
101325
101325
101325
101325
101325
101325
101325
101325
101325
101325
101325
101325
101325
101325
101325
101325
101325
101325
101325
101325
101325
101325
101325
101325
101325
101325
101325
101325
101325
101325
101325
101325
101325
101325
101325
101325
101325
101325
101325
101325
101325
101325
101325
101325
101325
101325
101325
101325
101325
101325
101325
101325
101325
101325
101325
101325
101325
101325
101325
101325
101325
101325
101325
101325
101325
101325
101325
101325
101325
101325
101325
101325
101325
101325
101325
101325
101325
101325
101325
101325
101325
101325
101325
101325
101325
101325
101325
101325
101325
101325
101325
101325
101325
101325
101325
101325
101325
101325
101325
101325
101325
101325
101325
101325
101325
101325
101325
101325
101325
101325
101325
101325
101325
101325
101325
101325
101325
101325
101325
101325
101325
101325
101325
101325
101325
101325
101325
101325
101325
101325
101325
101325
101325
101325
101325
101325
101325
101325
101325
101325
101325
101325
101325
101325
101325
101325
101325
101325
101325
101325
101325
101325
101325
101325
101325
101325
101325
101325
101325
101325
101325
101325
101325
101325
101325
101325
101325
101325
101325
101325
101325
101325
101325
101325
101325
101325
101325
101325
101325
101325
101325
101325
101325
101325
101325
101325
101325
101325
101325
101325
101325
101325
101325
101325
101325
101325
101325
101325
101325
101325
101325
101325
101325
101325
101325
101325
101325
101325
101325
101325
101325
101325
101325
101325
101325
101325
101325
101325
101325
101325
101325
101325
101325
101325
101325
101325
101325
101325
101325
101325
101325
101325
101325
101325
101325
101325
101325
101325
101325
101325
101325
101325
101325
101325
101325
101325
101325
101325
101325
101325
101325
101325
101325
101325
101325
101325
101325
101325
101325
101325
101325
101325
101325
101325
101325
101325
101325
101325
101325
101325
101325
101325
101325
101325
101325
101325
101325
101325
101325
101325
101325
101325
101325
101325
101325
101325
101325
101325
101325
101325
101325
101325
101325
101325
101325
101325
101325
101325
101325
101325
101325
101325
101325
101325
101325
101325
101325
101325
101325
101325
101325
101325
101325
101325
101325
101325
101325
101325
101325
101325
101325
101325
101325
101325
101325
101325
101325
101325
101325
101325
101325
101325
101325
101325
101325
101325
101325
101325
101325
101325
101325
101325
101325
101325
101325
101325
101325
101325
101325
101325
101325
101325
101325
101325
101325
101325
101325
101325
101325
101325
101325
101325
101325
101325
101325
101325
101325
101325
101325
101325
101325
101325
101325
101325
101325
101325
101325
101325
101325
101325
101325
101325
101325
101325
101325
101325
101325
101325
101325
101325
101325
101325
101325
101325
101325
101325
101325
101325
101325
101325
101325
101325
101325
101325
101325
101325
101325
101325
101325
101325
101325
101325
101325
101325
101325
101325
101325
101325
101325
101325
101325
101325
101325
101325
101325
101325
101325
101325
101325
101325
101325
101325
101325
101325
101325
101325
101325
101325
101325
101325
101325
101325
101325
101325
101325
101325
101325
101325
101325
101325
101325
101325
101325
101325
101325
101325
101325
101325
101325
101325
101325
101325
101325
101325
101325
101325
101325
101325
101325
101325
101325
101325
101325
101325
101325
101325
101325
101325
101325
101325
101325
101325
101325
101325
101325
101325
101325
101325
101325
101325
101325
101325
101325
101325
101325
101325
101325
101325
101325
101325
101325
101325
101325
101325
101325
101325
101325
101325
101325
101325
101325
101325
101325
101325
101325
101325
101325
101325
101325
101325
101325
101325
101325
101325
101325
101325
101325
101325
101325
101325
101325
101325
101325
101325
101325
101325
101325
101325
101325
101325
101325
101325
101325
101325
101325
101325
101325
101325
101325
101325
101325
101325
101325
101325
101325
101325
101325
101325
101325
101325
101325
101325
101325
101325
101325
101325
101325
101325
101325
101325
101325
101325
101325
101325
101325
101325
101325
101325
101325
101325
101325
101325
101325
101325
101325
101325
101325
101325
101325
101325
101325
101325
101325
101325
101325
101325
101325
101325
101325
101325
101325
101325
101325
101325
101325
101325
101325
101325
101325
101325
101325
101325
101325
101325
101325
101325
101325
101325
101325
101325
101325
101325
101325
101325
101325
101325
101325
101325
101325
101325
101325
101325
101325
101325
101325
101325
101325
101325
101325
101325
101325
101325
101325
101325
101325
101325
101325
101325
101325
101325
101325
101325
101325
101325
101325
101325
101325
101325
101325
101325
101325
101325
101325
101325
101325
101325
101325
101325
101325
101325
101325
101325
101325
101325
101325
101325
101325
101325
101325
101325
101325
101325
101325
101325
101325
101325
101325
101325
101325
101325
101325
101325
101325
101325
101325
101325
101325
101325
101325
101325
101325
101325
101325
101325
101325
101325
101325
101325
101325
101325
101325
101325
101325
101325
101325
101325
101325
101325
101325
101325
101325
101325
101325
101325
101325
101325
101325
101325
101325
101325
101325
101325
101325
101325
101325
101325
101325
101325
101325
101325
101325
101325
101325
101325
101325
101325
101325
101325
101325
101325
101325
101325
101325
101325
101325
101325
101325
101325
101325
101325
101325
101325
101325
101325
101325
101325
101325
101325
101325
101325
101325
101325
101325
101325
101325
101325
101325
101325
101325
101325
101325
101325
101325
101325
101325
101325
101325
101325
101325
101325
101325
101325
101325
101325
101325
101325
101325
101325
101325
101325
101325
101325
101325
101325
101325
101325
101325
101325
101325
101325
101325
101325
101325
101325
101325
101325
101325
101325
101325
101325
101325
101325
101325
101325
101325
101325
101325
101325
101325
101325
101325
101325
101325
101325
101325
101325
101325
101325
101325
101325
101325
101325
101325
101325
101325
101325
101325
101325
101325
101325
101325
101325
101325
101325
101325
101325
101325
101325
101325
101325
101325
101325
101325
101325
101325
101325
101325
101325
101325
101325
101325
101325
101325
101325
101325
101325
101325
101325
101325
101325
101325
101325
101325
101325
101325
101325
101325
101325
101325
101325
101325
101325
101325
101325
101325
101325
101325
101325
101325
101325
101325
101325
101325
101325
101325
101325
101325
101325
101325
101325
101325
101325
101325
101325
101325
101325
101325
101325
101325
101325
101325
101325
101325
101325
101325
101325
101325
101325
101325
101325
101325
101325
101325
101325
101325
101325
101325
101325
101325
101325
101325
101325
101325
101325
101325
101325
101325
101325
101325
101325
101325
101325
101325
101325
101325
101325
101325
101325
101325
101325
101325
101325
101325
101325
101325
101325
101325
101325
101325
101325
101325
101325
101325
101325
101325
101325
101325
101325
101325
101325
101325
101325
101325
101325
101325
101325
101325
101325
101325
101325
101325
101325
101325
101325
101325
101325
101325
101325
101325
101325
101325
101325
101325
101325
101325
101325
101325
101325
101325
101325
101325
101325
101325
101325
101325
101325
101325
101325
101325
101325
101325
101325
101325
101325
101325
101325
101325
101325
101325
101325
101325
101325
101325
101325
101325
101325
101325
101325
101325
101325
101325
101325
101325
101325
101325
101325
101325
101325
101325
101325
101325
101325
101325
101325
101325
101325
101325
101325
101325
101325
101325
101325
101325
101325
101325
101325
101325
101325
101325
101325
101325
101325
101325
101325
101325
101325
101325
101325
101325
101325
101325
101325
101325
101325
101325
101325
101325
101325
101325
101325
101325
101325
101325
101325
101325
101325
101325
101325
101325
101325
101325
101325
101325
101325
101325
101325
101325
101325
101325
101325
101325
101325
101325
101325
101325
101325
101325
101325
101325
101325
101325
101325
101325
101325
101325
101325
101325
101325
101325
101325
101325
101325
101325
101325
101325
101325
101325
101325
101325
101325
101325
101325
101325
101325
101325
101325
101325
101325
101325
101325
101325
101325
101325
101325
101325
101325
101325
101325
101325
101325
101325
101325
101325
101325
101325
101325
101325
101325
101325
101325
101325
101325
101325
101325
101325
101325
101325
101325
101325
101325
101325
101325
101325
101325
101325
101325
101325
101325
101325
101325
101325
101325
101325
101325
101325
101325
101325
101325
101325
101325
101325
101325
101325
101325
101325
101325
101325
101325
101325
101325
101325
101325
101325
101325
101325
101325
101325
101325
101325
101325
101325
101325
101325
101325
101325
101325
101325
101325
101325
101325
101325
101325
101325
101325
101325
101325
101325
101325
101325
101325
101325
101325
101325
101325
101325
101325
101325
101325
101325
101325
101325
101325
101325
101325
101325
101325
101325
101325
101325
101325
101325
101325
101325
101325
101325
101325
101325
101325
101325
101325
101325
101325
101325
101325
101325
101325
101325
101325
101325
101325
101325
101325
101325
101325
101325
101325
101325
101325
101325
101325
101325
101325
101325
101325
101325
101325
101325
101325
101325
101325
101325
101325
101325
101325
101325
101325
101325
101325
101325
101325
101325
101325
101325
101325
101325
101325
101325
101325
101325
101325
101325
101325
101325
101325
101325
101325
101325
101325
101325
101325
101325
101325
101325
101325
101325
101325
101325
101325
101325
101325
101325
101325
101325
101325
101325
101325
101325
101325
101325
101325
101325
101325
101325
101325
101325
101325
101325
101325
101325
101325
101325
101325
101325
101325
101325
101325
101325
101325
101325
101325
101325
101325
101325
101325
101325
101325
101325
101325
101325
101325
101325
101325
101325
101325
101325
101325
101325
101325
101325
101325
101325
101325
101325
101325
101325
101325
101325
101325
101325
101325
101325
101325
101325
101325
101325
101325
101325
101325
101325
101325
101325
101325
101325
101325
101325
101325
101325
101325
101325
101325
101325
101325
101325
101325
101325
101325
101325
101325
101325
101325
101325
101325
101325
101325
101325
101325
101325
101325
101325
101325
101325
101325
101325
101325
101325
101325
101325
101325
101325
101325
101325
101325
101325
101325
101325
101325
101325
101325
101325
101325
101325
101325
101325
101325
101325
101325
101325
101325
101325
101325
101325
101325
101325
101325
101325
101325
101325
101325
101325
101325
101325
101325
101325
101325
101325
101325
101325
101325
101325
101325
101325
101325
101325
101325
101325
101325
101325
101325
101325
101325
101325
101325
101325
101325
101325
101325
101325
101325
101325
101325
101325
101325
101325
101325
101325
101325
101325
101325
101325
101325
101325
101325
101325
101325
101325
101325
101325
101325
101325
101325
101325
101325
101325
101325
101325
101325
101325
101325
101325
101325
101325
101325
101325
101325
101325
101325
101325
101325
101325
101325
101325
101325
101325
101325
101325
101325
101325
101325
101325
101325
101325
101325
101325
101325
101325
101325
101325
101325
101325
101325
101325
101325
101325
101325
101325
101325
101325
101325
101325
101325
101325
101325
101325
101325
101325
101325
101325
101325
101325
101325
101325
101325
101325
101325
101325
101325
101325
101325
101325
101325
101325
101325
101325
101325
101325
101325
101325
101325
101325
101325
101325
101325
101325
101325
101325
101325
101325
101325
101325
101325
101325
101325
101325
101325
101325
101325
101325
101325
101325
101325
101325
101325
101325
101325
101325
101325
101325
101325
101325
101325
101325
101325
101325
101325
101325
101325
101325
101325
101325
101325
101325
101325
101325
101325
101325
101325
101325
101325
101325
101325
101325
101325
101325
101325
101325
101325
101325
101325
101325
101325
101325
101325
101325
101325
101325
101325
101325
101325
101325
101325
101325
101325
101325
101325
101325
101325
101325
101325
101325
101325
101325
101325
101325
101325
101325
101325
101325
101325
101325
101325
101325
101325
101325
101325
101325
101325
101325
101325
101325
101325
101325
101325
101325
101325
101325
101325
101325
101325
101325
101325
101325
101325
101325
101325
101325
101325
101325
101325
101325
101325
101325
101325
101325
101325
101325
101325
101325
101325
101325
101325
101325
101325
101325
101325
101325
101325
101325
101325
101325
101325
101325
101325
101325
101325
101325
101325
101325
101325
101325
101325
101325
101325
101325
101325
101325
101325
101325
101325
101325
101325
101325
101325
101325
101325
101325
101325
101325
101325
101325
101325
101325
101325
101325
101325
101325
101325
101325
101325
101325
101325
101325
101325
101325
101325
101325
101325
101325
101325
101325
101325
101325
101325
101325
101325
101325
101325
101325
101325
101325
101325
101325
101325
101325
101325
101325
101325
101325
101325
101325
101325
101325
101325
101325
101325
101325
101325
101325
101325
101325
101325
101325
101325
101325
101325
101325
101325
101325
101325
101325
101325
101325
101325
101325
101325
101325
101325
101325
101325
101325
101325
101325
101325
101325
101325
101325
101325
101325
101325
101325
101325
101325
101325
101325
101325
101325
101325
101325
101325
101325
101325
101325
101325
101325
101325
101325
101325
101325
101325
101325
101325
101325
101325
101325
101325
101325
101325
101325
101325
101325
101325
101325
101325
101325
101325
101325
101325
101325
101325
101325
101325
101325
101325
101325
101325
101325
101325
101324.999
101324.999
101324.999
101324.999
101324.999
101324.999
101324.999
101324.999
101324.999
101324.999
101324.999
101324.999
101324.999
101324.999
101324.998
101324.998
101324.998
101324.998
101324.998
101324.998
101324.997
101324.997
101324.997
101324.997
101324.996
101324.996
101324.996
101324.995
101324.995
101324.995
101324.994
101324.994
101324.993
101324.993
101324.992
101324.992
101324.991
101324.99
101324.99
101324.989
101324.988
101324.987
101324.986
101324.985
101324.984
101324.982
101324.981
101324.98
101324.978
101324.976
101324.975
101324.973
101324.971
101324.968
101324.966
101324.963
101324.961
101324.958
101324.955
101324.951
101324.948
101324.944
101324.94
101324.936
101324.931
101324.926
101324.921
101324.915
101324.909
101324.903
101324.896
101324.889
101324.881
101324.873
101324.864
101324.855
101324.845
101324.835
101324.823
101324.812
101324.799
101324.785
101324.771
101324.756
101324.74
101324.723
101324.705
101324.686
101324.665
101324.644
101324.621
101324.597
101324.571
101324.544
101324.516
101324.486
101324.454
101324.42
101324.385
101324.347
101324.307
101324.266
101324.222
101324.175
101324.126
101324.075
101324.021
101323.963
101323.904
101323.84
101323.774
101323.705
101323.631
101323.555
101323.474
101323.39
101323.301
101323.209
101323.112
101323.01
101322.904
101322.792
101322.676
101322.555
101322.428
101322.295
101322.157
101322.013
101321.863
101321.706
101321.543
101321.374
101321.197
101321.014
101320.823
101320.625
101320.419
101320.206
101319.984
101319.755
101319.517
101319.271
101319.017
101318.753
101318.481
101318.2
101317.91
101317.61
101317.302
101316.983
101316.656
101316.318
101315.971
101315.615
101315.248
101314.872
101314.487
101314.091
101313.686
101313.271
101312.847
101312.413
101311.969
101311.517
101311.055
101310.585
101310.106
101309.618
101309.122
101308.619
101308.107
101307.588
101307.063
101306.53
101305.992
101305.447
101304.898
101304.343
101303.784
101303.221
101302.655
101302.086
101301.515
101300.943
101300.37
101299.796
101299.223
101298.651
101298.081
101297.514
101296.95
101296.39
101295.835
101295.286
101294.743
101294.207
101293.68
101293.161
101292.652
101292.153
101291.666
101291.19
101290.727
101290.278
101289.843
101289.423
101289.018
101288.63
101288.258
101287.905
101287.569
101287.252
101286.954
101286.676
101286.418
101286.181
101285.964
101285.769
101285.596
101285.444
101285.314
101285.206
101285.12
101285.056
101285.015
101284.995
101284.998
101285.022
101285.068
101285.135
101285.224
101285.332
101285.461
101285.61
101285.777
101285.964
101286.168
101286.39
101286.629
101286.884
101287.154
101287.439
101287.737
101288.049
101288.373
101288.708
101289.053
101289.408
101289.772
101290.144
101290.522
101290.907
101291.296
101291.69
101292.088
101292.488
101292.889
101293.292
101293.694
101294.096
101294.496
101294.894
101295.289
101295.68
101296.066
101296.448
101296.824
101297.193
101297.556
101297.911
101298.259
101298.598
101298.929
101299.25
101299.563
101299.865
101300.158
101300.44
101300.712
101300.973
101301.224
101301.464
101301.693
101301.911
101302.119
101302.316
101302.502
101302.678
101302.843
101302.999
101303.145
101303.281
101303.408
101303.526
101303.636
101303.738
101303.832
101303.919
101303.999
101304.074
101304.142
101304.206
101304.265
101304.321
101304.373
101304.423
101304.47
101304.516
101304.562
101304.607
101304.652
101304.699
101304.746
101304.796
101304.848
101304.903
101304.961
101305.023
101305.088
101305.158
101305.232
101305.31
101305.392
101305.479
101305.57
101305.665
101305.764
101305.866
101305.971
101306.079
101306.189
101306.301
101306.413
101306.525
101306.636
101306.746
101306.854
101306.958
101307.058
101307.153
101307.242
101307.323
101307.398
101307.463
101307.519
101307.565
101307.599
101307.623
101307.634
101307.632
101307.617
101307.589
101307.547
101307.492
101307.424
101307.341
101307.246
101307.138
101307.018
101306.887
101306.745
101306.593
101306.432
101306.265
101306.091
101305.912
101305.731
101305.549
101305.367
101305.189
101305.016
101304.851
101304.695
101304.553
101304.426
101304.318
101304.23
101304.167
101304.131
101304.124
101304.151
101304.213
101304.316
101304.462
101304.66
101304.916
101305.242
101305.658
101306.188
101306.873
101307.769
101308.962
101310.567
101312.741
101315.75
101320.187
101326.477
101320.455
101317.597
101315.775
101313.917
101312.359
101310.799
101309.534
101308.429
101307.547
101306.833
101306.273
101305.832
101305.484
101305.206
101304.981
101304.795
101304.639
101304.506
101304.39
101304.288
101304.198
101304.12
101304.051
101303.992
101303.942
101303.902
101303.871
101303.85
101303.837
101303.834
101303.84
101303.855
101303.877
101303.908
101303.946
101303.991
101304.042
101304.099
101304.162
101304.23
101304.302
101304.379
101304.458
101304.541
101304.627
101304.714
101304.803
101304.894
101304.985
101305.078
101305.17
101305.263
101305.356
101305.448
101305.539
101305.63
101305.719
101305.808
101305.895
101305.98
101306.063
101306.145
101306.225
101306.302
101306.378
101306.451
101306.521
101306.589
101306.654
101306.717
101306.776
101306.833
101306.887
101306.938
101306.986
101307.031
101307.073
101307.111
101307.146
101307.178
101307.207
101307.232
101307.254
101307.273
101307.289
101307.301
101307.31
101307.316
101307.318
101307.318
101307.314
101307.307
101307.297
101307.284
101307.269
101307.25
101307.229
101307.204
101307.178
101307.148
101307.117
101307.083
101307.046
101307.008
101306.968
101306.925
101306.881
101306.835
101306.788
101306.739
101306.689
101306.637
101306.584
101306.531
101306.476
101306.421
101306.365
101306.308
101306.251
101306.193
101306.136
101306.078
101306.02
101305.962
101305.904
101305.847
101305.789
101305.733
101305.676
101305.62
101305.565
101305.511
101305.457
101305.404
101305.352
101305.301
101305.251
101305.201
101305.153
101305.106
101305.06
101305.015
101304.971
101304.928
101304.886
101304.846
101304.806
101304.768
101304.73
101304.694
101304.659
101304.625
101304.592
101304.56
101304.529
101304.498
101304.469
101304.441
101304.413
101304.386
101304.36
101304.334
101304.309
101304.284
101304.26
101304.237
101304.213
101304.19
101304.167
101304.145
101304.122
101304.099
101304.077
101304.054
101304.031
101304.008
101303.984
101303.959
101303.934
101303.909
101303.882
101303.855
101303.827
101303.799
101303.77
101303.739
101303.708
101303.676
101303.643
101303.608
101303.572
101303.534
101303.495
101303.455
101303.413
101303.369
101303.323
101303.276
101303.227
101303.176
101303.124
101303.069
101303.012
101302.953
101302.892
101302.829
101302.764
101302.696
101302.627
101302.554
101302.48
101302.403
101302.324
101302.242
101302.158
101302.071
101301.982
101301.89
101301.796
101301.699
101301.599
101301.497
101301.393
101301.285
101301.175
101301.062
101300.947
101300.828
101300.708
101300.584
101300.458
101300.329
101300.197
101300.063
101299.926
101299.786
101299.644
101299.499
101299.352
101299.202
101299.049
101298.894
101298.736
101298.576
101298.413
101298.248
101298.08
101297.91
101297.738
101297.564
101297.387
101297.208
101297.027
101296.844
101296.658
101296.471
101296.282
101296.091
101295.898
101295.703
101295.507
101295.309
101295.11
101294.909
101294.706
101294.503
101294.298
101294.091
101293.884
101293.676
101293.467
101293.257
101293.046
101292.835
101292.623
101292.411
101292.199
101291.986
101291.773
101291.56
101291.347
101291.134
101290.922
101290.709
101290.498
101290.287
101290.077
101289.867
101289.659
101289.452
101289.245
101289.041
101288.837
101288.635
101288.435
101288.237
101288.04
101287.846
101287.653
101287.463
101287.276
101287.091
101286.908
101286.728
101286.551
101286.377
101286.206
101286.039
101285.874
101285.713
101285.556
101285.402
101285.252
101285.106
101284.964
101284.826
101284.692
101284.562
101284.437
101284.316
101284.2
101284.088
101283.981
101283.879
101283.782
101283.69
101283.602
101283.52
101283.444
101283.372
101283.306
101283.245
101283.19
101283.14
101283.096
101283.057
101283.024
101282.997
101282.975
101282.959
101282.949
101282.945
101282.947
101282.954
101282.968
101282.987
101283.013
101283.044
101283.081
101283.125
101283.174
101283.229
101283.29
101283.357
101283.43
101283.508
101283.593
101283.683
101283.779
101283.881
101283.989
101284.102
101284.221
101284.346
101284.476
101284.611
101284.753
101284.899
101285.051
101285.208
101285.37
101285.537
101285.71
101285.887
101286.069
101286.257
101286.448
101286.645
101286.846
101287.052
101287.262
101287.476
101287.695
101287.918
101288.144
101288.375
101288.61
101288.848
101289.09
101289.335
101289.584
101289.837
101290.092
101290.351
101290.613
101290.877
101291.145
101291.415
101291.688
101291.963
101292.241
101292.521
101292.803
101293.087
101293.373
101293.661
101293.951
101294.243
101294.536
101294.83
101295.126
101295.423
101295.721
101296.02
101296.32
101296.621
101296.923
101297.225
101297.528
101297.831
101298.134
101298.438
101298.742
101299.046
101299.349
101299.653
101299.957
101300.26
101300.562
101300.865
101301.166
101301.467
101301.768
101302.067
101302.366
101302.664
101302.96
101303.256
101303.55
101303.843
101304.135
101304.426
101304.715
101305.002
101305.288
101305.573
101305.855
101306.136
101306.416
101306.693
101306.969
101307.242
101307.514
101307.784
101308.051
101308.317
101308.58
101308.841
101309.1
101309.357
101309.612
101309.864
101310.114
101310.361
101310.606
101310.849
101311.089
101311.327
101311.562
101311.795
101312.026
101312.254
101312.479
101312.702
101312.922
101313.14
101313.355
101313.567
101313.777
101313.985
101314.189
101314.391
101314.591
101314.788
101314.982
101315.174
101315.363
101315.55
101315.734
101315.916
101316.095
101316.271
101316.445
101316.617
101316.786
101316.953
101317.117
101317.279
101317.438
101317.595
101317.75
101317.907
101318.073
101318.247
101318.429
101318.62
101318.82
101319.029
101319.247
101319.473
101319.707
101319.949
101320.198
101320.455
101320.716
101320.983
101321.254
101321.526
101321.8
101322.073
101322.343
101322.608
101322.867
101323.117
101323.356
101323.582
101323.793
101323.988
101324.165
101324.323
101324.462
101324.581
101324.682
101324.764
101324.83
101324.882
101324.92
101324.948
101324.968
101324.981
101324.989
101324.994
101324.997
101324.999
101325
101325
101325
101325
101325
101325
101325
101325
101325
101325
101325
101325
101325
101325
101325
101325
101325
101325
101325
101325
101325
101325
101325
101325
101325
101325
101325
101325
101325
101325
101325
101325
101325
101325
)
;

boundaryField
{
    closed
    {
        type            zeroGradient;
    }
    open
    {
        type            waveTransmissive;
        gamma           1.25;
        fieldInf        101325;
        lInf            1;
        value           uniform 101325;
    }
    sides
    {
        type            empty;
    }
}


// ************************************************************************* //
