/*--------------------------------*- C++ -*----------------------------------*\
| =========                 |                                                 |
| \\      /  F ield         | OpenFOAM: The Open Source CFD Toolbox           |
|  \\    /   O peration     | Version:  2206                                  |
|   \\  /    A nd           | Website:  www.openfoam.com                      |
|    \\/     M anipulation  |                                                 |
\*---------------------------------------------------------------------------*/
FoamFile
{
    version     2.0;
    format      ascii;
    arch        "LSB;label=32;scalar=64";
    class       surfaceScalarField;
    location    "6.4e-06";
    object      phi;
}
// * * * * * * * * * * * * * * * * * * * * * * * * * * * * * * * * * * * * * //

dimensions      [1 0 -1 0 0 0 0];

oriented        oriented;

internalField   nonuniform List<scalar> 
3182
(
2.18227305e-18
-1.88980742e-18
4.25705975e-19
-8.7872993e-19
-4.69273845e-22
-6.10410619e-24
-4.45151692e-25
-1.1685121e-29
1.96448357e-28
3.39872028e-24
4.64569883e-23
7.99879258e-21
3.52498881e-18
-1.28706505e-18
-9.93877235e-19
-4.06538184e-19
1.35097928e-18
-2.7072565e-18
-3.77996546e-18
4.51809202e-18
1.58406691e-20
1.76844446e-22
6.37111939e-23
1.16212765e-21
1.7090342e-18
1.84600092e-18
3.40746547e-18
1.87282853e-19
-2.32600788e-18
-1.46282295e-18
-2.9093158e-18
-9.32146876e-19
-1.46293509e-18
-2.09940117e-18
3.23867517e-19
4.79817796e-19
-4.88261118e-19
-8.61715388e-19
4.86766135e-20
-4.02697433e-19
-2.49128293e-18
-3.32493749e-18
-1.10480498e-19
-5.42621998e-19
1.14208306e-19
9.67678619e-19
1.29860585e-18
-3.75186336e-21
-5.43183873e-19
-1.62394943e-18
-1.19619801e-18
-1.28442094e-18
3.1179924e-21
1.51483148e-18
1.73591881e-18
1.31316684e-18
1.30824604e-18
1.95570549e-18
2.82766265e-18
3.69153602e-18
3.26282075e-18
3.90436964e-18
3.68535634e-18
4.77559056e-18
4.58859332e-18
4.79374576e-18
4.35425126e-18
3.90194499e-18
3.92735332e-18
4.33117887e-18
5.20136276e-18
5.71492611e-18
6.08711963e-18
7.80637539e-18
7.37786872e-18
8.70757172e-18
9.98154806e-18
1.18050323e-17
1.35924414e-17
1.41280056e-17
1.58082013e-17
1.82066872e-17
1.73346989e-17
1.81969119e-17
1.88819426e-17
1.99670845e-17
2.02363364e-17
1.75313184e-17
1.82844097e-17
1.99105073e-17
1.83261985e-17
1.67754478e-17
1.69682816e-17
1.71126985e-17
1.55424059e-17
1.59225104e-17
1.578655e-17
1.51773993e-17
1.46518027e-17
1.60589933e-17
1.54480696e-17
1.43066714e-17
1.18075123e-17
1.39666221e-17
1.18960564e-17
1.25886839e-17
1.15484799e-17
1.16153473e-17
1.06387961e-17
8.38274349e-18
7.63865709e-18
6.78685152e-18
7.16519233e-18
4.60924169e-18
6.75435097e-18
6.38218281e-18
5.22052239e-18
6.64403399e-18
5.66687196e-18
1.92227371e-18
4.17635275e-18
3.7685668e-18
3.51433811e-18
6.96413213e-18
4.70724554e-18
6.60818878e-18
5.71784265e-18
6.92406841e-18
6.60081784e-18
3.20247039e-18
4.4481079e-18
3.17576585e-18
2.08649631e-18
2.7398678e-18
1.18663929e-18
2.40303847e-18
-1.87866647e-18
-3.88274794e-20
-9.05095506e-19
3.34946039e-19
2.8634791e-18
3.24507603e-18
1.2909799e-18
-4.67735141e-21
-5.26357787e-19
-2.21738494e-18
-6.27978332e-18
-3.64714529e-18
-2.29078714e-18
-2.20816217e-18
-3.90656006e-18
-3.39255808e-18
-5.13542634e-18
-3.57149354e-18
-4.79349496e-18
-5.74664878e-18
-6.12271995e-18
-8.43997848e-18
-8.85511763e-18
-6.31421664e-18
-6.42848088e-18
-7.71572573e-18
-7.26737118e-18
-1.22932944e-17
-1.11952524e-17
-1.33880427e-17
-8.80220688e-18
-1.13453471e-17
-1.17972661e-17
-1.04463584e-17
-9.78821888e-18
-1.22390902e-17
-1.3112064e-17
-1.30206638e-17
-1.27850495e-17
-1.06502637e-17
-1.2562321e-17
-1.46766906e-17
-1.35657966e-17
-1.45732886e-17
-1.48739272e-17
-1.55818948e-17
-1.61324278e-17
-1.45111675e-17
-1.52711867e-17
-1.5642284e-17
-1.34612675e-17
-1.1173229e-17
-1.37487101e-17
-1.36543673e-17
-1.61788561e-17
-1.45575408e-17
-1.64221795e-17
-1.92255579e-17
-1.77555528e-17
-1.87534545e-17
-2.25054249e-17
-2.26348826e-17
-2.17724351e-17
-2.34263451e-17
-2.32175091e-17
-2.38173003e-17
-2.24597215e-17
-2.29083119e-17
-2.25466319e-17
-2.41631713e-17
-2.66109581e-17
-2.28101375e-17
-2.35263128e-17
-2.31984269e-17
-2.17490943e-17
-2.30519906e-17
-2.34212964e-17
-2.0461985e-17
-2.31489126e-17
-2.54317885e-17
-2.84795734e-17
-2.764416e-17
-2.90371417e-17
-2.97609375e-17
-3.1232387e-17
-3.09709917e-17
-3.10222052e-17
-3.40441379e-17
-3.30560924e-17
-3.4477681e-17
-3.29210077e-17
-3.39921315e-17
-3.15714029e-17
-3.43557561e-17
-3.55564614e-17
-3.81301435e-17
-3.42174738e-17
-3.32267039e-17
-3.26510477e-17
-3.21012005e-17
-3.43832643e-17
-3.48327215e-17
-3.66707428e-17
-3.28531883e-17
-3.63146719e-17
-3.45313007e-17
-3.78344006e-17
-3.55792693e-17
-3.7945494e-17
-4.11282205e-17
-3.91714793e-17
-4.04137464e-17
-4.17097403e-17
-4.2288577e-17
-4.60709929e-17
-4.4345536e-17
-4.52411512e-17
-4.50141517e-17
-4.63362636e-17
-4.30494322e-17
-4.48486917e-17
-4.71780012e-17
-4.65138488e-17
-4.84140759e-17
-4.54593676e-17
-4.5766907e-17
-4.53025548e-17
-4.78899922e-17
-5.211786e-17
-5.3967363e-17
-5.35649842e-17
-5.34450844e-17
-5.30404701e-17
-5.06184298e-17
-4.84296258e-17
-4.73762646e-17
-4.97090273e-17
-5.02633985e-17
-4.87108604e-17
-5.15967301e-17
-5.11641407e-17
-5.05081214e-17
-5.02275615e-17
-4.95251934e-17
-5.06923043e-17
-5.26793127e-17
-5.33943734e-17
-5.47085896e-17
-5.35229929e-17
-5.77405098e-17
-5.77687298e-17
-5.40931679e-17
-5.64142395e-17
-5.66626953e-17
-5.7890106e-17
-5.70187054e-17
-5.86308104e-17
-5.98976646e-17
-5.77825504e-17
-5.72685791e-17
-5.80005946e-17
-6.07740488e-17
-6.03761817e-17
-5.64223674e-17
-5.90844955e-17
-5.9391436e-17
-5.73227625e-17
-5.78581304e-17
-5.71843817e-17
-5.81175037e-17
-5.58196791e-17
-5.49564865e-17
-5.63438515e-17
-6.00755946e-17
-6.15537379e-17
-6.25165676e-17
-6.54377087e-17
-6.51417349e-17
-6.47649154e-17
-6.54310004e-17
-6.47940771e-17
-6.54940899e-17
-6.27266893e-17
-6.4515052e-17
-6.52293621e-17
-6.4790769e-17
-6.59367624e-17
-6.15627592e-17
-6.77984453e-17
-6.55042618e-17
-6.80878743e-17
-6.81482926e-17
-6.81259127e-17
-6.46831263e-17
-6.47221619e-17
-6.53146693e-17
-6.41626805e-17
-6.35399813e-17
-6.28466951e-17
-6.6274847e-17
-6.32519338e-17
-6.82342067e-17
-6.80968381e-17
-6.32999771e-17
-6.41359804e-17
-6.37347149e-17
-6.66503387e-17
-6.36863862e-17
-6.30677061e-17
-6.14405862e-17
-6.53479963e-17
-6.13260335e-17
-6.18787272e-17
-6.16516843e-17
-6.14277001e-17
-5.98127241e-17
-5.96777427e-17
-6.01753914e-17
-5.77798787e-17
-5.61592761e-17
-5.50227047e-17
-5.21282098e-17
-4.99027455e-17
-5.45094169e-17
-5.18474214e-17
-5.13161439e-17
-5.16705302e-17
-5.4377764e-17
-5.73179608e-17
-5.62463012e-17
-5.78319848e-17
-5.95475299e-17
-5.86252959e-17
-5.72965794e-17
-5.7985552e-17
-5.395137e-17
-5.60588299e-17
-5.14465135e-17
-5.29823356e-17
-5.00019567e-17
-5.01044785e-17
-5.00611103e-17
-4.92671452e-17
-4.85512379e-17
-5.12268185e-17
-4.81268195e-17
-4.7578214e-17
-4.97137232e-17
-4.82050404e-17
-4.98515942e-17
-5.2993555e-17
-5.07152363e-17
-5.11970323e-17
-5.36672913e-17
-4.79246743e-17
-5.18332536e-17
-5.31184661e-17
-5.00286059e-17
-5.0368553e-17
-5.34695908e-17
-4.83782341e-17
-4.96661752e-17
-4.98493836e-17
-4.60105302e-17
-4.94025812e-17
-4.46696705e-17
-4.45080803e-17
-4.23189991e-17
-4.21844272e-17
-4.49436477e-17
-4.53533285e-17
-4.43853414e-17
-4.2553618e-17
-4.36899658e-17
-3.96616904e-17
-4.28334738e-17
-3.97641354e-17
-3.63605937e-17
-3.78112547e-17
-3.42725484e-17
-3.0625429e-17
-3.30380618e-17
-2.9389556e-17
-3.13592148e-17
-2.95806029e-17
-2.99148174e-17
-2.91092516e-17
-2.75620698e-17
-2.88000832e-17
-2.87913078e-17
-2.79852213e-17
-2.37908368e-17
-2.15844581e-17
-2.03604516e-17
-2.62530244e-17
-2.77986359e-17
-2.79886079e-17
-2.83558103e-17
-2.52238943e-17
-2.3972367e-17
-2.29777606e-17
-2.08265511e-17
-2.30787983e-17
-2.20990342e-17
-2.2421284e-17
-2.26752017e-17
-2.3169293e-17
-2.01779735e-17
-1.86060186e-17
-1.73855681e-17
-1.40848162e-17
-1.49882836e-17
-1.705448e-17
-1.57514522e-17
-1.24017943e-17
-1.42798102e-17
-1.59028353e-17
-1.44710593e-17
-1.51181037e-17
-1.55893157e-17
-1.23121108e-17
-1.24989091e-17
-1.34792601e-17
-1.41291703e-17
-1.14734546e-17
-1.43391435e-17
-1.12070248e-17
-1.08707094e-17
-8.20180388e-18
-9.73226729e-18
-1.07367806e-17
-7.73749238e-18
-8.67658821e-18
-8.20641526e-18
-6.72296186e-18
-6.97889632e-18
-7.40545882e-18
-1.07947717e-17
-1.25980521e-17
-8.39231189e-18
-9.71319456e-18
-1.29522648e-17
-1.24599949e-17
-1.39931649e-17
-1.39640788e-17
-1.49809535e-17
-1.29147545e-17
-1.27997835e-17
-1.35298788e-17
-1.52177224e-17
-1.41289909e-17
-1.57204003e-17
-1.54198484e-17
-1.4019798e-17
-1.24004528e-17
-1.1252044e-17
-1.21491271e-17
-1.42492186e-17
-1.27204991e-17
-1.34038648e-17
-1.20567725e-17
-1.1745173e-17
-1.05742148e-17
-7.64426536e-18
-3.89938355e-18
-2.51888096e-18
-1.45762092e-20
-8.17896528e-19
-8.41640546e-20
1.44188826e-18
-5.46900235e-19
-1.07836434e-18
7.86723262e-19
-8.13659602e-19
1.0537402e-18
-1.86910263e-18
-2.42418189e-18
-1.7982926e-18
-2.54745996e-18
-4.54472648e-18
8.18359527e-19
1.38121519e-18
2.84642162e-18
1.51557771e-18
4.70340137e-18
6.57725624e-18
4.16999237e-18
3.19165705e-18
2.56061294e-18
6.04765608e-18
4.45287698e-18
4.57318338e-18
5.62520819e-18
8.30646185e-18
6.67566752e-18
6.86571248e-18
8.4629223e-18
7.52825246e-18
4.85535244e-18
9.04919668e-18
8.72357938e-18
6.96833774e-18
6.56226428e-18
1.20989311e-17
8.79416844e-18
1.03148569e-17
8.94910555e-18
5.87208611e-18
5.68679053e-18
7.05811399e-18
1.01887909e-17
1.09459826e-17
1.10633876e-17
1.17649737e-17
1.4513534e-17
1.50924957e-17
1.55484696e-17
1.82600061e-17
1.64416363e-17
1.65806944e-17
1.66701236e-17
1.67616696e-17
1.61439153e-17
1.44343752e-17
1.25336047e-17
1.20917041e-17
1.06979087e-17
1.31829353e-17
1.1818901e-17
1.2523718e-17
1.56405703e-17
1.4336196e-17
1.23246431e-17
1.14414315e-17
1.19803313e-17
1.12441923e-17
1.46740295e-17
1.43096254e-17
1.22655419e-17
1.1592225e-17
1.34219927e-17
1.18780767e-17
1.0632311e-17
1.323836e-17
1.74988958e-17
1.53729852e-17
1.50928869e-17
1.43569467e-17
1.87254769e-17
1.89172239e-17
1.96885106e-17
2.20487568e-17
2.0502568e-17
2.17548746e-17
1.8138436e-17
1.97825852e-17
2.20973018e-17
2.04215696e-17
2.06534531e-17
2.12481808e-17
2.06427781e-17
2.13215609e-17
2.27964213e-17
2.07990502e-17
2.20514818e-17
2.14579862e-17
1.94131503e-17
2.24987006e-17
2.04662079e-17
1.98200868e-17
2.21853759e-17
2.20637079e-17
2.49787298e-17
2.63319421e-17
2.57819507e-17
2.66769898e-17
2.48602997e-17
2.34441229e-17
2.73444438e-17
2.62262802e-17
2.8230803e-17
2.64714072e-17
2.74851299e-17
2.78622546e-17
2.58497556e-17
2.87567125e-17
2.62529356e-17
2.6995091e-17
2.61373869e-17
2.49850514e-17
2.40400489e-17
2.21704879e-17
2.21699903e-17
2.03355675e-17
2.08442247e-17
1.8037497e-17
1.84186741e-17
1.60231126e-17
1.59471955e-17
1.85766902e-17
1.98123685e-17
2.07947909e-17
1.82024791e-17
1.42295834e-17
1.26545739e-17
1.16359103e-17
8.9776032e-18
7.78717999e-18
1.23604786e-17
1.03449196e-17
8.20898586e-18
9.57005644e-18
1.16125372e-17
1.41536042e-17
1.17900453e-17
1.06994032e-17
1.32094647e-17
1.21608901e-17
1.06588288e-17
8.4663924e-18
7.8147633e-18
7.63211217e-18
5.71032744e-18
5.88732518e-18
7.04777362e-18
8.13861348e-18
9.12158146e-18
6.45851126e-18
5.97120052e-18
9.35672273e-18
1.07753392e-17
7.4188857e-18
6.30502988e-18
6.64686215e-18
4.2211122e-18
6.27671632e-18
1.09175899e-17
5.42710386e-18
4.94008283e-18
5.64960089e-18
7.10566014e-18
6.29001947e-18
5.53293207e-18
7.34257346e-18
7.39997473e-18
7.36558e-18
8.70278251e-18
9.67031979e-18
7.31131899e-18
6.82271247e-18
1.01017487e-17
7.44802323e-18
1.10342491e-17
1.49236251e-17
1.38373103e-17
1.23382548e-17
1.29036737e-17
1.18849745e-17
1.38961958e-17
1.33637367e-17
9.84850548e-18
1.26347179e-17
1.10272848e-17
1.40484123e-17
1.00984961e-17
1.19801893e-17
1.00414253e-17
9.99848867e-18
8.40643109e-18
9.50584079e-18
1.17862507e-17
1.36015741e-17
1.79893675e-17
1.59241246e-17
1.79798824e-17
1.52954932e-17
1.68420383e-17
1.78517405e-17
1.71454001e-17
1.84274004e-17
2.07554224e-17
2.43909009e-17
2.29289489e-17
2.27306318e-17
2.30669814e-17
2.13086521e-17
2.21758594e-17
2.30369361e-17
2.23698221e-17
2.11241098e-17
2.09528976e-17
2.4305831e-17
2.51043145e-17
2.51938143e-17
2.39466356e-17
2.38601859e-17
2.20230177e-17
2.33926886e-17
2.44070765e-17
2.38207883e-17
2.67175174e-17
2.55235333e-17
2.3452418e-17
2.57628306e-17
2.22322355e-17
1.93190882e-17
2.05733817e-17
1.94140911e-17
1.86285535e-17
1.77092972e-17
1.83021773e-17
1.86098274e-17
2.04693893e-17
2.2288704e-17
2.4484485e-17
2.43888061e-17
1.99306054e-17
2.2482533e-17
1.92602785e-17
1.77152733e-17
1.78304021e-17
1.88615382e-17
1.64813215e-17
1.68650569e-17
1.8953818e-17
2.05268626e-17
1.81644507e-17
1.81286604e-17
1.73484087e-17
1.91813078e-17
1.99002791e-17
2.28267043e-17
2.14105066e-17
1.96689315e-17
2.17272881e-17
2.27000211e-17
2.355864e-17
2.06040732e-17
2.0054116e-17
1.76082598e-17
1.64295981e-17
1.59706457e-17
1.2562369e-17
1.52698555e-17
1.38121432e-17
1.41309541e-17
1.95479879e-17
1.7052754e-17
2.06073033e-17
1.95838798e-17
2.17174705e-17
2.22753224e-17
2.56046566e-17
2.34409278e-17
2.26481635e-17
2.17156605e-17
2.38599478e-17
1.70703223e-17
1.57132008e-17
1.98488721e-17
1.60406115e-17
1.63455721e-17
1.71747897e-17
1.94946308e-17
1.71460156e-17
1.55932607e-17
1.62061191e-17
1.45804763e-17
1.23501956e-17
1.00249319e-17
9.89135599e-18
8.61502223e-18
1.25996294e-17
1.13035508e-17
8.7888245e-18
1.04452838e-17
9.36860751e-18
9.97828159e-18
1.19225793e-17
8.83672794e-18
9.05536482e-18
6.96972986e-18
7.03348977e-18
8.61805893e-18
1.05915305e-17
1.35962019e-17
1.32271766e-17
1.1678893e-17
1.16348735e-17
1.34086213e-17
8.63833005e-18
1.02430351e-17
1.13112324e-17
1.16269648e-17
1.21352992e-17
9.6782122e-18
9.16622946e-18
1.02252727e-17
1.26891593e-17
1.27883e-17
1.42775182e-17
1.63704721e-17
1.84581682e-17
1.54375862e-17
1.44677375e-17
1.69121329e-17
1.77442693e-17
1.68876364e-17
2.06182665e-17
2.04153448e-17
1.70350845e-17
1.77730003e-17
1.58019887e-17
1.66200635e-17
1.76003259e-17
1.80558546e-17
1.88777415e-17
1.831163e-17
1.59377488e-17
1.55955331e-17
1.57519302e-17
1.30530118e-17
1.31315901e-17
1.17876913e-17
1.46281798e-17
1.52655668e-17
1.38067518e-17
1.56594193e-17
1.32688814e-17
1.15913543e-17
1.20582963e-17
1.47124155e-17
1.65226098e-17
2.13341158e-17
2.01959673e-17
1.89709512e-17
2.27947197e-17
2.06294388e-17
2.20597227e-17
2.18914214e-17
2.33285156e-17
2.17539297e-17
1.9227145e-17
1.75238747e-17
1.80643179e-17
1.69975662e-17
1.80456632e-17
1.69872204e-17
1.72324242e-17
1.97513564e-17
1.96467935e-17
1.98591287e-17
1.90483157e-17
1.70238902e-17
1.80503313e-17
1.81528933e-17
1.6760951e-17
2.0664417e-17
2.16293694e-17
2.31720766e-17
2.61604509e-17
2.4807648e-17
2.34773973e-17
2.65997185e-17
2.54387173e-17
2.50970438e-17
2.5681365e-17
2.2447054e-17
2.24257346e-17
2.02808702e-17
2.1693684e-17
2.34579114e-17
2.4033781e-17
2.20138725e-17
2.13579615e-17
2.39418645e-17
2.64850019e-17
2.7273667e-17
2.74347575e-17
2.60464193e-17
2.45232875e-17
2.34341017e-17
2.79682787e-17
2.83472674e-17
2.83539106e-17
3.03193238e-17
2.95507461e-17
3.19063588e-17
3.08406982e-17
3.37309406e-17
3.4550633e-17
3.20332154e-17
3.12463723e-17
3.18935104e-17
2.81921108e-17
3.12709402e-17
2.82775444e-17
2.63086293e-17
3.03007882e-17
2.95605919e-17
2.64765104e-17
2.70503613e-17
2.90748314e-17
2.99236807e-17
2.75573133e-17
3.11974179e-17
2.86266234e-17
2.93753368e-17
2.52307088e-17
2.70994994e-17
2.98496114e-17
2.99407118e-17
3.02476812e-17
2.93214276e-17
2.94487339e-17
2.9713644e-17
2.98473542e-17
3.41241213e-17
3.17291421e-17
3.03523667e-17
3.28419839e-17
3.27086894e-17
3.43977888e-17
3.0970091e-17
3.41639051e-17
3.34102891e-17
3.64248764e-17
3.51876496e-17
3.36857757e-17
3.4798654e-17
3.08888717e-17
3.08292064e-17
3.27067896e-17
3.25894681e-17
3.48670665e-17
3.5405178e-17
3.00493298e-17
3.02679848e-17
2.89660745e-17
3.03327187e-17
2.91122573e-17
3.17463922e-17
3.11007519e-17
3.16203869e-17
3.23140162e-17
3.44829345e-17
3.29769881e-17
3.09979654e-17
3.20814733e-17
2.98423027e-17
2.88997997e-17
2.85372973e-17
2.64739467e-17
2.91237946e-17
2.93803613e-17
2.98556047e-17
3.1770684e-17
3.29141272e-17
3.58810461e-17
3.48364841e-17
3.61730837e-17
3.54601301e-17
3.5092586e-17
3.69517463e-17
3.6909332e-17
3.23285405e-17
3.29593818e-17
3.16644171e-17
3.20949767e-17
3.20453913e-17
3.34038685e-17
3.25738954e-17
2.86672214e-17
2.67439762e-17
2.53230229e-17
2.2448344e-17
2.19533032e-17
2.67403367e-17
2.28245138e-17
2.44427794e-17
2.22223165e-17
2.48817143e-17
2.45435048e-17
2.39109952e-17
2.54883126e-17
2.75648512e-17
2.67913237e-17
2.26741886e-17
2.24347783e-17
2.139979e-17
2.05461743e-17
1.95966568e-17
2.12776869e-17
2.24154452e-17
2.3588027e-17
2.13616838e-17
2.11772755e-17
2.08695971e-17
2.15190485e-17
2.48941838e-17
2.20592883e-17
2.27847795e-17
2.4155804e-17
2.04486366e-17
2.67772728e-17
2.60138152e-17
2.41379076e-17
2.73196137e-17
2.55462801e-17
2.53934705e-17
2.58658307e-17
2.6743525e-17
2.72749743e-17
2.99784881e-17
2.8940604e-17
3.00829393e-17
3.32843521e-17
3.19734085e-17
3.18972357e-17
3.182068e-17
3.20747053e-17
3.01523465e-17
2.75095676e-17
2.78483646e-17
2.90176807e-17
2.80802117e-17
2.8821611e-17
2.91537045e-17
2.71877479e-17
2.85814986e-17
2.56414307e-17
2.99816581e-17
2.68662279e-17
2.66146227e-17
2.67885882e-17
2.54286837e-17
2.38568984e-17
2.43578755e-17
2.25013276e-17
2.16592973e-17
1.81658558e-17
1.7301623e-17
1.69903769e-17
1.51606218e-17
1.41985902e-17
1.33251065e-17
1.1692071e-17
9.02607933e-18
8.77042607e-18
7.40319411e-18
7.2171218e-18
6.90463352e-18
5.02682634e-18
6.94369602e-18
5.73870388e-18
7.25443426e-18
6.33254868e-18
6.24508637e-18
8.11100081e-18
8.48276239e-18
7.75822572e-18
4.58021799e-18
2.36915442e-18
-2.55821882e-18
-2.03122524e-19
-1.18500715e-18
-7.87788238e-19
2.52723687e-18
3.28574961e-18
4.59608421e-18
1.65816335e-18
-1.89388497e-18
-3.05366633e-18
-4.94965036e-18
-5.8365108e-18
-6.18102065e-18
-8.86388473e-18
-8.65251372e-18
-9.54347226e-18
-9.06282552e-18
-1.16262755e-17
-1.21557285e-17
-1.12996431e-17
-1.17189537e-17
-1.07349883e-17
-9.39627617e-18
-9.76796299e-18
-1.35491039e-17
-1.51631839e-17
-1.33597152e-17
-1.30006287e-17
-1.84669305e-17
-1.75054229e-17
-2.16495523e-17
-2.22203828e-17
-2.23431366e-17
-2.3624549e-17
-2.17424271e-17
-2.78310968e-17
-2.54664939e-17
-2.14475679e-17
-2.43744709e-17
-2.19859268e-17
-2.28430835e-17
-2.27185931e-17
-2.28871279e-17
-2.23697403e-17
-1.92822204e-17
-1.71850114e-17
-1.91699476e-17
-1.75502312e-17
-1.58672212e-17
-1.6733294e-17
-2.17793837e-17
-2.15303907e-17
-2.03212565e-17
-2.26983445e-17
-2.31397657e-17
-2.43574924e-17
-2.16768808e-17
-2.2851368e-17
-2.31282632e-17
-2.49494751e-17
-2.53367718e-17
-2.4189034e-17
-2.40059028e-17
-2.38031212e-17
-2.35640324e-17
-2.10439829e-17
-2.30338374e-17
-2.12180833e-17
-2.41985021e-17
-2.00190586e-17
-2.19338062e-17
-2.65367222e-17
-2.77558583e-17
-3.20022533e-17
-3.33692585e-17
-3.51978582e-17
-3.83292101e-17
-3.81945162e-17
-3.85003126e-17
-3.79907089e-17
-3.86962683e-17
-3.98020289e-17
-3.51596477e-17
-3.80374436e-17
-3.83959977e-17
-4.13566252e-17
-3.93842105e-17
-3.60390055e-17
-3.75793823e-17
-4.00879831e-17
-3.35349312e-17
-3.4917375e-17
-3.61100942e-17
-3.85094427e-17
-4.00859455e-17
-4.00890487e-17
-3.97512957e-17
-3.91984046e-17
-4.04497768e-17
-4.13262046e-17
-4.00848443e-17
-4.43411469e-17
-4.36790447e-17
-4.50439926e-17
-4.36978215e-17
-4.64193882e-17
-4.4561613e-17
-4.34133714e-17
-4.63923821e-17
-4.46515134e-17
-4.39774381e-17
-4.36818928e-17
-4.12881089e-17
-3.87529277e-17
-3.96298371e-17
-4.1625203e-17
-4.04512188e-17
-4.24951256e-17
-3.97770799e-17
-3.88598698e-17
-4.05431837e-17
-3.71626278e-17
-3.81832765e-17
-3.595555e-17
-3.34798132e-17
-3.63824301e-17
-3.54768542e-17
-3.33865673e-17
-3.37945911e-17
-3.03733821e-17
-3.5923647e-17
-3.21413434e-17
-3.28448955e-17
-3.12450231e-17
-3.53548785e-17
-3.56855444e-17
-3.3515754e-17
-3.19019641e-17
-3.38181661e-17
-3.67281503e-17
-3.7468644e-17
-3.18147849e-17
-3.35824537e-17
-3.19258592e-17
-3.11045312e-17
-3.11976582e-17
-3.0086285e-17
-3.06586454e-17
-3.0799614e-17
-3.10207366e-17
-2.84152848e-17
-2.52306717e-17
-2.76541052e-17
-2.50217356e-17
-2.77288801e-17
-2.67270855e-17
-2.69119997e-17
-2.56604657e-17
-2.65406149e-17
-2.65025562e-17
-2.84195977e-17
-2.32589087e-17
-2.44360022e-17
-2.51183174e-17
-2.56041309e-17
-2.51068191e-17
-2.63780336e-17
-2.74734436e-17
-2.30247217e-17
-2.23186127e-17
-2.01948221e-17
-1.98045191e-17
-1.89607823e-17
-1.83283606e-17
-1.55920203e-17
-2.00300781e-17
-1.93933382e-17
-2.11052154e-17
-2.1695434e-17
-1.99085774e-17
-2.21298078e-17
-2.27237425e-17
-2.07771304e-17
-2.17637128e-17
-2.04548955e-17
-1.9517708e-17
-1.9078026e-17
-1.77247607e-17
-1.66762266e-17
-1.95638908e-17
-1.90772211e-17
-1.82657086e-17
-1.5619233e-17
-1.58707175e-17
-1.84617845e-17
-2.17180191e-17
-1.92166909e-17
-1.76859506e-17
-2.16538715e-17
-2.06657792e-17
-2.09818612e-17
-1.95573531e-17
-2.09418336e-17
-1.97777394e-17
-1.64642381e-17
-1.45336455e-17
-1.16757412e-17
-1.1269952e-17
-1.3343629e-17
-1.2415789e-17
-1.5601798e-17
-1.46267866e-17
-1.6445194e-17
-1.4145176e-17
-1.34306474e-17
-1.24117713e-17
-1.48396426e-17
-1.376236e-17
-1.33627884e-17
-1.46329145e-17
-1.23370534e-17
-1.42010124e-17
-1.53591448e-17
-1.5335314e-17
-1.62918673e-17
-1.54822825e-17
-1.59241767e-17
-1.36526018e-17
-1.53236093e-17
-1.19283442e-17
-1.53367974e-17
-1.47425509e-17
-1.33593861e-17
-1.37446701e-17
-1.33966812e-17
-1.55511754e-17
-1.35214088e-17
-1.35474393e-17
-1.53911488e-17
-1.37722935e-17
-1.4293402e-17
-1.61494206e-17
-1.57828636e-17
-1.59652591e-17
-1.55228051e-17
-1.6275386e-17
-1.51481939e-17
-1.29393852e-17
-1.2303071e-17
-1.39820881e-17
-1.13020392e-17
-1.34592999e-17
-1.19826383e-17
-1.5224385e-17
-1.14300575e-17
-1.26208764e-17
-1.14420795e-17
-1.3727464e-17
-1.37682066e-17
-1.62441966e-17
-1.314209e-17
-1.36551121e-17
-1.37882677e-17
-1.65952122e-17
-1.64164359e-17
-2.10339753e-17
-1.96770936e-17
-1.51341864e-17
-1.44513573e-17
-1.58154488e-17
-1.65643605e-17
-1.18876298e-17
-1.27755842e-17
-1.60516919e-17
-1.36338926e-17
-1.38201096e-17
-1.3245345e-17
-1.48105528e-17
-1.1451639e-17
-1.48970484e-17
-1.3317521e-17
-1.01420101e-17
-1.16487207e-17
-1.12426514e-17
-1.12136868e-17
-1.14553741e-17
-1.03858795e-17
-8.58019418e-18
-8.12457358e-18
-8.0231013e-18
-6.73051553e-18
-4.85553025e-18
-5.79616086e-18
-6.19452466e-18
-6.19899091e-18
-8.31879088e-18
-8.30871111e-18
-8.09254887e-18
-8.87820633e-18
-8.57921113e-18
-6.89491446e-18
-8.84796389e-18
-9.18756976e-18
-1.38306365e-17
-1.48348381e-17
-1.26082569e-17
-1.5254634e-17
-1.38330127e-17
-1.14211202e-17
-1.05299427e-17
-9.41838552e-18
-1.05760141e-17
-1.36949593e-17
-1.28979285e-17
-1.50526316e-17
-1.12941522e-17
-8.89289658e-18
-1.11834512e-17
-1.48539967e-17
-1.37394248e-17
-1.58625917e-17
-1.55172066e-17
-1.50635617e-17
-1.36109218e-17
-1.07446692e-17
-1.12791923e-17
-1.395524e-17
-1.50676474e-17
-1.69302201e-17
-1.6978342e-17
-1.52427372e-17
-1.72553855e-17
-1.67449785e-17
-1.66263474e-17
-1.83170995e-17
-1.974831e-17
-2.03032521e-17
-1.59816838e-17
-1.67540447e-17
-1.70179293e-17
-1.34825017e-17
-1.25194987e-17
-1.16583942e-17
-1.40522685e-17
-1.74952332e-17
-1.80187721e-17
-1.5338056e-17
-1.52999265e-17
-1.59789562e-17
-1.3537654e-17
-1.01358027e-17
-8.06440334e-18
-7.98289901e-18
-6.18654766e-18
-8.04791254e-18
-8.06631621e-18
-1.05687054e-17
-1.21026008e-17
-9.0278773e-18
-6.270237e-18
-9.75412089e-18
-9.08828307e-18
-1.1157174e-17
-1.05711376e-17
-9.08405149e-18
-1.04780288e-17
-1.04147964e-17
-1.02770989e-17
-1.34179948e-17
-1.42785026e-17
-1.7817502e-17
-1.7444829e-17
-1.43656708e-17
-1.54540403e-17
-1.57727714e-17
-1.59821601e-17
-1.38440225e-17
-1.44751565e-17
-1.22339082e-17
-1.17434239e-17
-1.19823662e-17
-1.55692341e-17
-1.6387372e-17
-2.21802294e-17
-2.18014872e-17
-2.22470529e-17
-2.32762917e-17
-2.4510342e-17
-2.56895823e-17
-2.64175837e-17
-2.86885572e-17
-2.74099244e-17
-2.53970516e-17
-2.53279544e-17
-2.80414689e-17
-2.51353475e-17
-3.03373462e-17
-2.71945115e-17
-2.97941232e-17
-2.87882071e-17
-2.83281164e-17
-3.02931111e-17
-2.96666946e-17
-2.88743774e-17
-2.88499206e-17
-2.69382541e-17
-2.38736588e-17
-2.43854116e-17
-2.45284748e-17
-2.56599326e-17
-2.66715276e-17
-2.51668113e-17
-2.65961541e-17
-2.69526327e-17
-2.3600544e-17
-2.62513825e-17
-2.1138396e-17
-2.21185598e-17
-2.00954613e-17
-1.91383773e-17
-2.14696291e-17
-1.9565898e-17
-2.08282803e-17
-1.92248186e-17
-1.8089993e-17
-1.85286316e-17
-2.18421358e-17
-2.06928978e-17
-2.14264272e-17
-1.98097502e-17
-1.94052195e-17
-1.87839987e-17
-1.67719456e-17
-1.58248521e-17
-1.88363387e-17
-1.79094371e-17
-1.82773426e-17
-2.14314039e-17
-2.0328479e-17
-2.21057139e-17
-2.44366357e-17
-1.95976825e-17
-1.96857943e-17
-2.1734803e-17
-1.88560799e-17
-2.00030346e-17
-1.54439349e-17
-1.33364675e-17
-1.49858762e-17
-1.58876936e-17
-1.60142058e-17
-1.53294493e-17
-1.7003864e-17
-1.8197923e-17
-1.9359116e-17
-1.93431401e-17
-1.77964056e-17
-2.06160713e-17
-1.7159284e-17
-1.83557084e-17
-1.72575054e-17
-1.56661531e-17
-1.10914076e-17
-8.98432885e-18
-1.14306723e-17
-1.56252662e-17
-1.70582989e-17
-1.71968626e-17
-1.81113348e-17
-1.64382609e-17
-1.85305908e-17
-1.88603253e-17
-2.19206534e-17
-2.13690152e-17
-2.35438707e-17
-2.15916461e-17
-2.24246392e-17
-2.46410859e-17
-2.19048519e-17
-1.90143827e-17
-2.0460217e-17
-2.16893741e-17
-2.23234852e-17
-2.52530518e-17
-2.17567731e-17
-2.58799766e-17
-2.89108941e-17
-2.65239482e-17
-2.66865313e-17
-2.62313385e-17
-3.24646128e-17
-2.72044389e-17
-2.80599572e-17
-2.94089718e-17
-2.56714796e-17
-2.52894851e-17
-2.34394301e-17
-2.2417102e-17
-2.57392513e-17
-2.27522866e-17
-2.50621558e-17
-2.41559755e-17
-2.41736736e-17
-2.39178497e-17
-1.92747574e-17
-2.05337656e-17
-2.12646066e-17
-2.32620853e-17
-2.30662617e-17
-2.12606258e-17
-2.17174117e-17
-2.32476397e-17
-2.26915526e-17
-2.16583788e-17
-2.25983976e-17
-1.92879115e-17
-2.37762522e-17
-2.38226456e-17
-2.31644265e-17
-2.49880778e-17
-2.50164906e-17
-2.4451731e-17
-2.44359255e-17
-2.56992296e-17
-2.22591915e-17
-1.9543455e-17
-2.00237546e-17
-2.14101438e-17
-2.214145e-17
-1.84665989e-17
-1.86507895e-17
-1.63203034e-17
-1.74222107e-17
-1.77629211e-17
-1.5161041e-17
-1.63613388e-17
-1.38579926e-17
-1.09469539e-17
-9.11184904e-18
-9.40881529e-18
-6.95779598e-18
-4.62403224e-18
-2.9259718e-18
-4.65812874e-18
-3.18525475e-18
-2.65203436e-18
-3.16873931e-18
-3.73411552e-18
-8.25371649e-19
1.92628947e-18
-1.08493451e-18
-8.79269168e-19
-9.91978477e-19
-6.45815895e-18
-9.57947574e-18
-7.60210425e-18
-5.00663377e-18
-8.27829124e-18
-6.36672027e-18
-2.49613959e-18
-1.45257631e-18
-2.63078279e-18
-3.4458095e-18
-6.01852069e-18
-3.94025614e-18
-5.15339198e-18
-4.69622292e-18
-7.00059041e-18
-5.18728098e-18
-2.52924769e-18
-4.59752434e-19
-5.50186861e-19
1.01577907e-18
-3.47854851e-18
-3.03403825e-18
2.93091049e-18
4.30916895e-18
6.47113778e-18
6.89539352e-18
1.28314202e-18
3.61044414e-18
-1.05054948e-18
-2.79803216e-19
-4.64140811e-19
2.66462082e-18
1.88618462e-18
6.22227485e-18
5.42424284e-18
4.02873864e-18
7.32938784e-18
7.77337612e-18
7.21283791e-18
6.25381077e-18
7.79282547e-18
7.7963509e-18
4.73018979e-18
2.52480883e-18
6.24151231e-19
4.45672873e-18
5.58611473e-18
2.46598106e-18
1.93946984e-18
2.76316008e-18
4.12437215e-18
4.26325203e-18
5.32559069e-18
7.0434208e-18
4.65382538e-18
5.79262469e-18
6.38778624e-18
8.53793504e-18
1.24856952e-17
1.03874955e-17
1.23434756e-17
1.47132473e-17
1.50858795e-17
1.20311311e-17
1.09288542e-17
8.77595701e-18
6.25517212e-18
7.65617337e-18
7.0145107e-18
6.43139346e-18
7.42602173e-18
9.17107065e-18
8.00164663e-18
8.77690423e-18
8.88082854e-18
7.82507968e-18
8.26134379e-18
1.05064207e-17
9.56342626e-18
1.17018233e-17
1.32543875e-17
1.73987401e-17
1.36422833e-17
1.46237516e-17
1.68756375e-17
1.77318103e-17
1.61991223e-17
1.58915558e-17
1.70131005e-17
1.81635114e-17
1.85575499e-17
1.83942993e-17
1.72768765e-17
1.95628006e-17
1.8894835e-17
2.06491378e-17
1.91326402e-17
2.05984446e-17
1.98362034e-17
1.70727692e-17
2.0810449e-17
1.95807889e-17
2.24392708e-17
2.15523602e-17
2.1237927e-17
2.03865077e-17
2.02974559e-17
2.35586576e-17
2.70125958e-17
2.94007279e-17
2.44688515e-17
2.831922e-17
2.68035692e-17
2.99146224e-17
3.15405158e-17
3.16518816e-17
3.11033407e-17
3.01594897e-17
2.88362345e-17
3.08468157e-17
2.90309966e-17
2.99383284e-17
3.09958541e-17
2.88055723e-17
3.07017192e-17
2.97072653e-17
2.98662085e-17
2.80274677e-17
2.70494335e-17
2.89916794e-17
3.19449006e-17
3.46921699e-17
3.70228007e-17
3.59655166e-17
3.43216099e-17
3.76727571e-17
3.8496801e-17
3.91457799e-17
3.66192279e-17
3.90140696e-17
4.08753535e-17
3.97830238e-17
3.8992508e-17
3.67502798e-17
3.45856837e-17
3.66534309e-17
3.81809969e-17
4.14035929e-17
4.28070025e-17
4.32929934e-17
4.18865673e-17
4.51262871e-17
4.52673551e-17
4.73817386e-17
4.446377e-17
4.36368378e-17
4.2902132e-17
4.31267389e-17
4.41260462e-17
4.36981874e-17
4.35161997e-17
4.46992686e-17
4.51608173e-17
4.82687729e-17
5.06698096e-17
5.0906486e-17
4.95908186e-17
5.15192639e-17
5.43636048e-17
5.63244193e-17
5.89010164e-17
6.08641062e-17
5.83043821e-17
5.9035594e-17
6.23962329e-17
6.0444718e-17
5.95510379e-17
5.98285184e-17
5.95552056e-17
6.19075395e-17
6.41661501e-17
6.26214694e-17
6.43719951e-17
6.36241937e-17
6.39329287e-17
6.60544828e-17
6.4958933e-17
6.77459512e-17
6.88163609e-17
7.12443645e-17
7.46811233e-17
7.1415652e-17
6.98692271e-17
7.20828796e-17
7.01576428e-17
7.0436247e-17
7.00119183e-17
7.28205141e-17
6.90170512e-17
6.83368497e-17
6.67158473e-17
7.05690152e-17
7.19350738e-17
7.02578815e-17
6.8552384e-17
6.78604463e-17
6.83349305e-17
6.804908e-17
6.94524419e-17
6.95867577e-17
6.95826598e-17
6.97460217e-17
6.99001486e-17
6.85647402e-17
7.06525418e-17
7.27854901e-17
7.19683763e-17
7.16786818e-17
7.22203793e-17
6.76548682e-17
7.20395304e-17
7.49001705e-17
6.98571301e-17
7.24459918e-17
7.37205364e-17
7.35126569e-17
7.33575221e-17
7.46219083e-17
7.25989213e-17
7.29132474e-17
7.25634359e-17
7.06797601e-17
6.94680305e-17
7.02254034e-17
7.16857184e-17