/*--------------------------------*- C++ -*----------------------------------*\
| =========                 |                                                 |
| \\      /  F ield         | OpenFOAM: The Open Source CFD Toolbox           |
|  \\    /   O peration     | Version:  2206                                  |
|   \\  /    A nd           | Website:  www.openfoam.com                      |
|    \\/     M anipulation  |                                                 |
\*---------------------------------------------------------------------------*/
FoamFile
{
    version     2.0;
    format      ascii;
    arch        "LSB;label=32;scalar=64";
    class       volScalarField;
    location    "6.4e-06";
    object      PVsourcePV;
}
// * * * * * * * * * * * * * * * * * * * * * * * * * * * * * * * * * * * * * //

dimensions      [1 -3 -1 0 0 0 0];

internalField   nonuniform List<scalar> 
3183
(
0
0
0
0
0
0
0
0
0
0
0
0
0
0
0
0
0
0
0
0
0
0
0
0
0
0
0
0
0
0
0
0
0
0
0
0
0
0
0
0
0
0
0
0
0
0
0
0
0
0
0
0
0
0
0
0
0
0
0
0
0
0
0
0
0
0
0
0
0
0
0
0
0
0
0
0
0
0
0
0
0
0
0
0
0
0
0
0
0
0
0
0
0
0
0
0
0
0
0
0
0
0
0
0
0
0
0
0
0
0
0
0
0
0
0
0
0
0
0
0
0
0
0
0
0
0
0
0
0
0
0
0
0
0
0
0
0
0
0
0
0
0
0
0
0
0
0
0
0
0
0
0
0
0
0
0
0
0
0
0
0
0
0
0
0
0
0
0
0
0
0
0
0
0
0
0
0
0
0
0
0
0
0
0
0
0
0
0
0
0
0
0
0
0
0
0
0
0
0
0
0
0
0
0
0
0
0
0
0
0
0
0
0
0
0
0
0
0
0
0
0
0
0
0
0
0
0
0
0
0
0
0
0
0
0
0
0
0
0
0
0
0
0
0
0
0
0
0
0
0
0
0
0
0
0
0
0
0
0
0
0
0
0
0
0
0
0
0
0
0
0
0
0
0
0
0
0
0
0
0
0
0
0
0
0
0
0
0
0
0
0
0
0
0
0
0
0
0
0
0
0
0
0
0
0
0
0
0
0
0
0
0
0
0
0
0
0
0
0
0
0
0
0
0
0
0
0
0
0
0
0
0
0
0
0
0
0
0
0
0
0
0
0
0
0
0
0
0
0
0
0
0
0
0
0
0
0
0
0
0
0
0
0
0
0
0
0
0
0
0
0
0
0
0
0
0
0
0
0
0
0
0
0
0
0
0
0
0
0
0
0
0
0
0
0
0
0
0
0
0
0
0
0
0
0
0
0
0
0
0
0
0
0
0
0
0
0
0
0
0
0
0
0
0
0
0
0
0
0
0
0
0
0
0
0
0
0
0
0
0
0
0
0
0
0
0
0
0
0
0
0
0
0
0
0
0
0
0
0
0
0
0
0
0
0
0
0
0
0
0
0
0
0
0
0
0
0
0
0
0
0
0
0
0
0
0
0
0
0
0
0
0
0
0
0
0
0
0
0
0
0
0
0
0
0
0
0
0
0
0
0
0
0
0
0
0
0
0
0
0
0
0
0
0
0
0
0
0
0
0
0
0
0
0
0
0
0
0
0
0
0
0
0
0
0
0
0
0
0
0
0
0
0
0
0
0
0
0
0
0
0
0
0
0
0
0
0
0
0
0
0
0
0
0
0
0
0
0
0
0
0
0
0
0
0
0
0
0
0
0
0
0
0
0
0
0
0
0
0
0
0
0
0
0
0
0
0
0
0
0
0
0
0
0
0
0
0
0
0
0
0
0
0
0
0
0
0
0
0
0
0
0
0
0
0
0
0
0
0
0
0
0
0
0
0
0
0
0
0
0
0
0
0
0
0
0
0
0
0
0
0
0
0
0
0
0
0
0
0
0
0
0
0
0
0
0
0
0
0
0
0
0
0
0
0
0
0
0
0
0
0
0
0
0
0
0
0
0
0
0
0
0
0
0
0
0
0
0
0
0
0
0
0
0
0
0
0
0
0
0
0
0
0
0
0
0
0
0
0
0
0
0
0
0
0
0
0
0
0
0
0
0
0
0
0
0
0
0
0
0
0
0
0
0
0
0
0
0
0
0
0
0
0
0
0
0
0
0
0
0
0
0
0
0
0
0
0
0
0
0
0
0
0
0
0
0
0
0
0
0
0
0
0
0
0
0
0
0
0
0
0
0
0
0
0
0
0
0
0
0
0
0
0
0
0
0
0
0
0
0
0
0
0
0
0
0
0
0
0
0
0
0
0
0
0
0
0
0
0
0
0
0
0
0
0
0
0
0
0
0
0
0
0
0
0
0
0
0
0
0
0
0
0
0
0
0
0
0
0
0
0
0
0
0
0
0
0
0
0
0
0
0
0
0
0
0
0
0
0
0
0
0
0
0
0
0
0
0
0
0
0
0
0
0
0
0
0
0
0
0
0
0
0
0
0
0
0
0
0
0
0
0
0
0
0
0
0
0
0
0
0
0
0
0
0
0
0
0
0
0
0
0
0
0
0
0
0
0
0
0
0
0
0
0
0
0
0
0
0
0
0
0
0
0
0
0
0
0
0
0
0
0
0
0
0
0
0
0
0
0
0
0
0
0
0
0
0
0
0
0
0
0
0
0
0
0
0
0
0
0
0
0
0
0
0
0
0
0
0
0
0
0
0
0
0
0
0
0
0
0
0
0
0
0
0
0
0
0
0
0
0
0
0
0
0
0
0
0
0
0
0
0
0
0
0
0
0
0
0
0
0
0
0
0
0
0
0
0
0
0
0
0
0
0
0
0
0
0
0
0
0
0
0
0
0
0
0
0
0
0
0
0
0
0
0
0
0
0
0
0
0
0
0
0
0
0
0
0
0
0
0
0
0
0
0
0
0
0
0
0
0
0
0
0
0
0
0
0
0
0
0
0
0
0
0
0
0
0
0
0
0
0
0
0
0
0
0
0
0
0
0
0
0
0
0
0
0
0
0
0
0
0
0
0
0
0
0
0
0
0
0
0
0
0
0
0
0
0
0
0
0
0
0
0
0
0
0
0
0
0
0
0
0
0
0
0
0
0
0
0
0
0
0
0
0
0
0
0
0
0
0
0
0
0
0
0
0
0
0
0
0
0
0
0
0
0
0
0
0
0
0
0
0
0
0
0
0
0
0
0
0
0
0
0
0
0
0
0
0
0
0
0
0
0
0
0
0
0
0
0
0
0
0
0
0
0
0
0
0
0
0
0
0
0
0
0
0
0
0
0
0
0
0
0
0
0
0
0
0
0
0
0
0
0
0
0
0
0
0
0
0
0
0
0
0
0
0
0
0
0
0
0
0
0
0
0
0
0
0
0
0
0
0
0
0
0
0
0
0
0
0
0
0
0
0
0
0
0
0
0
0
0
0
0
0
0
0
0
0
0
0
0
0
0
0
0
0
0
0
0
0
0
0
0
0
0
0
0
0
0
0
0
0
0
0
0
0
0
0
0
0
0
0
0
0
0
0
0
0
0
0
0
0
0
0
0
0
0
0
0
0
0
0
0
0
0
0
0
0
0
0
0
0
0
0
0
0
0
0
0
0
0
0
0
0
0
0
0
0
0
0
0
0
0
0
0
0
0
0
0
0
0
0
0
0
0
0
0
0
0
0
0
0
0
0
0
0
0
0
0
0
0
0
0
0
0
0
0
0
0
0
0
0
0
0
0
0
0
0
0
0
0
0
0
0
0
0
0
0
0
0
0
0
0
0
0
0
0
0
0
0
0
0
0
0
0
0
0
0
0
0
0
0
0
0
0
0
0
0
0
0
0
0
0
0
0
0
0
0
0
0
0
0
0
0
0
0
0
0
0
0
0
0
0
0
0
0
0
0
0
0
0
0
0
0
0
0
0
0
0
0
0
0
0
0
0
0
0
0
0
0
0
0
0
0
0
0
0
0
0
0
0
0
0
0
0
0
0
0
0
0
0
0
0
0
0
0
0
0
0
0
0
0
0
0
0
0
0
0
0
0
0
0
0
0
0
0
0
0
0
0
0
0
0
0
0
0
0
0
0
0
0
0
0
0
0
0
0
0
0
0
0
0
0
0
0
0
0
0
0
0
0
0
0
0
0
0
0
0
0
0
0
0
0
0
0
0
0
0
0
0
0
0
0
0
0
0
0
0
0
0
0
0
0
0
0
0
0
0
0
0
0
0
0
0
0
0
0
0
0
0
0
0
0
0
0
0
0
0
0
0
0
0
0
0
0
0
0
0
0
0
0
0
0
0
0
0
0
0
0
0
0
0
0
0
0
0
0
0
0
0
0
0
0
0
0
0
0
0
0
0
0
0
0
0
0
0
0
0
0
0
0
0
0
0
0
0
0
0
0
0
0
0
0
0
0
0
0
0
0
0
0
0
0
0
0
0
0
0
0
0
0
0
0
0
0
0
0
0
0
0
0
0
0
0
0
0
0
0
0
0
0
0
0
0
0
0
0
0
0
0
0
0
0
0
0
0
0
0
0
0
0
0
0
0
0
0
0
0
0
0
0
0
0
0
0
0
0
0
0
0
0
0
0
0
0
0
0
0
0
0
0
0
0
0
0
0
0
0
0
0
0
0
0
0
0
0
0
0
0
0
0
0
0
0
0
0
0
0
0
0
0
0
0
0
0
0
0
0
0
0
0
0
0
0
0
0
0
0
0
0
0
0
0
0
0
0
0
0
0
0
0
0
0
0
0
0
0
0
0
0
0
0
0
0
0
0
0
0
0
0
0
0
0
0
0
0
0
0
0
0
0
0
0
0
0
0
0
0
0
0
0
0
0
0
0
0
0
0
0
0
0
0
0
0
0
0
0
0
0
0
0
0
0
0
0
0
0
0
0
0
0
0
0
0
0
0
0
0
0
0
0
0
0
0
0
0
0
0
0
0
0
0
0
0
0
0
0
0
0
0
0
0
0
0
0
0
0
0
0
0
0
0
0
0
0
0
0
0
0
0
0
0
0
0
0
0
0
0
0
0
0
0
0
0
0
0
0
0
0
0
0
0
0
0
0
0
0
0
0
0
0
0
0
0
0
0
0
0
0
0
0
0
0
0
0
0
0
0
0
0
0
0
0
0
0
0
0
0
0
0
0
0
0
0
0
0
0
0
0
0
0
0
0
0
0
0
0
0
0
0
0
0
0
0
0
0
0
0
0
0
0
0
0
0
0
0
0
0
0
0
0
0
0
0
0
0
0
0
0
0
0
0
0
0
0
0
0
0
0
0
0
0
0
0
0
0
0
0
0
0
0
0
0
0
0
0
0
0
0
0
0
0
0
0
0
0
0
0
0
0
0
0
0
0
0
0
0
0
0
0
0
0
0
0
0
0
0
0
0
0
0
0
0
0
0
0
0
0
0
0
0
0
0
0
0
0
0
0
0
0
0
0
0
0
0
0
0
0
0
0
0
0
0
0
0
0
0
0
0
0
0
0
0
0
0
0
0
0
0
0
0
0
0
0
0
0
0
0
0
0
0
0
0
0
0
0
0
0
0
0
0
0
0
0
0
0
0
0
0
0
0
0
0
0
0
0
0
0
0
0
0
0
0
0
0
0
0
0
0
0
0
0
0
0
0
0
0
0
0
0
0
0
0
0
0
0
0
0
0
0
0
0
0
0
0
0
0
0
0
0
0
0
0
0
0
0
0
0
0
0
0
0
0
0
0
0
0
0
0
0
0
0
0
0
0
0
0
0
0
0
0
0
0
0
0
0
0
0
0
0
0
0
0
0
0
0
0
0
0
0
0
0
0
0
0
0
0
0
0
0
0
0
0
0
0
0
0
0
0
0
0
0
0
0
3.22679426e-300
0
8.08920307e-294
0
1.047672e-287
0
7.03029306e-282
0
2.45765841e-276
0
4.20439915e-272
0
3.77337445e-268
0
2.33818648e-264
0
1.120894e-260
0
4.42266638e-257
0
1.49288613e-253
0
4.42579245e-250
0
1.17429124e-246
0
2.82833845e-243
0
6.25205247e-240
0
1.27948805e-236
0
2.44142963e-233
0
4.36899391e-230
0
7.36833964e-227
0
1.17599713e-223
0
1.78250148e-220
0
2.57376766e-217
0
3.54961378e-214
0
4.68682349e-211
0
5.93683671e-208
0
7.22773294e-205
0
8.47079282e-202
0
9.5708508e-199
0
1.04386928e-195
0
1.10031893e-192
0
1.12208536e-189
0
1.10810762e-186
0
1.06062401e-183
0
9.84700584e-181
0
8.87398157e-178
0
7.76755706e-175
1.12942224e-176
6.6077911e-172
2.69705089e-173
5.46594154e-169
3.58391571e-170
4.39865548e-166
3.91341929e-167
3.44517216e-163
3.83008812e-164
2.62729846e-160
3.47644833e-161
1.95150614e-157
2.97678468e-158
1.41231365e-154
2.42832517e-155
9.96132102e-152
1.89891522e-152
6.84915603e-149
1.4294163e-149
4.59185337e-146
1.03884645e-146
3.00229652e-143
7.30511647e-144
1.91472049e-140
4.97849903e-141
1.19125105e-137
3.2924106e-138
7.23095724e-135
2.11496256e-135
4.28272566e-132
1.320695e-132
2.47515928e-129
8.02196608e-130
1.39591892e-126
4.74185457e-127
7.68239101e-124
2.72878351e-124
4.12578071e-121
1.52921604e-121
2.16208624e-118
8.3471788e-119
1.10552812e-115
4.43858812e-116
5.51516133e-113
2.29943687e-113
2.68403848e-110
1.16060226e-110
1.27409019e-107
5.70719434e-108
5.89819782e-105
2.73407785e-105
2.6623217e-102
1.27585165e-102
1.17145335e-99
5.79860784e-100
5.02342857e-97
2.56623267e-97
2.09874282e-94
1.10563772e-94
8.54003362e-92
4.63608136e-92
3.38331562e-89
1.89133335e-89
1.30446276e-86
7.50414555e-87
4.89251198e-84
2.89445467e-84
1.78413446e-81
1.08482196e-81
6.32238706e-79
3.94863012e-79
2.17585866e-76
1.39500301e-76
7.26755514e-74
4.78036661e-74
2.3541658e-71
1.58778248e-71
7.38971722e-69
5.10760891e-69
2.24582609e-66
1.58985448e-66
6.60172969e-64
4.78393814e-64
1.87501122e-61
1.39005394e-61
5.13919815e-59
3.89559193e-59
1.3575499e-56
1.0515505e-56
3.45098626e-54
2.72994487e-54
8.42830334e-52
6.80486989e-52
1.97397366e-49
1.62560044e-49
4.42424185e-47
3.71378922e-47
9.46680351e-45
8.0944712e-45
1.92868279e-42
1.67856913e-42
3.72960318e-40
3.30145042e-40
6.82098977e-38
6.13628332e-38
1.17487187e-35
1.07323749e-35
1.89643086e-33
1.75750958e-33
2.85174117e-31
2.67859683e-31
3.96627873e-29
3.7719613e-29
5.05703866e-27
4.86386475e-27
5.84496677e-25
5.67862433e-25
6.03589828e-23
5.91581569e-23
5.46200285e-21
5.39292343e-21
4.21550331e-19
4.18652194e-19
2.66568918e-17
2.65741478e-17
1.2943791e-15
1.27617144e-15
4.16852146e-12
4.69674635e-12
0.0781963275
0.226971985
0.720522552
0.649532453
0.130242472
0.105287153
0.01271654
0.0116498464
0.00153059992
0.00148945165
0.000164249215
0.000164614089
1.67355426e-05
1.66724139e-05
2.08488362e-06
2.08618475e-06
7.95773013e-07
7.95951515e-07
6.9202519e-07
6.92077104e-07
6.8438424e-07
6.84388705e-07
6.83861716e-07
6.83861832e-07
6.83828483e-07
6.83828409e-07
6.83826057e-07
6.83826496e-07
6.8382496e-07
6.83826458e-07
6.83824922e-07
6.8382599e-07
6.83825223e-07
6.8382706e-07
6.83824309e-07
6.8382669e-07
6.83825074e-07
6.83825395e-07
6.83825754e-07
6.83825784e-07
6.83825906e-07
6.83825262e-07
6.83826428e-07
6.83824903e-07
6.83826082e-07
6.83825101e-07
6.83826578e-07
6.8382569e-07
6.83826442e-07
6.83824991e-07
6.83825844e-07
6.83825625e-07
6.83825984e-07
6.8382584e-07
6.83826083e-07
6.83825636e-07
6.83825161e-07
6.83825765e-07
6.83826381e-07
6.83825304e-07
6.83825635e-07
6.83825979e-07
6.83825651e-07
6.83825542e-07
6.8382594e-07
6.83825129e-07
6.83826475e-07
6.83825046e-07
6.83825822e-07
6.83824355e-07
6.83826342e-07
6.83824325e-07
6.83825841e-07
6.8382554e-07
6.83824677e-07
6.83826819e-07
6.83825469e-07
6.83825731e-07
6.83826484e-07
6.83826202e-07
6.83825931e-07
6.83826009e-07
6.83825708e-07
6.83825965e-07
6.83826075e-07
6.83825803e-07
6.8382603e-07
6.83825652e-07
6.8382589e-07
6.83825625e-07
6.83826306e-07
6.83825978e-07
6.83825588e-07
6.83826926e-07
6.83825817e-07
6.83826175e-07
6.83825381e-07
6.83826562e-07
6.83826209e-07
6.83825914e-07
6.83826349e-07
6.83826323e-07
6.83826626e-07
6.83826269e-07
6.83825937e-07
6.83825279e-07
6.83826217e-07
6.83826814e-07
6.83825153e-07
6.83825339e-07
6.83826725e-07
6.8382434e-07
6.83826379e-07
6.83825345e-07
6.83825534e-07
6.83825581e-07
6.83826444e-07
6.83825857e-07
6.83825733e-07
6.83826435e-07
6.838255e-07
6.8382628e-07
6.83825569e-07
6.83826644e-07
6.83826095e-07
6.8382557e-07
6.83825791e-07
6.83825834e-07
6.8382648e-07
6.83826258e-07
6.83825941e-07
6.83825378e-07
6.8382711e-07
6.83827186e-07
6.83826092e-07
6.83826694e-07
6.83826459e-07
6.83825581e-07
6.83826535e-07
6.83825675e-07
6.8382643e-07
6.83825736e-07
6.83826121e-07
6.83825688e-07
6.83826037e-07
6.83826609e-07
6.8382535e-07
6.8382701e-07
6.83825537e-07
6.83827157e-07
6.83825931e-07
6.83826204e-07
6.83826492e-07
6.83826469e-07
6.83826266e-07
6.83827212e-07
6.83826314e-07
6.8382655e-07
6.83825979e-07
6.83826679e-07
6.83826549e-07
6.83825784e-07
6.83826847e-07
6.83825779e-07
6.83827657e-07
6.8382635e-07
6.83826919e-07
6.83826199e-07
6.83826324e-07
6.83826063e-07
6.83826548e-07
6.83825635e-07
6.83826369e-07
6.83826083e-07
6.83826001e-07
6.83826432e-07
6.83827134e-07
6.83826549e-07
6.83826304e-07
6.83827461e-07
6.83827242e-07
6.83827338e-07
6.83826623e-07
6.83827029e-07
6.83826242e-07
6.83827131e-07
6.83826676e-07
6.83826424e-07
6.83826849e-07
6.83826457e-07
6.83826759e-07
6.8382701e-07
6.8382682e-07
6.83827262e-07
6.83827606e-07
6.83825723e-07
6.83827766e-07
6.83826207e-07
6.83827562e-07
6.83826157e-07
6.83827318e-07
6.83826111e-07
6.83826609e-07
6.83826325e-07
6.83826727e-07
6.83826636e-07
6.83826604e-07
6.83827134e-07
6.83827246e-07
6.83826535e-07
6.83827668e-07
6.83825824e-07
6.83827882e-07
6.83826487e-07
6.83826935e-07
6.8382695e-07
6.83826519e-07
6.83827122e-07
6.83826654e-07
6.83827229e-07
6.83826455e-07
6.83827868e-07
6.8382621e-07
6.83826684e-07
6.8382713e-07
6.83826332e-07
6.83827215e-07
6.83826837e-07
6.83827048e-07
6.83826839e-07
6.83827618e-07
6.83826671e-07
6.83827722e-07
6.83827219e-07
6.83827278e-07
6.83826822e-07
6.83827147e-07
6.83827662e-07
6.83826231e-07
6.83828053e-07
6.83826947e-07
6.83827003e-07
6.83827285e-07
6.83826627e-07
6.83827534e-07
6.8382745e-07
6.83826832e-07
6.83826884e-07
6.83826838e-07
6.83826208e-07
6.83827188e-07
6.83827966e-07
6.8382671e-07
6.83827144e-07
6.83826721e-07
6.8382746e-07
6.83827421e-07
6.83827112e-07
6.83827909e-07
6.83826624e-07
6.83828156e-07
6.83827913e-07
6.83828103e-07
6.83826889e-07
6.83828568e-07
6.83826667e-07
6.83827534e-07
6.83826378e-07
6.83827307e-07
6.83826812e-07
6.83827443e-07
6.83827773e-07
6.8382734e-07
6.83828087e-07
6.83826865e-07
6.83828284e-07
6.83827076e-07
6.83827461e-07
6.83827462e-07
6.83827193e-07
6.83828197e-07
6.83826223e-07
6.83828065e-07
6.83827457e-07
6.83828265e-07
6.83826736e-07
6.83827269e-07
6.83826857e-07
6.83827421e-07
6.83827573e-07
6.83827106e-07
6.83827488e-07
6.83827207e-07
6.83827043e-07
6.83827777e-07
6.83826561e-07
6.83827606e-07
6.83828236e-07
6.83828345e-07
6.83827498e-07
6.83827926e-07
6.83827534e-07
6.83827544e-07
6.83828301e-07
6.83827156e-07
6.83828129e-07
6.83828554e-07
6.83826957e-07
6.83828592e-07
6.83828214e-07
6.83827839e-07
6.83828134e-07
6.83827431e-07
6.83828725e-07
6.83827119e-07
6.83828519e-07
6.83828814e-07
6.83826525e-07
6.8382841e-07
6.83827554e-07
6.83828674e-07
6.83828088e-07
6.83828212e-07
6.83827606e-07
6.83827748e-07
6.83828267e-07
6.83828309e-07
6.83827882e-07
6.83827762e-07
6.83828232e-07
6.83828058e-07
6.83828296e-07
6.83827594e-07
6.83827672e-07
6.8382816e-07
6.83827602e-07
6.83828322e-07
6.83827503e-07
6.83828586e-07
6.83827698e-07
6.83828204e-07
6.83828816e-07
6.83827263e-07
6.83829198e-07
6.83827782e-07
6.8382881e-07
6.83828258e-07
6.83828657e-07
6.83828518e-07
6.8382813e-07
6.83828837e-07
6.8382859e-07
6.83827964e-07
6.83827947e-07
6.83829076e-07
6.8382776e-07
6.83829058e-07
6.83828199e-07
6.83828845e-07
6.83828663e-07
6.83828068e-07
6.83828207e-07
6.83829145e-07
6.83828143e-07
6.83828226e-07
6.83829171e-07
6.83828773e-07
6.83829679e-07
6.83828218e-07
6.83829143e-07
6.83829073e-07
6.83829239e-07
6.83828699e-07
6.83829451e-07
6.8382787e-07
6.83829415e-07
6.83828347e-07
6.83828377e-07
6.83829204e-07
6.83828398e-07
6.83829254e-07
6.83828421e-07
6.83829008e-07
6.83828519e-07
6.83828976e-07
6.83827725e-07
6.83829193e-07
6.83828465e-07
6.83828252e-07
6.83828967e-07
6.8382896e-07
6.83828676e-07
6.83828612e-07
6.83828948e-07
6.83828311e-07
6.83829632e-07
6.83828761e-07
6.83829319e-07
6.83828822e-07
6.83828583e-07
6.83828495e-07
6.83829211e-07
6.83828819e-07
6.83829785e-07
6.83828629e-07
6.83829452e-07
6.83827893e-07
6.83829817e-07
6.83828966e-07
6.83829176e-07
6.83829396e-07
6.83829652e-07
6.8382889e-07
6.83828757e-07
6.83829402e-07
6.83828666e-07
6.83829234e-07
6.83828792e-07
6.83828863e-07
6.83829111e-07
6.83829351e-07
6.83828802e-07
6.83828638e-07
6.83829228e-07
6.83829738e-07
6.83829178e-07
6.83828923e-07
6.83829681e-07
6.83828462e-07
6.83830286e-07
6.83829191e-07
6.83829762e-07
6.8382911e-07
6.83829869e-07
6.83829656e-07
6.83829827e-07
6.83829245e-07
6.83830614e-07
6.83829122e-07
6.83829555e-07
6.83829172e-07
6.83829021e-07
6.83829247e-07
6.83828605e-07
6.83830032e-07
6.83829171e-07
6.83829141e-07
6.83829792e-07
6.83829396e-07
6.83830141e-07
6.83828654e-07
6.83829273e-07
6.83829574e-07
6.83828661e-07
6.83829553e-07
6.83829094e-07
6.83829544e-07
6.83828904e-07
6.83829672e-07
6.83829006e-07
6.83828985e-07
6.8382963e-07
6.83829504e-07
6.83829152e-07
6.83828569e-07
6.83829699e-07
6.83830226e-07
6.8382885e-07
6.83829967e-07
6.83829637e-07
6.83829388e-07
6.83829545e-07
6.83829023e-07
6.83830353e-07
6.83828229e-07
6.8383012e-07
6.83829056e-07
6.83829544e-07
6.83828725e-07
6.83829188e-07
6.83828991e-07
6.83829311e-07
6.83828991e-07
6.83829292e-07
6.83829059e-07
6.83828924e-07
6.83830145e-07
6.83828945e-07
6.83829686e-07
6.83829247e-07
6.83829048e-07
6.83830305e-07
6.83828896e-07
6.83829649e-07
6.83830359e-07
6.83828647e-07
6.83830012e-07
6.83828719e-07
6.83830244e-07
6.83828636e-07
6.83830424e-07
6.83828199e-07
6.83829618e-07
6.83829232e-07
6.83829269e-07
6.83829928e-07
6.83829539e-07
6.83829555e-07
6.83829377e-07
6.83829129e-07
6.83829729e-07
6.83829183e-07
6.83829518e-07
6.83829443e-07
6.838297e-07
6.83829595e-07
6.83829312e-07
6.83829428e-07
6.83829414e-07
6.83829337e-07
6.83829437e-07
6.83829477e-07
6.83829483e-07
6.83829412e-07
6.83829407e-07
6.83829365e-07
6.83829429e-07
6.83829432e-07
6.83829425e-07
6.83829462e-07
6.83829412e-07
6.83829449e-07
6.83829454e-07
6.8382943e-07
6.83829468e-07
6.83829455e-07
6.83829416e-07
6.83829426e-07
6.83829447e-07
6.83829452e-07
6.83829448e-07
6.83829445e-07
6.83829449e-07
6.83829445e-07
6.83829446e-07
6.83829443e-07
6.8382945e-07
6.83829425e-07
6.83829454e-07
6.83829434e-07
6.83829438e-07
6.83829442e-07
6.83829443e-07
6.83829441e-07
6.83829452e-07
6.8382944e-07
6.83829445e-07
6.83829431e-07
6.8382943e-07
6.83829451e-07
6.83829443e-07
6.83829445e-07
6.83829444e-07
6.83829428e-07
6.83829445e-07
6.83829444e-07
6.83829443e-07
6.83829447e-07
6.83829437e-07
6.83829456e-07
6.83829438e-07
6.8382945e-07
6.83829442e-07
6.83829438e-07
6.83829452e-07
6.83829434e-07
6.83829434e-07
6.83829449e-07
)
;

boundaryField
{
    closed
    {
        type            calculated;
        value           uniform 0;
    }
    open
    {
        type            calculated;
        value           uniform 0;
    }
    sides
    {
        type            empty;
    }
}


// ************************************************************************* //
