/*--------------------------------*- C++ -*----------------------------------*\
| =========                 |                                                 |
| \\      /  F ield         | OpenFOAM: The Open Source CFD Toolbox           |
|  \\    /   O peration     | Version:  2206                                  |
|   \\  /    A nd           | Website:  www.openfoam.com                      |
|    \\/     M anipulation  |                                                 |
\*---------------------------------------------------------------------------*/
FoamFile
{
    version     2.0;
    format      ascii;
    arch        "LSB;label=32;scalar=64";
    class       volVectorField;
    location    "6.4e-06";
    object      U;
}
// * * * * * * * * * * * * * * * * * * * * * * * * * * * * * * * * * * * * * //

dimensions      [0 1 -1 0 0 0 0];

internalField   nonuniform List<vector> 
3183
(
(1.4726291e-13 0 0)
(-1.08106462e-14 0 0)
(-9.10126762e-14 0 0)
(-6.38472191e-14 0 0)
(-6.71825153e-14 0 0)
(-1.78063897e-18 0 0)
(-1.40642547e-19 0 0)
(-5.74080793e-24 0 0)
(1.94705406e-24 0 0)
(5.71358597e-23 0 0)
(1.02045621e-18 0 0)
(1.29795515e-17 0 0)
(2.55602216e-13 0 0)
(1.42783251e-13 0 0)
(-1.18786582e-13 0 0)
(-1.32341264e-13 0 0)
(1.00542936e-13 0 0)
(-8.55312293e-14 0 0)
(-5.82522415e-13 0 0)
(2.70180123e-14 0 0)
(3.3670691e-13 0 0)
(4.95868659e-17 0 0)
(5.97595705e-18 0 0)
(1.34509898e-17 0 0)
(1.51238069e-13 0 0)
(2.81561431e-13 0 0)
(4.44148159e-13 0 0)
(2.6422674e-13 0 0)
(-2.42214244e-13 0 0)
(-1.50165338e-13 0 0)
(-3.70865572e-13 0 0)
(-2.2445425e-13 0 0)
(-1.48803449e-13 0 0)
(-2.48114498e-13 0 0)
(-7.74579158e-14 0 0)
(9.13723046e-14 0 0)
(-9.6281288e-14 0 0)
(-1.80182676e-13 0 0)
(1.14034292e-14 0 0)
(-8.75854999e-14 0 0)
(-3.5440898e-13 0 0)
(-4.83308626e-13 0 0)
(-6.7475591e-16 0 0)
(-1.6811225e-13 0 0)
(-3.31771364e-16 0 0)
(1.01910653e-13 0 0)
(3.56008377e-13 0 0)
(3.75372845e-14 0 0)
(-1.37667916e-13 0 0)
(-2.07530102e-13 0 0)
(-1.53670485e-13 0 0)
(-1.15061573e-13 0 0)
(-9.58288238e-14 0 0)
(4.46269559e-16 0 0)
(4.53018863e-13 0 0)
(1.15650491e-13 0 0)
(2.95735449e-13 0 0)
(3.12724299e-13 0 0)
(4.26790008e-13 0 0)
(5.87118246e-13 0 0)
(5.84588098e-13 0 0)
(5.36038372e-13 0 0)
(6.44031987e-13 0 0)
(4.69306849e-13 0 0)
(7.5887166e-13 0 0)
(8.4348223e-13 0 0)
(7.42045076e-13 0 0)
(6.26874741e-13 0 0)
(9.1579255e-13 0 0)
(4.22036131e-13 0 0)
(7.8011427e-13 0 0)
(1.2009955e-12 0 0)
(8.25180842e-13 0 0)
(1.24533956e-12 0 0)
(1.19211651e-12 0 0)
(9.57802913e-13 0 0)
(1.17403257e-12 0 0)
(1.86733026e-12 0 0)
(2.29685169e-12 0 0)
(2.18982476e-12 0 0)
(2.32069348e-12 0 0)
(2.95241928e-12 0 0)
(2.70132768e-12 0 0)
(2.36551802e-12 0 0)
(2.95422774e-12 0 0)
(2.81685369e-12 0 0)
(3.42954832e-12 0 0)
(2.42044696e-12 0 0)
(2.94329047e-12 0 0)
(3.22175038e-12 0 0)
(2.64417123e-12 0 0)
(2.47709952e-12 0 0)
(2.91769214e-12 0 0)
(2.23933693e-12 0 0)
(2.48926628e-12 0 0)
(3.24611554e-12 0 0)
(1.15650309e-12 0 0)
(2.42559214e-12 0 0)
(1.91046038e-12 0 0)
(1.95135588e-12 0 0)
(3.1742405e-12 0 0)
(2.40256152e-12 0 0)
(2.86320171e-12 0 0)
(1.07302367e-12 0 0)
(2.18053764e-12 0 0)
(2.17907612e-12 0 0)
(1.97530319e-12 0 0)
(1.77852851e-12 0 0)
(1.32563661e-12 0 0)
(1.74136226e-12 0 0)
(1.54767963e-12 0 0)
(1.09680376e-12 0 0)
(9.61079777e-13 0 0)
(1.13427153e-12 0 0)
(7.57180253e-13 0 0)
(1.42596404e-12 0 0)
(7.26569444e-13 0 0)
(1.0731429e-12 0 0)
(1.23840519e-12 0 0)
(1.24818712e-13 0 0)
(6.24687779e-13 0 0)
(2.19871698e-13 0 0)
(6.63734623e-13 0 0)
(1.23830752e-12 0 0)
(3.35470006e-13 0 0)
(6.70071679e-13 0 0)
(1.60169665e-12 0 0)
(7.633256e-13 0 0)
(6.32621362e-13 0 0)
(4.77993399e-13 0 0)
(7.6772316e-13 0 0)
(1.0350438e-12 0 0)
(1.51877513e-13 0 0)
(2.6969629e-13 0 0)
(5.07394696e-13 0 0)
(3.13990534e-13 0 0)
(6.10061655e-13 0 0)
(-3.81185738e-13 0 0)
(-6.8527234e-13 0 0)
(1.15475517e-13 0 0)
(1.89822133e-13 0 0)
(5.52443534e-13 0 0)
(4.97831664e-13 0 0)
(-3.94557616e-13 0 0)
(5.3343423e-13 0 0)
(-4.83338201e-13 0 0)
(-4.75190082e-13 0 0)
(-1.38454523e-12 0 0)
(3.95061232e-13 0 0)
(-8.19094555e-13 0 0)
(-5.85237769e-13 0 0)
(-7.06306713e-13 0 0)
(7.17069699e-15 0 0)
(-8.03515316e-13 0 0)
(-1.02161935e-12 0 0)
(-9.64392736e-13 0 0)
(-7.03424252e-13 0 0)
(-1.05446441e-12 0 0)
(-6.16914934e-13 0 0)
(-1.51139351e-12 0 0)
(-1.60950523e-12 0 0)
(-6.62919622e-13 0 0)
(-1.41329124e-12 0 0)
(-1.96099638e-12 0 0)
(-1.58615943e-12 0 0)
(-1.7136901e-12 0 0)
(-1.50109889e-12 0 0)
(-1.73865329e-12 0 0)
(-1.56033236e-12 0 0)
(-2.15515878e-12 0 0)
(-2.15106731e-12 0 0)
(-7.16557552e-13 0 0)
(-2.42088699e-12 0 0)
(-1.74692415e-12 0 0)
(-2.23908722e-12 0 0)
(-1.05517694e-12 0 0)
(-2.06574943e-12 0 0)
(-2.28821347e-12 0 0)
(-2.20996511e-12 0 0)
(-2.63089851e-12 0 0)
(-1.55067244e-12 0 0)
(-3.51701241e-12 0 0)
(-1.84629993e-12 0 0)
(-2.35757553e-12 0 0)
(-2.78465319e-12 0 0)
(-2.39709193e-12 0 0)
(-1.99389374e-12 0 0)
(-1.21232616e-12 0 0)
(-2.60675255e-12 0 0)
(-2.47614318e-12 0 0)
(-1.68448602e-12 0 0)
(-2.35027786e-12 0 0)
(-2.68719873e-12 0 0)
(-2.58756929e-12 0 0)
(-3.54871777e-12 0 0)
(-2.42499753e-12 0 0)
(-3.19336482e-12 0 0)
(-3.16617834e-12 0 0)
(-2.97585254e-12 0 0)
(-4.03332245e-12 0 0)
(-3.91135464e-12 0 0)
(-3.61077821e-12 0 0)
(-3.54647238e-12 0 0)
(-3.02829071e-12 0 0)
(-3.85696243e-12 0 0)
(-3.31644848e-12 0 0)
(-4.45650855e-12 0 0)
(-3.32288353e-12 0 0)
(-3.80502876e-12 0 0)
(-2.95711247e-12 0 0)
(-3.93189814e-12 0 0)
(-3.43139816e-12 0 0)
(-3.53720032e-12 0 0)
(-3.57664776e-12 0 0)
(-3.47087962e-12 0 0)
(-3.99154373e-12 0 0)
(-4.04094811e-12 0 0)
(-4.71122661e-12 0 0)
(-3.40183914e-12 0 0)
(-4.21347743e-12 0 0)
(-5.51068359e-12 0 0)
(-5.21948498e-12 0 0)
(-5.66879556e-12 0 0)
(-4.06433348e-12 0 0)
(-5.58918625e-12 0 0)
(-4.58181287e-12 0 0)
(-5.24044624e-12 0 0)
(-5.30590398e-12 0 0)
(-5.57094237e-12 0 0)
(-4.80333535e-12 0 0)
(-5.13969289e-12 0 0)
(-5.71970859e-12 0 0)
(-5.11169015e-12 0 0)
(-5.88987422e-12 0 0)
(-4.70624995e-12 0 0)
(-5.04018094e-12 0 0)
(-5.06695174e-12 0 0)
(-5.17666015e-12 0 0)
(-5.26431126e-12 0 0)
(-5.37644876e-12 0 0)
(-5.97588136e-12 0 0)
(-5.52549513e-12 0 0)
(-5.2994781e-12 0 0)
(-5.31626735e-12 0 0)
(-5.52615932e-12 0 0)
(-6.83030635e-12 0 0)
(-6.36020872e-12 0 0)
(-5.34646806e-12 0 0)
(-6.84413171e-12 0 0)
(-6.68654313e-12 0 0)
(-6.09810629e-12 0 0)
(-6.41551183e-12 0 0)
(-6.45580664e-12 0 0)
(-7.97218173e-12 0 0)
(-7.44343883e-12 0 0)
(-6.60151929e-12 0 0)
(-7.10819385e-12 0 0)
(-6.68755592e-12 0 0)
(-7.1793815e-12 0 0)
(-7.08967544e-12 0 0)
(-6.86350166e-12 0 0)
(-7.96374189e-12 0 0)
(-7.18573598e-12 0 0)
(-6.15273152e-12 0 0)
(-8.3951367e-12 0 0)
(-7.97740815e-12 0 0)
(-8.87576219e-12 0 0)
(-8.08801439e-12 0 0)
(-8.31088338e-12 0 0)
(-8.17867246e-12 0 0)
(-5.75668215e-12 0 0)
(-7.52185595e-12 0 0)
(-7.34178768e-12 0 0)
(-7.52161412e-12 0 0)
(-8.50931391e-12 0 0)
(-6.88040627e-12 0 0)
(-8.65804841e-12 0 0)
(-8.11097644e-12 0 0)
(-7.89556661e-12 0 0)
(-6.50018141e-12 0 0)
(-8.01479944e-12 0 0)
(-8.15560871e-12 0 0)
(-8.37377462e-12 0 0)
(-8.12671605e-12 0 0)
(-7.17241845e-12 0 0)
(-9.73316225e-12 0 0)
(-8.34931349e-12 0 0)
(-9.11192826e-12 0 0)
(-9.06278868e-12 0 0)
(-9.01675509e-12 0 0)
(-8.4787137e-12 0 0)
(-8.91136138e-12 0 0)
(-8.49797264e-12 0 0)
(-8.96439749e-12 0 0)
(-8.5733147e-12 0 0)
(-8.6749028e-12 0 0)
(-9.08642237e-12 0 0)
(-9.35586084e-12 0 0)
(-8.88138954e-12 0 0)
(-9.54668288e-12 0 0)
(-8.81663208e-12 0 0)
(-8.94765059e-12 0 0)
(-8.67228452e-12 0 0)
(-8.94180883e-12 0 0)
(-9.41559898e-12 0 0)
(-9.91174409e-12 0 0)
(-7.52617729e-12 0 0)
(-8.8552563e-12 0 0)
(-8.47932498e-12 0 0)
(-8.05568504e-12 0 0)
(-1.01918215e-11 0 0)
(-9.67000815e-12 0 0)
(-9.13206446e-12 0 0)
(-9.39253533e-12 0 0)
(-9.6571489e-12 0 0)
(-1.03470288e-11 0 0)
(-1.09296752e-11 0 0)
(-9.67073987e-12 0 0)
(-8.94468395e-12 0 0)
(-1.08882465e-11 0 0)
(-9.92130377e-12 0 0)
(-1.04134539e-11 0 0)
(-1.04153488e-11 0 0)
(-8.5704576e-12 0 0)
(-1.04375645e-11 0 0)
(-9.81468978e-12 0 0)
(-1.05346432e-11 0 0)
(-1.00868175e-11 0 0)
(-1.11233677e-11 0 0)
(-9.88941751e-12 0 0)
(-9.58779506e-12 0 0)
(-1.06416681e-11 0 0)
(-1.03496562e-11 0 0)
(-9.20425748e-12 0 0)
(-8.78100466e-12 0 0)
(-1.05662315e-11 0 0)
(-9.10422178e-12 0 0)
(-1.15638439e-11 0 0)
(-1.08783875e-11 0 0)
(-9.64427124e-12 0 0)
(-9.79240255e-12 0 0)
(-1.01709589e-11 0 0)
(-9.73105582e-12 0 0)
(-9.81969652e-12 0 0)
(-8.97615759e-12 0 0)
(-1.00943374e-11 0 0)
(-1.01199867e-11 0 0)
(-9.157714e-12 0 0)
(-9.47914695e-12 0 0)
(-9.943367e-12 0 0)
(-9.38057006e-12 0 0)
(-9.03723542e-12 0 0)
(-1.02147338e-11 0 0)
(-9.23511911e-12 0 0)
(-7.75600932e-12 0 0)
(-8.28277099e-12 0 0)
(-9.21160516e-12 0 0)
(-8.84781427e-12 0 0)
(-8.22179901e-12 0 0)
(-7.61635637e-12 0 0)
(-7.77341365e-12 0 0)
(-8.19120739e-12 0 0)
(-8.32987893e-12 0 0)
(-8.28383416e-12 0 0)
(-8.15545638e-12 0 0)
(-8.39511694e-12 0 0)
(-8.71321078e-12 0 0)
(-9.6124903e-12 0 0)
(-9.00566028e-12 0 0)
(-9.35797113e-12 0 0)
(-8.21945441e-12 0 0)
(-9.36262651e-12 0 0)
(-7.9470645e-12 0 0)
(-8.65494529e-12 0 0)
(-8.22502862e-12 0 0)
(-7.79743564e-12 0 0)
(-8.31249664e-12 0 0)
(-6.85478266e-12 0 0)
(-8.25504598e-12 0 0)
(-7.34723462e-12 0 0)
(-7.92133103e-12 0 0)
(-7.17316229e-12 0 0)
(-7.47206733e-12 0 0)
(-7.95293606e-12 0 0)
(-6.87625899e-12 0 0)
(-7.9768312e-12 0 0)
(-8.54086576e-12 0 0)
(-8.00752089e-12 0 0)
(-7.99404379e-12 0 0)
(-6.58452914e-12 0 0)
(-7.57849145e-12 0 0)
(-8.65925215e-12 0 0)
(-8.22727827e-12 0 0)
(-8.31956895e-12 0 0)
(-7.89835456e-12 0 0)
(-7.14335921e-12 0 0)
(-8.08064931e-12 0 0)
(-7.87925826e-12 0 0)
(-7.82382654e-12 0 0)
(-6.81213342e-12 0 0)
(-6.43857387e-12 0 0)
(-7.65764136e-12 0 0)
(-7.09238213e-12 0 0)
(-6.89093706e-12 0 0)
(-6.56882873e-12 0 0)
(-6.70436175e-12 0 0)
(-6.35659166e-12 0 0)
(-7.45955073e-12 0 0)
(-7.1169696e-12 0 0)
(-6.97456827e-12 0 0)
(-6.88490057e-12 0 0)
(-5.73465288e-12 0 0)
(-5.24568393e-12 0 0)
(-6.57996501e-12 0 0)
(-6.17780062e-12 0 0)
(-5.18485697e-12 0 0)
(-5.05446836e-12 0 0)
(-4.75376531e-12 0 0)
(-4.68312954e-12 0 0)
(-5.02565843e-12 0 0)
(-5.1638104e-12 0 0)
(-3.59383322e-12 0 0)
(-4.75643311e-12 0 0)
(-3.96641751e-12 0 0)
(-5.18699765e-12 0 0)
(-4.21431298e-12 0 0)
(-3.92151775e-12 0 0)
(-4.3484612e-12 0 0)
(-3.65949258e-12 0 0)
(-2.49738369e-12 0 0)
(-3.36566917e-12 0 0)
(-4.60622661e-12 0 0)
(-4.67621725e-12 0 0)
(-4.6249997e-12 0 0)
(-3.7559464e-12 0 0)
(-3.75195433e-12 0 0)
(-3.78092975e-12 0 0)
(-3.24046037e-12 0 0)
(-3.08987364e-12 0 0)
(-4.06121516e-12 0 0)
(-3.12228632e-12 0 0)
(-4.00538202e-12 0 0)
(-3.55685205e-12 0 0)
(-2.54668375e-12 0 0)
(-3.06684272e-12 0 0)
(-2.38781116e-12 0 0)
(-3.01931138e-12 0 0)
(-2.06154274e-12 0 0)
(-3.10514727e-12 0 0)
(-2.2708301e-12 0 0)
(-2.3556168e-12 0 0)
(-1.53618499e-12 0 0)
(-2.42175055e-12 0 0)
(-2.6611518e-12 0 0)
(-2.46878877e-12 0 0)
(-1.5150064e-12 0 0)
(-2.43125034e-12 0 0)
(-2.15718613e-12 0 0)
(-2.43120676e-12 0 0)
(-1.26869979e-12 0 0)
(-2.21564709e-12 0 0)
(-1.9949014e-12 0 0)
(-1.90009222e-12 0 0)
(-1.27777339e-12 0 0)
(-1.75604572e-12 0 0)
(-1.25553476e-12 0 0)
(-1.75912401e-12 0 0)
(-1.15182239e-12 0 0)
(-1.27024285e-12 0 0)
(-1.98734115e-12 0 0)
(-7.87943645e-13 0 0)
(-5.62250659e-13 0 0)
(-1.37748192e-12 0 0)
(-1.88926357e-12 0 0)
(-1.70501979e-12 0 0)
(-1.67109433e-12 0 0)
(-1.20828764e-12 0 0)
(-1.34749545e-12 0 0)
(-2.75113984e-12 0 0)
(-2.14876181e-12 0 0)
(-1.85854607e-12 0 0)
(-1.87048781e-12 0 0)
(-2.47116636e-12 0 0)
(-1.98579185e-12 0 0)
(-1.84947153e-12 0 0)
(-1.89859676e-12 0 0)
(-2.72921658e-12 0 0)
(-2.11858909e-12 0 0)
(-2.14770504e-12 0 0)
(-2.39465577e-12 0 0)
(-2.09914002e-12 0 0)
(-1.54831394e-12 0 0)
(-2.45072337e-12 0 0)
(-1.63429815e-12 0 0)
(-1.71832717e-12 0 0)
(-1.95287976e-12 0 0)
(-1.72803053e-12 0 0)
(-1.64357744e-12 0 0)
(-1.57570459e-12 0 0)
(-2.16232918e-12 0 0)
(-1.04459783e-12 0 0)
(6.59673078e-13 0 0)
(-3.8206039e-13 0 0)
(-1.7801377e-13 0 0)
(-7.42982643e-14 0 0)
(-3.46648216e-13 0 0)
(7.1368274e-13 0 0)
(-1.44192228e-13 0 0)
(-3.2273396e-14 0 0)
(-7.52255844e-14 0 0)
(-1.33303823e-13 0 0)
(1.13955096e-14 0 0)
(-3.4856973e-13 0 0)
(-4.10348992e-13 0 0)
(-7.25178652e-13 0 0)
(-1.53068113e-13 0 0)
(-6.95533384e-13 0 0)
(-1.87748185e-13 0 0)
(3.9004573e-13 0 0)
(7.21547925e-13 0 0)
(5.03377068e-13 0 0)
(1.12927912e-12 0 0)
(4.88488744e-13 0 0)
(4.0783275e-13 0 0)
(9.33631779e-13 0 0)
(9.59760697e-13 0 0)
(9.26012789e-13 0 0)
(9.38896911e-13 0 0)
(9.74851186e-13 0 0)
(1.71898677e-13 0 0)
(1.31237335e-12 0 0)
(8.11674703e-13 0 0)
(1.76873008e-12 0 0)
(1.26536767e-12 0 0)
(4.83340136e-13 0 0)
(9.37504833e-13 0 0)
(1.25963335e-12 0 0)
(1.77898934e-12 0 0)
(7.48604734e-13 0 0)
(1.9517192e-12 0 0)
(1.00601643e-12 0 0)
(1.28076173e-12 0 0)
(1.29730912e-12 0 0)
(1.24853267e-12 0 0)
(1.15702648e-12 0 0)
(1.49456768e-12 0 0)
(1.36659038e-12 0 0)
(1.17929514e-12 0 0)
(1.94559271e-12 0 0)
(1.73321019e-12 0 0)
(1.96690923e-12 0 0)
(2.11091739e-12 0 0)
(1.95287847e-12 0 0)
(3.19498512e-12 0 0)
(2.51682908e-12 0 0)
(2.59930871e-12 0 0)
(3.06545819e-12 0 0)
(2.64493617e-12 0 0)
(2.28214521e-12 0 0)
(2.02149489e-12 0 0)
(2.94520835e-12 0 0)
(1.13094079e-12 0 0)
(2.0128414e-12 0 0)
(1.50710996e-12 0 0)
(2.00964311e-12 0 0)
(1.68797542e-12 0 0)
(1.62286459e-12 0 0)
(2.95528915e-12 0 0)
(2.02972462e-12 0 0)
(2.39881388e-12 0 0)
(1.23762245e-12 0 0)
(1.67487496e-12 0 0)
(1.62183589e-12 0 0)
(2.74058205e-12 0 0)
(2.09187591e-12 0 0)
(1.95414681e-12 0 0)
(1.97389037e-12 0 0)
(1.224357e-12 0 0)
(2.72821797e-12 0 0)
(2.01644604e-12 0 0)
(1.72238571e-12 0 0)
(1.73508953e-12 0 0)
(2.94065126e-12 0 0)
(2.12872394e-12 0 0)
(2.88779326e-12 0 0)
(2.62003502e-12 0 0)
(3.12011304e-12 0 0)
(3.78382249e-12 0 0)
(2.61172768e-12 0 0)
(3.47602102e-12 0 0)
(2.88885504e-12 0 0)
(2.55124349e-12 0 0)
(3.46816463e-12 0 0)
(3.40501802e-12 0 0)
(3.3449865e-12 0 0)
(3.76346419e-12 0 0)
(3.06719894e-12 0 0)
(2.86883147e-12 0 0)
(3.79844547e-12 0 0)
(3.10144997e-12 0 0)
(2.89870273e-12 0 0)
(3.8858754e-12 0 0)
(2.97887885e-12 0 0)
(2.63811216e-12 0 0)
(3.20406526e-12 0 0)
(2.92004941e-12 0 0)
(3.55416259e-12 0 0)
(4.11037786e-12 0 0)
(3.48144239e-12 0 0)
(4.04438723e-12 0 0)
(3.52845471e-12 0 0)
(3.68011362e-12 0 0)
(4.82979415e-12 0 0)
(3.06345384e-12 0 0)
(4.37908942e-12 0 0)
(4.0690754e-12 0 0)
(4.71142836e-12 0 0)
(3.983663e-12 0 0)
(3.78460066e-12 0 0)
(4.52077409e-12 0 0)
(4.96039126e-12 0 0)
(3.84173432e-12 0 0)
(4.08930539e-12 0 0)
(3.65271183e-12 0 0)
(3.81594602e-12 0 0)
(4.49718368e-12 0 0)
(3.74634815e-12 0 0)
(3.41786934e-12 0 0)
(3.24716081e-12 0 0)
(3.55037823e-12 0 0)
(3.06337102e-12 0 0)
(3.08823738e-12 0 0)
(2.87120771e-12 0 0)
(2.41041985e-12 0 0)
(2.69539603e-12 0 0)
(2.82227696e-12 0 0)
(2.1262603e-12 0 0)
(3.33680719e-12 0 0)
(3.2858206e-12 0 0)
(2.42399345e-12 0 0)
(1.07682092e-12 0 0)
(1.81394444e-12 0 0)
(2.60250745e-12 0 0)
(6.74502611e-13 0 0)
(2.1728895e-12 0 0)
(1.71636468e-12 0 0)
(1.67159087e-12 0 0)
(7.62286934e-13 0 0)
(1.62147364e-12 0 0)
(2.17293329e-12 0 0)
(1.9413763e-12 0 0)
(1.40033245e-12 0 0)
(2.18081932e-12 0 0)
(1.91203279e-12 0 0)
(1.66707605e-12 0 0)
(1.88291493e-12 0 0)
(9.8104727e-13 0 0)
(1.27228442e-12 0 0)
(8.93840277e-13 0 0)
(7.63783032e-14 0 0)
(7.11072734e-13 0 0)
(1.01759143e-12 0 0)
(1.63233522e-12 0 0)
(1.51010766e-12 0 0)
(2.86804734e-13 0 0)
(1.41608565e-12 0 0)
(2.09956114e-12 0 0)
(1.30357363e-12 0 0)
(1.27917467e-12 0 0)
(1.31563562e-12 0 0)
(-1.76720687e-14 0 0)
(1.33300702e-12 0 0)
(1.54956195e-12 0 0)
(1.21026382e-12 0 0)
(1.19196416e-12 0 0)
(2.43872972e-13 0 0)
(8.24654407e-13 0 0)
(8.84785599e-13 0 0)
(1.44486345e-12 0 0)
(9.72196517e-13 0 0)
(8.37110556e-13 0 0)
(1.10515717e-12 0 0)
(1.5636424e-13 0 0)
(1.6780204e-12 0 0)
(1.64045463e-12 0 0)
(1.24917552e-12 0 0)
(1.69298334e-12 0 0)
(3.01015954e-13 0 0)
(1.25290478e-12 0 0)
(2.28068383e-12 0 0)
(2.17733841e-12 0 0)
(1.99563556e-12 0 0)
(2.46741842e-12 0 0)
(1.66513632e-12 0 0)
(2.21877277e-12 0 0)
(2.34933754e-12 0 0)
(1.34790627e-12 0 0)
(2.7324074e-12 0 0)
(1.12593176e-12 0 0)
(1.85923848e-12 0 0)
(1.62425169e-12 0 0)
(1.81311375e-12 0 0)
(1.54662572e-12 0 0)
(1.15140196e-12 0 0)
(2.02912931e-12 0 0)
(1.23069176e-12 0 0)
(1.74984391e-12 0 0)
(2.49252762e-12 0 0)
(2.25782237e-12 0 0)
(2.1900028e-12 0 0)
(1.92899557e-12 0 0)
(3.16023782e-12 0 0)
(3.30564163e-12 0 0)
(2.26763798e-12 0 0)
(2.12970909e-12 0 0)
(3.64114517e-12 0 0)
(2.6819419e-12 0 0)
(3.85890867e-12 0 0)
(3.02444611e-12 0 0)
(4.0694399e-12 0 0)
(2.61804736e-12 0 0)
(3.23100523e-12 0 0)
(3.67664845e-12 0 0)
(3.45997357e-12 0 0)
(2.91583389e-12 0 0)
(4.01588498e-12 0 0)
(3.526594e-12 0 0)
(2.63487387e-12 0 0)
(4.90645328e-12 0 0)
(4.17983879e-12 0 0)
(2.85906361e-12 0 0)
(4.15162985e-12 0 0)
(2.840592e-12 0 0)
(3.58284473e-12 0 0)
(3.98959869e-12 0 0)
(3.63031313e-12 0 0)
(4.21176295e-12 0 0)
(4.33759733e-12 0 0)
(3.66393445e-12 0 0)
(3.91243784e-12 0 0)
(3.78181991e-12 0 0)
(2.64556024e-12 0 0)
(3.16195487e-12 0 0)
(3.23198718e-12 0 0)
(3.30012114e-12 0 0)
(2.76488937e-12 0 0)
(2.97373445e-12 0 0)
(2.55407567e-12 0 0)
(2.62581994e-12 0 0)
(3.74154742e-12 0 0)
(3.09454827e-12 0 0)
(4.54131503e-12 0 0)
(3.46386883e-12 0 0)
(2.94561902e-12 0 0)
(3.07277396e-12 0 0)
(2.23781912e-12 0 0)
(3.31000992e-12 0 0)
(3.14011129e-12 0 0)
(2.16279916e-12 0 0)
(1.76628224e-12 0 0)
(2.94129834e-12 0 0)
(3.66491603e-12 0 0)
(2.46439308e-12 0 0)
(3.01147822e-12 0 0)
(2.3369359e-12 0 0)
(2.56711735e-12 0 0)
(3.51388103e-12 0 0)
(3.01306081e-12 0 0)
(3.12670895e-12 0 0)
(2.66741693e-12 0 0)
(3.86619167e-12 0 0)
(3.21099334e-12 0 0)
(4.0446082e-12 0 0)
(3.68832995e-12 0 0)
(3.25277828e-12 0 0)
(2.63364582e-12 0 0)
(2.64096149e-12 0 0)
(2.74033679e-12 0 0)
(2.09069997e-12 0 0)
(2.32575293e-12 0 0)
(1.65800363e-12 0 0)
(1.94690845e-12 0 0)
(2.77273558e-12 0 0)
(2.88240944e-12 0 0)
(3.68842582e-12 0 0)
(2.79890994e-12 0 0)
(2.51854343e-12 0 0)
(3.71048008e-12 0 0)
(4.02250102e-12 0 0)
(3.67100365e-12 0 0)
(3.29630401e-12 0 0)
(3.02213165e-12 0 0)
(4.37485215e-12 0 0)
(2.75923438e-12 0 0)
(2.41394777e-12 0 0)
(1.9621912e-12 0 0)
(3.01959882e-12 0 0)
(2.98036057e-12 0 0)
(2.93448052e-12 0 0)
(3.11882166e-12 0 0)
(2.20419423e-12 0 0)
(3.55140669e-12 0 0)
(2.21261847e-12 0 0)
(1.81651835e-12 0 0)
(2.38564088e-12 0 0)
(1.36055743e-12 0 0)
(2.04068308e-12 0 0)
(1.23711624e-12 0 0)
(1.69250479e-12 0 0)
(1.95526325e-12 0 0)
(1.60454278e-12 0 0)
(1.62422942e-12 0 0)
(1.27545028e-12 0 0)
(1.63212748e-12 0 0)
(1.66232444e-12 0 0)
(1.96887102e-12 0 0)
(1.01721698e-12 0 0)
(1.22513211e-12 0 0)
(1.05754102e-12 0 0)
(1.13534842e-12 0 0)
(1.56787811e-12 0 0)
(2.11978816e-12 0 0)
(2.30283141e-12 0 0)
(1.95639073e-12 0 0)
(1.28988669e-12 0 0)
(2.03288831e-12 0 0)
(1.15232503e-12 0 0)
(1.63813172e-12 0 0)
(1.8522127e-12 0 0)
(1.22509879e-12 0 0)
(2.39945158e-12 0 0)
(1.43673437e-12 0 0)
(1.10064627e-12 0 0)
(2.1839419e-12 0 0)
(2.10460333e-12 0 0)
(1.34630055e-12 0 0)
(1.63936481e-12 0 0)
(3.98063001e-12 0 0)
(1.9735878e-12 0 0)
(3.44164361e-12 0 0)
(1.98435381e-12 0 0)
(2.28835168e-12 0 0)
(2.93032084e-12 0 0)
(2.16973549e-12 0 0)
(2.55699327e-12 0 0)
(3.49834594e-12 0 0)
(3.19086355e-12 0 0)
(2.84437084e-12 0 0)
(1.881074e-12 0 0)
(2.65160862e-12 0 0)
(3.61284108e-12 0 0)
(2.46262644e-12 0 0)
(2.13130433e-12 0 0)
(3.41226339e-12 0 0)
(2.64028376e-12 0 0)
(2.35609265e-12 0 0)
(1.81364937e-12 0 0)
(2.59302422e-12 0 0)
(2.01206197e-12 0 0)
(1.66514885e-12 0 0)
(2.41476354e-12 0 0)
(2.21604057e-12 0 0)
(2.50672575e-12 0 0)
(1.58777621e-12 0 0)
(3.01012333e-12 0 0)
(1.77057601e-12 0 0)
(2.68715605e-12 0 0)
(1.65172882e-12 0 0)
(2.68057212e-12 0 0)
(2.1485828e-12 0 0)
(3.05874642e-12 0 0)
(3.57139508e-12 0 0)
(3.07505846e-12 0 0)
(3.39993813e-12 0 0)
(2.9329116e-12 0 0)
(4.28532354e-12 0 0)
(3.51415528e-12 0 0)
(2.69262652e-12 0 0)
(2.63302216e-12 0 0)
(4.19750747e-12 0 0)
(2.20555772e-12 0 0)
(2.72185866e-12 0 0)
(2.27353397e-12 0 0)
(2.81050987e-12 0 0)
(3.18895571e-12 0 0)
(3.14827566e-12 0 0)
(2.87042795e-12 0 0)
(2.7926957e-12 0 0)
(3.48670069e-12 0 0)
(2.86515937e-12 0 0)
(2.66596363e-12 0 0)
(2.55775004e-12 0 0)
(2.07578135e-12 0 0)
(3.6622209e-12 0 0)
(3.03694766e-12 0 0)
(3.75012157e-12 0 0)
(3.54889796e-12 0 0)
(3.90628063e-12 0 0)
(3.71043032e-12 0 0)
(3.80120365e-12 0 0)
(4.28943728e-12 0 0)
(4.21775072e-12 0 0)
(4.26683995e-12 0 0)
(3.16074369e-12 0 0)
(3.43439018e-12 0 0)
(2.87866914e-12 0 0)
(3.63786794e-12 0 0)
(2.99022922e-12 0 0)
(4.34786472e-12 0 0)
(3.32574442e-12 0 0)
(2.8494068e-12 0 0)
(3.53020643e-12 0 0)
(3.99908145e-12 0 0)
(4.12824266e-12 0 0)
(3.5806481e-12 0 0)
(4.71085491e-12 0 0)
(3.97286595e-12 0 0)
(3.25898827e-12 0 0)
(4.03787098e-12 0 0)
(4.00956413e-12 0 0)
(4.47249337e-12 0 0)
(4.45918721e-12 0 0)
(5.52167409e-12 0 0)
(4.4268221e-12 0 0)
(4.53094187e-12 0 0)
(5.42441765e-12 0 0)
(5.7651499e-12 0 0)
(4.61448435e-12 0 0)
(5.22177443e-12 0 0)
(4.49972376e-12 0 0)
(4.22951397e-12 0 0)
(4.64598708e-12 0 0)
(4.45969637e-12 0 0)
(4.25277645e-12 0 0)
(4.64153445e-12 0 0)
(4.94377123e-12 0 0)
(4.56945491e-12 0 0)
(3.99382441e-12 0 0)
(4.470758e-12 0 0)
(4.4923818e-12 0 0)
(4.7887983e-12 0 0)
(4.70156852e-12 0 0)
(4.90468892e-12 0 0)
(3.94711249e-12 0 0)
(4.47777845e-12 0 0)
(3.46523311e-12 0 0)
(4.32295507e-12 0 0)
(4.68327506e-12 0 0)
(4.71946565e-12 0 0)
(4.70795089e-12 0 0)
(4.33652166e-12 0 0)
(4.86632223e-12 0 0)
(4.89443833e-12 0 0)
(4.68335133e-12 0 0)
(5.54210378e-12 0 0)
(4.19415464e-12 0 0)
(5.56435508e-12 0 0)
(5.33600776e-12 0 0)
(4.82451808e-12 0 0)
(4.34326975e-12 0 0)
(4.80815752e-12 0 0)
(5.88453761e-12 0 0)
(6.15047326e-12 0 0)
(4.9741194e-12 0 0)
(4.68156712e-12 0 0)
(4.91095235e-12 0 0)
(5.52637669e-12 0 0)
(4.36656407e-12 0 0)
(4.8898902e-12 0 0)
(5.32688608e-12 0 0)
(4.86674695e-12 0 0)
(5.50761637e-12 0 0)
(5.00547918e-12 0 0)
(4.24018303e-12 0 0)
(4.58290182e-12 0 0)
(4.52400846e-12 0 0)
(4.42182818e-12 0 0)
(5.03310263e-12 0 0)
(4.85287442e-12 0 0)
(4.87653894e-12 0 0)
(4.80402835e-12 0 0)
(5.28936723e-12 0 0)
(5.22781345e-12 0 0)
(5.73654791e-12 0 0)
(4.33491827e-12 0 0)
(3.74957128e-12 0 0)
(4.58071046e-12 0 0)
(4.71468062e-12 0 0)
(4.62287585e-12 0 0)
(3.7786287e-12 0 0)
(4.42952743e-12 0 0)
(4.46762515e-12 0 0)
(5.3529544e-12 0 0)
(4.62129923e-12 0 0)
(4.88510378e-12 0 0)
(5.86089311e-12 0 0)
(5.47344724e-12 0 0)
(5.19192707e-12 0 0)
(5.08960532e-12 0 0)
(6.08345898e-12 0 0)
(5.86902886e-12 0 0)
(4.79548515e-12 0 0)
(4.97820862e-12 0 0)
(5.2167913e-12 0 0)
(4.77118074e-12 0 0)
(5.29729789e-12 0 0)
(4.91268926e-12 0 0)
(4.74429599e-12 0 0)
(4.78080623e-12 0 0)
(4.47346136e-12 0 0)
(4.4586038e-12 0 0)
(3.38369029e-12 0 0)
(3.63247804e-12 0 0)
(3.6961363e-12 0 0)
(3.57842877e-12 0 0)
(3.42697085e-12 0 0)
(3.93123144e-12 0 0)
(3.32301142e-12 0 0)
(4.08847855e-12 0 0)
(4.18646128e-12 0 0)
(3.66138238e-12 0 0)
(3.44059699e-12 0 0)
(4.61223793e-12 0 0)
(3.84038854e-12 0 0)
(3.69380541e-12 0 0)
(2.39721978e-12 0 0)
(3.52579726e-12 0 0)
(2.88881765e-12 0 0)
(2.46571683e-12 0 0)
(3.13132717e-12 0 0)
(4.10100902e-12 0 0)
(3.42933441e-12 0 0)
(3.31779168e-12 0 0)
(2.9001328e-12 0 0)
(3.63889746e-12 0 0)
(3.67507441e-12 0 0)
(3.59507114e-12 0 0)
(3.61100503e-12 0 0)
(3.38801177e-12 0 0)
(3.23305627e-12 0 0)
(3.61982013e-12 0 0)
(3.99355848e-12 0 0)
(3.5025039e-12 0 0)
(4.11142425e-12 0 0)
(3.77137707e-12 0 0)
(4.41242886e-12 0 0)
(3.80781747e-12 0 0)
(4.37787635e-12 0 0)
(4.67908473e-12 0 0)
(3.76892093e-12 0 0)
(4.21184342e-12 0 0)
(5.13067401e-12 0 0)
(4.25496363e-12 0 0)
(5.27178504e-12 0 0)
(4.43170985e-12 0 0)
(4.91547734e-12 0 0)
(4.68319428e-12 0 0)
(5.59356363e-12 0 0)
(4.16773994e-12 0 0)
(4.7596975e-12 0 0)
(4.14517429e-12 0 0)
(4.13820326e-12 0 0)
(3.93806887e-12 0 0)
(5.15530765e-12 0 0)
(3.86729709e-12 0 0)
(4.08912316e-12 0 0)
(4.71423803e-12 0 0)
(4.31043435e-12 0 0)
(4.32054916e-12 0 0)
(3.61640688e-12 0 0)
(4.7173651e-12 0 0)
(4.13573467e-12 0 0)
(3.50106696e-12 0 0)
(4.10192705e-12 0 0)
(3.49153281e-12 0 0)
(3.44381864e-12 0 0)
(3.00512104e-12 0 0)
(2.69549993e-12 0 0)
(2.14388421e-12 0 0)
(2.65568295e-12 0 0)
(2.38898299e-12 0 0)
(1.56454711e-12 0 0)
(2.0313405e-12 0 0)
(1.74019391e-12 0 0)
(8.89775337e-13 0 0)
(1.83844565e-12 0 0)
(9.20548788e-13 0 0)
(1.16925899e-12 0 0)
(1.14175246e-12 0 0)
(6.26797699e-13 0 0)
(9.58459321e-13 0 0)
(1.96020973e-12 0 0)
(4.1088914e-13 0 0)
(7.70664961e-13 0 0)
(1.38931458e-12 0 0)
(4.61319859e-13 0 0)
(1.25864906e-12 0 0)
(8.81460304e-13 0 0)
(9.38838957e-13 0 0)
(8.17385732e-16 0 0)
(2.32235971e-13 0 0)
(-3.20128448e-13 0 0)
(2.79296993e-13 0 0)
(-2.54582512e-13 0 0)
(3.64324338e-14 0 0)
(5.78295161e-13 0 0)
(1.57556515e-13 0 0)
(9.68415222e-14 0 0)
(-3.78022329e-14 0 0)
(-8.17344727e-13 0 0)
(-9.7707732e-13 0 0)
(-8.54297176e-13 0 0)
(-8.22849344e-13 0 0)
(-1.54918043e-12 0 0)
(-1.70941765e-12 0 0)
(-1.95611066e-12 0 0)
(-2.06091539e-12 0 0)
(-1.11401846e-12 0 0)
(-1.52177756e-12 0 0)
(-1.73326345e-12 0 0)
(-1.44049182e-12 0 0)
(-1.85270711e-12 0 0)
(-1.61158743e-12 0 0)
(-1.51787016e-12 0 0)
(-2.25681764e-12 0 0)
(-2.30039146e-12 0 0)
(-1.97741053e-12 0 0)
(-1.74977347e-12 0 0)
(-2.57620026e-12 0 0)
(-3.88458297e-12 0 0)
(-2.71347082e-12 0 0)
(-3.61795663e-12 0 0)
(-3.13876071e-12 0 0)
(-3.86878414e-12 0 0)
(-4.00458995e-12 0 0)
(-4.06292085e-12 0 0)
(-3.32873664e-12 0 0)
(-3.13249748e-12 0 0)
(-4.01267778e-12 0 0)
(-3.49875844e-12 0 0)
(-4.05374297e-12 0 0)
(-3.17900338e-12 0 0)
(-3.14195238e-12 0 0)
(-2.7378343e-12 0 0)
(-2.94641871e-12 0 0)
(-2.62247664e-12 0 0)
(-3.15903114e-12 0 0)
(-3.45658051e-12 0 0)
(-2.41865169e-12 0 0)
(-1.9226158e-12 0 0)
(-2.97354809e-12 0 0)
(-4.04935242e-12 0 0)
(-3.16437357e-12 0 0)
(-3.69398347e-12 0 0)
(-3.98807694e-12 0 0)
(-3.01543588e-12 0 0)
(-3.39799194e-12 0 0)
(-3.57624917e-12 0 0)
(-3.01769353e-12 0 0)
(-3.92108921e-12 0 0)
(-3.98608438e-12 0 0)
(-3.32041183e-12 0 0)
(-3.31582979e-12 0 0)
(-4.71937357e-12 0 0)
(-3.48346583e-12 0 0)
(-3.13457923e-12 0 0)
(-3.65635416e-12 0 0)
(-3.15853702e-12 0 0)
(-4.47061834e-12 0 0)
(-2.96730754e-12 0 0)
(-3.35061895e-12 0 0)
(-3.90440327e-12 0 0)
(-4.18990137e-12 0 0)
(-5.26931455e-12 0 0)
(-4.95403537e-12 0 0)
(-5.52432542e-12 0 0)
(-7.62969495e-12 0 0)
(-6.42549281e-12 0 0)
(-4.91954898e-12 0 0)
(-5.76586528e-12 0 0)
(-6.58196929e-12 0 0)
(-5.52995249e-12 0 0)
(-6.00929742e-12 0 0)
(-5.18945184e-12 0 0)
(-6.15614928e-12 0 0)
(-7.23741628e-12 0 0)
(-5.21389343e-12 0 0)
(-5.05177821e-12 0 0)
(-6.53088426e-12 0 0)
(-5.92806933e-12 0 0)
(-4.84897983e-12 0 0)
(-6.16141181e-12 0 0)
(-5.94789552e-12 0 0)
(-5.32852336e-12 0 0)
(-4.56335033e-12 0 0)
(-5.87704897e-12 0 0)
(-6.21265566e-12 0 0)
(-6.11509111e-12 0 0)
(-6.360464e-12 0 0)
(-7.23480728e-12 0 0)
(-6.1382461e-12 0 0)
(-6.58068532e-12 0 0)
(-7.02307806e-12 0 0)
(-6.73289503e-12 0 0)
(-7.06833942e-12 0 0)
(-7.33122097e-12 0 0)
(-6.08605756e-12 0 0)
(-7.82896334e-12 0 0)
(-7.0046796e-12 0 0)
(-5.47539261e-12 0 0)
(-6.67279826e-12 0 0)
(-7.60635695e-12 0 0)
(-5.95482412e-12 0 0)
(-6.03512329e-12 0 0)
(-5.92104296e-12 0 0)
(-6.04341208e-12 0 0)
(-5.65103724e-12 0 0)
(-6.6416052e-12 0 0)
(-6.95953044e-12 0 0)
(-5.56842129e-12 0 0)
(-6.04611191e-12 0 0)
(-4.81620071e-12 0 0)
(-6.67797102e-12 0 0)
(-5.75897919e-12 0 0)
(-4.73264397e-12 0 0)
(-5.7005551e-12 0 0)
(-5.41781102e-12 0 0)
(-4.93629626e-12 0 0)
(-5.63783246e-12 0 0)
(-4.79489182e-12 0 0)
(-5.79557694e-12 0 0)
(-4.85455429e-12 0 0)
(-4.86147854e-12 0 0)
(-4.48282246e-12 0 0)
(-6.04157301e-12 0 0)
(-5.13816599e-12 0 0)
(-5.49150274e-12 0 0)
(-5.04673113e-12 0 0)
(-4.96989874e-12 0 0)
(-5.39708398e-12 0 0)
(-5.4141021e-12 0 0)
(-6.01689733e-12 0 0)
(-4.4476198e-12 0 0)
(-5.27961635e-12 0 0)
(-4.334159e-12 0 0)
(-4.83596357e-12 0 0)
(-4.28159923e-12 0 0)
(-5.00333824e-12 0 0)
(-4.6658518e-12 0 0)
(-5.18415361e-12 0 0)
(-3.46158728e-12 0 0)
(-4.31974023e-12 0 0)
(-4.19655743e-12 0 0)
(-4.25931481e-12 0 0)
(-4.81779511e-12 0 0)
(-3.30077212e-12 0 0)
(-3.77930961e-12 0 0)
(-4.65615305e-12 0 0)
(-3.77453055e-12 0 0)
(-4.00677091e-12 0 0)
(-4.29651405e-12 0 0)
(-3.74564996e-12 0 0)
(-3.95161991e-12 0 0)
(-3.67039261e-12 0 0)
(-3.95694678e-12 0 0)
(-4.27268907e-12 0 0)
(-3.67808227e-12 0 0)
(-4.73773917e-12 0 0)
(-2.55456022e-12 0 0)
(-2.80275829e-12 0 0)
(-3.80879326e-12 0 0)
(-3.50708506e-12 0 0)
(-2.51669311e-12 0 0)
(-3.03762718e-12 0 0)
(-2.5730289e-12 0 0)
(-3.17651925e-12 0 0)
(-3.32995322e-12 0 0)
(-3.59010285e-12 0 0)
(-2.63063002e-12 0 0)
(-2.74057391e-12 0 0)
(-4.49065118e-12 0 0)
(-3.60661503e-12 0 0)
(-2.83631595e-12 0 0)
(-3.22567484e-12 0 0)
(-3.15516761e-12 0 0)
(-3.19452056e-12 0 0)
(-2.91203416e-12 0 0)
(-2.86234247e-12 0 0)
(-2.65000691e-12 0 0)
(-3.18502224e-12 0 0)
(-2.71781782e-12 0 0)
(-2.34203664e-12 0 0)
(-2.15198142e-12 0 0)
(-2.55936965e-12 0 0)
(-3.24657095e-12 0 0)
(-3.36052078e-12 0 0)
(-3.01146159e-12 0 0)
(-2.4858761e-12 0 0)
(-3.86939495e-12 0 0)
(-3.02721242e-12 0 0)
(-3.03159413e-12 0 0)
(-2.3510245e-12 0 0)
(-3.45964853e-12 0 0)
(-2.7994441e-12 0 0)
(-2.80272679e-12 0 0)
(-1.35720303e-12 0 0)
(-1.74812343e-12 0 0)
(-2.69006016e-12 0 0)
(-1.83488367e-12 0 0)
(-2.10681432e-12 0 0)
(-1.91251637e-12 0 0)
(-2.95095894e-12 0 0)
(-1.82751738e-12 0 0)
(-2.78642471e-12 0 0)
(-1.6178405e-12 0 0)
(-2.16702619e-12 0 0)
(-2.3557901e-12 0 0)
(-2.87445429e-12 0 0)
(-1.52206894e-12 0 0)
(-1.9692655e-12 0 0)
(-2.22011052e-12 0 0)
(-2.0762009e-12 0 0)
(-2.49490484e-12 0 0)
(-2.05119544e-12 0 0)
(-2.95368805e-12 0 0)
(-2.76340115e-12 0 0)
(-2.12129878e-12 0 0)
(-2.52522208e-12 0 0)
(-1.91738216e-12 0 0)
(-1.71944655e-12 0 0)
(-2.14812312e-12 0 0)
(-2.76087188e-12 0 0)
(-2.32618377e-12 0 0)
(-1.89840423e-12 0 0)
(-2.47017554e-12 0 0)
(-2.04374241e-12 0 0)
(-2.25651986e-12 0 0)
(-1.77898374e-12 0 0)
(-2.72999083e-12 0 0)
(-2.03989958e-12 0 0)
(-2.3545799e-12 0 0)
(-1.94011771e-12 0 0)
(-2.67920456e-12 0 0)
(-3.18427512e-12 0 0)
(-2.73374605e-12 0 0)
(-1.87431218e-12 0 0)
(-2.13565321e-12 0 0)
(-2.36084788e-12 0 0)
(-2.17488677e-12 0 0)
(-2.51701643e-12 0 0)
(-1.307319e-12 0 0)
(-2.34228034e-12 0 0)
(-1.4788506e-12 0 0)
(-2.30106995e-12 0 0)
(-1.34937107e-12 0 0)
(-2.28451528e-12 0 0)
(-1.96050186e-12 0 0)
(-2.34918068e-12 0 0)
(-2.21361607e-12 0 0)
(-1.90577051e-12 0 0)