/*--------------------------------*- C++ -*----------------------------------*\
| =========                 |                                                 |
| \\      /  F ield         | OpenFOAM: The Open Source CFD Toolbox           |
|  \\    /   O peration     | Version:  2206                                  |
|   \\  /    A nd           | Website:  www.openfoam.com                      |
|    \\/     M anipulation  |                                                 |
\*---------------------------------------------------------------------------*/
FoamFile
{
    version     2.0;
    format      ascii;
    arch        "LSB;label=32;scalar=64";
    class       volScalarField;
    location    "1.82e-05";
    object      p;
}
// * * * * * * * * * * * * * * * * * * * * * * * * * * * * * * * * * * * * * //

dimensions      [1 -1 -2 0 0 0 0];

internalField   nonuniform List<scalar> 
3183
(
101325
101325
101325
101325
101325
101325
101325
101325
101325
101325
101325
101325
101325
101325
101325
101325
101325
101325
101325
101325
101325
101325
101325
101325
101325
101325
101325
101325
101325
101325
101325
101325
101325
101325
101325
101325
101325
101325
101325
101325
101325
101325
101325
101325
101325
101325
101325
101325
101325
101325
101325
101325
101325
101325
101325
101325
101325
101325
101325
101325
101325
101325
101325
101325
101325
101325
101325
101325
101325
101325
101325
101325
101325
101325
101325
101325
101325
101325
101325
101325
101325
101325
101325
101325
101325
101325
101325
101325
101325
101325
101325
101325
101325
101325
101325
101325
101325
101325
101325
101325
101325
101325
101325
101325
101325
101325
101325
101325
101325
101325
101325
101325
101325
101325
101325
101325
101325
101325
101325
101325
101325
101325
101325
101325
101325
101325
101325
101325
101325
101325
101325
101325
101325
101325
101325
101325
101325
101325
101325
101325
101325
101325
101325
101325
101325
101325
101325
101325
101325
101325
101325
101325
101325
101325
101325
101325
101325
101325
101325
101325
101325
101325
101325
101325
101325
101325
101325
101325
101325
101325
101325
101325
101325
101325
101325
101325
101325
101325
101325
101325
101325
101325
101325
101325
101325
101325
101325
101325
101325
101325
101325
101325
101325
101325
101325
101325
101325
101325
101325
101325
101325
101325
101325
101325
101325
101325
101325
101325
101325
101325
101325
101325
101325
101325
101325
101325
101325
101325
101325
101325
101325
101325
101325
101325
101325
101325
101325
101325
101325
101325
101325
101325
101325
101325
101325
101325
101325
101325
101325
101325
101325
101325
101325
101325
101325
101325
101325
101325
101325
101325
101325
101325
101325
101325
101325
101325
101325
101325
101325
101325
101325
101325
101325
101325
101325
101325
101325
101325
101325
101325
101325
101325
101325
101325
101325
101325
101325
101325
101325
101325
101325
101325
101325
101325
101325
101325
101325
101325
101325
101325
101325
101325
101325
101325
101325
101325
101325
101325
101325
101325
101325
101325
101325
101325
101325
101325
101325
101325
101325
101325
101325
101325
101325
101325
101325
101325
101325
101325
101325
101325
101325
101325
101325
101325
101325
101325
101325
101325
101325
101325
101325
101325
101325
101325
101325
101325
101325
101325
101325
101325
101325
101325
101325
101325
101325
101325
101325
101325
101325
101325
101325
101325
101325
101325
101325
101325
101325
101325
101325
101325
101325
101325
101325
101325
101325
101325
101325
101325
101325
101325
101325
101325
101325
101325
101325
101325
101325
101325
101325
101325
101325
101325
101325
101325
101325
101325
101325
101325
101325
101325
101325
101325
101325
101325
101325
101325
101325
101325
101325
101325
101325
101325
101325
101325
101325
101325
101325
101325
101325
101325
101325
101325
101325
101325
101325
101325
101325
101325
101325
101325
101325
101325
101325
101325
101325
101325
101325
101325
101325
101325
101325
101325
101325
101325
101325
101325
101325
101325
101325
101325
101325
101325
101325
101325
101325
101325
101325
101325
101325
101325
101325
101325
101325
101325
101325
101325
101325
101325
101325
101325
101325
101325
101325
101325
101325
101325
101325
101325
101325
101325
101325
101325
101325
101325
101325
101325
101325
101325
101325
101325
101325
101325
101325
101325
101325
101325
101325
101325
101325
101325
101325
101325
101325
101325
101325
101325
101325
101325
101325
101325
101325
101325
101325
101325
101325
101325
101325
101325
101325
101325
101325
101325
101325
101325
101325
101325
101325
101325
101325
101325
101325
101325
101325
101325
101325
101325
101325
101325
101325
101325
101325
101325
101325
101325
101325
101325
101325
101325
101325
101325
101325
101325
101325
101325
101325
101325
101325
101325
101325
101325
101325
101325
101325
101325
101325
101325
101325
101325
101325
101325
101325
101325
101325
101325
101325
101325
101325
101325
101325
101325
101325
101325
101325
101325
101325
101325
101325
101325
101325
101325
101325
101325
101325
101325
101325
101325
101325
101325
101325
101325
101325
101325
101325
101325
101325
101325
101325
101325
101325
101325
101325
101325
101325
101325
101325
101325
101325
101325
101325
101325
101325
101325
101325
101325
101325
101325
101325
101325
101325
101325
101325
101325
101325
101325
101325
101325
101325
101325
101325
101325
101325
101325
101325
101325
101325
101325
101325
101325
101325
101325
101325
101325
101325
101325
101325
101325
101325
101325
101325
101325
101325
101325
101325
101325
101325
101325
101325
101325
101325
101325
101325
101325
101325
101325
101325
101325
101325
101325
101325
101325
101325
101325
101325
101325
101325
101325
101325
101325
101325
101325
101325
101325
101325
101325
101325
101325
101325
101325
101325
101325
101325
101325
101325
101325
101325
101325
101325
101325
101325
101325
101325
101325
101325
101325
101325
101325
101325
101325
101325
101325
101325
101325
101325
101325
101325
101325
101325
101325
101325
101325
101325
101325
101325
101325
101325
101325
101325
101325
101325
101325
101325
101325
101325
101325
101325
101325
101325
101325
101325
101325
101325
101325
101325
101325
101325
101325
101325
101325
101325
101325
101325
101325
101325
101325
101325
101325
101325
101325
101325
101325
101325
101325
101325
101325
101325
101325
101325
101325
101325
101325
101325
101325
101325
101325
101325
101325
101325
101325
101325
101325
101325
101325
101325
101325
101325
101325
101325
101325
101325
101325
101325
101325
101325
101325
101325
101325
101325
101325
101325
101325
101325
101325
101325
101325
101325
101325
101325
101325
101325
101325
101325
101325
101325
101325
101325
101325
101325
101325
101325
101325
101325
101325
101325
101325
101325
101325
101325
101325
101325
101325
101325
101325
101325
101325
101325
101325
101325
101325
101325
101325
101325
101325
101325
101325
101325
101325
101325
101325
101325
101325
101325
101325
101325
101325
101325
101325
101325
101325
101325
101325
101325
101325
101325
101325
101325
101325
101325
101325
101325
101325
101325
101325
101325
101325
101325
101325
101325
101325
101325
101325
101325
101325
101325
101325
101325
101325
101325
101325
101325
101325
101325
101325
101325
101325
101325
101325
101325
101325
101325
101325
101325
101325
101325
101325
101325
101325
101325
101325
101325
101325
101325
101325
101325
101325
101325
101325
101325
101325
101325
101325
101325
101325
101325
101325
101325
101325
101325
101325
101325
101325
101325
101325
101325
101325
101325
101325
101325
101325
101325
101325
101325
101325
101325
101325
101325
101325
101325
101325
101325
101325
101325
101325
101325
101325
101325
101325
101325
101325
101325
101325
101325
101325
101325
101325
101325
101325
101325
101325
101325
101325
101325
101325
101325
101325
101325
101325
101325
101325
101325
101325
101325
101325
101325
101325
101325
101325
101325
101325
101325
101325
101325
101325
101325
101325
101325
101325
101325
101325
101325
101325
101325
101325
101325
101325
101325
101325
101325
101325
101325
101325
101325
101325
101325
101325
101325
101325
101325
101325
101325
101325
101325
101325
101325
101325
101325
101325
101325
101325
101325
101325
101325
101325
101325
101325
101325
101325
101325
101325
101325
101325
101325
101325
101325
101325
101325
101325
101325
101325
101325
101325
101325
101325
101325
101325
101325
101325
101325
101325
101325
101325
101325
101325
101325
101325
101325
101325
101325
101325
101325
101325
101325
101325
101325
101325
101325
101325
101325
101325
101325
101325
101325
101325
101325
101325
101325
101325
101325
101325
101325
101325
101325
101325
101325
101325
101325
101325
101325
101325
101325
101325
101325
101325
101325
101325
101325
101325
101325
101325
101325
101325
101325
101325
101325
101325
101325
101325
101325
101325
101325
101325
101325
101325
101325
101325
101325
101325
101325
101325
101325
101325
101325
101325
101325
101325
101325
101325
101325
101325
101325
101325
101325
101325
101325
101325
101325
101325
101325
101325
101325
101325
101325
101325
101325
101325
101325
101325
101325
101325
101325
101325
101325
101325
101325
101325
101325
101325
101325
101325
101325
101325
101325
101325
101325
101325
101325
101325
101325
101325
101325
101325
101325
101325
101325
101325
101325
101325
101325
101325
101325
101325
101325
101325
101325
101325
101325
101325
101325
101325
101325
101325
101325
101325
101325
101325
101325
101325
101325
101325
101325
101325
101325
101325
101325
101325
101325
101325
101325
101325
101325
101325
101325
101325
101325
101325
101325
101325
101325
101325
101325
101325
101325
101325
101325
101325
101325
101325
101325
101325
101325
101325
101325
101325
101325
101325
101325
101325
101325
101325
101325
101325
101325
101325
101325
101325
101325
101325
101325
101325
101325
101325
101325
101325
101325
101325
101325
101325
101325
101325
101325
101325
101325
101325
101325
101325
101325
101325
101325
101325
101325
101325
101325
101325
101325
101325
101325
101325
101325
101325
101325
101325
101325
101325
101325
101325
101325
101325
101325
101325
101325
101325
101325
101325
101325
101325
101325
101325
101325
101325
101325
101325
101325
101325
101325
101325
101325
101325
101325
101325
101325
101325
101325
101325
101325
101325
101325
101325
101325
101325
101325
101325
101325
101325
101325
101325
101325
101325
101325
101325
101325
101325
101325
101325
101325
101325
101325
101325
101325
101325
101325
101325
101325
101325
101325
101325
101325
101325
101325
101325
101325
101325
101325
101325
101325
101325
101325
101325
101325
101325
101325
101325
101325
101325
101325
101325
101325
101325
101325
101325
101325
101325
101325
101325
101325
101325
101325
101325
101325
101325
101325
101325
101325
101325
101325
101325
101325
101325
101325
101325
101325
101325
101325
101325
101325
101325
101325
101325
101325
101325
101325
101325
101325
101325
101325
101325
101325
101325
101325
101325
101325
101325
101325
101325
101325
101325
101325
101325
101325
101325
101325
101325
101325
101325
101325
101325
101325
101325
101325
101325
101325
101325
101325
101325
101325
101325
101325
101325
101325
101325
101325
101325
101325
101325
101325
101325
101325
101325
101325
101325
101325
101325
101325
101325
101325
101325
101325
101325
101325
101325
101325
101325
101325
101325
101325
101325
101325
101325
101325
101325
101325
101325
101325
101325
101325
101325
101325
101325
101325
101325
101325
101325
101325
101325
101325
101325
101325
101325
101325
101325
101325
101325
101325
101325
101325
101325
101325
101325
101325
101325
101325
101325
101325
101325
101325
101325
101325
101325
101325
101325
101325
101325
101325
101325
101325
101325
101325
101325
101325
101325
101325
101325
101325
101325
101325
101325
101325
101325
101325
101325
101325
101325
101325
101325
101325
101325
101325
101325
101325
101325
101325
101325
101325
101325
101325
101325
101325
101325
101325
101325
101325
101325
101325
101325
101325
101325
101325
101325
101325
101325
101325
101325
101325
101325
101325
101325
101325
101325
101325
101325
101325
101325
101325
101325
101325
101325
101325
101325
101325
101325
101325
101325
101325
101325
101325
101325
101325
101325
101325
101325
101325
101325
101325
101325
101325
101325
101325
101325
101325
101325
101325
101325
101325
101325
101325
101325
101325
101325
101325
101325
101325
101325
101325
101325
101325
101325
101325
101325
101325
101325
101325
101325
101325
101325
101325
101325
101325
101325
101325
101325
101325
101325
101325
101325
101325
101325
101325
101325
101325
101325
101325
101325
101325
101325
101325
101325
101325
101325
101325
101325
101325
101325
101325
101325
101325
101325
101325
101325
101325
101325
101325
101325
101325
101325
101325
101325
101325
101325
101325
101325
101325
101325
101325
101325
101325
101325
101325
101325
101325
101325
101325
101325
101325
101325
101325
101325
101325
101325
101325
101325
101325
101325
101325
101325
101325
101325
101325
101325
101325
101325
101325
101325
101325
101325
101325
101325
101325
101325
101325
101325
101325
101325
101325
101325
101325
101325
101325
101325
101325
101325
101325
101325
101325
101325
101325
101325
101325
101324.999
101324.999
101324.999
101324.999
101324.999
101324.999
101324.999
101324.999
101324.999
101324.999
101324.999
101324.999
101324.999
101324.999
101324.999
101324.999
101324.999
101324.999
101324.999
101324.998
101324.998
101324.998
101324.998
101324.998
101324.998
101324.998
101324.998
101324.998
101324.998
101324.997
101324.997
101324.997
101324.997
101324.997
101324.997
101324.996
101324.996
101324.996
101324.996
101324.996
101324.995
101324.995
101324.995
101324.994
101324.994
101324.994
101324.994
101324.993
101324.993
101324.992
101324.992
101324.992
101324.991
101324.991
101324.99
101324.99
101324.989
101324.989
101324.988
101324.987
101324.987
101324.986
101324.985
101324.985
101324.984
101324.983
101324.982
101324.981
101324.98
101324.979
101324.978
101324.977
101324.976
101324.975
101324.974
101324.972
101324.971
101324.97
101324.968
101324.966
101324.965
101324.963
101324.961
101324.959
101324.958
101324.955
101324.953
101324.951
101324.949
101324.946
101324.944
101324.941
101324.938
101324.935
101324.932
101324.929
101324.926
101324.923
101324.919
101324.915
101324.911
101324.907
101324.903
101324.899
101324.894
101324.889
101324.884
101324.879
101324.874
101324.868
101324.862
101324.856
101324.85
101324.843
101324.836
101324.829
101324.822
101324.814
101324.806
101324.798
101324.789
101324.78
101324.771
101324.761
101324.751
101324.74
101324.729
101324.718
101324.706
101324.694
101324.682
101324.669
101324.655
101324.641
101324.626
101324.611
101324.596
101324.579
101324.563
101324.545
101324.527
101324.509
101324.489
101324.469
101324.449
101324.427
101324.405
101324.382
101324.358
101324.334
101324.309
101324.283
101324.256
101324.228
101324.199
101324.169
101324.138
101324.107
101324.074
101324.04
101324.005
101323.969
101323.932
101323.894
101323.855
101323.814
101323.773
101323.73
101323.685
101323.64
101323.593
101323.544
101323.494
101323.443
101323.391
101323.336
101323.281
101323.223
101323.164
101323.104
101323.042
101322.978
101322.913
101322.845
101322.776
101322.705
101322.633
101322.558
101322.481
101322.403
101322.323
101322.24
101322.156
101322.069
101321.981
101321.89
101321.797
101321.702
101321.605
101321.505
101321.403
101321.299
101321.193
101321.084
101320.973
101320.86
101320.744
101320.625
101320.505
101320.381
101320.255
101320.127
101319.996
101319.863
101319.727
101319.588
101319.447
101319.303
101319.157
101319.008
101318.856
101318.702
101318.545
101318.385
101318.223
101318.058
101317.89
101317.72
101317.547
101317.371
101317.193
101317.012
101316.828
101316.642
101316.454
101316.262
101316.069
101315.872
101315.674
101315.472
101315.269
101315.062
101314.854
101314.643
101314.43
101314.215
101313.997
101313.777
101313.556
101313.332
101313.106
101312.878
101312.648
101312.417
101312.183
101311.948
101311.711
101311.473
101311.233
101310.992
101310.749
101310.505
101310.26
101310.014
101309.767
101309.519
101309.27
101309.02
101308.77
101308.519
101308.267
101308.015
101307.763
101307.511
101307.259
101307.006
101306.754
101306.502
101306.251
101306
101305.749
101305.5
101305.251
101305.003
101304.756
101304.51
101304.265
101304.022
101303.781
101303.541
101303.303
101303.066
101302.832
101302.6
101302.37
101302.142
101301.917
101301.694
101301.474
101301.256
101301.042
101300.831
101300.622
101300.417
101300.215
101300.017
101299.822
101299.631
101299.443
101299.26
101299.08
101298.904
101298.732
101298.565
101298.401
101298.242
101298.088
101297.938
101297.792
101297.651
101297.515
101297.383
101297.256
101297.134
101297.017
101296.904
101296.797
101296.695
101296.597
101296.505
101296.418
101296.336
101296.258
101296.187
101296.12
101296.058
101296.001
101295.95
101295.904
101295.862
101295.826
101295.795
101295.769
101295.748
101295.732
101295.721
101295.714
101295.713
101295.716
101295.724
101295.737
101295.754
101295.776
101295.803
101295.834
101295.869
101295.908
101295.952
101296
101296.051
101296.107
101296.167
101296.23
101296.297
101296.368
101296.442
101296.52
101296.6
101296.684
101296.771
101296.861
101296.954
101297.05
101297.148
101297.248
101297.352
101297.457
101297.565
101297.674
101297.786
101297.9
101298.015
101298.132
101298.251
101298.371
101298.492
101298.614
101298.738
101298.863
101298.988
101299.115
101299.242
101299.369
101299.497
101299.626
101299.755
101299.884
101300.013
101300.143
101300.272
101300.401
101300.53
101300.659
101300.787
101300.915
101301.042
101301.169
101301.295
101301.421
101301.545
101301.669
101301.792
101301.915
101302.036
101302.156
101302.275
101302.393
101302.51
101302.626
101302.74
101302.853
101302.965
101303.076
101303.185
101303.294
101303.4
101303.505
101303.609
101303.712
101303.813
101303.913
101304.011
101304.108
101304.203
101304.297
101304.39
101304.481
101304.571
101304.659
101304.746
101304.832
101304.916
101304.998
101305.08
101305.16
101305.239
101305.316
101305.393
101305.468
101305.541
101305.614
101305.685
101305.755
101305.824
101305.892
101305.959
101306.025
101306.089
101306.153
101306.216
101306.277
101306.338
101306.398
101306.456
101306.514
101306.571
101306.628
101306.683
101306.738
101306.792
101306.845
101306.898
101306.949
101307.001
101307.051
101307.101
101307.15
101307.199
101307.247
101307.295
101307.342
101307.388
101307.434
101307.48
101307.525
101307.57
101307.614
101307.658
101307.701
101307.744
101307.787
101307.829
101307.871
101307.912
101307.954
101307.994
101308.035
101308.075
101308.115
101308.155
101308.194
101308.233
101308.271
101308.31
101308.348
101308.386
101308.423
101308.46
101308.497
101308.534
101308.57
101308.606
101308.642
101308.677
101308.712
101308.747
101308.781
101308.816
101308.849
101308.883
101308.916
101308.949
101308.982
101309.014
101309.046
101309.078
101309.109
101309.14
101309.17
101309.201
101309.231
101309.26
101309.289
101309.318
101309.347
101309.375
101309.403
101309.43
101309.458
101309.484
101309.511
101309.537
101309.563
101309.588
101309.613
101309.638
101309.662
101309.686
101309.71
101309.733
101309.756
101309.779
101309.801
101309.823
101309.845
101309.866
101309.887
101309.908
101309.929
101309.949
101309.969
101309.989
101310.009
101310.028
101310.047
101310.066
101310.085
101310.103
101310.122
101310.14
101310.158
101310.176
101310.194
101310.211
101310.229
101310.246
101310.263
101310.281
101310.298
101310.315
101310.332
101310.349
101310.366
101310.383
101310.4
101310.417
101310.434
101310.451
101310.468
101310.485
101310.502
101310.519
101310.536
101310.553
101310.571
101310.588
101310.605
101310.623
101310.64
101310.658
101310.676
101310.694
101310.712
101310.73
101310.748
101310.766
101310.785
101310.803
101310.822
101310.84
101310.859
101310.878
101310.897
101310.916
101310.935
101310.954
101310.973
101310.992
101311.012
101311.031
101311.05
101311.07
101311.089
101311.108
101311.128
101311.147
101311.167
101311.186
101311.206
101311.225
101311.244
101311.264
101311.283
101311.302
101311.321
101311.34
101311.359
101311.378
101311.396
101311.415
101311.433
101311.451
101311.47
101311.488
101311.505
101311.523
101311.541
101311.558
101311.575
101311.592
101311.609
101311.626
101311.642
101311.659
101311.675
101311.691
101311.706
101311.722
101311.737
101311.752
101311.767
101311.782
101311.797
101311.811
101311.825
101311.839
101311.853
101311.867
101311.88
101311.894
101311.907
101311.92
101311.932
101311.945
101311.958
101311.97
101311.982
101311.994
101312.006
101312.018
101312.03
101312.041
101312.053
101312.064
101312.075
101312.086
101312.097
101312.108
101312.119
101312.13
101312.14
101312.151
101312.161
101312.172
101312.182
101312.192
101312.202
101312.213
101312.223
101312.233
101312.243
101312.252
101312.262
101312.272
101312.282
101312.292
101312.301
101312.311
101312.32
101312.33
101312.339
101312.349
101312.358
101312.368
101312.377
101312.386
101312.396
101312.405
101312.414
101312.423
101312.433
101312.442
101312.451
101312.46
101312.469
101312.478
101312.488
101312.497
101312.506
101312.515
101312.525
101312.534
101312.543
101312.553
101312.562
101312.572
101312.581
101312.591
101312.601
101312.611
101312.621
101312.631
101312.641
101312.651
101312.662
101312.673
101312.684
101312.695
101312.707
101312.718
101312.73
101312.743
101312.755
101312.768
101312.782
101312.796
101312.81
101312.825
101312.84
101312.856
101312.872
101312.889
101312.906
101312.925
101312.944
101312.964
101312.984
101313.006
101313.028
101313.052
101313.076
101313.102
101313.129
101313.156
101313.186
101313.216
101313.248
101313.282
101313.317
101313.353
101313.392
101313.432
101313.473
101313.517
101313.562
101313.61
101313.659
101313.71
101313.764
101313.819
101313.877
101313.937
101313.999
101314.063
101314.129
101314.197
101314.267
101314.34
101314.414
101314.49
101314.568
101314.648
101314.729
101314.811
101314.895
101314.98
101315.065
101315.152
101315.239
101315.326
101315.413
101315.5
101315.586
101315.672
101315.757
101315.841
101315.923
101316.003
101316.081
101316.157
101316.231
101316.301
101316.369
101316.434
101316.496
101316.554
101316.609
101316.661
101316.709
101316.753
101316.794
101316.832
101316.867
101316.899
101316.928
101316.954
101316.979
101317.001
101317.023
101317.043
101317.062
101317.082
101317.102
101317.123
101317.146
101317.172
101317.2
101317.233
101317.271
101317.315
101317.366
101317.426
101317.497
101317.579
101317.676
101317.79
101317.924
101318.081
101318.266
101318.482
101318.737
101319.037
101319.389
101319.803
101320.291
101320.872
101321.583
101322.338
101323.29
101324.477
101321.327
101320.552
101320.131
101319.78
101319.574
101319.355
101319.194
101319.02
101318.881
101318.726
101318.594
101318.457
101318.333
101318.214
101318.107
101318.007
101317.916
101317.833
101317.758
101317.69
101317.628
101317.571
101317.52
101317.473
101317.431
101317.393
101317.358
101317.326
101317.297
101317.271
101317.247
101317.225
101317.204
101317.186
101317.169
101317.153
101317.138
101317.124
101317.111
101317.099
101317.087
101317.075
101317.064
101317.053
101317.043
101317.032
101317.021
101317.01
101316.999
101316.988
101316.976
101316.964
101316.951
101316.938
101316.924
101316.91
101316.895
101316.879
101316.863
101316.846
101316.828
101316.809
101316.79
101316.769
101316.748
101316.726
101316.703
101316.68
101316.655
101316.629
101316.603
101316.576
101316.548
101316.519
101316.489
101316.458
101316.426
101316.394
101316.361
101316.327
101316.293
101316.257
101316.221
101316.185
101316.148
101316.11
101316.071
101316.032
101315.993
101315.953
101315.912
101315.872
101315.83
101315.789
101315.747
101315.705
101315.662
101315.62
101315.577
101315.534
101315.491
101315.448
101315.404
101315.361
101315.318
101315.275
101315.232
101315.189
101315.146
101315.103
101315.06
101315.018
101314.976
101314.934
101314.892
101314.851
101314.81
101314.769
101314.729
101314.689
101314.649
101314.61
101314.571
101314.533
101314.495
101314.458
101314.421
101314.384
101314.348
101314.313
101314.278
101314.243
101314.209
101314.175
101314.142
101314.11
101314.078
101314.047
101314.016
101313.985
101313.956
101313.926
101313.898
101313.869
101313.842
101313.814
101313.788
101313.762
101313.736
101313.711
101313.686
101313.662
101313.638
101313.615
101313.593
101313.57
101313.549
101313.527
101313.507
101313.486
101313.466
101313.447
101313.428
101313.409
101313.391
101313.373
101313.356
101313.339
101313.322
101313.306
101313.29
101313.274
101313.259
101313.244
101313.23
101313.215
101313.201
101313.188
101313.174
101313.161
101313.148
101313.135
101313.123
101313.111
101313.099
101313.088
101313.077
101313.066
101313.055
101313.045
101313.034
101313.024
101313.014
101313.005
101312.995
101312.986
101312.977
101312.968
101312.959
101312.95
101312.942
101312.933
101312.925
101312.917
101312.909
101312.901
101312.894
101312.886
101312.879
101312.871
101312.864
101312.857
101312.85
101312.843
101312.837
101312.83
101312.824
101312.817
101312.811
101312.804
101312.798
101312.792
101312.786
101312.78
101312.774
101312.768
101312.762
101312.757
101312.751
101312.745
101312.74
101312.734
101312.729
101312.724
101312.718
101312.713
101312.708
101312.703
101312.697
101312.692
101312.687
101312.682
101312.677
101312.672
101312.667
101312.662
101312.657
101312.652
101312.648
101312.643
101312.638
101312.633
101312.628
101312.624
101312.619
101312.614
101312.61
101312.605
101312.6
101312.596
101312.591
101312.586
101312.582
101312.577
101312.573
101312.568
101312.563
101312.559
101312.554
101312.55
101312.545
101312.541
101312.536
101312.532
101312.527
101312.522
101312.518
101312.513
101312.509
101312.504
101312.5
101312.495
101312.491
101312.486
101312.481
101312.477
101312.472
101312.468
101312.463
101312.458
101312.454
101312.449
101312.445
101312.44
101312.435
101312.431
101312.426
101312.421
101312.416
101312.412
101312.407
101312.402
101312.398
101312.393
101312.388
101312.383
101312.379
101312.374
101312.369
101312.364
101312.359
101312.354
101312.35
101312.345
101312.34
101312.335
101312.33
101312.325
101312.32
101312.315
101312.31
101312.305
101312.3
101312.295
101312.29
101312.285
101312.28
101312.275
101312.27
101312.264
101312.259
101312.254
101312.249
101312.244
101312.238
101312.233
101312.228
101312.223
101312.217
101312.212
101312.207
101312.201
101312.196
101312.19
101312.185
101312.18
101312.174
101312.169
101312.163
101312.157
101312.152
101312.146
101312.141
101312.135
101312.129
101312.124
101312.118
101312.112
101312.106
101312.101
101312.095
101312.089
101312.083
101312.077
101312.071
101312.065
101312.059
101312.053
101312.047
101312.041
101312.035
101312.029
101312.023
101312.016
101312.01
101312.004
101311.998
101311.991
101311.985
101311.978
101311.972
101311.965
101311.959
101311.952
101311.946
101311.939
101311.932
101311.926
101311.919
101311.912
101311.905
101311.898
101311.891
101311.884
101311.877
101311.87
101311.863
101311.856
101311.849
101311.842
101311.834
101311.827
101311.82
101311.812
101311.805
101311.797
101311.79
101311.782
101311.774
101311.767
101311.759
101311.751
101311.743
101311.735
101311.727
101311.719
101311.711
101311.703
101311.695
101311.687
101311.679
101311.67
101311.662
101311.654
101311.645
101311.637
101311.628
101311.62
101311.611
101311.603
101311.594
101311.585
101311.576
101311.568
101311.559
101311.55
101311.541
101311.532
101311.523
101311.514
101311.505
101311.496
101311.486
101311.477
101311.468
101311.459
101311.449
101311.44
101311.431
101311.421
101311.412
101311.402
101311.393
101311.383
101311.373
101311.364
101311.354
101311.345
101311.335
101311.325
101311.315
101311.306
101311.296
101311.286
101311.276
101311.266
101311.257
101311.247
101311.237
101311.227
101311.217
101311.207
101311.197
101311.187
101311.177
101311.167
101311.157
101311.147
101311.137
101311.127
101311.117
101311.107
101311.097
101311.087
101311.077
101311.067
101311.057
101311.047
101311.037
101311.027
101311.017
101311.007
101310.997
101310.987
101310.977
101310.967
101310.957
101310.947
101310.937
101310.927
101310.917
101310.907
101310.896
101310.884
101310.872
101310.859
101310.844
101310.829
101310.812
101310.795
101310.776
101310.756
101310.735
101310.713
101310.688
101310.663
101310.635
101310.606
101310.575
101310.542
101310.506
101310.469
101310.429
101310.385
101310.339
101310.29
101310.236
101310.178
101310.114
101310.044
101309.967
101309.88
101309.782
101309.671
101309.544
101309.399
101309.231
101309.039
101308.819
101308.568
101308.282
101307.957
101307.587
101307.16
101306.655
101306.038
101305.253
101304.222
101302.858
101301.096
101298.967
101296.709
101294.861
101294.229
101295.618
101299.386
101305.073
101311.431
101316.998
101320.928
101323.211
101324.319
101324.775
101324.935
101324.984
101324.997
101325
101325.001
101325.001
101325.001
101325.001
101325.001
101325.001
101325.001
101325.001
101325.001
101325
101325
)
;

boundaryField
{
    closed
    {
        type            zeroGradient;
    }
    open
    {
        type            waveTransmissive;
        gamma           1.25;
        fieldInf        101325;
        lInf            1;
        value           uniform 101325;
    }
    sides
    {
        type            empty;
    }
}


// ************************************************************************* //
