/*--------------------------------*- C++ -*----------------------------------*\
| =========                 |                                                 |
| \\      /  F ield         | OpenFOAM: The Open Source CFD Toolbox           |
|  \\    /   O peration     | Version:  2206                                  |
|   \\  /    A nd           | Website:  www.openfoam.com                      |
|    \\/     M anipulation  |                                                 |
\*---------------------------------------------------------------------------*/
FoamFile
{
    version     2.0;
    format      ascii;
    arch        "LSB;label=32;scalar=64";
    class       volScalarField;
    location    "1.82e-05";
    object      rho;
}
// * * * * * * * * * * * * * * * * * * * * * * * * * * * * * * * * * * * * * //

dimensions      [1 -3 0 0 0 0 0];

internalField   nonuniform List<scalar> 
3183
(
1.03926466
1.03926466
1.03926466
1.03926466
1.03926466
1.03926466
1.03926466
1.03926466
1.03926466
1.03926466
1.03926466
1.03926466
1.03926466
1.03926466
1.03926466
1.03926466
1.03926466
1.03926466
1.03926466
1.03926466
1.03926466
1.03926466
1.03926466
1.03926466
1.03926466
1.03926466
1.03926466
1.03926466
1.03926466
1.03926466
1.03926466
1.03926466
1.03926466
1.03926466
1.03926466
1.03926466
1.03926466
1.03926466
1.03926466
1.03926466
1.03926466
1.03926466
1.03926466
1.03926466
1.03926466
1.03926466
1.03926466
1.03926466
1.03926466
1.03926466
1.03926466
1.03926466
1.03926466
1.03926466
1.03926466
1.03926466
1.03926466
1.03926466
1.03926466
1.03926466
1.03926466
1.03926466
1.03926466
1.03926466
1.03926466
1.03926466
1.03926466
1.03926466
1.03926466
1.03926466
1.03926466
1.03926466
1.03926466
1.03926466
1.03926466
1.03926466
1.03926466
1.03926466
1.03926466
1.03926466
1.03926466
1.03926466
1.03926466
1.03926466
1.03926466
1.03926466
1.03926466
1.03926466
1.03926466
1.03926466
1.03926466
1.03926466
1.03926466
1.03926466
1.03926466
1.03926466
1.03926466
1.03926466
1.03926466
1.03926466
1.03926466
1.03926466
1.03926466
1.03926466
1.03926466
1.03926466
1.03926466
1.03926466
1.03926466
1.03926466
1.03926466
1.03926466
1.03926466
1.03926466
1.03926466
1.03926466
1.03926466
1.03926466
1.03926466
1.03926466
1.03926466
1.03926466
1.03926466
1.03926466
1.03926466
1.03926466
1.03926466
1.03926466
1.03926466
1.03926466
1.03926466
1.03926466
1.03926466
1.03926466
1.03926466
1.03926466
1.03926466
1.03926466
1.03926466
1.03926466
1.03926466
1.03926466
1.03926466
1.03926466
1.03926466
1.03926466
1.03926466
1.03926466
1.03926466
1.03926466
1.03926466
1.03926466
1.03926466
1.03926466
1.03926466
1.03926466
1.03926466
1.03926466
1.03926466
1.03926466
1.03926466
1.03926466
1.03926466
1.03926466
1.03926466
1.03926466
1.03926466
1.03926466
1.03926466
1.03926466
1.03926466
1.03926466
1.03926466
1.03926466
1.03926466
1.03926466
1.03926466
1.03926466
1.03926466
1.03926466
1.03926466
1.03926466
1.03926466
1.03926466
1.03926466
1.03926466
1.03926466
1.03926466
1.03926466
1.03926466
1.03926466
1.03926466
1.03926466
1.03926466
1.03926466
1.03926466
1.03926466
1.03926466
1.03926466
1.03926466
1.03926466
1.03926466
1.03926466
1.03926466
1.03926466
1.03926466
1.03926466
1.03926466
1.03926466
1.03926466
1.03926466
1.03926466
1.03926466
1.03926466
1.03926466
1.03926466
1.03926466
1.03926466
1.03926466
1.03926466
1.03926466
1.03926466
1.03926466
1.03926466
1.03926466
1.03926466
1.03926466
1.03926466
1.03926466
1.03926466
1.03926466
1.03926466
1.03926466
1.03926466
1.03926466
1.03926466
1.03926466
1.03926466
1.03926466
1.03926466
1.03926466
1.03926466
1.03926466
1.03926466
1.03926466
1.03926466
1.03926466
1.03926466
1.03926466
1.03926466
1.03926466
1.03926466
1.03926466
1.03926466
1.03926466
1.03926466
1.03926466
1.03926466
1.03926466
1.03926466
1.03926466
1.03926466
1.03926466
1.03926466
1.03926466
1.03926466
1.03926466
1.03926466
1.03926466
1.03926466
1.03926466
1.03926466
1.03926466
1.03926466
1.03926466
1.03926466
1.03926466
1.03926466
1.03926466
1.03926466
1.03926466
1.03926466
1.03926466
1.03926466
1.03926466
1.03926466
1.03926466
1.03926466
1.03926466
1.03926466
1.03926466
1.03926466
1.03926466
1.03926466
1.03926466
1.03926466
1.03926466
1.03926466
1.03926466
1.03926466
1.03926466
1.03926466
1.03926466
1.03926466
1.03926466
1.03926466
1.03926466
1.03926466
1.03926466
1.03926466
1.03926466
1.03926466
1.03926466
1.03926466
1.03926466
1.03926466
1.03926466
1.03926466
1.03926466
1.03926466
1.03926466
1.03926466
1.03926466
1.03926466
1.03926466
1.03926466
1.03926466
1.03926466
1.03926466
1.03926466
1.03926466
1.03926466
1.03926466
1.03926466
1.03926466
1.03926466
1.03926466
1.03926466
1.03926466
1.03926466
1.03926466
1.03926466
1.03926466
1.03926466
1.03926466
1.03926466
1.03926466
1.03926466
1.03926466
1.03926466
1.03926466
1.03926466
1.03926466
1.03926466
1.03926466
1.03926466
1.03926466
1.03926466
1.03926466
1.03926466
1.03926466
1.03926466
1.03926466
1.03926466
1.03926466
1.03926466
1.03926466
1.03926466
1.03926466
1.03926466
1.03926466
1.03926466
1.03926466
1.03926466
1.03926466
1.03926466
1.03926466
1.03926466
1.03926466
1.03926466
1.03926466
1.03926466
1.03926466
1.03926466
1.03926466
1.03926466
1.03926466
1.03926466
1.03926466
1.03926466
1.03926466
1.03926466
1.03926466
1.03926466
1.03926466
1.03926466
1.03926466
1.03926466
1.03926466
1.03926466
1.03926466
1.03926466
1.03926466
1.03926466
1.03926466
1.03926466
1.03926466
1.03926466
1.03926466
1.03926466
1.03926466
1.03926466
1.03926466
1.03926466
1.03926466
1.03926466
1.03926466
1.03926466
1.03926466
1.03926466
1.03926466
1.03926466
1.03926466
1.03926466
1.03926466
1.03926466
1.03926466
1.03926466
1.03926466
1.03926466
1.03926466
1.03926466
1.03926466
1.03926466
1.03926466
1.03926466
1.03926466
1.03926466
1.03926466
1.03926466
1.03926466
1.03926466
1.03926466
1.03926466
1.03926466
1.03926466
1.03926466
1.03926466
1.03926466
1.03926466
1.03926466
1.03926466
1.03926466
1.03926466
1.03926466
1.03926466
1.03926466
1.03926466
1.03926466
1.03926466
1.03926466
1.03926466
1.03926466
1.03926466
1.03926466
1.03926466
1.03926466
1.03926466
1.03926466
1.03926466
1.03926466
1.03926466
1.03926466
1.03926466
1.03926466
1.03926466
1.03926466
1.03926466
1.03926466
1.03926466
1.03926466
1.03926466
1.03926466
1.03926466
1.03926466
1.03926466
1.03926466
1.03926466
1.03926466
1.03926466
1.03926466
1.03926466
1.03926466
1.03926466
1.03926466
1.03926466
1.03926466
1.03926466
1.03926466
1.03926466
1.03926466
1.03926466
1.03926466
1.03926466
1.03926466
1.03926466
1.03926466
1.03926466
1.03926466
1.03926466
1.03926466
1.03926466
1.03926466
1.03926466
1.03926466
1.03926466
1.03926466
1.03926466
1.03926466
1.03926466
1.03926466
1.03926466
1.03926466
1.03926466
1.03926466
1.03926466
1.03926466
1.03926466
1.03926466
1.03926466
1.03926466
1.03926466
1.03926466
1.03926466
1.03926466
1.03926466
1.03926466
1.03926466
1.03926466
1.03926466
1.03926466
1.03926466
1.03926466
1.03926466
1.03926466
1.03926466
1.03926466
1.03926466
1.03926466
1.03926466
1.03926466
1.03926466
1.03926466
1.03926466
1.03926466
1.03926466
1.03926466
1.03926466
1.03926466
1.03926466
1.03926466
1.03926466
1.03926466
1.03926466
1.03926466
1.03926466
1.03926466
1.03926466
1.03926466
1.03926466
1.03926466
1.03926466
1.03926466
1.03926466
1.03926466
1.03926466
1.03926466
1.03926466
1.03926466
1.03926466
1.03926466
1.03926466
1.03926466
1.03926466
1.03926466
1.03926466
1.03926466
1.03926466
1.03926466
1.03926466
1.03926466
1.03926466
1.03926466
1.03926466
1.03926466
1.03926466
1.03926466
1.03926466
1.03926466
1.03926466
1.03926466
1.03926466
1.03926466
1.03926466
1.03926466
1.03926466
1.03926466
1.03926466
1.03926466
1.03926466
1.03926466
1.03926466
1.03926466
1.03926466
1.03926466
1.03926466
1.03926466
1.03926466
1.03926466
1.03926466
1.03926466
1.03926466
1.03926466
1.03926466
1.03926466
1.03926466
1.03926466
1.03926466
1.03926466
1.03926466
1.03926466
1.03926466
1.03926466
1.03926466
1.03926466
1.03926466
1.03926466
1.03926466
1.03926466
1.03926466
1.03926466
1.03926466
1.03926466
1.03926466
1.03926466
1.03926466
1.03926466
1.03926466
1.03926466
1.03926466
1.03926466
1.03926466
1.03926466
1.03926466
1.03926466
1.03926466
1.03926466
1.03926466
1.03926466
1.03926466
1.03926466
1.03926466
1.03926466
1.03926466
1.03926466
1.03926466
1.03926466
1.03926466
1.03926466
1.03926466
1.03926466
1.03926466
1.03926466
1.03926466
1.03926466
1.03926466
1.03926466
1.03926466
1.03926466
1.03926466
1.03926466
1.03926466
1.03926466
1.03926466
1.03926466
1.03926466
1.03926466
1.03926466
1.03926466
1.03926466
1.03926466
1.03926466
1.03926466
1.03926466
1.03926466
1.03926466
1.03926466
1.03926466
1.03926466
1.03926466
1.03926466
1.03926466
1.03926466
1.03926466
1.03926466
1.03926466
1.03926466
1.03926466
1.03926466
1.03926466
1.03926466
1.03926466
1.03926466
1.03926466
1.03926466
1.03926466
1.03926466
1.03926466
1.03926466
1.03926466
1.03926466
1.03926466
1.03926466
1.03926466
1.03926466
1.03926466
1.03926466
1.03926466
1.03926466
1.03926466
1.03926466
1.03926466
1.03926466
1.03926466
1.03926466
1.03926466
1.03926466
1.03926466
1.03926466
1.03926466
1.03926466
1.03926466
1.03926466
1.03926466
1.03926466
1.03926466
1.03926466
1.03926466
1.03926466
1.03926466
1.03926466
1.03926466
1.03926466
1.03926466
1.03926466
1.03926466
1.03926466
1.03926466
1.03926466
1.03926466
1.03926466
1.03926466
1.03926466
1.03926466
1.03926466
1.03926466
1.03926466
1.03926466
1.03926466
1.03926466
1.03926466
1.03926466
1.03926466
1.03926466
1.03926466
1.03926466
1.03926466
1.03926466
1.03926466
1.03926466
1.03926466
1.03926466
1.03926466
1.03926466
1.03926466
1.03926466
1.03926466
1.03926466
1.03926466
1.03926466
1.03926466
1.03926466
1.03926466
1.03926466
1.03926466
1.03926466
1.03926466
1.03926466
1.03926466
1.03926466
1.03926466
1.03926466
1.03926466
1.03926466
1.03926466
1.03926466
1.03926466
1.03926466
1.03926466
1.03926466
1.03926466
1.03926466
1.03926466
1.03926466
1.03926466
1.03926466
1.03926466
1.03926466
1.03926466
1.03926466
1.03926466
1.03926466
1.03926466
1.03926466
1.03926466
1.03926466
1.03926466
1.03926466
1.03926466
1.03926466
1.03926466
1.03926466
1.03926466
1.03926466
1.03926466
1.03926466
1.03926466
1.03926466
1.03926466
1.03926466
1.03926466
1.03926466
1.03926466
1.03926466
1.03926466
1.03926466
1.03926466
1.03926466
1.03926466
1.03926466
1.03926466
1.03926466
1.03926466
1.03926466
1.03926466
1.03926466
1.03926466
1.03926466
1.03926466
1.03926466
1.03926466
1.03926466
1.03926466
1.03926466
1.03926466
1.03926466
1.03926466
1.03926466
1.03926466
1.03926466
1.03926466
1.03926466
1.03926466
1.03926466
1.03926466
1.03926466
1.03926466
1.03926466
1.03926466
1.03926466
1.03926466
1.03926466
1.03926466
1.03926466
1.03926466
1.03926466
1.03926466
1.03926466
1.03926466
1.03926466
1.03926466
1.03926466
1.03926466
1.03926466
1.03926466
1.03926466
1.03926466
1.03926466
1.03926466
1.03926466
1.03926466
1.03926466
1.03926466
1.03926466
1.03926466
1.03926466
1.03926466
1.03926466
1.03926466
1.03926466
1.03926466
1.03926466
1.03926466
1.03926466
1.03926466
1.03926466
1.03926466
1.03926466
1.03926466
1.03926466
1.03926466
1.03926466
1.03926466
1.03926466
1.03926466
1.03926466
1.03926466
1.03926466
1.03926466
1.03926466
1.03926466
1.03926466
1.03926466
1.03926466
1.03926466
1.03926466
1.03926466
1.03926466
1.03926466
1.03926466
1.03926466
1.03926466
1.03926466
1.03926466
1.03926466
1.03926466
1.03926466
1.03926466
1.03926466
1.03926466
1.03926466
1.03926466
1.03926466
1.03926466
1.03926466
1.03926466
1.03926466
1.03926466
1.03926466
1.03926466
1.03926466
1.03926466
1.03926466
1.03926466
1.03926466
1.03926466
1.03926466
1.03926466
1.03926466
1.03926466
1.03926466
1.03926466
1.03926466
1.03926466
1.03926466
1.03926466
1.03926466
1.03926466
1.03926466
1.03926466
1.03926466
1.03926466
1.03926466
1.03926466
1.03926466
1.03926466
1.03926466
1.03926466
1.03926466
1.03926466
1.03926466
1.03926466
1.03926466
1.03926466
1.03926466
1.03926466
1.03926466
1.03926466
1.03926466
1.03926466
1.03926466
1.03926466
1.03926466
1.03926466
1.03926466
1.03926466
1.03926466
1.03926466
1.03926466
1.03926466
1.03926466
1.03926466
1.03926466
1.03926466
1.03926466
1.03926466
1.03926466
1.03926466
1.03926466
1.03926466
1.03926466
1.03926466
1.03926466
1.03926466
1.03926466
1.03926466
1.03926466
1.03926466
1.03926466
1.03926466
1.03926466
1.03926466
1.03926466
1.03926466
1.03926466
1.03926466
1.03926466
1.03926466
1.03926466
1.03926466
1.03926466
1.03926466
1.03926466
1.03926466
1.03926466
1.03926466
1.03926466
1.03926466
1.03926466
1.03926466
1.03926466
1.03926466
1.03926466
1.03926466
1.03926466
1.03926466
1.03926466
1.03926466
1.03926466
1.03926466
1.03926466
1.03926466
1.03926466
1.03926466
1.03926466
1.03926466
1.03926466
1.03926466
1.03926466
1.03926466
1.03926466
1.03926466
1.03926466
1.03926466
1.03926466
1.03926466
1.03926466
1.03926466
1.03926466
1.03926466
1.03926466
1.03926466
1.03926466
1.03926466
1.03926466
1.03926466
1.03926466
1.03926466
1.03926466
1.03926466
1.03926466
1.03926466
1.03926466
1.03926466
1.03926466
1.03926466
1.03926466
1.03926466
1.03926466
1.03926466
1.03926466
1.03926466
1.03926466
1.03926466
1.03926466
1.03926466
1.03926466
1.03926466
1.03926466
1.03926466
1.03926466
1.03926466
1.03926466
1.03926466
1.03926466
1.03926466
1.03926466
1.03926466
1.03926466
1.03926466
1.03926466
1.03926466
1.03926466
1.03926466
1.03926466
1.03926466
1.03926466
1.03926466
1.03926466
1.03926466
1.03926466
1.03926466
1.03926466
1.03926466
1.03926466
1.03926466
1.03926466
1.03926466
1.03926466
1.03926466
1.03926466
1.03926466
1.03926466
1.03926466
1.03926466
1.03926466
1.03926466
1.03926466
1.03926466
1.03926466
1.03926466
1.03926466
1.03926466
1.03926466
1.03926466
1.03926466
1.03926466
1.03926466
1.03926466
1.03926466
1.03926466
1.03926466
1.03926466
1.03926466
1.03926466
1.03926466
1.03926466
1.03926466
1.03926466
1.03926466
1.03926466
1.03926466
1.03926466
1.03926466
1.03926466
1.03926466
1.03926466
1.03926466
1.03926466
1.03926466
1.03926466
1.03926466
1.03926466
1.03926466
1.03926466
1.03926466
1.03926466
1.03926466
1.03926466
1.03926466
1.03926466
1.03926466
1.03926466
1.03926466
1.03926466
1.03926466
1.03926466
1.03926466
1.03926466
1.03926466
1.03926466
1.03926466
1.03926466
1.03926466
1.03926466
1.03926466
1.03926466
1.03926466
1.03926466
1.03926466
1.03926466
1.03926466
1.03926466
1.03926466
1.03926466
1.03926466
1.03926466
1.03926466
1.03926466
1.03926466
1.03926466
1.03926466
1.03926466
1.03926466
1.03926466
1.03926466
1.03926466
1.03926466
1.03926466
1.03926466
1.03926466
1.03926466
1.03926466
1.03926466
1.03926466
1.03926466
1.03926466
1.03926466
1.03926466
1.03926466
1.03926466
1.03926466
1.03926466
1.03926466
1.03926466
1.03926466
1.03926466
1.03926466
1.03926466
1.03926466
1.03926466
1.03926466
1.03926466
1.03926466
1.03926466
1.03926466
1.03926466
1.03926466
1.03926466
1.03926466
1.03926466
1.03926466
1.03926466
1.03926466
1.03926466
1.03926466
1.03926466
1.03926466
1.03926466
1.03926466
1.03926466
1.03926466
1.03926466
1.03926466
1.03926466
1.03926466
1.03926466
1.03926466
1.03926466
1.03926466
1.03926466
1.03926466
1.03926466
1.03926466
1.03926466
1.03926466
1.03926466
1.03926466
1.03926466
1.03926466
1.03926466
1.03926466
1.03926466
1.03926466
1.03926466
1.03926466
1.03926466
1.03926466
1.03926466
1.03926466
1.03926466
1.03926466
1.03926466
1.03926466
1.03926466
1.03926466
1.03926466
1.03926466
1.03926466
1.03926466
1.03926466
1.03926466
1.03926466
1.03926466
1.03926466
1.03926466
1.03926466
1.03926466
1.03926466
1.03926466
1.03926466
1.03926466
1.03926466
1.03926466
1.03926466
1.03926466
1.03926466
1.03926466
1.03926466
1.03926466
1.03926466
1.03926466
1.03926466
1.03926466
1.03926466
1.03926466
1.03926466
1.03926466
1.03926466
1.03926466
1.03926466
1.03926466
1.03926466
1.03926466
1.03926466
1.03926466
1.03926466
1.03926466
1.03926466
1.03926466
1.03926466
1.03926466
1.03926466
1.03926466
1.03926466
1.03926466
1.03926466
1.03926466
1.03926466
1.03926466
1.03926466
1.03926466
1.03926466
1.03926466
1.03926466
1.03926466
1.03926466
1.03926466
1.03926466
1.03926466
1.03926466
1.03926466
1.03926466
1.03926466
1.03926466
1.03926466
1.03926466
1.03926466
1.03926466
1.03926466
1.03926466
1.03926466
1.03926466
1.03926466
1.03926466
1.03926466
1.03926466
1.03926466
1.03926466
1.03926466
1.03926466
1.03926466
1.03926466
1.03926466
1.03926466
1.03926466
1.03926466
1.03926466
1.03926466
1.03926466
1.03926466
1.03926466
1.03926466
1.03926466
1.03926466
1.03926466
1.03926466
1.03926466
1.03926466
1.03926466
1.03926466
1.03926466
1.03926466
1.03926466
1.03926466
1.03926466
1.03926466
1.03926466
1.03926466
1.03926466
1.03926466
1.03926466
1.03926466
1.03926466
1.03926466
1.03926466
1.03926466
1.03926466
1.03926466
1.03926466
1.03926466
1.03926466
1.03926466
1.03926466
1.03926466
1.03926466
1.03926466
1.03926466
1.03926466
1.03926466
1.03926466
1.03926466
1.03926466
1.03926466
1.03926466
1.03926466
1.03926466
1.03926466
1.03926466
1.03926466
1.03926466
1.03926466
1.03926466
1.03926466
1.03926466
1.03926466
1.03926466
1.03926466
1.03926466
1.03926466
1.03926466
1.03926466
1.03926466
1.03926466
1.03926466
1.03926466
1.03926466
1.03926466
1.03926466
1.03926466
1.03926466
1.03926466
1.03926466
1.03926466
1.03926466
1.03926466
1.03926466
1.03926466
1.03926466
1.03926466
1.03926466
1.03926466
1.03926466
1.03926466
1.03926466
1.03926466
1.03926466
1.03926466
1.03926466
1.03926466
1.03926466
1.03926466
1.03926466
1.03926466
1.03926466
1.03926466
1.03926466
1.03926466
1.03926466
1.03926466
1.03926466
1.03926466
1.03926466
1.03926466
1.03926466
1.03926466
1.03926466
1.03926466
1.03926466
1.03926466
1.03926466
1.03926466
1.03926466
1.03926466
1.03926466
1.03926466
1.03926466
1.03926466
1.03926466
1.03926466
1.03926466
1.03926466
1.03926466
1.03926466
1.03926466
1.03926466
1.03926466
1.03926466
1.03926466
1.03926466
1.03926466
1.03926466
1.03926466
1.03926466
1.03926466
1.03926466
1.03926466
1.03926466
1.03926466
1.03926466
1.03926466
1.03926466
1.03926466
1.03926466
1.03926466
1.03926466
1.03926466
1.03926466
1.03926466
1.03926466
1.03926466
1.03926466
1.03926466
1.03926466
1.03926466
1.03926466
1.03926466
1.03926466
1.03926466
1.03926466
1.03926466
1.03926466
1.03926466
1.03926466
1.03926466
1.03926466
1.03926466
1.03926466
1.03926466
1.03926466
1.03926466
1.03926466
1.03926466
1.03926466
1.03926466
1.03926466
1.03926466
1.03926466
1.03926466
1.03926466
1.03926466
1.03926466
1.03926466
1.03926466
1.03926466
1.03926466
1.03926466
1.03926466
1.03926466
1.03926466
1.03926466
1.03926466
1.03926466
1.03926466
1.03926466
1.03926466
1.03926466
1.03926466
1.03926466
1.03926466
1.03926466
1.03926466
1.03926466
1.03926466
1.03926466
1.03926466
1.03926466
1.03926466
1.03926466
1.03926466
1.03926466
1.03926466
1.03926466
1.03926466
1.03926466
1.03926466
1.03926466
1.03926466
1.03926466
1.03926466
1.03926466
1.03926466
1.03926466
1.03926466
1.03926466
1.03926466
1.03926466
1.03926466
1.03926466
1.03926466
1.03926466
1.03926466
1.03926466
1.03926466
1.03926466
1.03926466
1.03926466
1.03926466
1.03926466
1.03926466
1.03926466
1.03926466
1.03926466
1.03926466
1.03926466
1.03926466
1.03926466
1.03926466
1.03926466
1.03926466
1.03926466
1.03926466
1.03926466
1.03926466
1.03926466
1.03926466
1.03926466
1.03926466
1.03926466
1.03926466
1.03926466
1.03926466
1.03926466
1.03926466
1.03926466
1.03926466
1.03926466
1.03926466
1.03926466
1.03926466
1.03926466
1.03926466
1.03926466
1.03926466
1.03926466
1.03926466
1.03926466
1.03926466
1.03926466
1.03926466
1.03926466
1.03926466
1.03926466
1.03926466
1.03926466
1.03926466
1.03926466
1.03926466
1.03926466
1.03926466
1.03926466
1.03926466
1.03926466
1.03926466
1.03926466
1.03926466
1.03926466
1.03926466
1.03926466
1.03926466
1.03926466
1.03926466
1.03926466
1.03926466
1.03926466
1.03926466
1.03926466
1.03926466
1.03926466
1.03926466
1.03926466
1.03926466
1.03926466
1.03926466
1.03926466
1.03926466
1.03926466
1.03926466
1.03926466
1.03926466
1.03926466
1.03926466
1.03926466
1.03926466
1.03926466
1.03926466
1.03926466
1.03926466
1.03926466
1.03926466
1.03926466
1.03926466
1.03926466
1.03926466
1.03926466
1.03926466
1.03926466
1.03926466
1.03926466
1.03926466
1.03926466
1.03926465
1.03926465
1.03926465
1.03926465
1.03926465
1.03926465
1.03926465
1.03926465
1.03926465
1.03926465
1.03926465
1.03926465
1.03926465
1.03926465
1.03926465
1.03926465
1.03926464
1.03926464
1.03926464
1.03926464
1.03926464
1.03926464
1.03926464
1.03926464
1.03926463
1.03926463
1.03926463
1.03926463
1.03926463
1.03926463
1.03926462
1.03926462
1.03926462
1.03926462
1.03926461
1.03926461
1.03926461
1.03926461
1.0392646
1.0392646
1.0392646
1.03926459
1.03926459
1.03926459
1.03926458
1.03926458
1.03926457
1.03926457
1.03926456
1.03926456
1.03926455
1.03926455
1.03926454
1.03926453
1.03926453
1.03926452
1.03926451
1.03926451
1.0392645
1.03926449
1.03926448
1.03926447
1.03926446
1.03926445
1.03926444
1.03926443
1.03926442
1.0392644
1.03926439
1.03926438
1.03926436
1.03926435
1.03926433
1.03926432
1.0392643
1.03926428
1.03926427
1.03926425
1.03926423
1.03926421
1.03926418
1.03926416
1.03926414
1.03926411
1.03926409
1.03926406
1.03926403
1.039264
1.03926397
1.03926394
1.0392639
1.03926387
1.03926383
1.03926379
1.03926375
1.03926371
1.03926367
1.03926362
1.03926358
1.03926353
1.03926348
1.03926342
1.03926337
1.03926331
1.03926325
1.03926319
1.03926312
1.03926305
1.03926298
1.03926291
1.03926283
1.03926276
1.03926267
1.03926259
1.0392625
1.03926241
1.03926231
1.03926221
1.03926211
1.039262
1.03926189
1.03926177
1.03926165
1.03926153
1.0392614
1.03926126
1.03926112
1.03926098
1.03926083
1.03926068
1.03926052
1.03926035
1.03926018
1.03926
1.03925981
1.03925962
1.03925942
1.03925922
1.03925901
1.03925879
1.03925856
1.03925832
1.03925808
1.03925783
1.03925757
1.0392573
1.03925703
1.03925674
1.03925645
1.03925614
1.03925582
1.0392555
1.03925516
1.03925482
1.03925446
1.03925409
1.03925371
1.03925332
1.03925292
1.0392525
1.03925207
1.03925163
1.03925118
1.03925071
1.03925023
1.03924973
1.03924922
1.03924869
1.03924815
1.0392476
1.03924703
1.03924644
1.03924584
1.03924522
1.03924458
1.03924392
1.03924325
1.03924256
1.03924185
1.03924113
1.03924038
1.03923961
1.03923883
1.03923803
1.0392372
1.03923635
1.03923549
1.0392346
1.03923369
1.03923276
1.03923181
1.03923083
1.03922984
1.03922882
1.03922777
1.03922671
1.03922561
1.0392245
1.03922336
1.0392222
1.03922101
1.03921979
1.03921855
1.03921729
1.039216
1.03921468
1.03921334
1.03921197
1.03921058
1.03920915
1.03920771
1.03920623
1.03920473
1.0392032
1.03920164
1.03920006
1.03919845
1.03919681
1.03919515
1.03919346
1.03919174
1.03918999
1.03918821
1.03918641
1.03918459
1.03918273
1.03918085
1.03917894
1.039177
1.03917504
1.03917306
1.03917104
1.039169
1.03916694
1.03916485
1.03916274
1.0391606
1.03915844
1.03915625
1.03915404
1.03915181
1.03914956
1.03914728
1.03914498
1.03914267
1.03914033
1.03913797
1.0391356
1.0391332
1.03913079
1.03912836
1.03912592
1.03912346
1.03912098
1.0391185
1.03911599
1.03911348
1.03911096
1.03910842
1.03910587
1.03910332
1.03910076
1.03909819
1.03909562
1.03909304
1.03909045
1.03908787
1.03908528
1.03908269
1.03908011
1.03907752
1.03907494
1.03907236
1.03906978
1.03906721
1.03906465
1.0390621
1.03905956
1.03905702
1.0390545
1.03905199
1.0390495
1.03904702
1.03904456
1.03904212
1.03903969
1.03903729
1.03903491
1.03903255
1.03903021
1.0390279
1.03902562
1.03902336
1.03902113
1.03901893
1.03901676
1.03901463
1.03901252
1.03901045
1.03900842
1.03900642
1.03900446
1.03900254
1.03900065
1.03899881
1.038997
1.03899524
1.03899352
1.03899185
1.03899022
1.03898863
1.03898709
1.0389856
1.03898415
1.03898275
1.0389814
1.0389801
1.03897885
1.03897764
1.03897649
1.03897539
1.03897434
1.03897334
1.0389724
1.0389715
1.03897066
1.03896987
1.03896913
1.03896844
1.03896781
1.03896723
1.0389667
1.03896623
1.03896581
1.03896543
1.03896512
1.03896485
1.03896463
1.03896447
1.03896435
1.03896429
1.03896427
1.03896431
1.03896439
1.03896452
1.0389647
1.03896492
1.03896519
1.03896551
1.03896587
1.03896628
1.03896672
1.03896721
1.03896774
1.03896832
1.03896893
1.03896958
1.03897027
1.03897099
1.03897175
1.03897255
1.03897337
1.03897423
1.03897513
1.03897605
1.038977
1.03897798
1.03897899
1.03898002
1.03898108
1.03898216
1.03898327
1.03898439
1.03898554
1.0389867
1.03898789
1.03898909
1.0389903
1.03899153
1.03899278
1.03899403
1.0389953
1.03899658
1.03899787
1.03899916
1.03900047
1.03900177
1.03900309
1.03900441
1.03900573
1.03900705
1.03900838
1.03900971
1.03901103
1.03901236
1.03901368
1.039015
1.03901631
1.03901763
1.03901893
1.03902023
1.03902153
1.03902281
1.03902409
1.03902537
1.03902663
1.03902788
1.03902912
1.03903036
1.03903158
1.03903279
1.03903399
1.03903517
1.03903635
1.03903751
1.03903866
1.03903979
1.03904092
1.03904202
1.03904312
1.0390442
1.03904526
1.03904632
1.03904735
1.03904838
1.03904938
1.03905038
1.03905136
1.03905232
1.03905327
1.0390542
1.03905512
1.03905603
1.03905692
1.0390578
1.03905866
1.03905951
1.03906035
1.03906117
1.03906198
1.03906277
1.03906355
1.03906432
1.03906508
1.03906582
1.03906656
1.03906727
1.03906798
1.03906868
1.03906936
1.03907004
1.0390707
1.03907135
1.03907199
1.03907263
1.03907325
1.03907386
1.03907447
1.03907506
1.03907565
1.03907622
1.03907679
1.03907735
1.03907791
1.03907845
1.03907899
1.03907952
1.03908005
1.03908056
1.03908108
1.03908158
1.03908208
1.03908257
1.03908306
1.03908354
1.03908402
1.03908449
1.03908496
1.03908542
1.03908588
1.03908634
1.03908679
1.03908723
1.03908767
1.03908811
1.03908854
1.03908897
1.0390894
1.03908982
1.03909024
1.03909066
1.03909107
1.03909148
1.03909188
1.03909229
1.03909269
1.03909308
1.03909348
1.03909387
1.03909425
1.03909464
1.03909502
1.0390954
1.03909577
1.03909614
1.03909651
1.03909688
1.03909724
1.0390976
1.03909796
1.03909831
1.03909866
1.03909901
1.03909935
1.0390997
1.03910003
1.03910037
1.0391007
1.03910103
1.03910135
1.03910167
1.03910199
1.0391023
1.03910261
1.03910292
1.03910322
1.03910352
1.03910382
1.03910411
1.0391044
1.03910469
1.03910497
1.03910525
1.03910552
1.03910579
1.03910606
1.03910632
1.03910658
1.03910684
1.03910709
1.03910734
1.03910759
1.03910783
1.03910807
1.03910831
1.03910854
1.03910877
1.039109
1.03910922
1.03910944
1.03910966
1.03910987
1.03911008
1.03911029
1.0391105
1.0391107
1.0391109
1.0391111
1.0391113
1.03911149
1.03911168
1.03911187
1.03911206
1.03911225
1.03911243
1.03911262
1.0391128
1.03911298
1.03911316
1.03911334
1.03911351
1.03911369
1.03911387
1.03911404
1.03911422
1.03911439
1.03911456
1.03911474
1.03911491
1.03911509
1.03911526
1.03911543
1.03911561
1.03911578
1.03911596
1.03911613
1.03911631
1.03911649
1.03911666
1.03911684
1.03911702
1.0391172
1.03911738
1.03911756
1.03911774
1.03911793
1.03911811
1.0391183
1.03911848
1.03911867
1.03911886
1.03911905
1.03911924
1.03911943
1.03911962
1.03911981
1.03912001
1.0391202
1.0391204
1.03912059
1.03912079
1.03912099
1.03912119
1.03912138
1.03912158
1.03912178
1.03912198
1.03912218
1.03912238
1.03912258
1.03912278
1.03912298
1.03912318
1.03912338
1.03912357
1.03912377
1.03912397
1.03912416
1.03912436
1.03912455
1.03912475
1.03912494
1.03912513
1.03912532
1.03912551
1.0391257
1.03912588
1.03912607
1.03912625
1.03912643
1.03912661
1.03912679
1.03912697
1.03912714
1.03912732
1.03912749
1.03912766
1.03912782
1.03912799
1.03912815
1.03912831
1.03912847
1.03912863
1.03912879
1.03912894
1.03912909
1.03912924
1.03912939
1.03912953
1.03912968
1.03912982
1.03912996
1.0391301
1.03913023
1.03913037
1.0391305
1.03913063
1.03913076
1.03913089
1.03913102
1.03913114
1.03913127
1.03913139
1.03913151
1.03913163
1.03913175
1.03913186
1.03913198
1.03913209
1.03913221
1.03913232
1.03913243
1.03913254
1.03913265
1.03913276
1.03913287
1.03913298
1.03913309
1.03913319
1.0391333
1.0391334
1.0391335
1.03913361
1.03913371
1.03913381
1.03913391
1.03913402
1.03913412
1.03913422
1.03913431
1.03913441
1.03913451
1.03913461
1.03913471
1.03913481
1.0391349
1.039135
1.0391351
1.03913519
1.03913529
1.03913538
1.03913548
1.03913557
1.03913567
1.03913576
1.03913586
1.03913595
1.03913604
1.03913614
1.03913623
1.03913633
1.03913642
1.03913651
1.03913661
1.0391367
1.0391368
1.0391369
1.03913699
1.03913709
1.03913719
1.03913729
1.03913738
1.03913749
1.03913759
1.03913769
1.03913779
1.0391379
1.03913801
1.03913811
1.03913823
1.03913834
1.03913845
1.03913857
1.03913869
1.03913882
1.03913894
1.03913907
1.03913921
1.03913934
1.03913948
1.03913963
1.03913978
1.03913994
1.0391401
1.03914027
1.03914044
1.03914062
1.03914081
1.039141
1.03914121
1.03914142
1.03914164
1.03914187
1.03914211
1.03914236
1.03914263
1.0391429
1.03914319
1.03914349
1.0391438
1.03914413
1.03914447
1.03914483
1.03914521
1.0391456
1.03914601
1.03914644
1.03914688
1.03914735
1.03914783
1.03914834
1.03914887
1.03914942
1.03914999
1.03915058
1.03915119
1.03915182
1.03915248
1.03915316
1.03915386
1.03915458
1.03915532
1.03915608
1.03915687
1.03915766
1.03915848
1.03915931
1.03916016
1.03916102
1.03916189
1.03916276
1.03916365
1.03916454
1.03916544
1.03916633
1.03916722
1.03916811
1.03916899
1.03916986
1.03917072
1.03917156
1.03917238
1.03917318
1.03917396
1.03917472
1.03917544
1.03917614
1.03917681
1.03917744
1.03917804
1.0391786
1.03917913
1.03917962
1.03918008
1.0391805
1.03918089
1.03918124
1.03918157
1.03918187
1.03918214
1.03918239
1.03918262
1.03918284
1.03918305
1.03918325
1.03918345
1.03918365
1.03918387
1.03918411
1.03918437
1.03918466
1.039185
1.03918539
1.03918584
1.03918637
1.03918698
1.0391877
1.03918855
1.03918955
1.03919071
1.03919209
1.0391937
1.0391956
1.03919782
1.03920081
1.03920388
1.03921837
1.03922257
1.03948275
1.03948862
1.04050022
1.0404727
0.860238819
0.85867108
0.447445493
0.419008288
0.325851625
0.316692026
0.286491757
0.283209013
0.271222593
0.270078356
0.265338365
0.265013279
0.263454629
0.263386081
0.26295235
0.262940879
0.262834353
0.262832813
0.262809387
0.262809095
0.262804361
0.262804181
0.26280321
0.262803063
0.262802797
0.262802676
0.262802546
0.262802447
0.262802353
0.262802271
0.262802195
0.262802127
0.262802064
0.262802007
0.262801955
0.262801907
0.262801862
0.262801821
0.262801783
0.262801747
0.262801713
0.262801681
0.26280165
0.26280162
0.262801592
0.262801563
0.262801535