/*--------------------------------*- C++ -*----------------------------------*\
| =========                 |                                                 |
| \\      /  F ield         | OpenFOAM: The Open Source CFD Toolbox           |
|  \\    /   O peration     | Version:  2206                                  |
|   \\  /    A nd           | Website:  www.openfoam.com                      |
|    \\/     M anipulation  |                                                 |
\*---------------------------------------------------------------------------*/
FoamFile
{
    version     2.0;
    format      ascii;
    arch        "LSB;label=32;scalar=64";
    class       volScalarField;
    location    "1.82e-05";
    object      sourcePV;
}
// * * * * * * * * * * * * * * * * * * * * * * * * * * * * * * * * * * * * * //

dimensions      [1 -3 -1 0 0 0 0];

internalField   nonuniform List<scalar> 
3183
(
0
0
0
0
0
0
0
0
0
0
0
0
0
0
0
0
0
0
0
0
0
0
0
0
0
0
0
0
0
0
0
0
0
0
0
0
0
0
0
0
0
0
0
0
0
0
0
0
0
0
0
0
0
0
0
0
0
0
0
0
0
0
0
0
0
0
0
0
0
0
0
0
0
0
0
0
0
0
0
0
0
0
0
0
0
0
0
0
0
0
0
0
0
0
0
0
0
0
0
0
0
0
0
0
0
0
0
0
0
0
0
0
0
0
0
0
0
0
0
0
0
0
0
0
0
0
0
0
0
0
0
0
0
0
0
0
0
0
0
0
0
0
0
0
0
0
0
0
0
0
0
0
0
0
0
0
0
0
0
0
0
0
0
0
0
0
0
0
0
0
0
0
0
0
0
0
0
0
0
0
0
0
0
0
0
0
0
0
0
0
0
0
0
0
0
0
0
0
0
0
0
0
0
0
0
0
0
0
0
0
0
0
0
0
0
0
0
0
0
0
0
0
0
0
0
0
0
0
0
0
0
0
0
0
0
0
0
0
0
0
0
0
0
0
0
0
0
0
0
0
0
0
0
0
0
0
0
0
0
0
0
0
0
0
0
0
0
0
0
0
0
0
0
0
0
0
0
0
0
0
0
0
0
0
0
0
0
0
0
0
0
0
0
0
0
0
0
0
0
0
0
0
0
0
0
0
0
0
0
0
0
0
0
0
0
0
0
0
0
0
0
0
0
0
0
0
0
0
0
0
0
0
0
0
0
0
0
0
0
0
0
0
0
0
0
0
0
0
0
0
0
0
0
0
0
0
0
0
0
0
0
0
0
0
0
0
0
0
0
0
0
0
0
0
0
0
0
0
0
0
0
0
0
0
0
0
0
0
0
0
0
0
0
0
0
0
0
0
0
0
0
0
0
0
0
0
0
0
0
0
0
0
0
0
0
0
0
0
0
0
0
0
0
0
0
0
0
0
0
0
0
0
0
0
0
0
0
0
0
0
0
0
0
0
0
0
0
0
0
0
0
0
0
0
0
0
0
0
0
0
0
0
0
0
0
0
0
0
0
0
0
0
0
0
0
0
0
0
0
0
0
0
0
0
0
0
0
0
0
0
0
0
0
0
0
0
0
0
0
0
0
0
0
0
0
0
0
0
0
0
0
0
0
0
0
0
0
0
0
0
0
0
0
0
0
0
0
0
0
0
0
0
0
0
0
0
0
0
0
0
0
0
0
0
0
0
0
0
0
0
0
0
0
0
0
0
0
0
0
0
0
0
0
0
0
0
0
0
0
0
0
0
0
0
0
0
0
0
0
0
0
0
0
0
0
0
0
0
0
0
0
0
0
0
0
0
0
0
0
0
0
0
0
0
0
0
0
0
0
0
0
0
0
0
0
0
0
0
0
0
0
0
0
0
0
0
0
0
0
0
0
0
0
0
0
0
0
0
0
0
0
0
0
0
0
0
0
0
0
0
0
0
0
0
0
0
0
0
0
0
0
0
0
0
0
0
0
0
0
0
0
0
0
0
0
0
0
0
0
0
0
0
0
0
0
0
0
0
0
0
0
0
0
0
0
0
0
0
0
0
0
0
0
0
0
0
0
0
0
0
0
0
0
0
0
0
0
0
0
0
0
0
0
0
0
0
0
0
0
0
0
0
0
0
0
0
0
0
0
0
0
0
0
0
0
0
0
0
0
0
0
0
0
0
0
0
0
0
0
0
0
0
0
0
0
0
0
0
0
0
0
0
0
0
0
0
0
0
0
0
0
0
0
0
0
0
0
0
0
0
0
0
0
0
0
0
0
0
0
0
0
0
0
0
0
0
0
0
0
0
0
0
0
0
0
0
0
0
0
0
0
0
0
0
0
0
0
0
0
0
0
0
0
0
0
0
0
0
0
0
0
0
0
0
0
0
0
0
0
0
0
0
0
0
0
0
0
0
0
0
0
0
0
0
0
0
0
0
0
0
0
0
0
0
0
0
0
0
0
0
0
0
0
0
0
0
0
0
0
0
0
0
0
0
0
0
0
0
0
0
0
0
0
0
0
0
0
0
0
0
0
0
0
0
0
0
0
0
0
0
0
0
0
0
0
0
0
0
0
0
0
0
0
0
0
0
0
0
0
0
0
0
0
0
0
0
0
0
0
0
0
0
0
0
0
0
0
0
0
0
0
0
0
0
0
0
0
0
0
0
0
0
0
0
0
0
0
0
0
0
0
0
0
0
0
0
0
0
0
0
0
0
0
0
0
0
0
0
0
0
0
0
0
0
0
0
0
0
0
0
0
0
0
0
0
0
0
0
0
0
0
0
0
0
0
0
0
0
0
0
0
0
0
0
0
0
0
0
0
0
0
0
0
0
0
0
0
0
0
0
0
0
0
0
0
0
0
0
0
0
0
0
0
0
0
0
0
0
0
0
0
0
0
0
0
0
0
0
0
0
0
0
0
0
0
0
0
0
0
0
0
0
0
0
0
0
0
0
0
0
0
0
0
0
0
0
0
0
0
0
0
0
0
0
0
0
0
0
0
0
0
0
0
0
0
0
0
0
0
0
0
0
0
0
0
0
0
0
0
0
0
0
0
0
0
0
0
0
0
0
0
0
0
0
0
0
0
0
0
0
0
0
0
0
0
0
0
0
0
0
0
0
0
0
0
0
0
0
0
0
0
0
0
0
0
0
0
0
0
0
0
0
0
0
0
0
0
0
0
0
0
0
0
0
0
0
0
0
0
0
0
0
0
0
0
0
0
0
0
0
0
0
0
0
0
0
0
0
0
0
0
0
0
0
0
0
0
0
0
0
0
0
0
0
0
0
0
0
0
0
0
0
0
0
0
0
0
0
0
0
0
0
0
0
0
0
0
0
0
0
0
0
0
0
0
0
0
0
0
0
0
0
0
0
0
0
0
0
0
0
0
0
0
0
0
0
0
0
0
0
0
0
0
0
0
0
0
0
0
0
0
0
0
0
0
0
0
0
0
0
0
0
0
0
0
0
0
0
0
0
0
0
0
0
0
0
0
0
0
0
0
0
0
0
0
0
0
0
0
0
0
0
0
0
0
0
0
0
0
0
0
0
0
0
0
0
0
0
0
0
0
0
0
0
0
0
0
0
0
0
0
0
0
0
0
0
0
0
0
0
0
0
0
0
0
0
0
0
0
0
0
0
0
0
0
0
0
0
0
0
0
0
0
0
0
0
0
0
0
0
0
0
0
0
0
0
0
0
0
0
0
0
0
0
0
0
0
0
0
0
0
0
0
0
0
0
0
0
0
0
0
0
0
0
0
0
0
0
0
0
0
0
0
0
0
0
0
0
0
0
0
0
0
0
0
0
0
0
0
0
0
0
0
0
0
0
0
0
0
0
0
0
0
0
0
0
0
0
0
0
0
0
0
0
0
0
0
0
0
0
0
0
0
0
0
0
0
0
0
0
0
0
0
0
0
0
0
0
0
0
0
0
0
0
0
0
0
0
0
0
0
0
0
0
0
0
0
0
0
0
0
0
0
0
0
0
0
0
0
0
0
0
0
0
0
0
0
0
0
0
0
0
0
0
0
0
0
0
0
0
0
0
0
0
0
0
0
0
0
0
0
0
0
0
0
0
0
0
0
0
0
0
0
0
0
0
0
0
0
0
0
0
0
0
0
0
0
0
0
0
0
0
0
0
0
0
0
0
0
0
0
0
0
0
0
0
0
0
0
0
0
0
0
0
0
0
0
0
0
0
0
0
0
0
0
0
0
0
0
0
0
0
0
0
0
0
0
0
0
0
0
0
0
0
0
0
0
0
0
0
0
0
0
0
0
0
0
0
0
0
0
0
0
0
0
0
0
0
0
0
0
0
0
0
0
0
0
0
0
0
0
0
0
0
0
0
0
0
0
0
0
0
0
0
0
0
0
0
0
0
0
0
0
0
0
0
0
0
0
0
0
0
0
0
0
0
0
0
0
0
0
0
0
0
0
0
0
0
0
0
0
0
0
0
0
0
0
0
0
0
0
0
0
0
0
0
0
0
0
0
0
0
0
0
0
0
0
0
0
0
0
0
0
0
0
0
0
0
0
0
0
0
0
0
0
0
0
0
0
0
0
0
0
0
0
0
0
0
0
0
0
0
0
0
0
0
0
0
0
0
0
0
0
0
0
0
0
0
0
0
0
0
0
0
0
0
0
0
0
0
0
0
0
0
0
0
0
0
0
0
0
0
0
0
0
0
0
0
0
0
0
0
0
0
0
0
0
0
0
0
0
0
0
0
0
0
0
0
0
0
0
0
0
0
0
0
0
0
0
0
0
0
0
0
0
0
0
0
0
0
0
0
0
0
0
0
0
0
0
0
0
0
0
0
0
0
0
0
0
0
0
0
0
0
0
0
0
0
0
0
0
0
0
0
0
0
0
0
0
0
0
0
0
0
0
0
0
0
0
0
0
0
0
0
0
0
0
0
0
0
0
0
0
0
0
0
0
0
0
0
0
0
0
0
0
0
0
0
0
0
0
0
0
0
0
0
0
0
0
0
0
0
0
0
0
0
0
0
0
0
0
0
0
0
0
0
0
0
0
0
0
0
0
0
0
0
0
0
0
0
0
0
0
0
0
0
0
0
0
0
0
0
0
0
0
0
0
0
0
0
0
0
0
0
0
0
0
0
0
0
0
0
0
0
0
0
0
0
0
0
0
0
0
0
0
0
0
0
0
0
0
0
0
0
0
0
0
0
0
0
0
0
0
0
0
0
0
0
0
0
0
0
0
0
0
0
0
0
0
0
0
0
0
0
0
0
0
0
0
0
0
0
0
0
0
0
0
0
0
0
0
0
0
0
0
0
0
0
0
0
0
0
0
0
0
0
0
0
0
0
0
0
0
0
0
0
0
0
0
0
0
0
0
0
0
0
0
0
0
0
0
0
0
0
0
0
0
0
0
0
0
0
0
0
0
0
0
0
0
0
0
0
0
0
0
0
0
0
0
0
0
0
0
0
0
0
0
0
0
0
0
0
0
0
0
0
0
0
0
0
0
0
0
0
0
0
0
0
0
0
0
0
0
0
0
0
0
0
0
0
0
0
0
0
0
0
0
0
0
0
0
0
0
0
0
0
0
0
0
0
0
0
0
0
0
0
0
0
0
0
0
0
0
0
0
0
0
0
0
0
0
0
0
0
0
0
0
0
0
0
0
0
0
0
0
0
0
0
0
0
0
0
0
0
0
0
0
0
0
0
0
0
0
0
0
0
0
0
0
0
0
0
0
0
0
0
0
0
0
0
0
0
0
0
0
0
0
0
0
0
0
0
0
0
0
0
0
0
0
0
0
0
0
0
0
7.50225486e-300
3.98582342e-300
3.75949769e-297
2.01517767e-297
1.86743979e-294
1.00984512e-294
9.19466007e-292
5.0157642e-292
4.48735075e-289
2.46919086e-289
2.17071135e-286
1.20475975e-286
1.04079157e-283
5.82596533e-284
4.94614059e-281
2.79222197e-281
2.32970517e-278
1.32628072e-278
1.08757082e-275
6.24337598e-276
5.03182929e-273
2.91268711e-273
2.3072526e-270
1.34658017e-270
1.04846472e-267
6.16955509e-268
4.72160755e-265
2.80117134e-265
2.10712688e-262
1.26004918e-262
9.3184348e-260
5.61835243e-260
4.08350284e-257
2.48215755e-257
1.77315155e-254
1.08676284e-254
7.6289858e-252
4.71280881e-252
3.25221998e-249
2.02487361e-249
1.37362667e-246
8.61932052e-247
5.74799071e-244
3.63486588e-244
2.38289062e-241
1.51854096e-241
9.78620509e-239
6.2844774e-239
3.98132288e-236
2.5763056e-236
1.60443952e-233
1.0461438e-233
6.40444339e-231
4.20756323e-231
2.53209482e-228
1.67607647e-228
9.91509136e-226
6.61239444e-226
3.84510751e-223
2.58346395e-223
1.47669654e-220
9.99541692e-221
5.61591027e-218
3.82938928e-218
2.11480065e-215
1.45265521e-215
7.88519464e-213
5.45598787e-213
2.91086122e-210
2.02877793e-210
1.06381991e-207
7.46822419e-208
3.8487765e-205
2.72139978e-205
1.37833457e-202
9.81587244e-203
4.88576238e-200
3.50425222e-200
1.7140482e-197
1.2381091e-197
5.95103986e-195
4.32898084e-195
2.04459269e-192
1.49775402e-192
6.95070151e-190
5.12728067e-190
2.33787289e-187
1.73655234e-187
7.779377e-185
5.81840531e-185
2.56070954e-182
1.92839123e-182
8.33730961e-180
6.32149483e-180
2.68471844e-177
2.04943817e-177
8.54937523e-175
6.57045856e-175
2.69207342e-172
2.08284161e-172
8.38124959e-170
6.52782906e-170
2.57959069e-167
2.02247819e-167
7.84805515e-165
6.19370193e-165
2.3598792e-162
1.87462822e-162
7.01260471e-160
5.60690914e-160
2.05908478e-157
1.65698492e-157
5.97331972e-155
4.83772698e-155
1.71176127e-152
1.39518199e-152
4.84499742e-150
3.97396261e-150
1.3542583e-147
1.11777517e-147
3.73765582e-145
3.10423657e-145
1.01839591e-142
8.51048228e-143
2.73892752e-140
2.30292178e-140
7.26967835e-138
6.14969649e-138
1.90389011e-135
1.62031153e-135
4.9190219e-133
4.21144815e-133
1.25354736e-130
1.07961019e-130
3.15020879e-128
2.72907909e-128
7.80517099e-126
6.80121197e-126
1.90622463e-123
1.67063334e-123
4.58790452e-121
4.04389795e-121
1.08792545e-118
9.64359027e-119
2.54108808e-116
2.26510133e-116
5.84470664e-114
5.23881278e-114
1.32345659e-111
1.19276659e-111
2.9494219e-109
2.67258189e-109
6.46717897e-107
5.89154877e-107
1.39478789e-104
1.27736411e-104
2.95784135e-102
2.72297809e-102
6.1654711e-100
5.70516677e-100
1.26277591e-97
1.17443914e-97
2.54033551e-95
2.37446644e-95
5.01751173e-93
4.71304795e-93
9.72606176e-91
9.18028012e-91
1.84946492e-88
1.75402798e-88
3.44837416e-86
3.28580235e-86
6.30128977e-84
6.0319433e-84
1.12789016e-81
1.08457185e-81
1.9764639e-79
1.90899939e-79
3.38878462e-77
3.28735229e-77
5.68152535e-75
5.53490671e-75
9.30824908e-73
9.10564101e-73
1.48919311e-70
1.46264352e-70
2.32483415e-68
2.29224e-68
3.53872636e-66
3.50193038e-66
5.24744831e-64
5.21034062e-64
7.57358208e-62
7.54145613e-62
1.06287767e-59
1.06049229e-59
1.44890128e-57
1.44666483e-57
1.91635956e-55
1.91140648e-55
2.45621648e-53
2.44307458e-53
3.04669919e-51
3.02032376e-51
3.65201246e-49
3.61539202e-49
4.22355299e-47
4.19517083e-47
4.7043822e-45
4.70034757e-45
5.0371656e-43
5.01654463e-43
5.17440329e-41
5.13612372e-41
5.08715136e-39
5.03469672e-39
4.77415419e-37
4.71426644e-37
4.2643795e-35
4.2053266e-35
3.61343975e-33
3.56270946e-33
2.8937798e-31
2.8506073e-31
2.18091212e-29
2.18133592e-29
1.53884003e-27
1.5363113e-27
1.01116821e-25
1.00668148e-25
6.14441766e-24
6.09949469e-24
3.42475518e-22
3.39414933e-22
1.73367065e-20
1.7195486e-20
7.87335551e-19
7.82778742e-19
3.15836651e-17
3.14414725e-17
1.09666889e-15
1.0913856e-15
3.20640124e-14
3.19252346e-14
7.58694016e-13
7.58447649e-13
1.867794e-11
1.87749507e-11
2.18634561e-08
2.2723828e-08
0.0503822894
0.217835923
6.57229567
8.01443003
9.49753376
8.75760797
3.70037654
3.08444931
0.74113998
0.604682102
0.156715794
0.140252182
0.0356113985
0.0329165406
0.00726480719
0.00695561137
0.00135642922
0.00133789227
0.000241821398
0.000241203564
4.56605556e-05
4.56457375e-05
1.34848132e-05
1.34846918e-05
8.56558782e-06
8.56733917e-06
7.86518411e-06
7.86519182e-06
7.77087544e-06
7.77090346e-06
7.75897335e-06
7.75897741e-06
7.75753227e-06
7.75755403e-06
7.75735857e-06
7.75738966e-06
7.75735743e-06
7.75735142e-06
7.75736053e-06
7.75733933e-06
7.75736462e-06
7.75733792e-06
7.75735911e-06
7.75735031e-06
7.75736625e-06
7.75735417e-06
7.75735882e-06
7.75735764e-06
7.75736377e-06
7.75735502e-06
7.75736436e-06
7.75736161e-06
7.75736475e-06
7.75736114e-06
7.75735711e-06
7.75736353e-06
7.75735005e-06
7.75737475e-06
7.75734964e-06
7.75736501e-06
7.75735086e-06
7.75736161e-06
7.75734719e-06
7.75735839e-06
7.75734426e-06
7.75735559e-06
7.75734648e-06
7.75736646e-06
7.75733571e-06
7.75737299e-06
7.75734395e-06
7.75735819e-06
7.75734909e-06
7.75736349e-06
7.75734449e-06
7.75737201e-06
7.75734359e-06
7.7573707e-06
7.7573529e-06
7.75736369e-06
7.75735383e-06
7.75735583e-06
7.75735352e-06
7.7573532e-06
7.75736406e-06
7.75734996e-06
7.75735782e-06
7.75734292e-06
7.75736672e-06
7.75733859e-06
7.75737782e-06
7.75734515e-06
7.75736418e-06
7.7573526e-06
7.75737642e-06
7.75734651e-06
7.75736852e-06
7.75735439e-06
7.75736042e-06
7.75736073e-06
7.75736402e-06
7.75735009e-06
7.75736592e-06
7.75735391e-06
7.75734734e-06
7.75737038e-06
7.75734958e-06
7.75735845e-06
7.75736164e-06
7.75735082e-06
7.7573618e-06
7.75735054e-06
7.75735412e-06
7.75735594e-06
7.75734901e-06
7.7573651e-06
7.75733622e-06
7.75737014e-06
7.7573507e-06
7.75737298e-06
7.75734349e-06
7.75737498e-06
7.75734573e-06
7.75735871e-06
7.75735923e-06
7.75736549e-06
7.75734981e-06
7.75737175e-06
7.75734914e-06
7.75736715e-06
7.75735828e-06
7.75736768e-06
7.75736382e-06
7.75737081e-06
7.75736715e-06
7.75737275e-06
7.75735918e-06
7.75736337e-06
7.75735496e-06
7.75736289e-06
7.75735684e-06
7.75735231e-06
7.75734658e-06
7.75736769e-06
7.75734164e-06
7.75735693e-06
7.7573474e-06
7.75735972e-06
7.75735608e-06
7.75735061e-06
7.75737909e-06
7.75733684e-06
7.75736912e-06
7.75734188e-06
7.75737485e-06
7.75735348e-06
7.75737001e-06
7.75734278e-06
7.75737238e-06
7.75734247e-06
7.75737898e-06
7.75734482e-06
7.75738028e-06
7.75735106e-06
7.75738452e-06
7.75735211e-06
7.75736259e-06
7.75736194e-06
7.75736137e-06
7.75734219e-06
7.75736021e-06
7.75734903e-06
7.75734816e-06
7.75737126e-06
7.75734843e-06
7.75740282e-06
7.75741204e-06
7.7577686e-06
7.75779901e-06
7.7596111e-06
7.75958533e-06
7.7577698e-06
7.75777521e-06
7.7574039e-06
7.75740226e-06
7.7573617e-06
7.75736463e-06
7.75735832e-06
7.757364e-06
7.7573522e-06
7.75736925e-06
7.75735051e-06
7.75737349e-06
7.75735702e-06
7.75736623e-06
7.75735362e-06
7.7573625e-06
7.75734993e-06
7.75737065e-06
7.75735005e-06
7.75737308e-06
7.75735221e-06
7.75738039e-06
7.7573443e-06
7.75738041e-06
7.75735127e-06
7.75735991e-06
7.75736042e-06
7.75736983e-06
7.7573579e-06
7.75736601e-06
7.75735978e-06
7.75736653e-06
7.75735784e-06
7.75736732e-06
7.75736476e-06
7.75736515e-06
7.75736366e-06
7.75736089e-06
7.75737031e-06
7.75735936e-06
7.75736619e-06
7.75735975e-06
7.75737363e-06
7.75736156e-06
7.75735769e-06
7.75737557e-06
7.75734899e-06
7.75737094e-06
7.75736186e-06
7.75736084e-06
7.75736404e-06
7.7573709e-06
7.75735835e-06
7.75736427e-06
7.75737121e-06
7.75736423e-06
7.75736903e-06
7.75736964e-06
7.75736794e-06
7.75737034e-06
7.7573804e-06
7.75735373e-06
7.75738312e-06
7.75735006e-06
7.75737982e-06
7.75734689e-06
7.75736876e-06
7.75735714e-06
7.75735558e-06
7.75737458e-06
7.75736426e-06
7.75735746e-06
7.75735963e-06
7.75736879e-06
7.75736599e-06
7.75735298e-06
7.75737436e-06
7.75735985e-06
7.75737607e-06
7.75736423e-06
7.75738149e-06
7.75736482e-06
7.75736274e-06
7.75736734e-06
7.75735401e-06
7.75736834e-06
7.75735299e-06
7.75736597e-06
7.75735507e-06
7.75738225e-06
7.75735105e-06
7.75737017e-06
7.75736412e-06
7.75736307e-06
7.75737188e-06
7.75735917e-06
7.75736822e-06
7.75736e-06
7.75735792e-06
7.75736821e-06
7.75736085e-06
7.75736467e-06
7.75735908e-06
7.7573639e-06
7.75735715e-06
7.75736726e-06
7.75736247e-06
7.75736268e-06
7.75737139e-06
7.75736728e-06
7.75736965e-06
7.7573698e-06
7.75735685e-06
7.75735922e-06
7.75736444e-06
7.75735776e-06
7.75737075e-06
7.7573737e-06
7.75736583e-06
7.75737483e-06
7.75737209e-06
7.75736889e-06
7.75736993e-06
7.75736443e-06
7.75737858e-06
7.75736165e-06
7.75736079e-06
7.75735606e-06
7.75737284e-06
7.75734652e-06
7.75736712e-06
7.75735483e-06
7.757374e-06
7.75736477e-06
7.75736668e-06
7.75736949e-06
7.75736271e-06
7.75737445e-06
7.75735462e-06
7.75737577e-06
7.75734139e-06
7.75738662e-06
7.75735583e-06
7.75738108e-06
7.7573578e-06
7.75736733e-06
7.75736713e-06
7.75737817e-06
7.757363e-06
7.75737561e-06
7.75736003e-06
7.75736122e-06
7.75736547e-06
7.75736696e-06
7.75736671e-06
7.75736576e-06
7.75737845e-06
7.7573615e-06
7.75736665e-06
7.75737255e-06
7.75737362e-06
7.75736852e-06
7.75737177e-06
7.75737465e-06
7.75736803e-06
7.75736668e-06
7.75736673e-06
7.75737237e-06
7.75736352e-06
7.75737397e-06
7.75737012e-06
7.75736629e-06
7.75736418e-06
7.75735517e-06
7.75736722e-06
7.75737083e-06
7.75736187e-06
7.75737622e-06
7.75736285e-06
7.75736815e-06
7.75736787e-06
7.75736959e-06
7.7573728e-06
7.75736658e-06
7.75736555e-06
7.75737623e-06
7.75736792e-06
7.75738204e-06
7.75736388e-06
7.75737421e-06
7.75737e-06
7.75737131e-06
7.75737123e-06
7.75738729e-06
7.75736156e-06
7.75737874e-06
7.75737034e-06
7.75737922e-06
7.75736981e-06
7.75737609e-06
7.7573685e-06
7.75737825e-06
7.7573638e-06
7.75737902e-06
7.75736798e-06
7.75736453e-06
7.75738321e-06
7.7573558e-06
7.75737199e-06
7.75735997e-06
7.75737002e-06
7.75737094e-06
7.75736607e-06
7.75737978e-06
7.75737056e-06
7.75736693e-06
7.75737378e-06
7.75736943e-06
7.75737405e-06
7.75737326e-06
7.75736442e-06
7.75736252e-06
7.75738323e-06
7.75734755e-06
7.75738397e-06
7.7573546e-06
7.75738212e-06
7.75736979e-06
7.7573704e-06
7.75737589e-06
7.75736939e-06
7.75738374e-06
7.75736991e-06
7.75736713e-06
7.75737497e-06
7.75736725e-06
7.75737861e-06
7.75738097e-06
7.75737775e-06
7.75737462e-06
7.75737718e-06
7.7573608e-06
7.75739528e-06
7.75736302e-06
7.75738812e-06
7.75737111e-06
7.75737416e-06
7.75736947e-06
7.75737851e-06
7.75737321e-06
7.75737585e-06
7.75737616e-06
7.75737615e-06
7.75738981e-06
7.75737137e-06
7.75738465e-06
7.75736928e-06
7.75737817e-06
7.7573808e-06
7.75737523e-06
7.75738545e-06
7.75736218e-06
7.75738025e-06
7.75737212e-06
7.75738163e-06
7.75737606e-06
7.75737684e-06
7.75737744e-06
7.75737873e-06
7.75737304e-06
7.75737747e-06
7.75737263e-06
7.75736587e-06
7.75737215e-06
7.75737774e-06
7.75737431e-06
7.75736984e-06
7.7573715e-06
7.75738349e-06
7.75736804e-06
7.75737839e-06
7.75736057e-06
7.75738762e-06
7.75736461e-06
7.75739292e-06
7.75737891e-06
7.75738111e-06
7.75737697e-06
7.75738301e-06
7.75736694e-06
7.7573824e-06
7.75736421e-06
7.75736952e-06
7.75738027e-06
7.75737593e-06
7.75737435e-06
7.75738709e-06
7.75737275e-06
7.75737362e-06
7.75736901e-06
7.75737256e-06
7.75737456e-06
7.7573793e-06
7.75736903e-06
7.75737518e-06
7.75737714e-06
7.75736135e-06
7.75738227e-06
7.75736214e-06
7.7573898e-06
7.75736592e-06
7.75739396e-06
7.75736645e-06
7.75739699e-06
7.75735848e-06
7.75738921e-06
7.75737245e-06
7.75737468e-06
7.75737517e-06
7.75737872e-06
7.7573773e-06
7.75737908e-06
7.75737909e-06
7.75737674e-06
7.75736214e-06
7.75738635e-06
7.75737144e-06
7.75737896e-06
7.75738116e-06
7.75737904e-06
7.7573723e-06
7.75737855e-06
7.75737667e-06
7.75737897e-06
7.75737594e-06
7.75737951e-06
7.75738013e-06
7.75737662e-06
7.75737695e-06
7.75737969e-06
7.75737906e-06
7.75738044e-06
7.75737782e-06
7.75738062e-06
7.75737871e-06
7.75737986e-06
7.75738025e-06
7.75738134e-06
7.75738051e-06
7.75738137e-06
7.75738278e-06
7.75738306e-06
7.75738241e-06
7.75738381e-06
7.75738461e-06
7.75738435e-06
7.75738547e-06
7.75738624e-06
7.75738772e-06
7.75738808e-06
7.75738904e-06
7.75739036e-06
7.75739114e-06
7.75739258e-06
7.75739437e-06
7.75739607e-06
7.75739725e-06
7.75739983e-06
7.75740213e-06
7.75740495e-06
7.7574083e-06
7.75741189e-06
7.75741609e-06
7.75742052e-06
7.75742465e-06
7.75742792e-06
7.75743029e-06
7.75743205e-06
7.75743336e-06
7.75743359e-06
7.75743397e-06
7.75743403e-06
7.75743394e-06
7.75743411e-06
7.75743416e-06
7.75743389e-06
7.75743426e-06
7.75743385e-06
7.75743389e-06
7.75743394e-06
7.75743394e-06
7.75743389e-06
7.75743391e-06
7.75743396e-06
7.75743394e-06
7.75743377e-06
7.75743421e-06
)
;

boundaryField
{
    closed
    {
        type            calculated;
        value           uniform 0;
    }
    open
    {
        type            calculated;
        value           uniform 0;
    }
    sides
    {
        type            empty;
    }
}


// ************************************************************************* //
