/*--------------------------------*- C++ -*----------------------------------*\
| =========                 |                                                 |
| \\      /  F ield         | OpenFOAM: The Open Source CFD Toolbox           |
|  \\    /   O peration     | Version:  2206                                  |
|   \\  /    A nd           | Website:  www.openfoam.com                      |
|    \\/     M anipulation  |                                                 |
\*---------------------------------------------------------------------------*/
FoamFile
{
    version     2.0;
    format      ascii;
    arch        "LSB;label=32;scalar=64";
    class       volScalarField;
    location    "1.78e-05";
    object      p;
}
// * * * * * * * * * * * * * * * * * * * * * * * * * * * * * * * * * * * * * //

dimensions      [1 -1 -2 0 0 0 0];

internalField   nonuniform List<scalar> 
3183
(
101325
101325
101325
101325
101325
101325
101325
101325
101325
101325
101325
101325
101325
101325
101325
101325
101325
101325
101325
101325
101325
101325
101325
101325
101325
101325
101325
101325
101325
101325
101325
101325
101325
101325
101325
101325
101325
101325
101325
101325
101325
101325
101325
101325
101325
101325
101325
101325
101325
101325
101325
101325
101325
101325
101325
101325
101325
101325
101325
101325
101325
101325
101325
101325
101325
101325
101325
101325
101325
101325
101325
101325
101325
101325
101325
101325
101325
101325
101325
101325
101325
101325
101325
101325
101325
101325
101325
101325
101325
101325
101325
101325
101325
101325
101325
101325
101325
101325
101325
101325
101325
101325
101325
101325
101325
101325
101325
101325
101325
101325
101325
101325
101325
101325
101325
101325
101325
101325
101325
101325
101325
101325
101325
101325
101325
101325
101325
101325
101325
101325
101325
101325
101325
101325
101325
101325
101325
101325
101325
101325
101325
101325
101325
101325
101325
101325
101325
101325
101325
101325
101325
101325
101325
101325
101325
101325
101325
101325
101325
101325
101325
101325
101325
101325
101325
101325
101325
101325
101325
101325
101325
101325
101325
101325
101325
101325
101325
101325
101325
101325
101325
101325
101325
101325
101325
101325
101325
101325
101325
101325
101325
101325
101325
101325
101325
101325
101325
101325
101325
101325
101325
101325
101325
101325
101325
101325
101325
101325
101325
101325
101325
101325
101325
101325
101325
101325
101325
101325
101325
101325
101325
101325
101325
101325
101325
101325
101325
101325
101325
101325
101325
101325
101325
101325
101325
101325
101325
101325
101325
101325
101325
101325
101325
101325
101325
101325
101325
101325
101325
101325
101325
101325
101325
101325
101325
101325
101325
101325
101325
101325
101325
101325
101325
101325
101325
101325
101325
101325
101325
101325
101325
101325
101325
101325
101325
101325
101325
101325
101325
101325
101325
101325
101325
101325
101325
101325
101325
101325
101325
101325
101325
101325
101325
101325
101325
101325
101325
101325
101325
101325
101325
101325
101325
101325
101325
101325
101325
101325
101325
101325
101325
101325
101325
101325
101325
101325
101325
101325
101325
101325
101325
101325
101325
101325
101325
101325
101325
101325
101325
101325
101325
101325
101325
101325
101325
101325
101325
101325
101325
101325
101325
101325
101325
101325
101325
101325
101325
101325
101325
101325
101325
101325
101325
101325
101325
101325
101325
101325
101325
101325
101325
101325
101325
101325
101325
101325
101325
101325
101325
101325
101325
101325
101325
101325
101325
101325
101325
101325
101325
101325
101325
101325
101325
101325
101325
101325
101325
101325
101325
101325
101325
101325
101325
101325
101325
101325
101325
101325
101325
101325
101325
101325
101325
101325
101325
101325
101325
101325
101325
101325
101325
101325
101325
101325
101325
101325
101325
101325
101325
101325
101325
101325
101325
101325
101325
101325
101325
101325
101325
101325
101325
101325
101325
101325
101325
101325
101325
101325
101325
101325
101325
101325
101325
101325
101325
101325
101325
101325
101325
101325
101325
101325
101325
101325
101325
101325
101325
101325
101325
101325
101325
101325
101325
101325
101325
101325
101325
101325
101325
101325
101325
101325
101325
101325
101325
101325
101325
101325
101325
101325
101325
101325
101325
101325
101325
101325
101325
101325
101325
101325
101325
101325
101325
101325
101325
101325
101325
101325
101325
101325
101325
101325
101325
101325
101325
101325
101325
101325
101325
101325
101325
101325
101325
101325
101325
101325
101325
101325
101325
101325
101325
101325
101325
101325
101325
101325
101325
101325
101325
101325
101325
101325
101325
101325
101325
101325
101325
101325
101325
101325
101325
101325
101325
101325
101325
101325
101325
101325
101325
101325
101325
101325
101325
101325
101325
101325
101325
101325
101325
101325
101325
101325
101325
101325
101325
101325
101325
101325
101325
101325
101325
101325
101325
101325
101325
101325
101325
101325
101325
101325
101325
101325
101325
101325
101325
101325
101325
101325
101325
101325
101325
101325
101325
101325
101325
101325
101325
101325
101325
101325
101325
101325
101325
101325
101325
101325
101325
101325
101325
101325
101325
101325
101325
101325
101325
101325
101325
101325
101325
101325
101325
101325
101325
101325
101325
101325
101325
101325
101325
101325
101325
101325
101325
101325
101325
101325
101325
101325
101325
101325
101325
101325
101325
101325
101325
101325
101325
101325
101325
101325
101325
101325
101325
101325
101325
101325
101325
101325
101325
101325
101325
101325
101325
101325
101325
101325
101325
101325
101325
101325
101325
101325
101325
101325
101325
101325
101325
101325
101325
101325
101325
101325
101325
101325
101325
101325
101325
101325
101325
101325
101325
101325
101325
101325
101325
101325
101325
101325
101325
101325
101325
101325
101325
101325
101325
101325
101325
101325
101325
101325
101325
101325
101325
101325
101325
101325
101325
101325
101325
101325
101325
101325
101325
101325
101325
101325
101325
101325
101325
101325
101325
101325
101325
101325
101325
101325
101325
101325
101325
101325
101325
101325
101325
101325
101325
101325
101325
101325
101325
101325
101325
101325
101325
101325
101325
101325
101325
101325
101325
101325
101325
101325
101325
101325
101325
101325
101325
101325
101325
101325
101325
101325
101325
101325
101325
101325
101325
101325
101325
101325
101325
101325
101325
101325
101325
101325
101325
101325
101325
101325
101325
101325
101325
101325
101325
101325
101325
101325
101325
101325
101325
101325
101325
101325
101325
101325
101325
101325
101325
101325
101325
101325
101325
101325
101325
101325
101325
101325
101325
101325
101325
101325
101325
101325
101325
101325
101325
101325
101325
101325
101325
101325
101325
101325
101325
101325
101325
101325
101325
101325
101325
101325
101325
101325
101325
101325
101325
101325
101325
101325
101325
101325
101325
101325
101325
101325
101325
101325
101325
101325
101325
101325
101325
101325
101325
101325
101325
101325
101325
101325
101325
101325
101325
101325
101325
101325
101325
101325
101325
101325
101325
101325
101325
101325
101325
101325
101325
101325
101325
101325
101325
101325
101325
101325
101325
101325
101325
101325
101325
101325
101325
101325
101325
101325
101325
101325
101325
101325
101325
101325
101325
101325
101325
101325
101325
101325
101325
101325
101325
101325
101325
101325
101325
101325
101325
101325
101325
101325
101325
101325
101325
101325
101325
101325
101325
101325
101325
101325
101325
101325
101325
101325
101325
101325
101325
101325
101325
101325
101325
101325
101325
101325
101325
101325
101325
101325
101325
101325
101325
101325
101325
101325
101325
101325
101325
101325
101325
101325
101325
101325
101325
101325
101325
101325
101325
101325
101325
101325
101325
101325
101325
101325
101325
101325
101325
101325
101325
101325
101325
101325
101325
101325
101325
101325
101325
101325
101325
101325
101325
101325
101325
101325
101325
101325
101325
101325
101325
101325
101325
101325
101325
101325
101325
101325
101325
101325
101325
101325
101325
101325
101325
101325
101325
101325
101325
101325
101325
101325
101325
101325
101325
101325
101325
101325
101325
101325
101325
101325
101325
101325
101325
101325
101325
101325
101325
101325
101325
101325
101325
101325
101325
101325
101325
101325
101325
101325
101325
101325
101325
101325
101325
101325
101325
101325
101325
101325
101325
101325
101325
101325
101325
101325
101325
101325
101325
101325
101325
101325
101325
101325
101325
101325
101325
101325
101325
101325
101325
101325
101325
101325
101325
101325
101325
101325
101325
101325
101325
101325
101325
101325
101325
101325
101325
101325
101325
101325
101325
101325
101325
101325
101325
101325
101325
101325
101325
101325
101325
101325
101325
101325
101325
101325
101325
101325
101325
101325
101325
101325
101325
101325
101325
101325
101325
101325
101325
101325
101325
101325
101325
101325
101325
101325
101325
101325
101325
101325
101325
101325
101325
101325
101325
101325
101325
101325
101325
101325
101325
101325
101325
101325
101325
101325
101325
101325
101325
101325
101325
101325
101325
101325
101325
101325
101325
101325
101325
101325
101325
101325
101325
101325
101325
101325
101325
101325
101325
101325
101325
101325
101325
101325
101325
101325
101325
101325
101325
101325
101325
101325
101325
101325
101325
101325
101325
101325
101325
101325
101325
101325
101325
101325
101325
101325
101325
101325
101325
101325
101325
101325
101325
101325
101325
101325
101325
101325
101325
101325
101325
101325
101325
101325
101325
101325
101325
101325
101325
101325
101325
101325
101325
101325
101325
101325
101325
101325
101325
101325
101325
101325
101325
101325
101325
101325
101325
101325
101325
101325
101325
101325
101325
101325
101325
101325
101325
101325
101325
101325
101325
101325
101325
101325
101325
101325
101325
101325
101325
101325
101325
101325
101325
101325
101325
101325
101325
101325
101325
101325
101325
101325
101325
101325
101325
101325
101325
101325
101325
101325
101325
101325
101325
101325
101325
101325
101325
101325
101325
101325
101325
101325
101325
101325
101325
101325
101325
101325
101325
101325
101325
101325
101325
101325
101325
101325
101325
101325
101325
101325
101325
101325
101325
101325
101325
101325
101325
101325
101325
101325
101325
101325
101325
101325
101325
101325
101325
101325
101325
101325
101325
101325
101325
101325
101325
101325
101325
101325
101325
101325
101325
101325
101325
101325
101325
101325
101325
101325
101325
101325
101325
101325
101325
101325
101325
101325
101325
101325
101325
101325
101325
101325
101325
101325
101325
101325
101325
101325
101325
101325
101325
101325
101325
101325
101325
101325
101325
101325
101325
101325
101325
101325
101325
101325
101325
101325
101325
101325
101325
101325
101325
101325
101325
101325
101325
101325
101325
101325
101325
101325
101325
101325
101325
101325
101325
101325
101325
101325
101325
101325
101325
101325
101325
101325
101325
101325
101325
101325
101325
101325
101325
101325
101325
101325
101325
101325
101325
101325
101325
101325
101325
101325
101325
101325
101325
101325
101325
101325
101325
101325
101325
101325
101325
101325
101325
101325
101325
101325
101325
101325
101325
101325
101325
101325
101325
101325
101325
101325
101325
101325
101325
101325
101325
101325
101325
101325
101325
101325
101325
101325
101325
101325
101325
101325
101325
101325
101325
101325
101325
101325
101325
101325
101325
101325
101325
101325
101325
101325
101325
101325
101325
101325
101325
101325
101325
101325
101325
101325
101325
101325
101325
101325
101325
101325
101325
101325
101325
101325
101325
101325
101325
101325
101325
101325
101325
101325
101325
101325
101325
101325
101325
101325
101325
101325
101325
101325
101325
101325
101325
101325
101325
101325
101325
101325
101325
101325
101325
101325
101325
101325
101325
101325
101325
101325
101325
101325
101325
101325
101325
101325
101325
101325
101325
101325
101325
101325
101325
101325
101325
101325
101325
101325
101325
101325
101325
101325
101325
101325
101325
101325
101325
101325
101325
101325
101325
101325
101325
101325
101325
101325
101325
101325
101325
101325
101325
101325
101325
101325
101325
101325
101325
101325
101325
101325
101325
101325
101325
101325
101325
101325
101325
101325
101325
101325
101325
101325
101325
101325
101325
101325
101325
101325
101325
101325
101325
101325
101325
101325
101325
101325
101325
101325
101325
101325
101325
101325
101325
101325
101325
101325
101325
101325
101325
101325
101325
101325
101325
101325
101325
101325
101325
101325
101325
101325
101325
101325
101325
101325
101325
101325
101325
101325
101325
101325
101325
101325
101325
101325
101325
101325
101325
101325
101325
101325
101325
101325
101325
101325
101325
101325
101325
101325
101325
101325
101325
101325
101325
101325
101325
101325
101325
101325
101325
101325
101325
101325
101325
101325
101325
101325
101325
101325
101325
101325
101325
101325
101325
101325
101325
101325
101325
101325
101325
101325
101325
101325
101325
101325
101325
101325
101325
101325
101325
101325
101325
101325
101325
101325
101325
101325
101325
101325
101325
101325
101325
101325
101325
101325
101325
101325
101325
101325
101325
101325
101324.999
101324.999
101324.999
101324.999
101324.999
101324.999
101324.999
101324.999
101324.999
101324.999
101324.999
101324.999
101324.999
101324.999
101324.999
101324.999
101324.999
101324.999
101324.999
101324.999
101324.998
101324.998
101324.998
101324.998
101324.998
101324.998
101324.998
101324.998
101324.998
101324.997
101324.997
101324.997
101324.997
101324.997
101324.997
101324.996
101324.996
101324.996
101324.996
101324.996
101324.995
101324.995
101324.995
101324.994
101324.994
101324.994
101324.994
101324.993
101324.993
101324.992
101324.992
101324.992
101324.991
101324.991
101324.99
101324.99
101324.989
101324.989
101324.988
101324.987
101324.987
101324.986
101324.985
101324.984
101324.984
101324.983
101324.982
101324.981
101324.98
101324.979
101324.978
101324.977
101324.976
101324.975
101324.973
101324.972
101324.97
101324.969
101324.967
101324.966
101324.964
101324.962
101324.961
101324.959
101324.957
101324.955
101324.952
101324.95
101324.948
101324.945
101324.943
101324.94
101324.937
101324.934
101324.931
101324.928
101324.924
101324.921
101324.917
101324.913
101324.909
101324.905
101324.9
101324.896
101324.891
101324.886
101324.881
101324.876
101324.87
101324.864
101324.858
101324.852
101324.845
101324.838
101324.831
101324.824
101324.816
101324.808
101324.8
101324.791
101324.782
101324.773
101324.763
101324.753
101324.742
101324.731
101324.72
101324.708
101324.696
101324.684
101324.67
101324.657
101324.643
101324.628
101324.613
101324.597
101324.581
101324.564
101324.546
101324.528
101324.509
101324.49
101324.469
101324.449
101324.427
101324.405
101324.381
101324.357
101324.333
101324.307
101324.281
101324.253
101324.225
101324.196
101324.166
101324.134
101324.102
101324.069
101324.035
101323.999
101323.963
101323.925
101323.887
101323.847
101323.805
101323.763
101323.719
101323.674
101323.627
101323.58
101323.53
101323.479
101323.427
101323.374
101323.318
101323.261
101323.203
101323.143
101323.081
101323.018
101322.953
101322.886
101322.817
101322.746
101322.674
101322.599
101322.523
101322.445
101322.365
101322.282
101322.198
101322.111
101322.023
101321.932
101321.839
101321.744
101321.647
101321.547
101321.445
101321.341
101321.234
101321.125
101321.013
101320.899
101320.783
101320.664
101320.543
101320.419
101320.292
101320.163
101320.031
101319.897
101319.76
101319.62
101319.478
101319.333
101319.185
101319.035
101318.882
101318.726
101318.568
101318.406
101318.242
101318.076
101317.906
101317.734
101317.559
101317.381
101317.201
101317.018
101316.832
101316.644
101316.452
101316.259
101316.062
101315.863
101315.662
101315.458
101315.251
101315.042
101314.831
101314.617
101314.4
101314.182
101313.961
101313.738
101313.512
101313.285
101313.055
101312.824
101312.59
101312.355
101312.117
101311.878
101311.638
101311.395
101311.151
101310.906
101310.659
101310.411
101310.162
101309.911
101309.66
101309.407
101309.154
101308.9
101308.645
101308.39
101308.134
101307.878
101307.621
101307.364
101307.108
101306.851
101306.595
101306.338
101306.083
101305.827
101305.573
101305.319
101305.066
101304.814
101304.563
101304.313
101304.064
101303.817
101303.572
101303.328
101303.087
101302.847
101302.609
101302.373
101302.14
101301.909
101301.681
101301.456
101301.233
101301.013
101300.796
101300.582
101300.372
101300.165
101299.961
101299.761
101299.564
101299.372
101299.183
101298.998
101298.817
101298.641
101298.468
101298.3
101298.137
101297.978
101297.823
101297.673
101297.528
101297.388
101297.252
101297.121
101296.996
101296.875
101296.759
101296.649
101296.543
101296.443
101296.348
101296.258
101296.173
101296.094
101296.02
101295.951
101295.888
101295.829
101295.776
101295.729
101295.686
101295.649
101295.617
101295.59
101295.569
101295.552
101295.541
101295.534
101295.533
101295.537
101295.545
101295.559
101295.577
101295.599
101295.627
101295.659
101295.695
101295.736
101295.782
101295.831
101295.885
101295.942
101296.004
101296.07
101296.139
101296.212
101296.289
101296.369
101296.452
101296.539
101296.628
101296.721
101296.817
101296.916
101297.017
101297.121
101297.227
101297.336
101297.447
101297.56
101297.675
101297.792
101297.911
101298.031
101298.153
101298.276
101298.401
101298.527
101298.654
101298.782
101298.911
101299.04
101299.171
101299.302
101299.433
101299.565
101299.697
101299.829
101299.961
101300.093
101300.226
101300.358
101300.489
101300.621
101300.752
101300.882
101301.012
101301.141
101301.27
101301.398
101301.525
101301.651
101301.776
101301.9
101302.023
101302.145
101302.266
101302.386
101302.504
101302.621
101302.737
101302.852
101302.965
101303.077
101303.188
101303.297
101303.404
101303.51
101303.615
101303.718
101303.82
101303.92
101304.019
101304.117
101304.212
101304.307
101304.4
101304.491
101304.581
101304.669
101304.756
101304.842
101304.926
101305.009
101305.09
101305.17
101305.249
101305.326
101305.402
101305.476
101305.55
101305.622
101305.693
101305.763
101305.831
101305.899
101305.965
101306.03
101306.094
101306.158
101306.22
101306.281
101306.341
101306.4
101306.458
101306.516
101306.572
101306.628
101306.683
101306.737
101306.791
101306.844
101306.896
101306.947
101306.998
101307.048
101307.097
101307.146
101307.194
101307.242
101307.289
101307.336
101307.382
101307.428
101307.473
101307.518
101307.563
101307.607
101307.65
101307.694
101307.737
101307.779
101307.821
101307.863
101307.905
101307.946
101307.987
101308.027
101308.067
101308.107
101308.147
101308.186
101308.225
101308.264
101308.303
101308.341
101308.379
101308.416
101308.454
101308.491
101308.528
101308.564
101308.6
101308.636
101308.672
101308.707
101308.742
101308.777
101308.812
101308.846
101308.879
101308.913
101308.946
101308.979
101309.012
101309.044
101309.076
101309.107
101309.138
101309.169
101309.2
101309.23
101309.26
101309.289
101309.318
101309.347
101309.375
101309.403
101309.431
101309.458
101309.485
101309.512
101309.538
101309.563
101309.589
101309.614
101309.638
101309.663
101309.687
101309.71
101309.734
101309.756
101309.779
101309.801
101309.823
101309.845
101309.866
101309.887
101309.908
101309.928
101309.948
101309.968
101309.988
101310.007
101310.026
101310.045
101310.063
101310.082
101310.1
101310.118
101310.136
101310.153
101310.171
101310.188
101310.206
101310.223
101310.24
101310.257
101310.274
101310.29
101310.307
101310.324
101310.34
101310.357
101310.374
101310.39
101310.407
101310.424
101310.44
101310.457
101310.474
101310.49
101310.507
101310.524
101310.541
101310.558
101310.576
101310.593
101310.61
101310.628
101310.646
101310.663
101310.681
101310.699
101310.717
101310.735
101310.754
101310.772
101310.791
101310.809
101310.828
101310.847
101310.866
101310.885
101310.904
101310.924
101310.943
101310.962
101310.982
101311.001
101311.021
101311.041
101311.06
101311.08
101311.1
101311.12
101311.139
101311.159
101311.179
101311.199
101311.218
101311.238
101311.258
101311.277
101311.297
101311.316
101311.336
101311.355
101311.374
101311.393
101311.412
101311.43
101311.449
101311.467
101311.486
101311.504
101311.522
101311.539
101311.557
101311.574
101311.592
101311.609
101311.625
101311.642
101311.658
101311.675
101311.691
101311.706
101311.722
101311.737
101311.752
101311.767
101311.782
101311.797
101311.811
101311.825
101311.839
101311.853
101311.867
101311.88
101311.893
101311.906
101311.919
101311.932
101311.944
101311.957
101311.969
101311.981
101311.993
101312.005
101312.016
101312.028
101312.039
101312.051
101312.062
101312.073
101312.084
101312.095
101312.106
101312.117
101312.127
101312.138
101312.148
101312.159
101312.169
101312.179
101312.189
101312.2
101312.21
101312.22
101312.23
101312.24
101312.249
101312.259
101312.269
101312.279
101312.288
101312.298
101312.308
101312.317
101312.327
101312.336
101312.345
101312.355
101312.364
101312.373
101312.382
101312.392
101312.401
101312.41
101312.419
101312.428
101312.437
101312.446
101312.455
101312.464
101312.473
101312.482
101312.491
101312.5
101312.509
101312.518
101312.527
101312.536
101312.545
101312.554
101312.563
101312.572
101312.581
101312.59
101312.599
101312.609
101312.618
101312.628
101312.638
101312.647
101312.657
101312.667
101312.678
101312.688
101312.699
101312.709
101312.72
101312.732
101312.743
101312.755
101312.767
101312.78
101312.793
101312.806
101312.82
101312.834
101312.849
101312.864
101312.88
101312.897
101312.914
101312.932
101312.951
101312.97
101312.991
101313.012
101313.035
101313.058
101313.083
101313.109
101313.136
101313.165
101313.195
101313.227
101313.26
101313.295
101313.332
101313.371
101313.412
101313.455
101313.5
101313.547
101313.597
101313.649
101313.704
101313.762
101313.822
101313.884
101313.949
101314.017
101314.088
101314.162
101314.238
101314.317
101314.398
101314.482
101314.568
101314.657
101314.747
101314.84
101314.934
101315.03
101315.126
101315.224
101315.322
101315.421
101315.519
101315.617
101315.714
101315.81
101315.904
101315.997
101316.086
101316.173
101316.257
101316.337
101316.413
101316.485
101316.552
101316.615
101316.673
101316.726
101316.774
101316.817
101316.855
101316.888
101316.917
101316.941
101316.961
101316.978
101316.991
101317.001
101317.008
101317.014
101317.017
101317.02
101317.021
101317.022
101317.023
101317.024
101317.025
101317.027
101317.03
101317.033
101317.038
101317.043
101317.05
101317.056
101317.071
101317.112
101317.087
101317.532
101317.612
101317.525
101317.043
101316.9
101316.83
101316.874
101316.885
101316.935
101316.951
101316.996
101317.008
101317.029
101317.03
101317.033
101317.03
101317.028
101317.025
101317.022
101317.019
101317.017
101317.015
101317.013
101317.01
101317.008
101317.006
101317.003
101317
101316.996
101316.992
101316.987
101316.981
101316.975
101316.968
101316.959
101316.95
101316.94
101316.928
101316.916
101316.902
101316.887
101316.871
101316.854
101316.836
101316.816
101316.795
101316.772
101316.749
101316.724
101316.697
101316.67
101316.641
101316.611
101316.58
101316.547
101316.514
101316.479
101316.443
101316.406
101316.368
101316.329
101316.289
101316.248
101316.206
101316.164
101316.121
101316.077
101316.032
101315.986
101315.941
101315.894
101315.847
101315.8
101315.752
101315.704
101315.656
101315.607
101315.559
101315.51
101315.461
101315.412
101315.363
101315.315
101315.266
101315.217
101315.169
101315.121
101315.073
101315.026
101314.978
101314.931
101314.885
101314.839
101314.793
101314.748
101314.703
101314.659
101314.616
101314.573
101314.53
101314.488
101314.447
101314.406
101314.366
101314.327
101314.288
101314.25
101314.212
101314.176
101314.139
101314.104
101314.069
101314.035
101314.002
101313.969
101313.937
101313.906
101313.875
101313.845
101313.815
101313.787
101313.759
101313.731
101313.704
101313.678
101313.652
101313.627
101313.603
101313.579
101313.556
101313.533
101313.511
101313.49
101313.469
101313.448
101313.428
101313.409
101313.39
101313.371
101313.353
101313.335
101313.318
101313.302
101313.285
101313.269
101313.254
101313.239
101313.224
101313.21
101313.196
101313.182
101313.169
101313.156
101313.143
101313.131
101313.119
101313.107
101313.095
101313.084
101313.073
101313.062
101313.052
101313.041
101313.031
101313.022
101313.012
101313.003
101312.993
101312.984
101312.976
101312.967
101312.959
101312.95
101312.942
101312.934
101312.926
101312.919
101312.911
101312.904
101312.896
101312.889
101312.882
101312.875
101312.868
101312.861
101312.855
101312.848
101312.842
101312.835
101312.829
101312.823
101312.817
101312.811
101312.805
101312.799
101312.793
101312.787
101312.782
101312.776
101312.771
101312.765
101312.76
101312.754
101312.749
101312.744
101312.738
101312.733
101312.728
101312.723
101312.718
101312.713
101312.708
101312.703
101312.698
101312.693
101312.688
101312.684
101312.679
101312.674
101312.669
101312.665
101312.66
101312.655
101312.651
101312.646
101312.641
101312.637
101312.632
101312.628
101312.623
101312.619
101312.614
101312.609
101312.605
101312.601
101312.596
101312.592
101312.587
101312.583
101312.578
101312.574
101312.569
101312.565
101312.561
101312.556
101312.552
101312.547
101312.543
101312.538
101312.534
101312.53
101312.525
101312.521
101312.516
101312.512
101312.507
101312.503
101312.498
101312.494
101312.49
101312.485
101312.481
101312.476
101312.472
101312.467
101312.463
101312.458
101312.453
101312.449
101312.444
101312.44
101312.435
101312.431
101312.426
101312.421
101312.417
101312.412
101312.407
101312.403
101312.398
101312.393
101312.389
101312.384
101312.379
101312.374
101312.37
101312.365
101312.36
101312.355
101312.35
101312.346
101312.341
101312.336
101312.331
101312.326
101312.321
101312.316
101312.311
101312.306
101312.301
101312.296
101312.291
101312.286
101312.281
101312.276
101312.271
101312.266
101312.261
101312.256
101312.25
101312.245
101312.24
101312.235
101312.23
101312.224
101312.219
101312.214
101312.208
101312.203
101312.198
101312.192
101312.187
101312.182
101312.176
101312.171
101312.165
101312.16
101312.154
101312.149
101312.143
101312.137
101312.132
101312.126
101312.121
101312.115
101312.109
101312.103
101312.098
101312.092
101312.086
101312.08
101312.074
101312.068
101312.062
101312.057
101312.051
101312.045
101312.038
101312.032
101312.026
101312.02
101312.014
101312.008
101312.002
101311.995
101311.989
101311.983
101311.976
101311.97
101311.963
101311.957
101311.95
101311.944
101311.937
101311.93
101311.924
101311.917
101311.91
101311.903
101311.897
101311.89
101311.883
101311.876
101311.869
101311.862
101311.854
101311.847
101311.84
101311.833
101311.825
101311.818
101311.811
101311.803
101311.796
101311.788
101311.781
101311.773
101311.765
101311.758
101311.75
101311.742
101311.734
101311.726
101311.718
101311.71
101311.702
101311.694
101311.685
101311.677
101311.669
101311.661
101311.652
101311.644
101311.635
101311.627
101311.618
101311.609
101311.601
101311.592
101311.583
101311.574
101311.565
101311.556
101311.548
101311.538
101311.529
101311.52
101311.511
101311.502
101311.493
101311.483
101311.474
101311.465
101311.455
101311.446
101311.436
101311.427
101311.417
101311.408
101311.398
101311.388
101311.379
101311.369
101311.359
101311.349
101311.34
101311.33
101311.32
101311.31
101311.3
101311.29
101311.28
101311.27
101311.26
101311.25
101311.24
101311.23
101311.22
101311.21
101311.2
101311.19
101311.18
101311.169
101311.159
101311.149
101311.139
101311.129
101311.119
101311.108
101311.098
101311.088
101311.078
101311.068
101311.058
101311.047
101311.037
101311.027
101311.017
101311.007
101310.997
101310.987
101310.977
101310.966
101310.956
101310.946
101310.936
101310.926
101310.916
101310.906
101310.896
101310.886
101310.876
101310.866
101310.856
101310.846
101310.836
101310.827
101310.817
101310.807
101310.797
101310.787
101310.778
101310.768
101310.758
101310.748
101310.739
101310.729
101310.72
101310.71
101310.7
101310.691
101310.681
101310.672
101310.662
101310.651
101310.64
101310.628
101310.615
101310.602
101310.587
101310.572
101310.555
101310.537
101310.518
101310.498
101310.477
101310.454
101310.429
101310.403
101310.375
101310.345
101310.313
101310.278
101310.241
101310.201
101310.157
101310.109
101310.057
101310
101309.937
101309.866
101309.788
101309.699
101309.598
101309.484
101309.354
101309.205
101309.036
101308.844
101308.625
101308.379
101308.101
101307.788
101307.433
101307.026
101306.546
101305.962
101305.224
101304.265
101303.004
101301.378
101299.387
101297.191
101295.196
101294.075
101294.613
101297.357
101302.226
101308.35
101314.361
101319.102
101322.169
101323.823
101324.575
101324.866
101324.963
101324.992
101324.999
101325
101325.001
101325.001
101325.001
101325.001
101325.001
101325.001
101325.001
101325.001
101325.001
101325
101325
)
;

boundaryField
{
    closed
    {
        type            zeroGradient;
    }
    open
    {
        type            waveTransmissive;
        gamma           1.25;
        fieldInf        101325;
        lInf            1;
        value           uniform 101325;
    }
    sides
    {
        type            empty;
    }
}


// ************************************************************************* //
