/*--------------------------------*- C++ -*----------------------------------*\
| =========                 |                                                 |
| \\      /  F ield         | OpenFOAM: The Open Source CFD Toolbox           |
|  \\    /   O peration     | Version:  2206                                  |
|   \\  /    A nd           | Website:  www.openfoam.com                      |
|    \\/     M anipulation  |                                                 |
\*---------------------------------------------------------------------------*/
FoamFile
{
    version     2.0;
    format      ascii;
    arch        "LSB;label=32;scalar=64";
    class       surfaceScalarField;
    location    "1.78e-05";
    object      phi;
}
// * * * * * * * * * * * * * * * * * * * * * * * * * * * * * * * * * * * * * //

dimensions      [1 0 -1 0 0 0 0];

oriented        oriented;

internalField   nonuniform List<scalar> 
3182
(
6.30664455e-18
-1.8588366e-18
-3.29081982e-18
-2.42278561e-18
-1.03579089e-20
-4.94027327e-23
-3.43199668e-24
3.46272005e-25
1.14497261e-23
3.10158653e-22
2.79247882e-19
5.01894566e-18
3.78441546e-18
1.75241569e-18
1.03326183e-18
-1.53652807e-18
-5.76354551e-18
-4.51815849e-18
-6.00234972e-18
4.09193495e-18
8.36230582e-20
1.13822931e-19
1.7745138e-18
3.14895445e-18
4.5410861e-18
7.91656139e-18
3.70621706e-18
1.99948291e-18
5.30283989e-19
-1.01903011e-18
-1.76991088e-19
-1.42149102e-18
-4.88430555e-18
-5.11956597e-18
-4.19966051e-18
-5.29449101e-18
-9.66648445e-18
-8.18910405e-18
-6.13319519e-18
-3.91530783e-18
-1.93798524e-18
2.09213592e-18
4.99178575e-18
7.87008347e-18
9.90948288e-18
1.1817762e-17
1.07092853e-17
8.65572577e-18
5.41053536e-18
9.82338811e-19
-3.89583973e-18
-7.55068991e-18
-1.19216436e-17
-1.50558537e-17
-1.8205599e-17
-2.23080585e-17
-2.5794142e-17
-2.86025824e-17
-3.14475176e-17
-3.38527235e-17
-3.5146883e-17
-3.69368361e-17
-3.78561467e-17
-3.93155927e-17
-3.9900752e-17
-4.12132684e-17
-4.16643429e-17
-4.33553522e-17
-4.38119858e-17
-4.43617949e-17
-4.60208423e-17
-4.79707611e-17
-4.81197208e-17
-5.09484857e-17
-5.27342242e-17
-5.44158478e-17
-5.57658906e-17
-5.70707539e-17
-5.89842232e-17
-5.92428155e-17
-6.11543124e-17
-6.19395151e-17
-6.31632424e-17
-6.31637122e-17
-6.28988433e-17
-6.330553e-17
-6.36062622e-17
-6.39322573e-17
-6.28499893e-17
-6.53180937e-17
-6.65084673e-17
-6.94770911e-17
-6.99479554e-17
-7.12923088e-17
-7.30363405e-17
-7.10660703e-17
-7.48295025e-17
-7.66327288e-17
-7.43779677e-17
-7.37219639e-17
-7.33570819e-17
-7.44789148e-17
-7.29069932e-17
-7.00778388e-17
-7.01211664e-17
-7.21777444e-17
-7.35778668e-17
-7.26437482e-17
-7.27419217e-17
-7.31104507e-17
-7.46553343e-17
-7.35668993e-17
-7.26439859e-17
-7.64882313e-17
-7.56230994e-17
-7.19673526e-17
-7.25763692e-17
-7.38851135e-17
-7.54251217e-17
-7.45186946e-17
-7.17998338e-17
-7.5632536e-17
-7.27145765e-17
-7.35687175e-17
-7.49028626e-17
-7.30439974e-17
-7.85957782e-17
-7.86483874e-17
-7.81113643e-17
-7.6313704e-17
-8.13087925e-17
-7.79228617e-17
-7.81414216e-17
-8.19585779e-17
-7.89318425e-17
-8.25675053e-17
-8.44625634e-17
-8.34795944e-17
-8.67530028e-17
-8.62127278e-17
-8.78329138e-17
-8.79528158e-17
-8.38377171e-17
-8.5925711e-17
-8.2880793e-17
-8.59926738e-17
-8.65747844e-17
-8.54757671e-17
-8.76997652e-17
-8.69773707e-17
-8.79253315e-17
-8.9189647e-17
-8.89775948e-17
-9.08495431e-17
-9.25513719e-17
-9.44388348e-17
-9.1641911e-17
-9.26104273e-17
-9.34455124e-17
-9.10328789e-17
-9.23795373e-17
-9.43315438e-17
-9.52752211e-17
-9.35881339e-17
-9.31717213e-17
-9.55836396e-17
-9.75143903e-17
-9.9315078e-17
-9.77331989e-17
-1.008366e-16
-9.73921126e-17
-9.81250922e-17
-9.7663404e-17
-9.64922243e-17
-9.96027044e-17
-1.01795213e-16
-9.98182511e-17
-1.03630449e-16
-1.0198645e-16
-1.02426272e-16
-1.03975644e-16
-1.01180174e-16
-1.02827352e-16
-1.03072954e-16
-1.01673165e-16
-1.01406565e-16
-1.00817443e-16
-1.0005295e-16
-1.03171988e-16
-1.0414051e-16
-1.03503839e-16
-1.03311205e-16
-1.02306514e-16
-1.05566925e-16
-1.04715802e-16
-1.05178606e-16
-1.03570244e-16
-1.08132776e-16
-1.08752682e-16
-1.11110821e-16
-1.09886018e-16
-1.12504258e-16
-1.11740034e-16
-1.12142506e-16
-1.10611246e-16
-1.10822986e-16
-1.11941096e-16
-1.10382739e-16
-1.07724684e-16
-1.0869493e-16
-1.06422937e-16
-1.07652858e-16
-1.05705046e-16
-1.03338856e-16
-1.02748113e-16
-1.02663781e-16
-1.03489718e-16
-1.02673085e-16
-1.04292894e-16
-1.0645177e-16
-1.11223226e-16
-1.0973593e-16
-1.08943965e-16
-1.12088036e-16
-1.09517241e-16
-1.12879142e-16
-1.09413253e-16
-1.12542798e-16
-1.13345662e-16
-1.1449293e-16
-1.13785677e-16
-1.13266904e-16
-1.14930189e-16
-1.1365458e-16
-1.12421401e-16
-1.10099287e-16
-1.11239227e-16
-1.10505497e-16
-1.05777107e-16
-1.09011734e-16
-1.09783021e-16
-1.09984052e-16
-1.11382242e-16
-1.10073853e-16
-1.11966139e-16
-1.08690271e-16
-1.09437193e-16
-1.11440705e-16
-1.10010476e-16
-1.10534509e-16
-1.12527487e-16
-1.11000617e-16
-1.11991289e-16
-1.14019644e-16
-1.16645861e-16
-1.17187949e-16
-1.14115544e-16
-1.13260714e-16
-1.1639465e-16
-1.19421284e-16
-1.18368611e-16
-1.14113883e-16
-1.16511729e-16
-1.14930277e-16
-1.1640166e-16
-1.17107525e-16
-1.18168078e-16
-1.189979e-16
-1.18015885e-16
-1.18081845e-16
-1.1881622e-16
-1.19477472e-16
-1.20897407e-16
-1.21065339e-16
-1.21230112e-16
-1.18535139e-16
-1.2225439e-16
-1.18752774e-16
-1.21824311e-16
-1.24322181e-16
-1.24754843e-16
-1.28360143e-16
-1.24510907e-16
-1.26806283e-16
-1.26149224e-16
-1.2885209e-16
-1.30008264e-16
-1.2907178e-16
-1.28588858e-16
-1.31702484e-16
-1.30728408e-16
-1.31792569e-16
-1.33894765e-16
-1.35135303e-16
-1.32622718e-16
-1.30290531e-16
-1.2946523e-16
-1.31126946e-16
-1.31935646e-16
-1.29926552e-16
-1.31885659e-16
-1.33445486e-16
-1.37380434e-16
-1.36536689e-16
-1.35005017e-16
-1.35404685e-16
-1.31602671e-16
-1.33314463e-16
-1.31372008e-16
-1.32413999e-16
-1.32196225e-16
-1.35696656e-16
-1.33633335e-16
-1.36990736e-16
-1.33020887e-16
-1.3572419e-16
-1.33725896e-16
-1.336934e-16
-1.33882778e-16
-1.33124518e-16
-1.35757373e-16
-1.3554091e-16
-1.38242332e-16
-1.35155808e-16
-1.38367901e-16
-1.36687004e-16
-1.36744541e-16
-1.35314353e-16
-1.37400549e-16
-1.35035597e-16
-1.35845097e-16
-1.35436145e-16
-1.3544482e-16
-1.32530889e-16
-1.312107e-16
-1.32085304e-16
-1.31108585e-16
-1.31491381e-16
-1.31442744e-16
-1.29987713e-16
-1.28750956e-16
-1.28208524e-16
-1.25656355e-16
-1.26199085e-16
-1.29015757e-16
-1.2947169e-16
-1.25019439e-16
-1.27003673e-16
-1.2563225e-16
-1.25668141e-16
-1.22690421e-16
-1.21755602e-16
-1.19203668e-16
-1.17203255e-16
-1.18789254e-16
-1.19914296e-16
-1.1868171e-16
-1.23475785e-16
-1.24217748e-16
-1.23495826e-16
-1.1930039e-16
-1.21521669e-16
-1.21714947e-16
-1.23440013e-16
-1.24428096e-16
-1.24179782e-16
-1.25832178e-16
-1.23014498e-16
-1.20004126e-16
-1.21328378e-16
-1.17595388e-16
-1.16629833e-16
-1.18736744e-16
-1.20394395e-16
-1.23532888e-16
-1.2038354e-16
-1.17379633e-16
-1.19996195e-16
-1.1759193e-16
-1.17995634e-16
-1.18537138e-16
-1.19573586e-16
-1.20794372e-16
-1.18456758e-16
-1.14368087e-16
-1.16330167e-16
-1.14595407e-16
-1.10240057e-16
-1.14107986e-16
-1.1127786e-16
-1.1010934e-16
-1.06803176e-16
-1.027489e-16
-1.07501388e-16
-1.02194946e-16
-1.01581778e-16
-1.03598524e-16
-1.03394051e-16
-1.00365118e-16
-1.01996637e-16
-9.72765914e-17
-1.00088356e-16
-1.03133528e-16
-1.01191703e-16
-1.00938397e-16
-9.60455357e-17
-9.50563369e-17
-9.54712557e-17
-9.15957915e-17
-9.34364451e-17
-9.18302932e-17
-9.59641346e-17
-9.33250193e-17
-9.20768166e-17
-9.16445565e-17
-9.05355537e-17
-9.05716283e-17
-9.3190424e-17
-8.85406967e-17
-8.83669712e-17
-8.95952738e-17
-8.97809465e-17
-9.22521489e-17
-9.30651586e-17
-9.5341172e-17
-9.36578694e-17
-9.20998916e-17
-9.24946599e-17
-9.17144793e-17
-9.1069254e-17
-8.85874424e-17
-8.88053107e-17
-9.02815123e-17
-8.70524543e-17
-8.96314505e-17
-8.74980268e-17
-8.96961425e-17
-8.85654095e-17
-8.96639311e-17
-8.99598011e-17
-8.89750292e-17
-8.76496074e-17
-8.83404566e-17
-8.62882871e-17
-8.32955833e-17
-8.48972458e-17
-8.30786467e-17
-8.255927e-17
-8.41489995e-17
-8.29430044e-17
-8.25046761e-17
-8.41976675e-17
-8.42352398e-17
-8.61857744e-17
-8.42525581e-17
-7.90280817e-17
-8.06284262e-17
-7.63455343e-17
-7.65801753e-17
-7.75435517e-17
-7.87165399e-17
-8.13417869e-17
-8.08317325e-17
-7.85643908e-17
-8.10239716e-17
-7.99548968e-17
-7.7046208e-17
-7.63215468e-17
-7.72914021e-17
-7.78385313e-17
-7.35254141e-17
-7.43974813e-17
-7.56779345e-17
-7.61964869e-17
-7.69726076e-17
-7.61643375e-17
-7.81709503e-17
-7.86746665e-17
-7.59741235e-17
-7.79851895e-17
-7.58709599e-17
-7.68889606e-17
-7.50813484e-17
-7.31832882e-17
-7.46952628e-17
-7.75585946e-17
-7.4257138e-17
-7.16150765e-17
-7.44071526e-17
-7.35049522e-17
-6.96180678e-17
-7.07799685e-17
-7.21307713e-17
-7.03693206e-17
-7.16402203e-17
-7.07609409e-17
-7.15872763e-17
-7.11208404e-17
-7.33113671e-17
-7.1194632e-17
-7.0209294e-17
-6.88732542e-17
-6.95128529e-17
-7.04961614e-17
-6.95237934e-17
-6.82268384e-17
-6.92520388e-17
-6.32555176e-17
-6.35147321e-17
-6.36229373e-17
-6.18395324e-17
-6.01240837e-17
-5.96903979e-17
-5.50907777e-17
-5.20545092e-17
-4.99717068e-17
-5.10254209e-17
-4.87782518e-17
-4.80350753e-17
-4.86706396e-17
-4.89978743e-17
-4.63731241e-17
-5.04959229e-17
-4.7708704e-17
-4.78538148e-17
-4.52241108e-17
-4.41881456e-17
-4.46846386e-17
-4.53774418e-17
-4.54302643e-17
-4.70973225e-17
-4.86727976e-17
-4.59873493e-17
-4.55687749e-17
-4.66289394e-17
-4.27154211e-17
-4.38673849e-17
-4.60687459e-17
-4.21917295e-17
-4.16928981e-17
-4.26516491e-17
-4.16518552e-17
-4.27229605e-17
-4.17288173e-17
-4.31754596e-17
-4.15208045e-17
-3.71749104e-17
-3.90293877e-17
-3.94105378e-17
-3.84866537e-17
-3.73642919e-17
-3.71934929e-17
-3.27342764e-17
-3.39836154e-17
-3.2126561e-17
-2.85042974e-17
-2.82590873e-17
-2.86203871e-17
-2.83748567e-17
-2.92461519e-17
-3.01135958e-17
-2.92989888e-17
-2.66184556e-17
-2.43432446e-17
-2.34870347e-17
-2.30633613e-17
-1.96612619e-17
-1.89358549e-17
-1.50093828e-17
-1.47938492e-17
-1.63690982e-17
-1.59785375e-17
-1.70912781e-17
-1.53780329e-17
-1.36034791e-17
-1.1436145e-17
-1.22313353e-17
-8.16661992e-18
-8.61537665e-18
-6.38365191e-18
-4.56769838e-18
1.09879603e-18
-8.15188612e-19
-1.21723012e-18
7.22326487e-19
-2.06121815e-19
1.13603931e-18
5.73780774e-18
2.57225191e-18
4.79477152e-18
7.66090694e-18
6.37949352e-18
6.49517821e-18
3.1466742e-18
2.98324229e-18
3.43185862e-18
2.0667668e-18
7.64660381e-18
1.18858088e-17
1.15068214e-17
8.20086063e-18
8.91021002e-18
7.63998323e-18
1.07644239e-17
1.03503231e-17
1.06229529e-17
1.01579599e-17
1.21931395e-17
6.99907397e-18
6.35589297e-18
5.76435858e-18
6.53802529e-18
6.87688733e-18
1.01730575e-17
1.04133844e-17
1.10383225e-17
1.14654894e-17
1.07914361e-17
9.65258434e-18
1.09227341e-17
8.85071714e-18
1.10033496e-17
1.08755635e-17
1.26067834e-17
1.64850894e-17
1.6079709e-17
1.59525349e-17
1.58670487e-17
1.10224252e-17
9.3968534e-18
1.00378472e-17
1.08331821e-17
8.85882539e-18
1.23038814e-17
1.442965e-17
1.33911523e-17
9.6821404e-18
6.80370271e-18
6.43946566e-18
9.1194353e-18
1.11289301e-17
1.44978836e-17
1.16860554e-17
1.13156186e-17
1.08940987e-17
1.10292163e-17
8.82462952e-18
6.09871489e-18
1.01975523e-17
1.15274458e-17
1.09903219e-17
1.24574988e-17
1.36994298e-17
1.40346612e-17
1.54113907e-17
1.15755367e-17
1.27356285e-17
1.30796334e-17
1.48003531e-17
1.60569464e-17
1.7577131e-17
1.32964567e-17
1.41204767e-17
1.35572193e-17
1.32753366e-17
1.42245918e-17
1.61518925e-17
1.92715199e-17
1.75043032e-17
2.17483277e-17
1.95297288e-17
1.91610013e-17
2.34415316e-17
1.99184176e-17
1.83854854e-17
2.12126222e-17
2.17564492e-17
2.53347274e-17
2.56037798e-17
2.75601961e-17
3.01254823e-17
3.07724388e-17
2.9647415e-17
3.20904987e-17
3.09381887e-17
3.03786862e-17
3.31874899e-17
3.05595066e-17
3.13184082e-17
2.96135898e-17
3.2463611e-17
3.25283969e-17
3.35733025e-17
3.5987716e-17
3.82031281e-17
3.79638585e-17
4.14125714e-17
3.82568866e-17
4.03967598e-17
4.1222886e-17
4.2619338e-17
4.23387867e-17
4.32286315e-17
4.47703108e-17
3.84719278e-17
3.7450344e-17
3.97179493e-17
3.99760577e-17
3.8348858e-17
3.90313865e-17
4.02751482e-17
4.10626087e-17
4.18685553e-17
4.34164917e-17
3.96445483e-17
3.91571894e-17
4.36647442e-17
4.48182121e-17
4.30620558e-17
4.46284632e-17
4.65343182e-17
4.46497598e-17
4.30526954e-17
4.2474082e-17
4.11908118e-17
4.10018012e-17
4.47013057e-17
4.53452734e-17
4.48139284e-17
4.6975091e-17
4.47038187e-17
4.68084997e-17
4.70044231e-17
4.6957606e-17
4.82406488e-17
4.39543705e-17
4.40989882e-17
4.43167151e-17
4.77869674e-17
4.99092837e-17
5.07761058e-17
4.71114983e-17
4.63668262e-17
4.55577859e-17
4.54649272e-17
4.77542647e-17
5.01784694e-17
5.02056463e-17
4.54160559e-17
4.64961753e-17
4.68532318e-17
4.64376437e-17
4.64298304e-17
4.6013949e-17
4.6439237e-17
4.82065194e-17
4.70565723e-17
4.61326728e-17
4.51393095e-17
4.50880722e-17
4.74457052e-17
4.64172822e-17
4.37719587e-17
4.31027549e-17
4.26799364e-17
4.06870465e-17
4.29477857e-17
4.38846132e-17
4.26414447e-17
4.3904393e-17
4.30831271e-17
4.55361413e-17
4.55701663e-17
4.41929519e-17
4.65040845e-17
4.67203819e-17
4.69518968e-17
4.71944458e-17
4.8833748e-17
4.79547259e-17
5.06441516e-17
4.75062265e-17
4.6773639e-17
4.80137235e-17
4.99156778e-17
4.91612436e-17
5.42454347e-17
5.57194949e-17
5.46662218e-17
5.33294916e-17
5.70612633e-17
5.77723133e-17
5.34387556e-17
5.44062315e-17
4.91909879e-17
4.97775905e-17
5.02182143e-17
5.01053732e-17
4.61743255e-17
4.94825437e-17
5.15017661e-17
5.14811473e-17
5.20903597e-17
5.51861425e-17
5.1387375e-17
5.43521045e-17
5.28615471e-17
5.5305788e-17
5.4448239e-17
5.60740551e-17
5.57585073e-17
5.66784381e-17
5.83428488e-17
5.70018836e-17
5.3645779e-17
5.36029923e-17
5.36575316e-17
5.23551904e-17
5.35968626e-17
5.84782169e-17
5.46905971e-17
5.66820676e-17
5.35259045e-17
5.47438955e-17
5.42334224e-17
5.4750119e-17
5.41793153e-17
5.22907083e-17
5.66477468e-17
5.63733998e-17
5.60567911e-17
5.20239952e-17
5.14972769e-17
4.98241281e-17
4.8419011e-17
4.89411092e-17
5.08457045e-17
4.93031002e-17
5.12033956e-17
4.99398366e-17
5.1819424e-17
5.24197316e-17
5.46418168e-17
5.60276108e-17
5.71730043e-17
5.73577456e-17
5.51338224e-17
5.46337559e-17
5.2847283e-17
5.48943731e-17
5.85770027e-17
6.08516711e-17
6.05751587e-17
6.28592244e-17
6.41126807e-17
6.10671327e-17
6.36690614e-17
6.34562277e-17
6.81349669e-17
6.75767371e-17
7.00236332e-17
7.09672447e-17
6.89224799e-17
7.25476382e-17
7.31314498e-17
7.24689026e-17
6.81530327e-17
6.6395079e-17
6.71239083e-17
6.7856565e-17
7.02119854e-17
6.75324386e-17
6.74644816e-17
6.7884098e-17
6.98673196e-17
6.67480102e-17
6.70440623e-17
6.84786353e-17
7.1216216e-17
6.86453346e-17
6.64133013e-17
6.52565906e-17
6.86535024e-17
6.66284791e-17
6.55058165e-17
6.77268698e-17
6.88924258e-17
6.93907088e-17
7.03775664e-17
6.69386847e-17
6.70516886e-17
6.48272405e-17
6.7434581e-17
6.94021253e-17
7.02754955e-17
7.11943253e-17
7.28116075e-17
7.4196077e-17
7.2212136e-17
7.35335519e-17
7.08582285e-17
7.118836e-17
7.15245865e-17
7.39426922e-17
7.38830196e-17
7.01179169e-17
7.04810778e-17
6.96377698e-17
6.80862129e-17
6.74746829e-17
6.98507977e-17
6.71935421e-17
6.74693051e-17
6.7519891e-17
6.76436387e-17
7.05889319e-17
7.10218956e-17
7.10725842e-17
7.19105233e-17
6.87160266e-17
6.90867951e-17
7.02105169e-17
6.84430628e-17
6.75556696e-17
6.86729698e-17
6.96779183e-17
6.55748779e-17
6.74383468e-17
6.51763183e-17
6.38926357e-17
6.48843847e-17
6.30204255e-17
6.40143534e-17
6.12352509e-17
6.40046382e-17
6.13854421e-17
5.87156476e-17
5.6517212e-17
5.95711846e-17
6.19715552e-17
6.00434122e-17
5.74401118e-17
5.74400345e-17
5.62143076e-17
5.56760439e-17
5.49803149e-17
5.68778206e-17
5.58312131e-17
5.91432286e-17
5.88356939e-17
5.73242356e-17
5.70912992e-17
5.76267384e-17
5.6556599e-17
5.59829579e-17
5.47920738e-17
5.79307183e-17
5.66490578e-17
5.88743475e-17
6.07742363e-17
6.06222677e-17
6.25714316e-17
6.78027353e-17
6.84846119e-17
6.68277542e-17
6.36465625e-17
6.58452104e-17
6.61937429e-17
6.76581014e-17
6.94519984e-17
6.98329799e-17
6.93753919e-17
6.97873616e-17
6.97846169e-17
6.85659959e-17
7.10324051e-17
6.49727897e-17
6.92633092e-17
6.91428501e-17
6.75091753e-17
6.86478245e-17
7.02123258e-17
6.79133573e-17
6.56086015e-17
6.8546168e-17
6.63697857e-17
6.51789098e-17
6.73761297e-17
6.3766787e-17
6.54715445e-17
6.54161764e-17
6.29304214e-17
6.45789173e-17
6.49500552e-17
6.05126248e-17
6.57709216e-17
6.49060391e-17
6.86461404e-17
6.86956151e-17
7.11690618e-17
6.65270981e-17
6.5180793e-17
6.17313656e-17
6.38619172e-17
6.10808909e-17
6.07334706e-17
6.15965075e-17
6.11165843e-17
6.04297985e-17
5.72564919e-17
5.46935826e-17
5.61883846e-17
5.44405661e-17
5.47715025e-17
5.29755826e-17
5.01996424e-17
4.93990336e-17
4.97262853e-17
4.54726175e-17
4.55090203e-17
4.54923576e-17
4.40441399e-17
4.43211864e-17
4.30139121e-17
4.33514305e-17
3.94683247e-17
3.86151732e-17
3.70239808e-17
3.71584165e-17
3.73199041e-17
3.44722516e-17
3.4385992e-17
3.8933602e-17
3.65885965e-17
3.72551273e-17
3.48718342e-17
3.76685068e-17
3.32874348e-17
2.74761837e-17
2.60988059e-17
2.49061089e-17
2.43446297e-17
2.64447091e-17
2.80486785e-17
2.9280034e-17
3.15148872e-17
3.3338033e-17
3.73176495e-17
3.41452353e-17
3.75178264e-17
3.56880541e-17
3.4285763e-17
3.0986858e-17
2.95337824e-17
2.82578937e-17
2.71168662e-17
2.51298767e-17
2.21512446e-17
2.21060411e-17
1.98829732e-17
2.12538675e-17
1.73758218e-17
1.80097498e-17
1.86319618e-17
2.16590915e-17
1.70263147e-17
1.73078937e-17
1.54919602e-17
1.5774523e-17
1.31175031e-17
1.35334276e-17
1.41043916e-17
1.50568966e-17
1.42640534e-17
1.10379063e-17
1.21650434e-17
1.19378285e-17
1.01031295e-17
1.09587158e-17
1.15888353e-17
1.39918254e-17
1.11827326e-17
1.16043506e-17
7.76345799e-18
5.21533237e-18
4.62560079e-18
4.03663363e-18
3.89402565e-18
3.52875926e-18
3.68056783e-18
4.51348081e-18
1.66289305e-18
5.97837613e-19
-4.19247943e-18
-2.62508133e-18
-3.30138396e-18
-3.56630014e-18
-6.60842605e-18
-4.90942461e-18
-7.05321688e-18
-7.40428568e-18
-6.82682507e-18
-8.48610096e-18
-6.00319284e-18
-6.19132245e-18
-4.84773519e-18
-5.04305823e-18
-6.46713734e-18
-7.33908256e-18
-8.89461504e-18
-9.730426e-18
-1.23983054e-17
-1.14251249e-17
-9.96244404e-18
-1.13551984e-17
-1.11835181e-17
-1.41079621e-17
-1.6069342e-17
-1.65708583e-17
-1.88869504e-17
-1.69456259e-17
-1.97433781e-17
-1.90663907e-17
-2.33001263e-17
-2.43592776e-17
-2.53651979e-17
-2.48355837e-17
-2.32424546e-17
-2.34565879e-17
-2.65544032e-17
-2.5624587e-17
-2.59215988e-17
-2.66888467e-17
-2.77419555e-17
-2.70877345e-17
-2.697814e-17
-2.59644101e-17
-2.80234376e-17
-2.80729581e-17
-2.57405525e-17
-2.55366766e-17
-2.7098881e-17
-2.5123021e-17
-2.86302178e-17
-2.80650236e-17
-2.6362846e-17
-2.84735189e-17
-2.76858791e-17
-3.01916239e-17
-2.66997216e-17
-2.84994451e-17
-3.00974733e-17
-3.15082078e-17
-3.21957414e-17
-3.25879419e-17
-3.04727609e-17
-2.97259502e-17
-3.20157776e-17
-3.3913924e-17
-3.60146732e-17
-3.71403103e-17
-3.86782975e-17
-4.03965185e-17
-4.1737943e-17
-3.96009436e-17
-3.63055637e-17
-3.61225282e-17
-3.23407144e-17
-3.42928462e-17
-3.67742579e-17
-3.83238203e-17
-4.04279609e-17
-3.86649371e-17
-3.58921581e-17
-3.9235807e-17
-3.82373805e-17
-3.94044797e-17
-4.06867363e-17
-4.51723063e-17
-4.63444451e-17
-4.33849944e-17
-4.52158044e-17
-4.44095194e-17
-4.91646702e-17
-4.97736398e-17
-4.6602314e-17
-4.95448257e-17
-5.10224832e-17
-5.03792931e-17
-4.6830008e-17
-4.55439516e-17
-5.15132465e-17
-5.40245208e-17
-5.04115328e-17
-5.20232624e-17
-5.47134807e-17
-5.37394203e-17
-5.39827239e-17
-5.76507065e-17
-5.82418774e-17
-6.37411202e-17
-6.6619901e-17
-6.58002205e-17
-6.63075706e-17
-6.6962284e-17
-6.41800106e-17
-6.46644397e-17
-6.59113786e-17
-6.86510657e-17
-6.94352448e-17
-7.05327493e-17
-6.77876919e-17
-6.50104317e-17
-6.35357629e-17
-6.32225784e-17
-6.33950605e-17
-6.49348578e-17
-6.27868431e-17
-6.30099592e-17
-6.03045374e-17
-5.73301153e-17
-5.63192629e-17
-5.66238468e-17
-5.62433335e-17
-5.92129687e-17
-5.9969932e-17
-5.98501304e-17
-5.95393082e-17
-6.03421369e-17
-6.26378808e-17
-6.22655099e-17
-6.00324959e-17
-6.4305422e-17
-6.38427583e-17
-6.57995759e-17
-6.52615542e-17
-6.67337022e-17
-6.57413098e-17
-6.87060094e-17
-6.88468157e-17
-6.68193265e-17
-6.99353965e-17
-6.94078755e-17
-6.76483049e-17
-7.08214513e-17
-7.04149792e-17
-6.97662273e-17
-6.97450335e-17
-6.97219255e-17
-7.21728466e-17
-7.05704899e-17
-6.88310619e-17
-6.78112004e-17
-6.95328855e-17
-7.06915214e-17
-7.02160347e-17
-6.81707173e-17
-7.07193484e-17
-7.158902e-17
-7.29658803e-17
-7.19224233e-17
-7.13120304e-17
-7.11227528e-17
-7.10191321e-17
-7.17073463e-17
-7.05759638e-17
-7.48749224e-17
-7.34650966e-17
-7.81481804e-17
-8.08875138e-17
-7.96254081e-17
-7.86571577e-17
-8.2055031e-17
-7.93197395e-17
-8.15399099e-17
-8.27460395e-17
-7.91906268e-17
-7.67483536e-17
-7.95395123e-17
-7.95392814e-17
-7.81693592e-17
-7.48088869e-17
-7.81773315e-17
-7.68546897e-17
-7.62782874e-17
-7.25539949e-17
-7.24130817e-17
-7.48170673e-17
-7.56940441e-17
-7.7228489e-17
-7.83799798e-17
-7.63278713e-17
-7.53043098e-17
-7.69507025e-17
-7.54585291e-17
-7.60147656e-17
-7.64247436e-17
-7.3439253e-17
-7.20285422e-17
-7.453588e-17
-7.50895968e-17
-7.78547564e-17
-7.86198053e-17
-7.80860187e-17
-8.26726276e-17
-7.9823602e-17
-7.77847861e-17
-7.77596315e-17
-8.02125062e-17
-8.29042629e-17
-7.87177158e-17
-7.99990324e-17
-7.84940304e-17
-7.80048056e-17
-8.07590752e-17
-7.98077863e-17
-8.22798195e-17
-7.62758811e-17
-7.64773854e-17
-7.66386239e-17
-7.62846088e-17
-7.83152281e-17
-7.81899767e-17
-8.10716271e-17
-8.2787105e-17
-8.14099846e-17
-8.23463413e-17
-7.7635359e-17
-7.8751752e-17
-7.566572e-17
-7.61964455e-17
-7.4413275e-17
-7.41598445e-17
-7.71953419e-17
-7.68925587e-17
-7.74032436e-17
-7.26377164e-17
-7.34825394e-17
-7.19290846e-17
-7.26322352e-17
-7.14159222e-17
-7.72388101e-17
-7.30637219e-17
-7.35442192e-17
-7.11776734e-17
-6.96345222e-17
-6.89393722e-17
-7.04574565e-17
-7.16642685e-17
-7.08705752e-17
-7.16830101e-17
-7.15598794e-17
-7.0065775e-17
-6.84528377e-17
-6.69391806e-17
-6.85827487e-17
-6.91549161e-17
-6.58578694e-17
-6.84088792e-17
-6.54077428e-17
-6.62717894e-17
-6.88377096e-17
-6.78501044e-17
-6.81953503e-17
-6.85694196e-17
-6.95726689e-17
-6.61574674e-17
-6.26299874e-17
-6.14408291e-17
-6.23831367e-17
-6.02100805e-17
-5.87165016e-17
-6.12658655e-17
-5.92016889e-17
-5.99586859e-17
-6.16874396e-17
-5.91999179e-17
-5.88783789e-17
-5.903803e-17
-5.96647541e-17
-6.03259256e-17
-5.73796608e-17
-5.94384222e-17
-6.49524983e-17
-6.52875311e-17
-6.74589035e-17
-6.65715811e-17
-6.22390575e-17
-6.11470781e-17
-6.00435009e-17
-6.30262225e-17
-6.24539243e-17
-6.14653271e-17
-6.38764671e-17
-6.10674006e-17
-5.90278651e-17
-5.6893951e-17
-5.88363897e-17
-5.39924469e-17
-5.50436612e-17
-5.23515061e-17
-5.02622447e-17
-5.19697565e-17
-5.32770641e-17
-5.58801432e-17
-5.43643787e-17
-5.27535483e-17
-4.9177758e-17
-4.90709261e-17
-5.11474402e-17
-5.1510126e-17
-4.89705733e-17
-4.68127197e-17
-4.90536602e-17
-4.96701918e-17
-4.76224327e-17
-5.10198902e-17
-5.14990119e-17
-5.14837431e-17
-5.18389658e-17
-5.28118287e-17
-5.01648158e-17
-4.94022788e-17
-4.86098485e-17
-4.85083766e-17
-4.60735873e-17
-4.60236915e-17
-4.6917035e-17
-4.91367211e-17
-4.83592188e-17
-4.76366639e-17
-4.76909991e-17
-4.63649012e-17
-4.99945859e-17
-4.69110502e-17
-4.85716455e-17
-4.87250098e-17
-4.70888645e-17
-4.57544517e-17
-4.69691069e-17
-4.66783802e-17
-4.50923856e-17
-4.38065029e-17
-4.6386926e-17
-4.73417851e-17
-4.90698229e-17
-4.75376609e-17
-4.64964504e-17
-4.92455183e-17
-4.6551835e-17
-4.56367378e-17
-4.56517534e-17
-4.61881524e-17
-4.67410596e-17
-4.76944467e-17
-4.37524501e-17
-4.35847299e-17
-4.49034366e-17
-4.56431034e-17
-4.16669453e-17
-4.4464337e-17
-4.3918235e-17
-4.33223585e-17
-4.08016239e-17
-4.076254e-17
-4.02848278e-17
-3.99015315e-17
-3.85701993e-17
-4.04203063e-17
-4.07839006e-17
-4.14404947e-17
-4.06664982e-17
-4.22481584e-17
-4.14759128e-17
-4.26783343e-17
-4.13763198e-17
-4.00004519e-17
-4.35805888e-17
-3.98150337e-17
-4.05676296e-17
-3.92651183e-17
-4.01754798e-17
-4.08534934e-17
-4.05337846e-17
-4.03079923e-17
-4.45795446e-17
-4.15365834e-17
-4.21932521e-17
-4.16871355e-17
-4.22433404e-17
-4.31849133e-17
-4.17688807e-17
-4.21718252e-17
-3.94347748e-17
-4.01470526e-17
-4.27444566e-17
-4.06138693e-17
-3.78962452e-17
-3.82055501e-17
-3.74208105e-17
-3.74336352e-17
-3.58764304e-17
-3.6717812e-17
-3.70188498e-17
-3.53238498e-17
-3.95496904e-17
-3.68746559e-17
-3.55867696e-17
-3.73079787e-17
-3.84441303e-17
-3.3714991e-17
-3.28430156e-17
-3.011644e-17
-3.02010307e-17
-3.09237748e-17
-3.1563452e-17
-2.68220495e-17
-2.80726706e-17
-2.55702618e-17
-2.55965307e-17
-2.83566631e-17
-2.51148262e-17
-2.71305472e-17
-2.67395018e-17
-2.5270753e-17
-2.31499973e-17
-2.00291389e-17
-2.02504916e-17
-2.20121252e-17
-1.99085161e-17
-1.78463749e-17
-1.88643327e-17
-1.74239669e-17
-1.48997236e-17
-1.520835e-17
-1.5496011e-17
-1.40126051e-17
-1.31218887e-17
-1.32355799e-17
-8.98142319e-18
-7.24815271e-18
-9.62990977e-18
-1.05544603e-17
-5.09395818e-18
-5.62027669e-18
-7.43124997e-18
-5.97851746e-18
-4.74639939e-18
-3.89014392e-18
-2.76637831e-18
-3.35156096e-19
-1.06252471e-18
-2.00033104e-18
-3.4276985e-19
4.31230654e-18
7.26608166e-18
9.79501455e-18
1.34111703e-17
1.37175493e-17
1.83197515e-17
2.26126825e-17
2.44357398e-17
3.02581771e-17
3.32398024e-17
3.42197121e-17
3.87352025e-17
4.19862476e-17
4.67716604e-17
5.14942717e-17
5.16319151e-17
5.61035054e-17
5.97093832e-17
6.80871408e-17
6.90006195e-17
7.79746249e-17
8.47986525e-17
9.21553046e-17
1.00418365e-16
1.09735616e-16
1.2158127e-16
1.28522543e-16
1.4205091e-16
1.52379546e-16
1.61457927e-16
1.72168038e-16
1.8513022e-16
1.97261736e-16
2.09873223e-16
2.25908387e-16
2.38463435e-16
2.58748961e-16
2.77118028e-16
2.97857213e-16
3.18499038e-16
3.44977129e-16
3.74639226e-16
4.06202248e-16
4.35926725e-16
4.65559616e-16
5.00575358e-16
5.37641996e-16
5.79030922e-16
6.21761446e-16
6.70365666e-16
7.13958379e-16
7.68838276e-16
8.25811039e-16
8.88603942e-16
9.54938571e-16
1.02354134e-15
1.10034291e-15
1.17795894e-15
1.26875596e-15
1.36462589e-15
1.4638295e-15
1.56971064e-15
1.68839994e-15
1.8070949e-15
1.93963419e-15
2.08113104e-15
2.23350983e-15
2.39725866e-15
2.57170967e-15
2.76073477e-15
2.96136175e-15
3.17790626e-15
3.40697778e-15
3.65380679e-15
3.92062748e-15
4.2093202e-15
4.51545267e-15
4.84069922e-15
5.1918899e-15
5.56616952e-15
5.96891164e-15
6.39896987e-15
6.86084305e-15
7.35700039e-15
7.88916245e-15
8.45918037e-15
9.06405652e-15
9.71376988e-15
1.04110373e-14
1.11553793e-14
1.19548032e-14
1.28105985e-14
1.37251756e-14
1.46997513e-14
1.57497035e-14
1.68655686e-14
1.80621459e-14
1.93419508e-14
2.07120527e-14
2.21740662e-14
2.37427518e-14
2.54205208e-14
2.72059073e-14
2.91195686e-14
3.11608007e-14
3.33444186e-14
3.56793632e-14
3.81755943e-14
4.08389973e-14
4.36843768e-14
4.67249893e-14
4.99708929e-14
5.34376741e-14
5.7141314e-14
6.10984843e-14
6.53188945e-14
6.98246165e-14
7.46344979e-14
7.97644567e-14
8.52445342e-14
9.10879109e-14
9.73256216e-14
1.03975794e-13
1.11076052e-13
1.18648282e-13
1.26719215e-13
1.35330223e-13
1.44510219e-13
1.54295152e-13
1.64729964e-13
1.75857272e-13
1.87712394e-13
2.00347539e-13
2.13810972e-13
2.28158834e-13
2.43443394e-13
2.59722686e-13
2.77066207e-13
2.95533253e-13
3.15204439e-13
3.36145981e-13
3.58444082e-13
3.82182062e-13
4.07447488e-13
4.34339685e-13
4.62963566e-13
4.93416585e-13
5.25822711e-13
5.60300011e-13
5.96970006e-13
6.35980545e-13
6.77465997e-13
7.21579174e-13
7.68487725e-13
8.18356318e-13
8.71367313e-13
9.27717055e-13
9.87603187e-13
1.0512467e-12
1.11887244e-12
1.19071409e-12
1.2670341e-12
1.34810321e-12
1.43420527e-12
1.52563842e-12
1.62273075e-12
1.72581477e-12
1.83524088e-12
1.9513998e-12
2.07468094e-12
2.20551147e-12
2.34433652e-12
2.4916225e-12
2.64786854e-12
2.81360404e-12
2.98938077e-12
3.17579086e-12
3.37344122e-12
3.58300126e-12
3.80514897e-12
4.04061632e-12
4.29017866e-12
4.5546458e-12
4.83486221e-12
5.13174281e-12
5.44623878e-12
5.77934971e-12
6.13213818e-12
6.50572382e-12
6.90127529e-12
7.32004293e-12
7.76332845e-12
8.23251171e-12
8.72904573e-12
9.25446013e-12
9.81036801e-12
1.03984571e-11
1.10205189e-11
1.16784321e-11
1.23741772e-11
1.31098375e-11
1.38876081e-11
1.47097936e-11
1.5578815e-11
1.64972249e-11
1.74677142e-11
1.84930995e-11
1.95763511e-11
2.0720583e-11
2.19290795e-11
2.32052837e-11
2.45528094e-11
2.5975464e-11
2.74772404e-11
2.90623265e-11
3.07351345e-11
3.25002846e-11
3.43626322e-11
3.63272711e-11
3.83995392e-11
4.05850552e-11
4.28896883e-11
4.53196261e-11
4.78813274e-11
5.05815748e-11
5.342749e-11
5.64265235e-11
5.95864851e-11
6.2915566e-11
6.64223469e-11
7.01158009e-11
7.40053427e-11
7.81008188e-11
8.24125476e-11
8.69513197e-11
9.17284409e-11
9.67557259e-11
1.02045552e-10
1.0761085e-10
1.1346516e-10
1.19622628e-10
1.26098045e-10
1.32906878e-10
1.40065286e-10
1.47590152e-10
1.55499132e-10
1.63810639e-10
1.72543924e-10
1.81719086e-10
1.91357101e-10
2.01479873e-10
2.12110252e-10
2.23272087e-10
2.3499024e-10
2.47290673e-10
2.60200436e-10
2.7374774e-10
2.87961991e-10
3.02873839e-10
3.18515219e-10
3.34919403e-10
3.52121054e-10
3.70156262e-10
3.89062607e-10
4.0887921e-10
4.29646793e-10
4.51407731e-10
4.74206109e-10
4.98087786e-10
5.23100446e-10
5.49293683e-10
5.7671904e-10
6.054301e-10
6.35482532e-10
6.6693418e-10
6.99845117e-10
7.34277739e-10
7.70296832e-10
8.07969626e-10
8.47365918e-10
8.88558117e-10
9.3162134e-10
9.76633501e-10
1.02367538e-09
1.07283073e-09
1.12418637e-09
1.17783224e-09
1.23386154e-09
1.2923708e-09
1.35345997e-09
1.41723254e-09
1.48379563e-09
1.55326009e-09
1.6257406e-09
1.7013558e-09
1.78022834e-09
1.86248505e-09
1.94825703e-09
2.03767973e-09
2.13089311e-09
2.22804171e-09
2.32927479e-09
2.43474646e-09
2.54461575e-09
2.65904677e-09
2.7782088e-09
2.90227644e-09
3.0314297e-09
3.16585413e-09
3.30574095e-09
3.45128717e-09
3.60269568e-09
3.76017544e-09
3.9239415e-09
4.09421523e-09
4.27122436e-09
4.45520314e-09
4.64639243e-09
4.84503985e-09
5.05139988e-09
5.26573396e-09
5.48831065e-09
5.71940567e-09
5.95930208e-09
6.20829035e-09
6.46666846e-09
6.73474203e-09
7.01282439e-09
7.30123669e-09
7.600308e-09