/*--------------------------------*- C++ -*----------------------------------*\
| =========                 |                                                 |
| \\      /  F ield         | OpenFOAM: The Open Source CFD Toolbox           |
|  \\    /   O peration     | Version:  2206                                  |
|   \\  /    A nd           | Website:  www.openfoam.com                      |
|    \\/     M anipulation  |                                                 |
\*---------------------------------------------------------------------------*/
FoamFile
{
    version     2.0;
    format      ascii;
    arch        "LSB;label=32;scalar=64";
    class       volScalarField;
    location    "1.78e-05";
    object      PVsourcePV;
}
// * * * * * * * * * * * * * * * * * * * * * * * * * * * * * * * * * * * * * //

dimensions      [1 -3 -1 0 0 0 0];

internalField   nonuniform List<scalar> 
3183
(
0
0
0
0
0
0
0
0
0
0
0
0
0
0
0
0
0
0
0
0
0
0
0
0
0
0
0
0
0
0
0
0
0
0
0
0
0
0
0
0
0
0
0
0
0
0
0
0
0
0
0
0
0
0
0
0
0
0
0
0
0
0
0
0
0
0
0
0
0
0
0
0
0
0
0
0
0
0
0
0
0
0
0
0
0
0
0
0
0
0
0
0
0
0
0
0
0
0
0
0
0
0
0
0
0
0
0
0
0
0
0
0
0
0
0
0
0
0
0
0
0
0
0
0
0
0
0
0
0
0
0
0
0
0
0
0
0
0
0
0
0
0
0
0
0
0
0
0
0
0
0
0
0
0
0
0
0
0
0
0
0
0
0
0
0
0
0
0
0
0
0
0
0
0
0
0
0
0
0
0
0
0
0
0
0
0
0
0
0
0
0
0
0
0
0
0
0
0
0
0
0
0
0
0
0
0
0
0
0
0
0
0
0
0
0
0
0
0
0
0
0
0
0
0
0
0
0
0
0
0
0
0
0
0
0
0
0
0
0
0
0
0
0
0
0
0
0
0
0
0
0
0
0
0
0
0
0
0
0
0
0
0
0
0
0
0
0
0
0
0
0
0
0
0
0
0
0
0
0
0
0
0
0
0
0
0
0
0
0
0
0
0
0
0
0
0
0
0
0
0
0
0
0
0
0
0
0
0
0
0
0
0
0
0
0
0
0
0
0
0
0
0
0
0
0
0
0
0
0
0
0
0
0
0
0
0
0
0
0
0
0
0
0
0
0
0
0
0
0
0
0
0
0
0
0
0
0
0
0
0
0
0
0
0
0
0
0
0
0
0
0
0
0
0
0
0
0
0
0
0
0
0
0
0
0
0
0
0
0
0
0
0
0
0
0
0
0
0
0
0
0
0
0
0
0
0
0
0
0
0
0
0
0
0
0
0
0
0
0
0
0
0
0
0
0
0
0
0
0
0
0
0
0
0
0
0
0
0
0
0
0
0
0
0
0
0
0
0
0
0
0
0
0
0
0
0
0
0
0
0
0
0
0
0
0
0
0
0
0
0
0
0
0
0
0
0
0
0
0
0
0
0
0
0
0
0
0
0
0
0
0
0
0
0
0
0
0
0
0
0
0
0
0
0
0
0
0
0
0
0
0
0
0
0
0
0
0
0
0
0
0
0
0
0
0
0
0
0
0
0
0
0
0
0
0
0
0
0
0
0
0
0
0
0
0
0
0
0
0
0
0
0
0
0
0
0
0
0
0
0
0
0
0
0
0
0
0
0
0
0
0
0
0
0
0
0
0
0
0
0
0
0
0
0
0
0
0
0
0
0
0
0
0
0
0
0
0
0
0
0
0
0
0
0
0
0
0
0
0
0
0
0
0
0
0
0
0
0
0
0
0
0
0
0
0
0
0
0
0
0
0
0
0
0
0
0
0
0
0
0
0
0
0
0
0
0
0
0
0
0
0
0
0
0
0
0
0
0
0
0
0
0
0
0
0
0
0
0
0
0
0
0
0
0
0
0
0
0
0
0
0
0
0
0
0
0
0
0
0
0
0
0
0
0
0
0
0
0
0
0
0
0
0
0
0
0
0
0
0
0
0
0
0
0
0
0
0
0
0
0
0
0
0
0
0
0
0
0
0
0
0
0
0
0
0
0
0
0
0
0
0
0
0
0
0
0
0
0
0
0
0
0
0
0
0
0
0
0
0
0
0
0
0
0
0
0
0
0
0
0
0
0
0
0
0
0
0
0
0
0
0
0
0
0
0
0
0
0
0
0
0
0
0
0
0
0
0
0
0
0
0
0
0
0
0
0
0
0
0
0
0
0
0
0
0
0
0
0
0
0
0
0
0
0
0
0
0
0
0
0
0
0
0
0
0
0
0
0
0
0
0
0
0
0
0
0
0
0
0
0
0
0
0
0
0
0
0
0
0
0
0
0
0
0
0
0
0
0
0
0
0
0
0
0
0
0
0
0
0
0
0
0
0
0
0
0
0
0
0
0
0
0
0
0
0
0
0
0
0
0
0
0
0
0
0
0
0
0
0
0
0
0
0
0
0
0
0
0
0
0
0
0
0
0
0
0
0
0
0
0
0
0
0
0
0
0
0
0
0
0
0
0
0
0
0
0
0
0
0
0
0
0
0
0
0
0
0
0
0
0
0
0
0
0
0
0
0
0
0
0
0
0
0
0
0
0
0
0
0
0
0
0
0
0
0
0
0
0
0
0
0
0
0
0
0
0
0
0
0
0
0
0
0
0
0
0
0
0
0
0
0
0
0
0
0
0
0
0
0
0
0
0
0
0
0
0
0
0
0
0
0
0
0
0
0
0
0
0
0
0
0
0
0
0
0
0
0
0
0
0
0
0
0
0
0
0
0
0
0
0
0
0
0
0
0
0
0
0
0
0
0
0
0
0
0
0
0
0
0
0
0
0
0
0
0
0
0
0
0
0
0
0
0
0
0
0
0
0
0
0
0
0
0
0
0
0
0
0
0
0
0
0
0
0
0
0
0
0
0
0
0
0
0
0
0
0
0
0
0
0
0
0
0
0
0
0
0
0
0
0
0
0
0
0
0
0
0
0
0
0
0
0
0
0
0
0
0
0
0
0
0
0
0
0
0
0
0
0
0
0
0
0
0
0
0
0
0
0
0
0
0
0
0
0
0
0
0
0
0
0
0
0
0
0
0
0
0
0
0
0
0
0
0
0
0
0
0
0
0
0
0
0
0
0
0
0
0
0
0
0
0
0
0
0
0
0
0
0
0
0
0
0
0
0
0
0
0
0
0
0
0
0
0
0
0
0
0
0
0
0
0
0
0
0
0
0
0
0
0
0
0
0
0
0
0
0
0
0
0
0
0
0
0
0
0
0
0
0
0
0
0
0
0
0
0
0
0
0
0
0
0
0
0
0
0
0
0
0
0
0
0
0
0
0
0
0
0
0
0
0
0
0
0
0
0
0
0
0
0
0
0
0
0
0
0
0
0
0
0
0
0
0
0
0
0
0
0
0
0
0
0
0
0
0
0
0
0
0
0
0
0
0
0
0
0
0
0
0
0
0
0
0
0
0
0
0
0
0
0
0
0
0
0
0
0
0
0
0
0
0
0
0
0
0
0
0
0
0
0
0
0
0
0
0
0
0
0
0
0
0
0
0
0
0
0
0
0
0
0
0
0
0
0
0
0
0
0
0
0
0
0
0
0
0
0
0
0
0
0
0
0
0
0
0
0
0
0
0
0
0
0
0
0
0
0
0
0
0
0
0
0
0
0
0
0
0
0
0
0
0
0
0
0
0
0
0
0
0
0
0
0
0
0
0
0
0
0
0
0
0
0
0
0
0
0
0
0
0
0
0
0
0
0
0
0
0
0
0
0
0
0
0
0
0
0
0
0
0
0
0
0
0
0
0
0
0
0
0
0
0
0
0
0
0
0
0
0
0
0
0
0
0
0
0
0
0
0
0
0
0
0
0
0
0
0
0
0
0
0
0
0
0
0
0
0
0
0
0
0
0
0
0
0
0
0
0
0
0
0
0
0
0
0
0
0
0
0
0
0
0
0
0
0
0
0
0
0
0
0
0
0
0
0
0
0
0
0
0
0
0
0
0
0
0
0
0
0
0
0
0
0
0
0
0
0
0
0
0
0
0
0
0
0
0
0
0
0
0
0
0
0
0
0
0
0
0
0
0
0
0
0
0
0
0
0
0
0
0
0
0
0
0
0
0
0
0
0
0
0
0
0
0
0
0
0
0
0
0
0
0
0
0
0
0
0
0
0
0
0
0
0
0
0
0
0
0
0
0
0
0
0
0
0
0
0
0
0
0
0
0
0
0
0
0
0
0
0
0
0
0
0
0
0
0
0
0
0
0
0
0
0
0
0
0
0
0
0
0
0
0
0
0
0
0
0
0
0
0
0
0
0
0
0
0
0
0
0
0
0
0
0
0
0
0
0
0
0
0
0
0
0
0
0
0
0
0
0
0
0
0
0
0
0
0
0
0
0
0
0
0
0
0
0
0
0
0
0
0
0
0
0
0
0
0
0
0
0
0
0
0
0
0
0
0
0
0
0
0
0
0
0
0
0
0
0
0
0
0
0
0
0
0
0
0
0
0
0
0
0
0
0
0
0
0
0
0
0
0
0
0
0
0
0
0
0
0
0
0
0
0
0
0
0
0
0
0
0
0
0
0
0
0
0
0
0
0
0
0
0
0
0
0
0
0
0
0
0
0
0
0
0
0
0
0
0
0
0
0
0
0
0
0
0
0
0
0
0
0
0
0
0
0
0
0
0
0
0
0
0
0
0
0
0
0
0
0
0
0
0
0
0
0
0
0
0
0
0
0
0
0
0
0
0
0
0
0
0
0
0
0
0
0
0
0
0
0
0
0
0
0
0
0
0
0
0
0
0
0
0
0
0
0
0
0
0
0
0
0
0
0
0
0
0
0
0
0
0
0
0
0
0
0
0
0
0
0
0
0
0
0
0
0
0
0
0
0
0
0
0
0
0
0
0
0
0
0
0
0
0
0
0
0
0
0
0
0
0
0
0
0
0
0
0
0
0
0
0
0
0
0
0
0
0
0
0
0
0
0
0
0
0
0
0
0
0
0
0
0
0
0
0
0
0
0
0
0
0
0
0
0
0
0
0
0
0
0
0
0
0
0
0
0
0
0
0
0
0
0
0
0
0
0
0
0
0
0
0
0
0
0
0
0
0
0
0
0
0
0
0
0
0
0
0
0
0
0
0
0
0
0
0
0
0
0
0
0
0
0
0
0
0
0
0
0
0
0
0
0
0
0
0
0
0
0
0
0
0
0
0
0
0
0
0
0
0
0
0
0
0
0
0
0
0
0
0
0
0
0
0
0
0
0
0
0
0
0
0
0
0
0
0
0
0
0
0
0
0
0
0
0
0
0
0
0
0
0
0
0
0
0
0
0
0
0
0
0
0
0
0
0
0
0
0
0
0
0
0
0
0
0
0
0
0
0
0
0
0
0
0
0
0
0
0
0
0
0
0
0
0
0
0
0
0
0
0
0
0
0
0
0
0
0
0
0
0
0
0
0
0
0
0
0
0
0
0
0
0
0
0
0
0
0
0
0
0
0
0
0
0
0
0
0
0
0
0
0
0
0
0
0
0
0
0
0
0
0
0
0
0
0
0
0
0
0
0
0
0
0
0
0
0
0
0
0
0
0
0
0
0
0
0
0
0
0
0
0
0
0
0
0
0
0
0
0
0
0
0
0
0
0
0
0
0
0
0
0
0
0
0
0
0
0
0
0
0
0
0
0
0
0
0
0
0
0
0
0
0
0
0
9.26708872e-299
4.85518639e-299
4.67484661e-296
2.47199343e-296
2.33716551e-293
1.24724314e-293
1.15798587e-290
6.23608044e-291
5.68593385e-288
3.08975478e-288
2.76679894e-285
1.51698913e-285
1.33420506e-282
7.38034726e-283
6.37570341e-280
3.55798417e-280
3.01915169e-277
1.69964153e-277
1.41671746e-274
8.04469672e-275
6.5873785e-272
3.77298433e-272
3.03502324e-269
1.75333279e-269
1.38554236e-266
8.07122534e-267
6.26720222e-264
3.68247007e-264
2.80873529e-261
1.66447964e-261
1.24714677e-258
7.4550959e-259
5.48630259e-256
3.30675321e-256
2.39101614e-253
1.4530115e-253
1.03231029e-250
6.32470137e-251
4.4151631e-248
2.72708681e-248
1.87057457e-245
1.16474103e-245
7.85013993e-243
4.92735684e-243
3.26313802e-240
2.06459497e-240
1.34347623e-237
8.56787495e-238
5.47824034e-235
3.52134979e-235
2.21232023e-232
1.43325208e-232
8.84767525e-230
5.77686326e-230
3.50398516e-227
2.30566161e-227
1.37411799e-224
9.11192247e-225
5.33568748e-222
3.56542685e-222
2.05133389e-219
1.38125955e-219
7.80793217e-217
5.29755572e-217
2.94213483e-214
2.01134013e-214
1.09745863e-211
7.55922927e-212
4.0521356e-209
2.8120483e-209
1.48088102e-206
1.03536025e-206
5.35631163e-204
3.77270428e-204
1.91729517e-201
1.36042499e-201
6.79135538e-199
4.85426902e-199
2.3803125e-196
1.7138237e-196
8.25440987e-194
5.98640296e-194
2.83188664e-191
2.06864714e-191
9.61093059e-189
7.07113972e-189
3.22637898e-186
2.39075714e-186
1.07123541e-183
7.99435919e-184
3.51748189e-181
2.64357518e-181
1.14212212e-178
8.64401766e-179
3.66675351e-176
2.79453913e-176
1.16383807e-173
8.93158006e-174
3.65171242e-171
2.82176761e-171
1.13251385e-168
8.81127168e-169
3.47121391e-166
2.71911811e-166
1.05137156e-163
8.29154617e-164
3.14638736e-161
2.4980712e-161
9.30232173e-159
7.43494479e-159
2.71664993e-156
2.18571733e-156
7.83568346e-154
6.34586717e-154
2.23180563e-151
1.81929772e-151
6.27632027e-149
5.14949947e-149
1.74242255e-146
1.4388144e-146
4.77451512e-144
3.96780601e-144
1.29109264e-141
1.07975829e-141
3.4447673e-139
2.89904353e-139
9.06683339e-137
7.67809542e-137
2.3537499e-134
2.00557126e-134
6.02540412e-132
5.16559469e-132
1.52069419e-129
1.31162109e-129
3.78296477e-127
3.28251464e-127
9.27381158e-125
8.09497546e-125
2.23983708e-122
1.96666823e-122
5.32842604e-120
4.70592493e-120
1.24822601e-117
1.10877669e-117
2.87860245e-115
2.57164022e-115
6.53343268e-113
5.86975342e-113
1.45896154e-110
1.31808629e-110
3.20445652e-108
2.91103173e-108
6.92041358e-106
6.32102491e-106
1.46902449e-103
1.34901576e-103
3.06401045e-101
2.82865307e-101
6.27700937e-99
5.82521344e-99
1.26254076e-96
1.17771844e-96
2.49222902e-94
2.33661727e-94
4.82603659e-92
4.54736171e-92
9.16332864e-90
8.67673205e-90
1.70515802e-87
1.62242782e-87
3.10814601e-85
2.97141099e-85
5.54660565e-83
5.32734356e-83
9.68482642e-81
9.34453118e-81
1.65359567e-78
1.60263903e-78
2.75903576e-76
2.68571903e-76
4.49547146e-74
4.39468761e-74
7.14763844e-72
7.01635399e-72
1.10809507e-69
1.09208639e-69
1.67360264e-67
1.65566939e-67
2.46034477e-65
2.44239673e-65
3.51711261e-63
3.50151115e-63
4.88393271e-61
4.87126767e-61
6.5804748e-59
6.56435395e-59
8.59252068e-57
8.55237383e-57
1.08589093e-54
1.07621184e-54
1.32625202e-52
1.30910668e-52
1.56295673e-50
1.5449478e-50
1.77409929e-48
1.77302761e-48
1.93587994e-46
1.92846804e-46
2.02687642e-44
2.01200681e-44
2.03122943e-42
2.00977026e-42
1.94331503e-40
1.91773625e-40
1.76975357e-38
1.74342925e-38
1.52910952e-36
1.50562985e-36
1.24881226e-34
1.22621475e-34
9.5995009e-33
9.5953108e-33
6.90906009e-31
6.89533316e-31
4.63166681e-29
4.60947499e-29
2.87177124e-27
2.84883311e-27
1.63351809e-25
1.61695898e-25
8.44030605e-24
8.35913824e-24
3.91307147e-22
3.88558005e-22
1.60269606e-20
1.59396404e-20
5.68271831e-19
5.64762504e-19
1.69686274e-17
1.6969969e-17
4.09975226e-16
4.09007512e-16
1.42391476e-14
1.42818513e-14
1.68834556e-10
1.69166335e-10
0.00240686392
0.0108110007
0.442018953
0.5569369
0.729587392
0.678844979
0.291825888
0.2438782
0.0574806266
0.0467332029
0.0123194813
0.0110486225
0.00274634902
0.00254677511
0.000549628974
0.000528306903
0.000100829753
9.97864622e-05
1.77467051e-05
1.77358458e-05
3.37664081e-06
3.38096431e-06
1.06440503e-06
1.0648208e-06
7.17529983e-07
7.17566353e-07
6.68876913e-07
6.68887108e-07
6.62475424e-07
6.6247588e-07
6.61679375e-07
6.61679826e-07
6.61585103e-07
6.61586748e-07
6.6157405e-07
6.61576145e-07
6.61574094e-07
6.61573518e-07
6.61574166e-07
6.61572354e-07
6.61574326e-07
6.6157291e-07
6.61573933e-07
6.61573656e-07
6.61574708e-07
6.61573357e-07
6.61574887e-07
6.61573508e-07
6.61574794e-07
6.61573853e-07
6.61574611e-07
6.61574576e-07
6.61574669e-07
6.61574162e-07
6.61574473e-07
6.61574445e-07
6.61573587e-07
6.61575402e-07
6.61573327e-07
6.61574736e-07
6.61573739e-07
6.6157439e-07
6.615733e-07
6.61573683e-07
6.61573067e-07
6.61573738e-07
6.61573236e-07
6.6157506e-07
6.61572537e-07
6.61574771e-07
6.61572739e-07
6.615739e-07
6.61573574e-07
6.61574391e-07
6.61572727e-07
6.61575215e-07
6.61572867e-07
6.6157517e-07
6.61573706e-07
6.61574525e-07
6.61573879e-07
6.61573622e-07
6.61573685e-07
6.61573863e-07
6.6157434e-07
6.61573607e-07
6.61574104e-07
6.61572986e-07
6.61574528e-07
6.61572745e-07
6.61575712e-07
6.61573028e-07
6.61575141e-07
6.61573002e-07
6.6157584e-07
6.61572811e-07
6.6157517e-07
6.61573643e-07
6.6157439e-07
6.61574137e-07
6.61574592e-07
6.61573559e-07
6.61574445e-07
6.61573637e-07
6.61573316e-07
6.61575182e-07
6.61573528e-07
6.61573898e-07
6.61574369e-07
6.61573341e-07
6.61574501e-07
6.61573584e-07
6.61573631e-07
6.61573739e-07
6.61573292e-07
6.61574592e-07
6.61572344e-07
6.61574936e-07
6.61573432e-07
6.61575326e-07
6.61572994e-07
6.61575642e-07
6.61572703e-07
6.61574016e-07
6.61574372e-07
6.61574685e-07
6.61573454e-07
6.61575267e-07
6.61573353e-07
6.61575088e-07
6.6157406e-07
6.61575119e-07
6.61574735e-07
6.61575225e-07
6.6157472e-07
6.61575588e-07
6.61574144e-07
6.61574946e-07
6.61573762e-07
6.61574354e-07
6.61573937e-07
6.61573759e-07
6.61573434e-07
6.61574727e-07
6.61572897e-07
6.61573974e-07
6.61572931e-07
6.61574668e-07
6.6157361e-07
6.61573545e-07
6.61575828e-07
6.61572372e-07
6.61575249e-07
6.6157291e-07
6.61575315e-07
6.61573765e-07
6.61575119e-07
6.61572851e-07
6.61575414e-07
6.61572789e-07
6.61575951e-07
6.61572959e-07
6.61576069e-07
6.6157337e-07
6.61576289e-07
6.61573523e-07
6.61574447e-07
6.6157454e-07
6.61574269e-07
6.61572858e-07
6.61574263e-07
6.61573439e-07
6.6157336e-07
6.61575185e-07
6.61572856e-07
6.61576717e-07
6.6157741e-07
6.61604164e-07
6.61606578e-07
6.61777971e-07
6.61776521e-07
6.61604292e-07
6.61604733e-07
6.61577126e-07
6.6157657e-07
6.61574233e-07
6.61574612e-07
6.61573995e-07
6.61574621e-07
6.61573764e-07
6.61575156e-07
6.61573034e-07
6.61575668e-07
6.61574048e-07
6.61574838e-07
6.61573992e-07
6.61574553e-07
6.61573629e-07
6.61574901e-07
6.61573437e-07
6.61575445e-07
6.61573492e-07
6.61575923e-07
6.61572922e-07
6.61575905e-07
6.61573531e-07
6.61574673e-07
6.61574177e-07
6.6157518e-07
6.61574133e-07
6.61574968e-07
6.61574198e-07
6.61575095e-07
6.61573875e-07
6.61575054e-07
6.61574217e-07
6.61574807e-07
6.61574664e-07
6.61574286e-07
6.61574969e-07
6.61574355e-07
6.61574517e-07
6.6157414e-07
6.61575426e-07
6.61574178e-07
6.6157417e-07
6.61575501e-07
6.6157351e-07
6.6157496e-07
6.61574607e-07
6.61574236e-07
6.61575036e-07
6.61574712e-07
6.61574217e-07
6.61574711e-07
6.61575322e-07
6.61574721e-07
6.61575318e-07
6.61574712e-07
6.61574949e-07
6.61575047e-07
6.61576019e-07
6.61573589e-07
6.61576515e-07
6.61573178e-07
6.61576015e-07
6.61573321e-07
6.61575296e-07
6.61573898e-07
6.61573805e-07
6.61575404e-07
6.61574374e-07
6.61574376e-07
6.61574216e-07
6.61574973e-07
6.61574773e-07
6.61573592e-07
6.61575565e-07
6.61574226e-07
6.61575463e-07
6.61574836e-07
6.61575576e-07
6.61574914e-07
6.61574477e-07
6.61574865e-07
6.61573271e-07
6.61575354e-07
6.61573741e-07
6.61574836e-07
6.61573685e-07
6.61576003e-07
6.61573279e-07
6.61575244e-07
6.61574587e-07
6.61574411e-07
6.61575467e-07
6.6157412e-07
6.61574916e-07
6.61574782e-07
6.61573791e-07
6.61575493e-07
6.61574159e-07
6.61574511e-07
6.6157439e-07
6.61574693e-07
6.61573933e-07
6.61574565e-07
6.61574844e-07
6.61574677e-07
6.61575097e-07
6.61574806e-07
6.61574953e-07
6.61575118e-07
6.6157382e-07
6.61574293e-07
6.61574783e-07
6.61573944e-07
6.61575123e-07
6.61575628e-07
6.6157487e-07
6.61575682e-07
6.61575151e-07
6.61575408e-07
6.6157515e-07
6.61574465e-07
6.61575627e-07
6.61574482e-07
6.61574477e-07
6.61573677e-07
6.61575643e-07
6.61573176e-07
6.61575264e-07
6.6157357e-07
6.61575692e-07
6.61574665e-07
6.61574818e-07
6.61575058e-07
6.61574868e-07
6.61575487e-07
6.61573655e-07
6.61575572e-07
6.61572721e-07
6.61576197e-07
6.6157395e-07
6.6157608e-07
6.61574081e-07
6.61574706e-07
6.61574884e-07
6.61575763e-07
6.61574674e-07
6.61575391e-07
6.6157434e-07
6.6157483e-07
6.61574306e-07
6.61575028e-07
6.61574862e-07
6.61574656e-07
6.61575751e-07
6.61574458e-07
6.61574843e-07
6.61575242e-07
6.61575661e-07
6.61575014e-07
6.61575209e-07
6.61575852e-07
6.61574834e-07
6.6157469e-07
6.6157523e-07
6.61575173e-07
6.61574509e-07
6.61575678e-07
6.61575057e-07
6.61574901e-07
6.6157459e-07
6.61573924e-07
6.61574907e-07
6.61575109e-07
6.61574462e-07
6.61575544e-07
6.61574602e-07
6.61574959e-07
6.61575112e-07
6.61575e-07
6.61575247e-07
6.61574922e-07
6.61574666e-07
6.61575498e-07
6.61574808e-07
6.61575884e-07
6.61574937e-07
6.61575418e-07
6.61575347e-07
6.61575059e-07
6.61575196e-07
6.61576609e-07
6.61574525e-07
6.61575832e-07
6.6157504e-07
6.61575989e-07
6.61575356e-07
6.61575308e-07
6.61575069e-07
6.61575703e-07
6.61574627e-07
6.61575731e-07
6.61575188e-07
6.61574416e-07
6.61576468e-07
6.6157378e-07
6.6157553e-07
6.61574017e-07
6.61575316e-07
6.61575077e-07
6.61574918e-07
6.61575904e-07
6.61575072e-07
6.61574957e-07
6.61575401e-07
6.61574883e-07
6.61575652e-07
6.61575556e-07
6.61574484e-07
6.61574517e-07
6.6157638e-07
6.61573284e-07
6.61576325e-07
6.61573647e-07
6.61576181e-07
6.61574813e-07
6.61575271e-07
6.61575435e-07
6.61575201e-07
6.615763e-07
6.61575034e-07
6.61574763e-07
6.61575497e-07
6.61575149e-07
6.6157557e-07
6.61575792e-07
6.61576158e-07
6.61575461e-07
6.61575795e-07
6.61574368e-07
6.61577062e-07
6.6157446e-07
6.61576684e-07
6.61574936e-07
6.61575927e-07
6.61575167e-07
6.61575742e-07
6.61575465e-07
6.61575676e-07
6.61575644e-07
6.61575719e-07
6.61576607e-07
6.61575008e-07
6.61576581e-07
6.61574803e-07
6.6157596e-07
6.61575935e-07
6.6157545e-07
6.615764e-07
6.61574642e-07
6.61576015e-07
6.61575224e-07
6.61575978e-07
6.61575402e-07
6.61576163e-07
6.61575544e-07
6.61575869e-07
6.61575389e-07
6.61575689e-07
6.61575474e-07
6.61574854e-07
6.61575143e-07
6.61576272e-07
6.61575273e-07
6.61575297e-07
6.61575532e-07
6.61576128e-07
6.61575332e-07
6.61575601e-07
6.61574688e-07
6.6157667e-07
6.61574668e-07
6.61577029e-07
6.61576118e-07
6.61576235e-07
6.61575281e-07
6.61576491e-07
6.61574914e-07
6.61575978e-07
6.61574834e-07
6.61574794e-07
6.61575821e-07
6.61575896e-07
6.61575326e-07
6.61576728e-07
6.61575389e-07
6.6157554e-07
6.61575166e-07
6.61575448e-07
6.615754e-07
6.61576048e-07
6.61574998e-07
6.61575711e-07
6.61575535e-07
6.61574412e-07
6.61575827e-07
6.61574668e-07
6.61576773e-07
6.61575033e-07
6.61577436e-07
6.61574745e-07
6.61577048e-07
6.61574062e-07
6.61576867e-07
6.61575291e-07
6.61575586e-07
6.6157555e-07
6.61575961e-07
6.61575822e-07
6.61575625e-07
6.6157626e-07
6.61575727e-07
6.61574555e-07
6.61576551e-07
6.61575238e-07
6.6157574e-07
6.61576112e-07
6.61575822e-07
6.61575295e-07
6.61575861e-07
6.61575687e-07
6.61575805e-07
6.61575592e-07
6.61575926e-07
6.61575999e-07
6.61575685e-07
6.61575755e-07
6.61576004e-07
6.61575898e-07
6.61576043e-07
6.61575794e-07
6.61576023e-07
6.61575866e-07
6.61575979e-07
6.61576008e-07
6.61576092e-07
6.61576036e-07
6.61576099e-07
6.61576239e-07
6.61576243e-07
6.61576195e-07
6.61576323e-07
6.61576382e-07
6.61576366e-07
6.61576461e-07
6.6157653e-07
6.6157666e-07
6.6157669e-07
6.61576779e-07
6.61576891e-07
6.6157696e-07
6.61577089e-07
6.61577246e-07
6.61577395e-07
6.61577514e-07
6.61577743e-07
6.61577951e-07
6.61578208e-07
6.61578509e-07
6.61578827e-07
6.6157918e-07
6.61579541e-07
6.61579861e-07
6.6158009e-07
6.61580247e-07
6.61580357e-07
6.61580446e-07
6.6158045e-07
6.61580479e-07
6.61580479e-07
6.61580475e-07
6.61580485e-07
6.61580486e-07
6.61580466e-07
6.61580501e-07
6.61580465e-07
6.61580466e-07
6.6158047e-07
6.61580475e-07
6.61580469e-07
6.61580468e-07
6.61580475e-07
6.61580472e-07
6.61580457e-07
6.61580494e-07
)
;

boundaryField
{
    closed
    {
        type            calculated;
        value           uniform 0;
    }
    open
    {
        type            calculated;
        value           uniform 0;
    }
    sides
    {
        type            empty;
    }
}


// ************************************************************************* //
