/*--------------------------------*- C++ -*----------------------------------*\
| =========                 |                                                 |
| \\      /  F ield         | OpenFOAM: The Open Source CFD Toolbox           |
|  \\    /   O peration     | Version:  2206                                  |
|   \\  /    A nd           | Website:  www.openfoam.com                      |
|    \\/     M anipulation  |                                                 |
\*---------------------------------------------------------------------------*/
FoamFile
{
    version     2.0;
    format      ascii;
    arch        "LSB;label=32;scalar=64";
    class       volScalarField;
    location    "1.78e-05";
    object      rho;
}
// * * * * * * * * * * * * * * * * * * * * * * * * * * * * * * * * * * * * * //

dimensions      [1 -3 0 0 0 0 0];

internalField   nonuniform List<scalar> 
3183
(
1.03926466
1.03926466
1.03926466
1.03926466
1.03926466
1.03926466
1.03926466
1.03926466
1.03926466
1.03926466
1.03926466
1.03926466
1.03926466
1.03926466
1.03926466
1.03926466
1.03926466
1.03926466
1.03926466
1.03926466
1.03926466
1.03926466
1.03926466
1.03926466
1.03926466
1.03926466
1.03926466
1.03926466
1.03926466
1.03926466
1.03926466
1.03926466
1.03926466
1.03926466
1.03926466
1.03926466
1.03926466
1.03926466
1.03926466
1.03926466
1.03926466
1.03926466
1.03926466
1.03926466
1.03926466
1.03926466
1.03926466
1.03926466
1.03926466
1.03926466
1.03926466
1.03926466
1.03926466
1.03926466
1.03926466
1.03926466
1.03926466
1.03926466
1.03926466
1.03926466
1.03926466
1.03926466
1.03926466
1.03926466
1.03926466
1.03926466
1.03926466
1.03926466
1.03926466
1.03926466
1.03926466
1.03926466
1.03926466
1.03926466
1.03926466
1.03926466
1.03926466
1.03926466
1.03926466
1.03926466
1.03926466
1.03926466
1.03926466
1.03926466
1.03926466
1.03926466
1.03926466
1.03926466
1.03926466
1.03926466
1.03926466
1.03926466
1.03926466
1.03926466
1.03926466
1.03926466
1.03926466
1.03926466
1.03926466
1.03926466
1.03926466
1.03926466
1.03926466
1.03926466
1.03926466
1.03926466
1.03926466
1.03926466
1.03926466
1.03926466
1.03926466
1.03926466
1.03926466
1.03926466
1.03926466
1.03926466
1.03926466
1.03926466
1.03926466
1.03926466
1.03926466
1.03926466
1.03926466
1.03926466
1.03926466
1.03926466
1.03926466
1.03926466
1.03926466
1.03926466
1.03926466
1.03926466
1.03926466
1.03926466
1.03926466
1.03926466
1.03926466
1.03926466
1.03926466
1.03926466
1.03926466
1.03926466
1.03926466
1.03926466
1.03926466
1.03926466
1.03926466
1.03926466
1.03926466
1.03926466
1.03926466
1.03926466
1.03926466
1.03926466
1.03926466
1.03926466
1.03926466
1.03926466
1.03926466
1.03926466
1.03926466
1.03926466
1.03926466
1.03926466
1.03926466
1.03926466
1.03926466
1.03926466
1.03926466
1.03926466
1.03926466
1.03926466
1.03926466
1.03926466
1.03926466
1.03926466
1.03926466
1.03926466
1.03926466
1.03926466
1.03926466
1.03926466
1.03926466
1.03926466
1.03926466
1.03926466
1.03926466
1.03926466
1.03926466
1.03926466
1.03926466
1.03926466
1.03926466
1.03926466
1.03926466
1.03926466
1.03926466
1.03926466
1.03926466
1.03926466
1.03926466
1.03926466
1.03926466
1.03926466
1.03926466
1.03926466
1.03926466
1.03926466
1.03926466
1.03926466
1.03926466
1.03926466
1.03926466
1.03926466
1.03926466
1.03926466
1.03926466
1.03926466
1.03926466
1.03926466
1.03926466
1.03926466
1.03926466
1.03926466
1.03926466
1.03926466
1.03926466
1.03926466
1.03926466
1.03926466
1.03926466
1.03926466
1.03926466
1.03926466
1.03926466
1.03926466
1.03926466
1.03926466
1.03926466
1.03926466
1.03926466
1.03926466
1.03926466
1.03926466
1.03926466
1.03926466
1.03926466
1.03926466
1.03926466
1.03926466
1.03926466
1.03926466
1.03926466
1.03926466
1.03926466
1.03926466
1.03926466
1.03926466
1.03926466
1.03926466
1.03926466
1.03926466
1.03926466
1.03926466
1.03926466
1.03926466
1.03926466
1.03926466
1.03926466
1.03926466
1.03926466
1.03926466
1.03926466
1.03926466
1.03926466
1.03926466
1.03926466
1.03926466
1.03926466
1.03926466
1.03926466
1.03926466
1.03926466
1.03926466
1.03926466
1.03926466
1.03926466
1.03926466
1.03926466
1.03926466
1.03926466
1.03926466
1.03926466
1.03926466
1.03926466
1.03926466
1.03926466
1.03926466
1.03926466
1.03926466
1.03926466
1.03926466
1.03926466
1.03926466
1.03926466
1.03926466
1.03926466
1.03926466
1.03926466
1.03926466
1.03926466
1.03926466
1.03926466
1.03926466
1.03926466
1.03926466
1.03926466
1.03926466
1.03926466
1.03926466
1.03926466
1.03926466
1.03926466
1.03926466
1.03926466
1.03926466
1.03926466
1.03926466
1.03926466
1.03926466
1.03926466
1.03926466
1.03926466
1.03926466
1.03926466
1.03926466
1.03926466
1.03926466
1.03926466
1.03926466
1.03926466
1.03926466
1.03926466
1.03926466
1.03926466
1.03926466
1.03926466
1.03926466
1.03926466
1.03926466
1.03926466
1.03926466
1.03926466
1.03926466
1.03926466
1.03926466
1.03926466
1.03926466
1.03926466
1.03926466
1.03926466
1.03926466
1.03926466
1.03926466
1.03926466
1.03926466
1.03926466
1.03926466
1.03926466
1.03926466
1.03926466
1.03926466
1.03926466
1.03926466
1.03926466
1.03926466
1.03926466
1.03926466
1.03926466
1.03926466
1.03926466
1.03926466
1.03926466
1.03926466
1.03926466
1.03926466
1.03926466
1.03926466
1.03926466
1.03926466
1.03926466
1.03926466
1.03926466
1.03926466
1.03926466
1.03926466
1.03926466
1.03926466
1.03926466
1.03926466
1.03926466
1.03926466
1.03926466
1.03926466
1.03926466
1.03926466
1.03926466
1.03926466
1.03926466
1.03926466
1.03926466
1.03926466
1.03926466
1.03926466
1.03926466
1.03926466
1.03926466
1.03926466
1.03926466
1.03926466
1.03926466
1.03926466
1.03926466
1.03926466
1.03926466
1.03926466
1.03926466
1.03926466
1.03926466
1.03926466
1.03926466
1.03926466
1.03926466
1.03926466
1.03926466
1.03926466
1.03926466
1.03926466
1.03926466
1.03926466
1.03926466
1.03926466
1.03926466
1.03926466
1.03926466
1.03926466
1.03926466
1.03926466
1.03926466
1.03926466
1.03926466
1.03926466
1.03926466
1.03926466
1.03926466
1.03926466
1.03926466
1.03926466
1.03926466
1.03926466
1.03926466
1.03926466
1.03926466
1.03926466
1.03926466
1.03926466
1.03926466
1.03926466
1.03926466
1.03926466
1.03926466
1.03926466
1.03926466
1.03926466
1.03926466
1.03926466
1.03926466
1.03926466
1.03926466
1.03926466
1.03926466
1.03926466
1.03926466
1.03926466
1.03926466
1.03926466
1.03926466
1.03926466
1.03926466
1.03926466
1.03926466
1.03926466
1.03926466
1.03926466
1.03926466
1.03926466
1.03926466
1.03926466
1.03926466
1.03926466
1.03926466
1.03926466
1.03926466
1.03926466
1.03926466
1.03926466
1.03926466
1.03926466
1.03926466
1.03926466
1.03926466
1.03926466
1.03926466
1.03926466
1.03926466
1.03926466
1.03926466
1.03926466
1.03926466
1.03926466
1.03926466
1.03926466
1.03926466
1.03926466
1.03926466
1.03926466
1.03926466
1.03926466
1.03926466
1.03926466
1.03926466
1.03926466
1.03926466
1.03926466
1.03926466
1.03926466
1.03926466
1.03926466
1.03926466
1.03926466
1.03926466
1.03926466
1.03926466
1.03926466
1.03926466
1.03926466
1.03926466
1.03926466
1.03926466
1.03926466
1.03926466
1.03926466
1.03926466
1.03926466
1.03926466
1.03926466
1.03926466
1.03926466
1.03926466
1.03926466
1.03926466
1.03926466
1.03926466
1.03926466
1.03926466
1.03926466
1.03926466
1.03926466
1.03926466
1.03926466
1.03926466
1.03926466
1.03926466
1.03926466
1.03926466
1.03926466
1.03926466
1.03926466
1.03926466
1.03926466
1.03926466
1.03926466
1.03926466
1.03926466
1.03926466
1.03926466
1.03926466
1.03926466
1.03926466
1.03926466
1.03926466
1.03926466
1.03926466
1.03926466
1.03926466
1.03926466
1.03926466
1.03926466
1.03926466
1.03926466
1.03926466
1.03926466
1.03926466
1.03926466
1.03926466
1.03926466
1.03926466
1.03926466
1.03926466
1.03926466
1.03926466
1.03926466
1.03926466
1.03926466
1.03926466
1.03926466
1.03926466
1.03926466
1.03926466
1.03926466
1.03926466
1.03926466
1.03926466
1.03926466
1.03926466
1.03926466
1.03926466
1.03926466
1.03926466
1.03926466
1.03926466
1.03926466
1.03926466
1.03926466
1.03926466
1.03926466
1.03926466
1.03926466
1.03926466
1.03926466
1.03926466
1.03926466
1.03926466
1.03926466
1.03926466
1.03926466
1.03926466
1.03926466
1.03926466
1.03926466
1.03926466
1.03926466
1.03926466
1.03926466
1.03926466
1.03926466
1.03926466
1.03926466
1.03926466
1.03926466
1.03926466
1.03926466
1.03926466
1.03926466
1.03926466
1.03926466
1.03926466
1.03926466
1.03926466
1.03926466
1.03926466
1.03926466
1.03926466
1.03926466
1.03926466
1.03926466
1.03926466
1.03926466
1.03926466
1.03926466
1.03926466
1.03926466
1.03926466
1.03926466
1.03926466
1.03926466
1.03926466
1.03926466
1.03926466
1.03926466
1.03926466
1.03926466
1.03926466
1.03926466
1.03926466
1.03926466
1.03926466
1.03926466
1.03926466
1.03926466
1.03926466
1.03926466
1.03926466
1.03926466
1.03926466
1.03926466
1.03926466
1.03926466
1.03926466
1.03926466
1.03926466
1.03926466
1.03926466
1.03926466
1.03926466
1.03926466
1.03926466
1.03926466
1.03926466
1.03926466
1.03926466
1.03926466
1.03926466
1.03926466
1.03926466
1.03926466
1.03926466
1.03926466
1.03926466
1.03926466
1.03926466
1.03926466
1.03926466
1.03926466
1.03926466
1.03926466
1.03926466
1.03926466
1.03926466
1.03926466
1.03926466
1.03926466
1.03926466
1.03926466
1.03926466
1.03926466
1.03926466
1.03926466
1.03926466
1.03926466
1.03926466
1.03926466
1.03926466
1.03926466
1.03926466
1.03926466
1.03926466
1.03926466
1.03926466
1.03926466
1.03926466
1.03926466
1.03926466
1.03926466
1.03926466
1.03926466
1.03926466
1.03926466
1.03926466
1.03926466
1.03926466
1.03926466
1.03926466
1.03926466
1.03926466
1.03926466
1.03926466
1.03926466
1.03926466
1.03926466
1.03926466
1.03926466
1.03926466
1.03926466
1.03926466
1.03926466
1.03926466
1.03926466
1.03926466
1.03926466
1.03926466
1.03926466
1.03926466
1.03926466
1.03926466
1.03926466
1.03926466
1.03926466
1.03926466
1.03926466
1.03926466
1.03926466
1.03926466
1.03926466
1.03926466
1.03926466
1.03926466
1.03926466
1.03926466
1.03926466
1.03926466
1.03926466
1.03926466
1.03926466
1.03926466
1.03926466
1.03926466
1.03926466
1.03926466
1.03926466
1.03926466
1.03926466
1.03926466
1.03926466
1.03926466
1.03926466
1.03926466
1.03926466
1.03926466
1.03926466
1.03926466
1.03926466
1.03926466
1.03926466
1.03926466
1.03926466
1.03926466
1.03926466
1.03926466
1.03926466
1.03926466
1.03926466
1.03926466
1.03926466
1.03926466
1.03926466
1.03926466
1.03926466
1.03926466
1.03926466
1.03926466
1.03926466
1.03926466
1.03926466
1.03926466
1.03926466
1.03926466
1.03926466
1.03926466
1.03926466
1.03926466
1.03926466
1.03926466
1.03926466
1.03926466
1.03926466
1.03926466
1.03926466
1.03926466
1.03926466
1.03926466
1.03926466
1.03926466
1.03926466
1.03926466
1.03926466
1.03926466
1.03926466
1.03926466
1.03926466
1.03926466
1.03926466
1.03926466
1.03926466
1.03926466
1.03926466
1.03926466
1.03926466
1.03926466
1.03926466
1.03926466
1.03926466
1.03926466
1.03926466
1.03926466
1.03926466
1.03926466
1.03926466
1.03926466
1.03926466
1.03926466
1.03926466
1.03926466
1.03926466
1.03926466
1.03926466
1.03926466
1.03926466
1.03926466
1.03926466
1.03926466
1.03926466
1.03926466
1.03926466
1.03926466
1.03926466
1.03926466
1.03926466
1.03926466
1.03926466
1.03926466
1.03926466
1.03926466
1.03926466
1.03926466
1.03926466
1.03926466
1.03926466
1.03926466
1.03926466
1.03926466
1.03926466
1.03926466
1.03926466
1.03926466
1.03926466
1.03926466
1.03926466
1.03926466
1.03926466
1.03926466
1.03926466
1.03926466
1.03926466
1.03926466
1.03926466
1.03926466
1.03926466
1.03926466
1.03926466
1.03926466
1.03926466
1.03926466
1.03926466
1.03926466
1.03926466
1.03926466
1.03926466
1.03926466
1.03926466
1.03926466
1.03926466
1.03926466
1.03926466
1.03926466
1.03926466
1.03926466
1.03926466
1.03926466
1.03926466
1.03926466
1.03926466
1.03926466
1.03926466
1.03926466
1.03926466
1.03926466
1.03926466
1.03926466
1.03926466
1.03926466
1.03926466
1.03926466
1.03926466
1.03926466
1.03926466
1.03926466
1.03926466
1.03926466
1.03926466
1.03926466
1.03926466
1.03926466
1.03926466
1.03926466
1.03926466
1.03926466
1.03926466
1.03926466
1.03926466
1.03926466
1.03926466
1.03926466
1.03926466
1.03926466
1.03926466
1.03926466
1.03926466
1.03926466
1.03926466
1.03926466
1.03926466
1.03926466
1.03926466
1.03926466
1.03926466
1.03926466
1.03926466
1.03926466
1.03926466
1.03926466
1.03926466
1.03926466
1.03926466
1.03926466
1.03926466
1.03926466
1.03926466
1.03926466
1.03926466
1.03926466
1.03926466
1.03926466
1.03926466
1.03926466
1.03926466
1.03926466
1.03926466
1.03926466
1.03926466
1.03926466
1.03926466
1.03926466
1.03926466
1.03926466
1.03926466
1.03926466
1.03926466
1.03926466
1.03926466
1.03926466
1.03926466
1.03926466
1.03926466
1.03926466
1.03926466
1.03926466
1.03926466
1.03926466
1.03926466
1.03926466
1.03926466
1.03926466
1.03926466
1.03926466
1.03926466
1.03926466
1.03926466
1.03926466
1.03926466
1.03926466
1.03926466
1.03926466
1.03926466
1.03926466
1.03926466
1.03926466
1.03926466
1.03926466
1.03926466
1.03926466
1.03926466
1.03926466
1.03926466
1.03926466
1.03926466
1.03926466
1.03926466
1.03926466
1.03926466
1.03926466
1.03926466
1.03926466
1.03926466
1.03926466
1.03926466
1.03926466
1.03926466
1.03926466
1.03926466
1.03926466
1.03926466
1.03926466
1.03926466
1.03926466
1.03926466
1.03926466
1.03926466
1.03926466
1.03926466
1.03926466
1.03926466
1.03926466
1.03926466
1.03926466
1.03926466
1.03926466
1.03926466
1.03926466
1.03926466
1.03926466
1.03926466
1.03926466
1.03926466
1.03926466
1.03926466
1.03926466
1.03926466
1.03926466
1.03926466
1.03926466
1.03926466
1.03926466
1.03926466
1.03926466
1.03926466
1.03926466
1.03926466
1.03926466
1.03926466
1.03926466
1.03926466
1.03926466
1.03926466
1.03926466
1.03926466
1.03926466
1.03926466
1.03926466
1.03926466
1.03926466
1.03926466
1.03926466
1.03926466
1.03926466
1.03926466
1.03926466
1.03926466
1.03926466
1.03926466
1.03926466
1.03926466
1.03926466
1.03926466
1.03926466
1.03926466
1.03926466
1.03926466
1.03926466
1.03926466
1.03926466
1.03926466
1.03926466
1.03926466
1.03926466
1.03926466
1.03926466
1.03926466
1.03926466
1.03926466
1.03926466
1.03926466
1.03926466
1.03926466
1.03926466
1.03926466
1.03926466
1.03926466
1.03926466
1.03926466
1.03926466
1.03926466
1.03926466
1.03926466
1.03926466
1.03926466
1.03926466
1.03926466
1.03926466
1.03926466
1.03926466
1.03926466
1.03926466
1.03926466
1.03926466
1.03926466
1.03926466
1.03926466
1.03926466
1.03926466
1.03926466
1.03926466
1.03926466
1.03926466
1.03926466
1.03926466
1.03926466
1.03926466
1.03926466
1.03926466
1.03926466
1.03926466
1.03926466
1.03926466
1.03926466
1.03926466
1.03926466
1.03926466
1.03926466
1.03926466
1.03926466
1.03926466
1.03926466
1.03926466
1.03926466
1.03926466
1.03926466
1.03926466
1.03926466
1.03926466
1.03926466
1.03926466
1.03926466
1.03926466
1.03926466
1.03926466
1.03926466
1.03926466
1.03926466
1.03926466
1.03926466
1.03926466
1.03926466
1.03926466
1.03926466
1.03926466
1.03926466
1.03926466
1.03926466
1.03926466
1.03926466
1.03926466
1.03926466
1.03926466
1.03926466
1.03926466
1.03926466
1.03926466
1.03926466
1.03926466
1.03926466
1.03926466
1.03926466
1.03926466
1.03926466
1.03926466
1.03926466
1.03926466
1.03926466
1.03926466
1.03926466
1.03926466
1.03926466
1.03926466
1.03926466
1.03926466
1.03926466
1.03926466
1.03926466
1.03926466
1.03926466
1.03926466
1.03926466
1.03926466
1.03926466
1.03926466
1.03926466
1.03926466
1.03926466
1.03926466
1.03926466
1.03926466
1.03926466
1.03926466
1.03926466
1.03926466
1.03926466
1.03926466
1.03926466
1.03926466
1.03926466
1.03926466
1.03926466
1.03926466
1.03926466
1.03926466
1.03926466
1.03926466
1.03926466
1.03926466
1.03926466
1.03926466
1.03926466
1.03926466
1.03926466
1.03926466
1.03926466
1.03926466
1.03926466
1.03926466
1.03926466
1.03926466
1.03926466
1.03926466
1.03926466
1.03926466
1.03926466
1.03926466
1.03926466
1.03926466
1.03926466
1.03926466
1.03926466
1.03926466
1.03926466
1.03926466
1.03926466
1.03926466
1.03926466
1.03926466
1.03926466
1.03926466
1.03926466
1.03926466
1.03926466
1.03926466
1.03926466
1.03926466
1.03926466
1.03926466
1.03926466
1.03926466
1.03926466
1.03926466
1.03926466
1.03926466
1.03926466
1.03926466
1.03926466
1.03926466
1.03926466
1.03926466
1.03926466
1.03926466
1.03926466
1.03926466
1.03926466
1.03926466
1.03926466
1.03926466
1.03926466
1.03926466
1.03926466
1.03926466
1.03926466
1.03926466
1.03926466
1.03926466
1.03926466
1.03926466
1.03926466
1.03926466
1.03926466
1.03926466
1.03926466
1.03926466
1.03926466
1.03926466
1.03926466
1.03926466
1.03926466
1.03926466
1.03926466
1.03926466
1.03926466
1.03926466
1.03926466
1.03926466
1.03926466
1.03926466
1.03926466
1.03926466
1.03926466
1.03926466
1.03926466
1.03926466
1.03926466
1.03926466
1.03926466
1.03926466
1.03926466
1.03926466
1.03926466
1.03926466
1.03926466
1.03926466
1.03926466
1.03926466
1.03926466
1.03926466
1.03926466
1.03926466
1.03926466
1.03926466
1.03926466
1.03926466
1.03926466
1.03926466
1.03926466
1.03926466
1.03926466
1.03926466
1.03926466
1.03926466
1.03926466
1.03926466
1.03926466
1.03926466
1.03926466
1.03926466
1.03926466
1.03926466
1.03926466
1.03926466
1.03926466
1.03926466
1.03926466
1.03926466
1.03926466
1.03926466
1.03926466
1.03926466
1.03926466
1.03926466
1.03926466
1.03926466
1.03926466
1.03926466
1.03926466
1.03926466
1.03926466
1.03926466
1.03926466
1.03926466
1.03926466
1.03926466
1.03926466
1.03926466
1.03926466
1.03926466
1.03926466
1.03926466
1.03926466
1.03926466
1.03926466
1.03926466
1.03926466
1.03926466
1.03926466
1.03926466
1.03926466
1.03926466
1.03926466
1.03926466
1.03926466
1.03926466
1.03926466
1.03926466
1.03926466
1.03926466
1.03926466
1.03926466
1.03926466
1.03926466
1.03926466
1.03926466
1.03926466
1.03926466
1.03926466
1.03926466
1.03926466
1.03926466
1.03926466
1.03926466
1.03926466
1.03926466
1.03926466
1.03926466
1.03926466
1.03926466
1.03926466
1.03926466
1.03926466
1.03926466
1.03926466
1.03926466
1.03926466
1.03926466
1.03926466
1.03926466
1.03926466
1.03926466
1.03926466
1.03926466
1.03926466
1.03926466
1.03926466
1.03926466
1.03926466
1.03926466
1.03926466
1.03926466
1.03926466
1.03926466
1.03926466
1.03926466
1.03926466
1.03926466
1.03926466
1.03926466
1.03926466
1.03926466
1.03926466
1.03926466
1.03926466
1.03926466
1.03926466
1.03926466
1.03926466
1.03926466
1.03926466
1.03926466
1.03926466
1.03926466
1.03926466
1.03926466
1.03926466
1.03926466
1.03926466
1.03926466
1.03926466
1.03926466
1.03926466
1.03926466
1.03926466
1.03926466
1.03926466
1.03926466
1.03926466
1.03926466
1.03926466
1.03926466
1.03926466
1.03926466
1.03926466
1.03926466
1.03926466
1.03926466
1.03926466
1.03926466
1.03926466
1.03926466
1.03926466
1.03926466
1.03926466
1.03926466
1.03926466
1.03926466
1.03926466
1.03926466
1.03926466
1.03926466
1.03926466
1.03926466
1.03926466
1.03926466
1.03926466
1.03926466
1.03926466
1.03926466
1.03926466
1.03926466
1.03926466
1.03926466
1.03926466
1.03926466
1.03926466
1.03926466
1.03926466
1.03926466
1.03926466
1.03926466
1.03926466
1.03926466
1.03926466
1.03926466
1.03926466
1.03926466
1.03926466
1.03926466
1.03926466
1.03926466
1.03926466
1.03926466
1.03926466
1.03926466
1.03926466
1.03926466
1.03926466
1.03926466
1.03926466
1.03926466
1.03926466
1.03926466
1.03926466
1.03926466
1.03926466
1.03926466
1.03926466
1.03926466
1.03926466
1.03926466
1.03926466
1.03926466
1.03926466
1.03926466
1.03926466
1.03926466
1.03926466
1.03926466
1.03926466
1.03926466
1.03926466
1.03926466
1.03926466
1.03926466
1.03926466
1.03926466
1.03926466
1.03926466
1.03926466
1.03926466
1.03926466
1.03926466
1.03926466
1.03926466
1.03926466
1.03926466
1.03926466
1.03926466
1.03926466
1.03926466
1.03926466
1.03926466
1.03926466
1.03926466
1.03926466
1.03926466
1.03926466
1.03926466
1.03926466
1.03926466
1.03926466
1.03926466
1.03926466
1.03926466
1.03926466
1.03926466
1.03926466
1.03926466
1.03926466
1.03926466
1.03926466
1.03926466
1.03926466
1.03926466
1.03926466
1.03926466
1.03926466
1.03926466
1.03926466
1.03926466
1.03926466
1.03926466
1.03926466
1.03926466
1.03926466
1.03926466
1.03926466
1.03926466
1.03926466
1.03926466
1.03926466
1.03926466
1.03926466
1.03926466
1.03926466
1.03926466
1.03926466
1.03926466
1.03926466
1.03926466
1.03926466
1.03926466
1.03926466
1.03926466
1.03926466
1.03926466
1.03926466
1.03926466
1.03926466
1.03926466
1.03926466
1.03926466
1.03926466
1.03926466
1.03926466
1.03926466
1.03926466
1.03926466
1.03926466
1.03926466
1.03926466
1.03926466
1.03926466
1.03926466
1.03926465
1.03926465
1.03926465
1.03926465
1.03926465
1.03926465
1.03926465
1.03926465
1.03926465
1.03926465
1.03926465
1.03926465
1.03926465
1.03926465
1.03926465
1.03926465
1.03926464
1.03926464
1.03926464
1.03926464
1.03926464
1.03926464
1.03926464
1.03926464
1.03926463
1.03926463
1.03926463
1.03926463
1.03926463
1.03926463
1.03926462
1.03926462
1.03926462
1.03926462
1.03926461
1.03926461
1.03926461
1.03926461
1.0392646
1.0392646
1.0392646
1.03926459
1.03926459
1.03926458
1.03926458
1.03926458
1.03926457
1.03926457
1.03926456
1.03926456
1.03926455
1.03926454
1.03926454
1.03926453
1.03926453
1.03926452
1.03926451
1.0392645
1.03926449
1.03926449
1.03926448
1.03926447
1.03926446
1.03926445
1.03926444
1.03926443
1.03926441
1.0392644
1.03926439
1.03926437
1.03926436
1.03926434
1.03926433
1.03926431
1.0392643
1.03926428
1.03926426
1.03926424
1.03926422
1.0392642
1.03926417
1.03926415
1.03926413
1.0392641
1.03926407
1.03926404
1.03926402
1.03926398
1.03926395
1.03926392
1.03926388
1.03926385
1.03926381
1.03926377
1.03926373
1.03926369
1.03926364
1.03926359
1.03926355
1.0392635
1.03926344
1.03926339
1.03926333
1.03926327
1.03926321
1.03926314
1.03926308
1.039263
1.03926293
1.03926286
1.03926278
1.03926269
1.03926261
1.03926252
1.03926243
1.03926233
1.03926223
1.03926213
1.03926202
1.03926191
1.03926179
1.03926167
1.03926155
1.03926142
1.03926128
1.03926114
1.039261
1.03926085
1.03926069
1.03926053
1.03926036
1.03926019
1.03926001
1.03925982
1.03925963
1.03925943
1.03925922
1.03925901
1.03925878
1.03925855
1.03925832
1.03925807
1.03925782
1.03925755
1.03925728
1.039257
1.03925671
1.03925641
1.0392561
1.03925578
1.03925545
1.03925511
1.03925476
1.0392544
1.03925403
1.03925364
1.03925324
1.03925283
1.03925241
1.03925197
1.03925152
1.03925106
1.03925058
1.03925009
1.03924959
1.03924907
1.03924853
1.03924798
1.03924741
1.03924683
1.03924623
1.03924562
1.03924498
1.03924433
1.03924366
1.03924298
1.03924227
1.03924155
1.0392408
1.03924004
1.03923926
1.03923845
1.03923763
1.03923679
1.03923592
1.03923504
1.03923413
1.0392332
1.03923224
1.03923127
1.03923027
1.03922925
1.0392282
1.03922713
1.03922604
1.03922492
1.03922377
1.0392226
1.03922141
1.03922019
1.03921894
1.03921767
1.03921638
1.03921505
1.0392137
1.03921232
1.03921092
1.03920949
1.03920803
1.03920654
1.03920502
1.03920348
1.03920191
1.03920031
1.03919869
1.03919703
1.03919535
1.03919364
1.0391919
1.03919014
1.03918834
1.03918652
1.03918467
1.03918279
1.03918089
1.03917895
1.03917699
1.039175
1.03917299
1.03917095
1.03916888
1.03916679
1.03916467
1.03916253
1.03916036
1.03915816
1.03915594
1.0391537
1.03915144
1.03914915
1.03914684
1.0391445
1.03914215
1.03913977
1.03913738
1.03913496
1.03913253
1.03913008
1.03912761
1.03912512
1.03912262
1.0391201
1.03911757
1.03911503
1.03911247
1.0391099
1.03910732
1.03910473
1.03910213
1.03909953
1.03909691
1.03909429
1.03909167
1.03908904
1.03908641
1.03908378
1.03908115
1.03907851
1.03907588
1.03907325
1.03907063
1.03906801
1.0390654
1.0390628
1.0390602
1.03905761
1.03905504
1.03905248
1.03904993
1.0390474
1.03904488
1.03904238
1.0390399
1.03903744
1.039035
1.03903259
1.0390302
1.03902783
1.03902549
1.03902317
1.03902089
1.03901863
1.03901641
1.03901422
1.03901206
1.03900993
1.03900784
1.03900579
1.03900378
1.0390018
1.03899986
1.03899797
1.03899611
1.0389943
1.03899253
1.03899081
1.03898913
1.0389875
1.03898592
1.03898438
1.03898289
1.03898145
1.03898006
1.03897872
1.03897743
1.03897619
1.03897501
1.03897387
1.03897279
1.03897176
1.03897079
1.03896986
1.038969
1.03896818
1.03896742
1.03896672
1.03896606
1.03896547
1.03896492
1.03896443
1.038964
1.03896362
1.03896329
1.03896302
1.03896279
1.03896262
1.03896251
1.03896244
1.03896243
1.03896246
1.03896255
1.03896269
1.03896287
1.03896311
1.03896339
1.03896372
1.03896409
1.03896451
1.03896498
1.03896548
1.03896603
1.03896663
1.03896726
1.03896793
1.03896864
1.03896939
1.03897018
1.038971
1.03897185
1.03897274
1.03897366
1.03897462
1.0389756
1.03897661
1.03897765
1.03897871
1.0389798
1.03898092
1.03898206
1.03898322
1.0389844
1.0389856
1.03898681
1.03898805
1.0389893
1.03899056
1.03899184
1.03899313
1.03899444
1.03899575
1.03899707
1.0389984
1.03899974
1.03900108
1.03900243
1.03900378
1.03900513
1.03900649
1.03900784
1.0390092
1.03901056
1.03901191
1.03901326
1.03901461
1.03901595
1.03901729
1.03901862
1.03901995
1.03902127
1.03902258
1.03902388
1.03902518
1.03902646
1.03902773
1.03902899
1.03903025
1.03903149
1.03903271
1.03903393
1.03903513
1.03903632
1.0390375
1.03903866
1.0390398
1.03904094
1.03904206
1.03904316
1.03904425
1.03904532
1.03904638
1.03904743
1.03904845
1.03904947
1.03905047
1.03905145
1.03905242
1.03905337
1.03905431
1.03905523
1.03905614
1.03905703
1.03905791
1.03905877
1.03905962
1.03906045
1.03906127
1.03906208
1.03906287
1.03906365
1.03906441
1.03906517
1.03906591
1.03906664
1.03906735
1.03906805
1.03906875
1.03906943
1.03907009
1.03907075
1.0390714
1.03907204
1.03907266
1.03907328
1.03907389
1.03907449
1.03907508
1.03907566
1.03907623
1.03907679
1.03907735
1.0390779
1.03907844
1.03907897
1.0390795
1.03908002
1.03908053
1.03908104
1.03908154
1.03908203
1.03908252
1.03908301
1.03908349
1.03908396
1.03908443
1.0390849
1.03908536
1.03908581
1.03908626
1.03908671
1.03908716
1.0390876
1.03908803
1.03908846
1.03908889
1.03908932
1.03908974
1.03909016
1.03909058
1.03909099
1.0390914
1.0390918
1.03909221
1.03909261
1.03909301
1.0390934
1.03909379
1.03909418
1.03909457
1.03909495
1.03909533
1.03909571
1.03909608
1.03909645
1.03909682
1.03909719
1.03909755
1.03909791
1.03909827
1.03909862
1.03909897
1.03909932
1.03909966
1.0391
1.03910034
1.03910067
1.039101
1.03910133
1.03910165
1.03910197
1.03910229
1.0391026
1.03910291
1.03910322
1.03910352
1.03910382
1.03910411
1.0391044
1.03910469
1.03910497
1.03910525
1.03910553
1.0391058
1.03910607
1.03910633
1.03910659
1.03910685
1.0391071
1.03910735
1.0391076
1.03910784
1.03910808
1.03910831
1.03910854
1.03910877
1.039109
1.03910922
1.03910944
1.03910965
1.03910986
1.03911007
1.03911028
1.03911048
1.03911068
1.03911088
1.03911108
1.03911127
1.03911146
1.03911165
1.03911184
1.03911202
1.0391122
1.03911238
1.03911256
1.03911274
1.03911292
1.0391131
1.03911327
1.03911344
1.03911362
1.03911379
1.03911396
1.03911413
1.0391143
1.03911447
1.03911464
1.03911481
1.03911498
1.03911515
1.03911533
1.0391155
1.03911567
1.03911584
1.03911602
1.03911619
1.03911636
1.03911654
1.03911672
1.03911689
1.03911707
1.03911725
1.03911743
1.03911761
1.0391178
1.03911798
1.03911817
1.03911835
1.03911854
1.03911873
1.03911892
1.03911911
1.0391193
1.0391195
1.03911969
1.03911989
1.03912009
1.03912028
1.03912048
1.03912068
1.03912088
1.03912108
1.03912128
1.03912149
1.03912169
1.03912189
1.03912209
1.0391223
1.0391225
1.0391227
1.0391229
1.03912311
1.03912331
1.03912351
1.03912371
1.03912391
1.03912411
1.03912431
1.03912451
1.03912471
1.0391249
1.0391251
1.03912529
1.03912548
1.03912567
1.03912586
1.03912605
1.03912623
1.03912642
1.0391266
1.03912678
1.03912696
1.03912714
1.03912731
1.03912748
1.03912765
1.03912782
1.03912799
1.03912815
1.03912831
1.03912847
1.03912863
1.03912879
1.03912894
1.03912909
1.03912924
1.03912939
1.03912953
1.03912968
1.03912982
1.03912996
1.03913009
1.03913023
1.03913036
1.03913049
1.03913062
1.03913075
1.03913088
1.03913101
1.03913113
1.03913125
1.03913137
1.03913149
1.03913161
1.03913173
1.03913185
1.03913196
1.03913207
1.03913219
1.0391323
1.03913241
1.03913252
1.03913263
1.03913274
1.03913285
1.03913295
1.03913306
1.03913316
1.03913327
1.03913337
1.03913348
1.03913358
1.03913368
1.03913378
1.03913388
1.03913398
1.03913408
1.03913418
1.03913428
1.03913438
1.03913448
1.03913458
1.03913467
1.03913477
1.03913487
1.03913496
1.03913506
1.03913515
1.03913525
1.03913534
1.03913544
1.03913553
1.03913562
1.03913572
1.03913581
1.0391359
1.03913599
1.03913608
1.03913618
1.03913627
1.03913636
1.03913645
1.03913654
1.03913663
1.03913673
1.03913682
1.03913691
1.039137
1.0391371
1.03913719
1.03913728
1.03913738
1.03913747
1.03913757
1.03913767
1.03913776
1.03913786
1.03913796
1.03913807
1.03913817
1.03913827
1.03913838
1.03913849
1.0391386
1.03913871
1.03913883
1.03913895
1.03913907
1.0391392
1.03913933
1.03913946
1.0391396
1.03913974
1.03913988
1.03914003
1.03914019
1.03914035
1.03914052
1.0391407
1.03914088
1.03914108
1.03914128
1.03914149
1.03914171
1.03914194
1.03914218
1.03914243
1.0391427
1.03914298
1.03914327
1.03914358
1.03914391
1.03914425
1.03914461
1.03914499
1.03914539
1.0391458
1.03914625
1.03914671
1.0391472
1.03914771
1.03914824
1.0391488
1.03914939
1.03915001
1.03915065
1.03915132
1.03915202
1.03915274
1.0391535
1.03915428
1.03915509
1.03915592
1.03915678
1.03915767
1.03915857
1.0391595
1.03916045
1.03916142
1.0391624
1.03916339
1.03916439
1.0391654
1.03916641
1.03916742
1.03916843
1.03916942
1.0391704
1.03917137
1.03917232
1.03917324
1.03917413
1.03917498
1.03917581
1.03917659
1.03917733
1.03917802
1.03917866
1.03917926
1.0391798
1.03918029
1.03918073
1.03918112
1.03918146
1.03918176
1.03918201
1.03918221
1.03918238
1.03918251
1.03918262
1.03918269
1.03918275
1.03918279
1.03918281
1.03918282
1.03918283
1.03918284
1.03918285
1.03918287
1.03918289
1.03918292
1.0391833
1.03918334
1.03919345
1.03919352
1.0394345
1.03943405
1.04101433
1.04100238
0.862803893
0.862744415
0.444878846
0.417252427
0.324691266
0.315627834
0.285830851
0.282620873
0.270868476
0.269769422
0.265182402
0.264878895
0.263400765
0.263338946
0.262935079
0.262925362
0.262828203
0.262827157
0.262806354
0.262806296
0.262802299
0.262802293
0.262801589
0.262801584
0.262801466
0.26280146
0.262801435
0.262801427
0.262801415
0.262801404
0.262801391
0.262801377
0.26280136
0.262801341
0.262801319
0.262801295
0.262801268
0.262801239
0.262801207
0.262801171
0.262801133
0.262801091
0.262801046
0.262800998
0.262800947
0.262800892
0.262800834
0.262800773