/*--------------------------------*- C++ -*----------------------------------*\
| =========                 |                                                 |
| \\      /  F ield         | OpenFOAM: The Open Source CFD Toolbox           |
|  \\    /   O peration     | Version:  2206                                  |
|   \\  /    A nd           | Website:  www.openfoam.com                      |
|    \\/     M anipulation  |                                                 |
\*---------------------------------------------------------------------------*/
FoamFile
{
    version     2.0;
    format      ascii;
    arch        "LSB;label=32;scalar=64";
    class       volScalarField;
    location    "1.78e-05";
    object      sourcePV;
}
// * * * * * * * * * * * * * * * * * * * * * * * * * * * * * * * * * * * * * //

dimensions      [1 -3 -1 0 0 0 0];

internalField   nonuniform List<scalar> 
3183
(
0
0
0
0
0
0
0
0
0
0
0
0
0
0
0
0
0
0
0
0
0
0
0
0
0
0
0
0
0
0
0
0
0
0
0
0
0
0
0
0
0
0
0
0
0
0
0
0
0
0
0
0
0
0
0
0
0
0
0
0
0
0
0
0
0
0
0
0
0
0
0
0
0
0
0
0
0
0
0
0
0
0
0
0
0
0
0
0
0
0
0
0
0
0
0
0
0
0
0
0
0
0
0
0
0
0
0
0
0
0
0
0
0
0
0
0
0
0
0
0
0
0
0
0
0
0
0
0
0
0
0
0
0
0
0
0
0
0
0
0
0
0
0
0
0
0
0
0
0
0
0
0
0
0
0
0
0
0
0
0
0
0
0
0
0
0
0
0
0
0
0
0
0
0
0
0
0
0
0
0
0
0
0
0
0
0
0
0
0
0
0
0
0
0
0
0
0
0
0
0
0
0
0
0
0
0
0
0
0
0
0
0
0
0
0
0
0
0
0
0
0
0
0
0
0
0
0
0
0
0
0
0
0
0
0
0
0
0
0
0
0
0
0
0
0
0
0
0
0
0
0
0
0
0
0
0
0
0
0
0
0
0
0
0
0
0
0
0
0
0
0
0
0
0
0
0
0
0
0
0
0
0
0
0
0
0
0
0
0
0
0
0
0
0
0
0
0
0
0
0
0
0
0
0
0
0
0
0
0
0
0
0
0
0
0
0
0
0
0
0
0
0
0
0
0
0
0
0
0
0
0
0
0
0
0
0
0
0
0
0
0
0
0
0
0
0
0
0
0
0
0
0
0
0
0
0
0
0
0
0
0
0
0
0
0
0
0
0
0
0
0
0
0
0
0
0
0
0
0
0
0
0
0
0
0
0
0
0
0
0
0
0
0
0
0
0
0
0
0
0
0
0
0
0
0
0
0
0
0
0
0
0
0
0
0
0
0
0
0
0
0
0
0
0
0
0
0
0
0
0
0
0
0
0
0
0
0
0
0
0
0
0
0
0
0
0
0
0
0
0
0
0
0
0
0
0
0
0
0
0
0
0
0
0
0
0
0
0
0
0
0
0
0
0
0
0
0
0
0
0
0
0
0
0
0
0
0
0
0
0
0
0
0
0
0
0
0
0
0
0
0
0
0
0
0
0
0
0
0
0
0
0
0
0
0
0
0
0
0
0
0
0
0
0
0
0
0
0
0
0
0
0
0
0
0
0
0
0
0
0
0
0
0
0
0
0
0
0
0
0
0
0
0
0
0
0
0
0
0
0
0
0
0
0
0
0
0
0
0
0
0
0
0
0
0
0
0
0
0
0
0
0
0
0
0
0
0
0
0
0
0
0
0
0
0
0
0
0
0
0
0
0
0
0
0
0
0
0
0
0
0
0
0
0
0
0
0
0
0
0
0
0
0
0
0
0
0
0
0
0
0
0
0
0
0
0
0
0
0
0
0
0
0
0
0
0
0
0
0
0
0
0
0
0
0
0
0
0
0
0
0
0
0
0
0
0
0
0
0
0
0
0
0
0
0
0
0
0
0
0
0
0
0
0
0
0
0
0
0
0
0
0
0
0
0
0
0
0
0
0
0
0
0
0
0
0
0
0
0
0
0
0
0
0
0
0
0
0
0
0
0
0
0
0
0
0
0
0
0
0
0
0
0
0
0
0
0
0
0
0
0
0
0
0
0
0
0
0
0
0
0
0
0
0
0
0
0
0
0
0
0
0
0
0
0
0
0
0
0
0
0
0
0
0
0
0
0
0
0
0
0
0
0
0
0
0
0
0
0
0
0
0
0
0
0
0
0
0
0
0
0
0
0
0
0
0
0
0
0
0
0
0
0
0
0
0
0
0
0
0
0
0
0
0
0
0
0
0
0
0
0
0
0
0
0
0
0
0
0
0
0
0
0
0
0
0
0
0
0
0
0
0
0
0
0
0
0
0
0
0
0
0
0
0
0
0
0
0
0
0
0
0
0
0
0
0
0
0
0
0
0
0
0
0
0
0
0
0
0
0
0
0
0
0
0
0
0
0
0
0
0
0
0
0
0
0
0
0
0
0
0
0
0
0
0
0
0
0
0
0
0
0
0
0
0
0
0
0
0
0
0
0
0
0
0
0
0
0
0
0
0
0
0
0
0
0
0
0
0
0
0
0
0
0
0
0
0
0
0
0
0
0
0
0
0
0
0
0
0
0
0
0
0
0
0
0
0
0
0
0
0
0
0
0
0
0
0
0
0
0
0
0
0
0
0
0
0
0
0
0
0
0
0
0
0
0
0
0
0
0
0
0
0
0
0
0
0
0
0
0
0
0
0
0
0
0
0
0
0
0
0
0
0
0
0
0
0
0
0
0
0
0
0
0
0
0
0
0
0
0
0
0
0
0
0
0
0
0
0
0
0
0
0
0
0
0
0
0
0
0
0
0
0
0
0
0
0
0
0
0
0
0
0
0
0
0
0
0
0
0
0
0
0
0
0
0
0
0
0
0
0
0
0
0
0
0
0
0
0
0
0
0
0
0
0
0
0
0
0
0
0
0
0
0
0
0
0
0
0
0
0
0
0
0
0
0
0
0
0
0
0
0
0
0
0
0
0
0
0
0
0
0
0
0
0
0
0
0
0
0
0
0
0
0
0
0
0
0
0
0
0
0
0
0
0
0
0
0
0
0
0
0
0
0
0
0
0
0
0
0
0
0
0
0
0
0
0
0
0
0
0
0
0
0
0
0
0
0
0
0
0
0
0
0
0
0
0
0
0
0
0
0
0
0
0
0
0
0
0
0
0
0
0
0
0
0
0
0
0
0
0
0
0
0
0
0
0
0
0
0
0
0
0
0
0
0
0
0
0
0
0
0
0
0
0
0
0
0
0
0
0
0
0
0
0
0
0
0
0
0
0
0
0
0
0
0
0
0
0
0
0
0
0
0
0
0
0
0
0
0
0
0
0
0
0
0
0
0
0
0
0
0
0
0
0
0
0
0
0
0
0
0
0
0
0
0
0
0
0
0
0
0
0
0
0
0
0
0
0
0
0
0
0
0
0
0
0
0
0
0
0
0
0
0
0
0
0
0
0
0
0
0
0
0
0
0
0
0
0
0
0
0
0
0
0
0
0
0
0
0
0
0
0
0
0
0
0
0
0
0
0
0
0
0
0
0
0
0
0
0
0
0
0
0
0
0
0
0
0
0
0
0
0
0
0
0
0
0
0
0
0
0
0
0
0
0
0
0
0
0
0
0
0
0
0
0
0
0
0
0
0
0
0
0
0
0
0
0
0
0
0
0
0
0
0
0
0
0
0
0
0
0
0
0
0
0
0
0
0
0
0
0
0
0
0
0
0
0
0
0
0
0
0
0
0
0
0
0
0
0
0
0
0
0
0
0
0
0
0
0
0
0
0
0
0
0
0
0
0
0
0
0
0
0
0
0
0
0
0
0
0
0
0
0
0
0
0
0
0
0
0
0
0
0
0
0
0
0
0
0
0
0
0
0
0
0
0
0
0
0
0
0
0
0
0
0
0
0
0
0
0
0
0
0
0
0
0
0
0
0
0
0
0
0
0
0
0
0
0
0
0
0
0
0
0
0
0
0
0
0
0
0
0
0
0
0
0
0
0
0
0
0
0
0
0
0
0
0
0
0
0
0
0
0
0
0
0
0
0
0
0
0
0
0
0
0
0
0
0
0
0
0
0
0
0
0
0
0
0
0
0
0
0
0
0
0
0
0
0
0
0
0
0
0
0
0
0
0
0
0
0
0
0
0
0
0
0
0
0
0
0
0
0
0
0
0
0
0
0
0
0
0
0
0
0
0
0
0
0
0
0
0
0
0
0
0
0
0
0
0
0
0
0
0
0
0
0
0
0
0
0
0
0
0
0
0
0
0
0
0
0
0
0
0
0
0
0
0
0
0
0
0
0
0
0
0
0
0
0
0
0
0
0
0
0
0
0
0
0
0
0
0
0
0
0
0
0
0
0
0
0
0
0
0
0
0
0
0
0
0
0
0
0
0
0
0
0
0
0
0
0
0
0
0
0
0
0
0
0
0
0
0
0
0
0
0
0
0
0
0
0
0
0
0
0
0
0
0
0
0
0
0
0
0
0
0
0
0
0
0
0
0
0
0
0
0
0
0
0
0
0
0
0
0
0
0
0
0
0
0
0
0
0
0
0
0
0
0
0
0
0
0
0
0
0
0
0
0
0
0
0
0
0
0
0
0
0
0
0
0
0
0
0
0
0
0
0
0
0
0
0
0
0
0
0
0
0
0
0
0
0
0
0
0
0
0
0
0
0
0
0
0
0
0
0
0
0
0
0
0
0
0
0
0
0
0
0
0
0
0
0
0
0
0
0
0
0
0
0
0
0
0
0
0
0
0
0
0
0
0
0
0
0
0
0
0
0
0
0
0
0
0
0
0
0
0
0
0
0
0
0
0
0
0
0
0
0
0
0
0
0
0
0
0
0
0
0
0
0
0
0
0
0
0
0
0
0
0
0
0
0
0
0
0
0
0
0
0
0
0
0
0
0
0
0
0
0
0
0
0
0
0
0
0
0
0
0
0
0
0
0
0
0
0
0
0
0
0
0
0
0
0
0
0
0
0
0
0
0
0
0
0
0
0
0
0
0
0
0
0
0
0
0
0
0
0
0
0
0
0
0
0
0
0
0
0
0
0
0
0
0
0
0
0
0
0
0
0
0
0
0
0
0
0
0
0
0
0
0
0
0
0
0
0
0
0
0
0
0
0
0
0
0
0
0
0
0
0
0
0
0
0
0
0
0
0
0
0
0
0
0
0
0
0
0
0
0
0
0
0
0
0
0
0
0
0
0
0
0
0
0
0
0
0
0
0
0
0
0
0
0
0
0
0
0
0
0
0
0
0
0
0
0
0
0
0
0
0
0
0
0
0
0
0
0
0
0
0
0
0
0
0
0
0
0
0
0
0
0
0
0
0
0
0
0
0
0
0
0
0
0
0
0
0
0
0
0
0
0
0
0
0
0
0
0
0
0
0
0
0
0
0
0
0
0
0
0
0
0
0
0
0
0
0
0
0
0
0
0
0
0
0
0
0
0
0
0
0
0
0
0
0
0
0
0
0
0
0
0
0
0
0
0
0
0
0
0
0
0
0
0
0
0
0
0
0
0
0
0
0
0
0
0
0
0
0
0
0
0
0
0
0
0
0
0
0
0
0
0
0
0
0
0
0
0
0
0
0
0
0
0
0
0
0
0
0
0
0
0
0
0
0
0
0
0
0
0
0
0
0
0
0
0
0
0
0
0
0
0
0
0
0
0
0
0
0
0
0
0
0
0
0
0
0
0
0
0
3.17864773e-298
1.64987226e-298
1.61794057e-295
8.47666758e-296
8.16181244e-293
4.31585214e-293
4.08045614e-290
2.17756119e-290
2.02172697e-287
1.08875698e-287
9.92706918e-285
5.39440138e-285
4.83055295e-282
2.6485106e-282
2.32938798e-279
1.28853447e-279
1.11313375e-276
6.21188284e-277
5.27113549e-274
2.96740333e-274
2.47344633e-271
1.40452321e-271
1.15009009e-268
6.58725152e-269
5.29884562e-266
3.06114287e-266
2.41901774e-263
1.40915484e-263
1.09419053e-260
6.42922272e-261
4.9037696e-258
2.90601421e-258
2.17739294e-255
1.30158484e-255
9.57853306e-253
5.77325884e-253
4.17447393e-250
2.53681207e-250
1.80231005e-247
1.10422931e-247
7.70843113e-245
4.76121954e-245
3.26583525e-242
2.0335208e-242
1.37055555e-239
8.60266993e-240
5.6971111e-237
3.60457537e-237
2.3455745e-234
1.49586487e-234
9.56445717e-232
6.1479229e-232
3.86248883e-229
2.50231411e-229
1.5447152e-226
1.00858228e-226
6.117606e-224
4.02545349e-224
2.39907193e-221
1.5908501e-221
9.31557421e-219
6.22487703e-219
3.58142284e-216
2.41154038e-216
1.3631865e-213
9.24899998e-214
5.13667178e-211
3.51159776e-211
1.91605249e-208
1.31976547e-208
7.0746216e-206
4.90955377e-206
2.58546945e-203
1.80763497e-203
9.35158189e-201
6.58676258e-201
3.34740471e-198
2.37516533e-198
1.18570241e-195
8.47506595e-196
4.15578644e-193
2.99216398e-193
1.44113702e-190
1.0451658e-190
4.94418953e-188
3.61165005e-188
1.67797191e-185
1.23454994e-185
5.63293351e-183
4.17402174e-183
1.87026939e-180
1.39573479e-180
6.14116994e-178
4.61541664e-178
1.99403047e-175
1.50915863e-175
6.40178319e-173
4.87898453e-173
2.03194432e-170
1.55936413e-170
6.37552296e-168
4.92652271e-168
1.97725538e-165
1.5383595e-165
6.06039069e-163
4.747307e-163
1.8355891e-160
1.44762065e-160
5.49327617e-158
4.3613813e-158
1.6240919e-155
1.29806665e-155
4.74299781e-153
3.81604283e-153
1.3680316e-150
1.10792464e-150
3.89650837e-148
3.17631101e-148
1.09578245e-145
8.99050865e-146
3.0420947e-143
2.51202537e-143
8.33582365e-141
6.9273906e-141
2.25411803e-138
1.88514948e-138
6.01421756e-136
5.0614387e-136
1.58297801e-133
1.34051831e-133
4.10941082e-131
3.5015259e-131
1.05197501e-128
9.01860929e-129
2.65497925e-126
2.28995862e-126
6.60467636e-124
5.73094072e-124
1.61911432e-121
1.41330138e-121
3.91053048e-119
3.43360512e-119
9.30289646e-117
8.21607207e-117
2.17927718e-114
1.93581268e-114
5.02575064e-112
4.48982543e-112
1.1406717e-109
1.02479997e-109
2.54720026e-107
2.30124621e-107
5.59465909e-105
5.0823689e-105
1.20823467e-102
1.10358743e-102
2.56476915e-100
2.35524597e-100
5.34945437e-98
4.93854403e-98
1.09590276e-95
1.01702373e-95
2.2042693e-93
2.05617806e-93
4.35118144e-91
4.07949896e-91
8.42577496e-89
7.93923662e-89
1.59982511e-86
1.51487023e-86
2.97703456e-84
2.83259595e-84
5.42651062e-82
5.18778502e-82
9.68381613e-80
9.30100655e-80
1.69087338e-77
1.63146125e-77
2.88701188e-75
2.79804671e-75
4.81699921e-73
4.68899557e-73
7.84864146e-71
7.67268299e-71
1.24790585e-68
1.2249849e-68
1.93462266e-66
1.9066731e-66
2.92194204e-64
2.89063238e-64
4.29551475e-62
4.26417927e-62
6.14052521e-60
6.11328663e-60
8.52685577e-58
8.50474387e-58
1.14888478e-55
1.14607024e-55
1.50016777e-53
1.49315854e-53
1.89585645e-51
1.87895774e-51
2.31550277e-49
2.28556872e-49
2.72876541e-47
2.69732363e-47
3.0973991e-45
3.09552804e-45
3.37985186e-43
3.36691142e-43
3.53872257e-41
3.51276171e-41
3.54632249e-39
3.50885694e-39
3.39283278e-37
3.3481748e-37
3.0898119e-35
3.04385229e-35
2.66967158e-33
2.62867843e-33
2.18030072e-31
2.14084774e-31
1.6759764e-29
1.67524485e-29
1.20625247e-27
1.20385588e-27
8.08642485e-26
8.04768017e-26
5.01382402e-24
4.97377635e-24
2.85195845e-22
2.8230479e-22
1.47359263e-20
1.45942154e-20
6.83182959e-19
6.78383233e-19
2.79814627e-17
2.78290104e-17
9.92145516e-16
9.86018584e-16
2.96255183e-14
2.96278608e-14
7.15775549e-13
7.14086018e-13
1.71378534e-11
1.71700125e-11
2.04379925e-08
2.0470799e-08
0.0579782121
0.23635209
6.75173125
8.17897909
9.36882059
8.59258022
3.51293543
2.92197521
0.677664239
0.550089306
0.144693916
0.129767513
0.0322562248
0.0299122031
0.00645546034
0.00620502983
0.00118425474
0.00117200116
0.000208433472
0.000208305928
3.96551859e-05
3.9705966e-05
1.2497674e-05
1.25025573e-05
8.42358118e-06
8.42400835e-06
7.85214451e-06
7.85226424e-06
7.77695818e-06
7.77696354e-06
7.76760847e-06
7.76761377e-06
7.76650124e-06
7.76652056e-06
7.76637142e-06
7.76639603e-06
7.76637193e-06
7.76636517e-06
7.76637278e-06
7.7663515e-06
7.76637467e-06
7.76635803e-06
7.76637005e-06
7.7663668e-06
7.76637915e-06
7.76636328e-06
7.76638125e-06
7.76636505e-06
7.76638015e-06
7.76636911e-06
7.766378e-06
7.7663776e-06
7.76637869e-06
7.76637274e-06
7.76637639e-06
7.76637606e-06
7.76636598e-06
7.7663873e-06
7.76636293e-06
7.76637948e-06
7.76636776e-06
7.76637542e-06
7.76636261e-06
7.7663671e-06
7.76635987e-06
7.76636775e-06
7.76636186e-06
7.76638329e-06
7.76635365e-06
7.76637989e-06
7.76635603e-06
7.76636966e-06
7.76636582e-06
7.76637543e-06
7.76635588e-06
7.7663851e-06
7.76635752e-06
7.76638457e-06
7.76636738e-06
7.766377e-06
7.76636941e-06
7.7663664e-06
7.76636714e-06
7.76636922e-06
7.76637483e-06
7.76636622e-06
7.76637205e-06
7.76635893e-06
7.76637704e-06
7.76635609e-06
7.76639095e-06
7.76635942e-06
7.76638423e-06
7.76635911e-06
7.76639244e-06
7.76635686e-06
7.76638458e-06
7.76636664e-06
7.76637541e-06
7.76637244e-06
7.76637779e-06
7.76636565e-06
7.76637605e-06
7.76636656e-06
7.76636279e-06
7.76638472e-06
7.76636529e-06
7.76636964e-06
7.76637516e-06
7.76636309e-06
7.76637671e-06
7.76636595e-06
7.7663665e-06
7.76636777e-06
7.76636252e-06
7.76637778e-06
7.76635139e-06
7.76638183e-06
7.76636416e-06
7.7663864e-06
7.76635901e-06
7.76639012e-06
7.7663556e-06
7.76637102e-06
7.76637521e-06
7.76637888e-06
7.76636443e-06
7.76638571e-06
7.76636323e-06
7.76638361e-06
7.76637153e-06
7.76638398e-06
7.76637946e-06
7.76638522e-06
7.76637928e-06
7.76638948e-06
7.76637253e-06
7.76638194e-06
7.76636804e-06
7.76637498e-06
7.76637009e-06
7.76636801e-06
7.76636418e-06
7.76637937e-06
7.76635788e-06
7.76637053e-06
7.76635828e-06
7.76637868e-06
7.76636625e-06
7.76636548e-06
7.7663923e-06
7.76635172e-06
7.7663855e-06
7.76635803e-06
7.76638627e-06
7.76636807e-06
7.76638398e-06
7.76635734e-06
7.76638744e-06
7.76635661e-06
7.76639374e-06
7.7663586e-06
7.76639513e-06
7.76636343e-06
7.76639771e-06
7.76636523e-06
7.76637609e-06
7.76637718e-06
7.76637399e-06
7.76635741e-06
7.76637393e-06
7.76636425e-06
7.76636331e-06
7.76638475e-06
7.76635739e-06
7.76640274e-06
7.76641089e-06
7.76672512e-06
7.76675347e-06
7.7687665e-06
7.76874947e-06
7.76672661e-06
7.7667318e-06
7.76640755e-06
7.76640102e-06
7.76637357e-06
7.76637802e-06
7.76637077e-06
7.76637813e-06
7.76636806e-06
7.76638441e-06
7.76635949e-06
7.76639043e-06
7.76637139e-06
7.76638067e-06
7.76637074e-06
7.76637733e-06
7.76636648e-06
7.76638141e-06
7.76636422e-06
7.7663878e-06
7.76636487e-06
7.76639342e-06
7.76635817e-06
7.76639321e-06
7.76636533e-06
7.76637873e-06
7.76637291e-06
7.76638469e-06
7.76637239e-06
7.7663822e-06
7.76637316e-06
7.76638369e-06
7.76636936e-06
7.76638321e-06
7.76637339e-06
7.76638031e-06
7.76637863e-06
7.76637419e-06
7.76638221e-06
7.76637501e-06
7.7663769e-06
7.76637247e-06
7.76638758e-06
7.76637292e-06
7.76637283e-06
7.76638846e-06
7.76636508e-06
7.76638211e-06
7.76637796e-06
7.76637361e-06
7.766383e-06
7.7663792e-06
7.76637339e-06
7.76637918e-06
7.76638636e-06
7.76637931e-06
7.76638632e-06
7.76637919e-06
7.76638197e-06
7.76638313e-06
7.76639455e-06
7.766366e-06
7.76640037e-06
7.76636117e-06
7.7663945e-06
7.76636286e-06
7.76638605e-06
7.76636964e-06
7.76636855e-06
7.76638732e-06
7.76637523e-06
7.76637525e-06
7.76637336e-06
7.76638226e-06
7.76637991e-06
7.76636604e-06
7.76638921e-06
7.76637349e-06
7.76638801e-06
7.76638065e-06
7.76638935e-06
7.76638157e-06
7.76637644e-06
7.76638099e-06
7.76636228e-06
7.76638674e-06
7.76636779e-06
7.76638065e-06
7.76636714e-06
7.76639436e-06
7.76636236e-06
7.76638544e-06
7.76637773e-06
7.76637566e-06
7.76638806e-06
7.76637224e-06
7.76638159e-06
7.76638002e-06
7.76636838e-06
7.76638837e-06
7.7663727e-06
7.76637684e-06
7.76637542e-06
7.76637898e-06
7.76637005e-06
7.76637747e-06
7.76638075e-06
7.76637879e-06
7.76638372e-06
7.7663803e-06
7.76638203e-06
7.76638397e-06
7.76636871e-06
7.76637428e-06
7.76638003e-06
7.76637018e-06
7.76638402e-06
7.76638995e-06
7.76638105e-06
7.76639059e-06
7.76638435e-06
7.76638737e-06
7.76638434e-06
7.7663763e-06
7.76638994e-06
7.7663765e-06
7.76637644e-06
7.76636704e-06
7.76639013e-06
7.76636115e-06
7.76638568e-06
7.76636578e-06
7.7663907e-06
7.76637864e-06
7.76638044e-06
7.76638326e-06
7.76638102e-06
7.7663883e-06
7.76636678e-06
7.76638929e-06
7.76635581e-06
7.76639663e-06
7.76637025e-06
7.76639527e-06
7.76637179e-06
7.76637913e-06
7.76638121e-06
7.76639154e-06
7.76637874e-06
7.76638716e-06
7.76637483e-06
7.76638058e-06
7.76637442e-06
7.76638291e-06
7.76638096e-06
7.76637853e-06
7.7663914e-06
7.76637621e-06
7.76638074e-06
7.76638542e-06
7.76639034e-06
7.76638275e-06
7.76638504e-06
7.76639259e-06
7.76638063e-06
7.76637894e-06
7.76638528e-06
7.76638461e-06
7.76637681e-06
7.76639054e-06
7.76638325e-06
7.76638141e-06
7.76637776e-06
7.76636994e-06
7.76638149e-06
7.76638386e-06
7.76637626e-06
7.76638896e-06
7.76637791e-06
7.76638209e-06
7.76638389e-06
7.76638258e-06
7.76638548e-06
7.76638166e-06
7.76637866e-06
7.76638842e-06
7.76638032e-06
7.76639296e-06
7.76638184e-06
7.76638748e-06
7.76638666e-06
7.76638327e-06
7.76638488e-06
7.76640147e-06
7.766377e-06
7.76639235e-06
7.76638304e-06
7.7663942e-06
7.76638676e-06
7.76638619e-06
7.76638338e-06
7.76639083e-06
7.76637819e-06
7.76639117e-06
7.76638478e-06
7.76637572e-06
7.76639982e-06
7.76636825e-06
7.76638881e-06
7.76637103e-06
7.76638629e-06
7.76638348e-06
7.76638161e-06
7.76639319e-06
7.76638343e-06
7.76638207e-06
7.76638729e-06
7.7663812e-06
7.76639024e-06
7.76638911e-06
7.76637652e-06
7.7663769e-06
7.76639878e-06
7.76636242e-06
7.76639814e-06
7.76636668e-06
7.76639645e-06
7.76638038e-06
7.76638576e-06
7.76638768e-06
7.76638494e-06
7.76639785e-06
7.76638298e-06
7.76637979e-06
7.76638841e-06
7.76638433e-06
7.76638927e-06
7.76639188e-06
7.76639618e-06
7.76638799e-06
7.76639191e-06
7.76637515e-06
7.7664068e-06
7.76637623e-06
7.76640235e-06
7.76638183e-06
7.76639347e-06
7.76638454e-06
7.7663913e-06
7.76638804e-06
7.76639052e-06
7.76639014e-06
7.76639102e-06
7.76640145e-06
7.76638267e-06
7.76640114e-06
7.76638026e-06
7.76639386e-06
7.76639356e-06
7.76638786e-06
7.76639902e-06
7.76637837e-06
7.7663945e-06
7.76638521e-06
7.76639407e-06
7.7663873e-06
7.76639624e-06
7.76638896e-06
7.76639279e-06
7.76638714e-06
7.76639067e-06
7.76638815e-06
7.76638086e-06
7.76638426e-06
7.76639751e-06
7.76638579e-06
7.76638606e-06
7.76638883e-06
7.76639583e-06
7.76638648e-06
7.76638963e-06
7.76637891e-06
7.76640219e-06
7.76637868e-06
7.76640641e-06
7.76639571e-06
7.76639709e-06
7.76638588e-06
7.76640009e-06
7.76638157e-06
7.76639407e-06
7.76638063e-06
7.76638015e-06
7.76639222e-06
7.7663931e-06
7.7663864e-06
7.76640287e-06
7.76638714e-06
7.76638892e-06
7.76638453e-06
7.76638784e-06
7.76638727e-06
7.76639489e-06
7.76638256e-06
7.76639092e-06
7.76638886e-06
7.76637567e-06
7.76639229e-06
7.76637868e-06
7.7664034e-06
7.76638296e-06
7.76641119e-06
7.76637958e-06
7.76640663e-06
7.76637156e-06
7.7664045e-06
7.766386e-06
7.76638946e-06
7.76638904e-06
7.76639387e-06
7.76639224e-06
7.76638992e-06
7.76639737e-06
7.76639111e-06
7.76637735e-06
7.7664008e-06
7.76638537e-06
7.76639126e-06
7.76639564e-06
7.76639224e-06
7.76638604e-06
7.76639269e-06
7.76639065e-06
7.76639204e-06
7.76638953e-06
7.76639346e-06
7.76639431e-06
7.76639063e-06
7.76639144e-06
7.76639437e-06
7.76639313e-06
7.76639483e-06
7.7663919e-06
7.76639459e-06
7.76639275e-06
7.76639408e-06
7.76639442e-06
7.7663954e-06
7.76639475e-06
7.76639549e-06
7.76639713e-06
7.76639717e-06
7.76639661e-06
7.76639812e-06
7.76639881e-06
7.76639862e-06
7.76639974e-06
7.76640055e-06
7.76640208e-06
7.76640243e-06
7.76640347e-06
7.76640479e-06
7.76640559e-06
7.76640711e-06
7.76640896e-06
7.76641071e-06
7.76641211e-06
7.7664148e-06
7.76641724e-06
7.76642026e-06
7.76642379e-06
7.76642753e-06
7.76643167e-06
7.76643592e-06
7.76643968e-06
7.76644235e-06
7.76644421e-06
7.7664455e-06
7.76644654e-06
7.76644659e-06
7.76644693e-06
7.76644693e-06
7.76644689e-06
7.766447e-06
7.76644702e-06
7.76644678e-06
7.76644718e-06
7.76644676e-06
7.76644678e-06
7.76644682e-06
7.76644688e-06
7.76644681e-06
7.7664468e-06
7.76644689e-06
7.76644685e-06
7.76644668e-06
7.76644711e-06
)
;

boundaryField
{
    closed
    {
        type            calculated;
        value           uniform 0;
    }
    open
    {
        type            calculated;
        value           uniform 0;
    }
    sides
    {
        type            empty;
    }
}


// ************************************************************************* //
