/*--------------------------------*- C++ -*----------------------------------*\
| =========                 |                                                 |
| \\      /  F ield         | OpenFOAM: The Open Source CFD Toolbox           |
|  \\    /   O peration     | Version:  2206                                  |
|   \\  /    A nd           | Website:  www.openfoam.com                      |
|    \\/     M anipulation  |                                                 |
\*---------------------------------------------------------------------------*/
FoamFile
{
    version     2.0;
    format      ascii;
    arch        "LSB;label=32;scalar=64";
    class       volVectorField;
    location    "1.78e-05";
    object      U;
}
// * * * * * * * * * * * * * * * * * * * * * * * * * * * * * * * * * * * * * //

dimensions      [0 1 -1 0 0 0 0];

internalField   nonuniform List<vector> 
3183
(
(5.37636421e-13 0 0)
(2.59474733e-13 0 0)
(-3.92473736e-13 0 0)
(-4.98795569e-13 0 0)
(-1.88951702e-13 0 0)
(-1.44682023e-17 0 0)
(-1.0842455e-18 0 0)
(-1.10512338e-22 0 0)
(1.04077752e-19 0 0)
(3.33902271e-18 0 0)
(5.41833931e-14 0 0)
(3.38944695e-13 0 0)
(7.91962763e-13 0 0)
(3.3543206e-13 0 0)
(2.09700427e-13 0 0)
(-1.8407814e-14 0 0)
(-4.52779192e-13 0 0)
(-7.28800205e-13 0 0)
(-1.07054633e-12 0 0)
(-3.11179068e-13 0 0)
(3.60052177e-13 0 0)
(1.5213532e-14 0 0)
(1.78686254e-13 0 0)
(4.47669435e-13 0 0)
(5.40972927e-13 0 0)
(1.10154174e-12 0 0)
(9.14103295e-13 0 0)
(5.28177241e-13 0 0)
(2.07499167e-13 0 0)
(1.04476295e-13 0 0)
(-2.32249934e-14 0 0)
(6.59149325e-14 0 0)
(-4.98088473e-13 0 0)
(-7.53532575e-13 0 0)
(-7.25971373e-13 0 0)
(-7.34269064e-13 0 0)
(-1.1894078e-12 0 0)
(-1.44290539e-12 0 0)
(-1.11643488e-12 0 0)
(-8.86922739e-13 0 0)
(-5.24392941e-13 0 0)
(9.83844698e-14 0 0)
(8.1134384e-13 0 0)
(7.38275643e-13 0 0)
(1.38481981e-12 0 0)
(1.87984638e-12 0 0)
(1.58811697e-12 0 0)
(1.42525508e-12 0 0)
(9.50683718e-13 0 0)
(5.3914421e-13 0 0)
(-2.82396654e-13 0 0)
(-6.50818973e-13 0 0)
(-1.71155078e-12 0 0)
(-1.86173111e-12 0 0)
(-2.36844861e-12 0 0)
(-3.03989191e-12 0 0)
(-3.56569676e-12 0 0)
(-4.12681647e-12 0 0)
(-4.63138289e-12 0 0)
(-4.8492207e-12 0 0)
(-5.17152819e-12 0 0)
(-5.81239861e-12 0 0)
(-5.65795818e-12 0 0)
(-6.29439615e-12 0 0)
(-5.81231384e-12 0 0)
(-6.30907695e-12 0 0)
(-6.54309123e-12 0 0)
(-6.35721388e-12 0 0)
(-6.44956617e-12 0 0)
(-7.00955491e-12 0 0)
(-6.99740371e-12 0 0)
(-7.39675867e-12 0 0)
(-6.78164229e-12 0 0)
(-7.52473814e-12 0 0)
(-8.58139862e-12 0 0)
(-8.0958591e-12 0 0)
(-8.69454664e-12 0 0)
(-8.36335671e-12 0 0)
(-8.65249355e-12 0 0)
(-8.97215143e-12 0 0)
(-1.0118873e-11 0 0)
(-8.77896195e-12 0 0)
(-9.57029817e-12 0 0)
(-1.03831363e-11 0 0)
(-9.56399173e-12 0 0)
(-9.26660095e-12 0 0)
(-9.4506246e-12 0 0)
(-1.01316631e-11 0 0)
(-8.98639399e-12 0 0)
(-9.77927741e-12 0 0)
(-1.06718308e-11 0 0)
(-1.0577681e-11 0 0)
(-1.02705395e-11 0 0)
(-1.07294707e-11 0 0)
(-1.14715069e-11 0 0)
(-1.16799087e-11 0 0)
(-1.07842968e-11 0 0)
(-1.14725645e-11 0 0)
(-1.18079229e-11 0 0)
(-1.14887538e-11 0 0)
(-1.13462476e-11 0 0)
(-1.143493e-11 0 0)
(-1.17858445e-11 0 0)
(-1.07173059e-11 0 0)
(-1.01364134e-11 0 0)
(-1.08157164e-11 0 0)
(-1.12111915e-11 0 0)
(-1.18449508e-11 0 0)
(-1.20481145e-11 0 0)
(-1.16786854e-11 0 0)
(-1.03835364e-11 0 0)
(-1.11990723e-11 0 0)
(-1.06677965e-11 0 0)
(-1.18949232e-11 0 0)
(-1.13025806e-11 0 0)
(-1.144139e-11 0 0)
(-1.1618959e-11 0 0)
(-1.07031049e-11 0 0)
(-1.0897815e-11 0 0)
(-1.24242901e-11 0 0)
(-1.24249312e-11 0 0)
(-1.0652443e-11 0 0)
(-1.07431106e-11 0 0)
(-1.08475925e-11 0 0)
(-1.132142e-11 0 0)
(-1.12532186e-11 0 0)
(-1.18575185e-11 0 0)
(-1.23274732e-11 0 0)
(-1.17466231e-11 0 0)
(-1.19461551e-11 0 0)
(-1.16766857e-11 0 0)
(-1.16735039e-11 0 0)
(-1.25339662e-11 0 0)
(-1.35401485e-11 0 0)
(-1.10122777e-11 0 0)
(-1.28462887e-11 0 0)
(-1.30456783e-11 0 0)
(-1.26483029e-11 0 0)
(-1.38542714e-11 0 0)
(-1.26960482e-11 0 0)
(-1.35070998e-11 0 0)
(-1.34423573e-11 0 0)
(-1.33470285e-11 0 0)
(-1.32353172e-11 0 0)
(-1.24301035e-11 0 0)
(-1.35171727e-11 0 0)
(-1.27598081e-11 0 0)
(-1.40049914e-11 0 0)
(-1.32902072e-11 0 0)
(-1.28444323e-11 0 0)
(-1.43494386e-11 0 0)
(-1.39682664e-11 0 0)
(-1.36068041e-11 0 0)
(-1.37023796e-11 0 0)
(-1.43516839e-11 0 0)
(-1.36718361e-11 0 0)
(-1.46746559e-11 0 0)
(-1.49497405e-11 0 0)
(-1.38342538e-11 0 0)
(-1.50153661e-11 0 0)
(-1.43973432e-11 0 0)
(-1.47419285e-11 0 0)
(-1.42552826e-11 0 0)
(-1.4964274e-11 0 0)
(-1.42243352e-11 0 0)
(-1.51902475e-11 0 0)
(-1.44244815e-11 0 0)
(-1.41790099e-11 0 0)
(-1.55088249e-11 0 0)
(-1.56172335e-11 0 0)
(-1.53815076e-11 0 0)
(-1.46078213e-11 0 0)
(-1.5326945e-11 0 0)
(-1.50673119e-11 0 0)
(-1.47431228e-11 0 0)
(-1.54974954e-11 0 0)
(-1.61574075e-11 0 0)
(-1.52097735e-11 0 0)
(-1.53423616e-11 0 0)
(-1.73659979e-11 0 0)
(-1.5312552e-11 0 0)
(-1.55265858e-11 0 0)
(-1.53825996e-11 0 0)
(-1.55597699e-11 0 0)
(-1.65033529e-11 0 0)
(-1.64965574e-11 0 0)
(-1.5170067e-11 0 0)
(-1.54421627e-11 0 0)
(-1.53941143e-11 0 0)
(-1.55726306e-11 0 0)
(-1.59835509e-11 0 0)
(-1.64738818e-11 0 0)
(-1.58566138e-11 0 0)
(-1.58789902e-11 0 0)
(-1.66292025e-11 0 0)
(-1.60838396e-11 0 0)
(-1.55489179e-11 0 0)
(-1.54402042e-11 0 0)
(-1.68952525e-11 0 0)
(-1.73249677e-11 0 0)
(-1.69296686e-11 0 0)
(-1.68564248e-11 0 0)
(-1.71408215e-11 0 0)
(-1.74606496e-11 0 0)
(-1.72635538e-11 0 0)
(-1.64874114e-11 0 0)
(-1.7029264e-11 0 0)
(-1.7108769e-11 0 0)
(-1.76249661e-11 0 0)
(-1.6301137e-11 0 0)
(-1.6117839e-11 0 0)
(-1.68553886e-11 0 0)
(-1.62950787e-11 0 0)
(-1.63686267e-11 0 0)
(-1.59252906e-11 0 0)
(-1.59516379e-11 0 0)
(-1.58829511e-11 0 0)
(-1.53234801e-11 0 0)
(-1.6186973e-11 0 0)
(-1.62271467e-11 0 0)
(-1.64374591e-11 0 0)
(-1.74685449e-11 0 0)
(-1.70735012e-11 0 0)
(-1.73066774e-11 0 0)
(-1.69976531e-11 0 0)
(-1.66783493e-11 0 0)
(-1.709406e-11 0 0)
(-1.71782342e-11 0 0)
(-1.78801464e-11 0 0)
(-1.73636836e-11 0 0)
(-1.75401513e-11 0 0)
(-1.76323757e-11 0 0)
(-1.77817357e-11 0 0)
(-1.82575497e-11 0 0)
(-1.70584856e-11 0 0)
(-1.67234417e-11 0 0)
(-1.65812361e-11 0 0)
(-1.77308611e-11 0 0)
(-1.68576263e-11 0 0)
(-1.61021771e-11 0 0)
(-1.77178455e-11 0 0)
(-1.67846983e-11 0 0)
(-1.66662373e-11 0 0)
(-1.65391554e-11 0 0)
(-1.7445679e-11 0 0)
(-1.71793069e-11 0 0)
(-1.62916023e-11 0 0)
(-1.70714198e-11 0 0)
(-1.64689616e-11 0 0)
(-1.71837763e-11 0 0)
(-1.79332264e-11 0 0)
(-1.7333521e-11 0 0)
(-1.74283705e-11 0 0)
(-1.73031038e-11 0 0)
(-1.81832145e-11 0 0)
(-1.73741438e-11 0 0)
(-1.77706721e-11 0 0)
(-1.69436024e-11 0 0)
(-1.80271769e-11 0 0)
(-1.77997277e-11 0 0)
(-1.85519921e-11 0 0)
(-1.8479364e-11 0 0)
(-1.73812645e-11 0 0)
(-1.78578289e-11 0 0)
(-1.78501675e-11 0 0)
(-1.86720031e-11 0 0)
(-1.78887293e-11 0 0)
(-1.85602598e-11 0 0)
(-1.79497368e-11 0 0)
(-1.79186093e-11 0 0)
(-1.82647911e-11 0 0)
(-1.85423065e-11 0 0)
(-1.86566927e-11 0 0)
(-1.85374912e-11 0 0)
(-1.84967026e-11 0 0)
(-1.80800842e-11 0 0)
(-1.86284182e-11 0 0)
(-1.83444335e-11 0 0)
(-1.82698877e-11 0 0)
(-1.87324452e-11 0 0)
(-1.87905601e-11 0 0)
(-1.95680636e-11 0 0)
(-1.94408153e-11 0 0)
(-1.97158902e-11 0 0)
(-1.91926411e-11 0 0)
(-1.98593934e-11 0 0)
(-1.98060872e-11 0 0)
(-1.91926602e-11 0 0)
(-2.04223092e-11 0 0)
(-1.95864487e-11 0 0)
(-2.02534892e-11 0 0)
(-2.08977257e-11 0 0)
(-2.00521679e-11 0 0)
(-2.06611611e-11 0 0)
(-2.01578625e-11 0 0)
(-1.9662045e-11 0 0)
(-1.98174826e-11 0 0)
(-2.06280384e-11 0 0)
(-2.00906321e-11 0 0)
(-2.06311262e-11 0 0)
(-2.01913938e-11 0 0)
(-2.02286467e-11 0 0)
(-2.04410798e-11 0 0)
(-2.14639076e-11 0 0)
(-2.14280104e-11 0 0)
(-2.19057304e-11 0 0)
(-1.98036612e-11 0 0)
(-1.98864717e-11 0 0)
(-2.10056322e-11 0 0)
(-1.97939057e-11 0 0)
(-2.08549627e-11 0 0)
(-2.09633815e-11 0 0)
(-2.01205879e-11 0 0)
(-2.06439e-11 0 0)
(-2.07607476e-11 0 0)
(-2.09638699e-11 0 0)
(-2.01363257e-11 0 0)
(-2.15307047e-11 0 0)
(-2.07775504e-11 0 0)
(-2.0229536e-11 0 0)
(-2.06932715e-11 0 0)
(-2.13085085e-11 0 0)
(-2.07027107e-11 0 0)
(-2.09115032e-11 0 0)
(-2.17518249e-11 0 0)
(-2.09493696e-11 0 0)
(-2.13359094e-11 0 0)
(-2.08505053e-11 0 0)
(-2.04773107e-11 0 0)
(-2.16400626e-11 0 0)
(-2.06217634e-11 0 0)
(-2.07229186e-11 0 0)
(-2.09712323e-11 0 0)
(-2.09880304e-11 0 0)
(-2.03937705e-11 0 0)
(-1.98663785e-11 0 0)
(-1.98414887e-11 0 0)
(-2.07340453e-11 0 0)
(-2.06093973e-11 0 0)
(-2.00217027e-11 0 0)
(-1.91745289e-11 0 0)
(-2.05716976e-11 0 0)
(-1.96195825e-11 0 0)
(-1.83729694e-11 0 0)
(-1.95487721e-11 0 0)
(-2.03812824e-11 0 0)
(-1.98166049e-11 0 0)
(-1.95991262e-11 0 0)
(-1.92959041e-11 0 0)
(-1.9348826e-11 0 0)
(-1.89782033e-11 0 0)
(-1.92398927e-11 0 0)
(-1.86223133e-11 0 0)
(-1.81604588e-11 0 0)
(-1.82563543e-11 0 0)
(-1.79188533e-11 0 0)
(-1.90433331e-11 0 0)
(-1.84959593e-11 0 0)
(-1.94918769e-11 0 0)
(-1.83283611e-11 0 0)
(-1.85965209e-11 0 0)
(-1.94671268e-11 0 0)
(-1.87105538e-11 0 0)
(-1.853649e-11 0 0)
(-1.89662971e-11 0 0)
(-1.88415838e-11 0 0)
(-1.95922401e-11 0 0)
(-1.9126496e-11 0 0)
(-1.89518206e-11 0 0)
(-1.89721727e-11 0 0)
(-1.78320504e-11 0 0)
(-1.85708346e-11 0 0)
(-1.80592717e-11 0 0)
(-1.70681918e-11 0 0)
(-1.91415895e-11 0 0)
(-1.98465564e-11 0 0)
(-1.81695336e-11 0 0)
(-1.82467454e-11 0 0)
(-1.76294405e-11 0 0)
(-1.86421396e-11 0 0)
(-1.88817236e-11 0 0)
(-1.78503866e-11 0 0)
(-1.84600445e-11 0 0)
(-1.81024991e-11 0 0)
(-1.82720941e-11 0 0)
(-1.8110463e-11 0 0)
(-1.69446198e-11 0 0)
(-1.83789047e-11 0 0)
(-1.69974169e-11 0 0)
(-1.70661347e-11 0 0)
(-1.66832413e-11 0 0)
(-1.70368216e-11 0 0)
(-1.62343331e-11 0 0)
(-1.60305366e-11 0 0)
(-1.59108816e-11 0 0)
(-1.60063147e-11 0 0)
(-1.56097467e-11 0 0)
(-1.60683427e-11 0 0)
(-1.57534687e-11 0 0)
(-1.46964934e-11 0 0)
(-1.58819864e-11 0 0)
(-1.54843712e-11 0 0)
(-1.53454299e-11 0 0)
(-1.53294211e-11 0 0)
(-1.54303261e-11 0 0)
(-1.54874806e-11 0 0)
(-1.45006276e-11 0 0)
(-1.45960003e-11 0 0)
(-1.40195467e-11 0 0)
(-1.45668667e-11 0 0)
(-1.47212594e-11 0 0)
(-1.4282846e-11 0 0)
(-1.36853258e-11 0 0)
(-1.40609029e-11 0 0)
(-1.51767415e-11 0 0)
(-1.40844937e-11 0 0)
(-1.40807029e-11 0 0)
(-1.3916293e-11 0 0)
(-1.41599625e-11 0 0)
(-1.43548667e-11 0 0)
(-1.34645741e-11 0 0)
(-1.3954503e-11 0 0)
(-1.38386715e-11 0 0)
(-1.34614347e-11 0 0)
(-1.44462671e-11 0 0)
(-1.43904777e-11 0 0)
(-1.47859784e-11 0 0)
(-1.4273324e-11 0 0)
(-1.42456889e-11 0 0)
(-1.35865253e-11 0 0)
(-1.40439954e-11 0 0)
(-1.38253607e-11 0 0)
(-1.41708765e-11 0 0)
(-1.32389928e-11 0 0)
(-1.31538565e-11 0 0)
(-1.33989873e-11 0 0)
(-1.46719246e-11 0 0)
(-1.35833993e-11 0 0)
(-1.34074927e-11 0 0)
(-1.44063939e-11 0 0)
(-1.3206354e-11 0 0)
(-1.40604452e-11 0 0)
(-1.37996669e-11 0 0)
(-1.31688384e-11 0 0)
(-1.35225994e-11 0 0)
(-1.20720407e-11 0 0)
(-1.36307751e-11 0 0)
(-1.29020747e-11 0 0)
(-1.24921205e-11 0 0)
(-1.16473216e-11 0 0)
(-1.31791378e-11 0 0)
(-1.33196436e-11 0 0)
(-1.3306494e-11 0 0)
(-1.32227755e-11 0 0)
(-1.25575047e-11 0 0)
(-1.22968906e-11 0 0)
(-1.25772269e-11 0 0)
(-1.242018e-11 0 0)
(-1.17523158e-11 0 0)
(-1.16425774e-11 0 0)
(-1.21716737e-11 0 0)
(-1.13910685e-11 0 0)
(-1.28008011e-11 0 0)
(-1.241589e-11 0 0)
(-1.20288514e-11 0 0)
(-1.25358977e-11 0 0)
(-1.26401749e-11 0 0)
(-1.15346715e-11 0 0)
(-1.10264322e-11 0 0)
(-1.29439098e-11 0 0)
(-1.14143158e-11 0 0)
(-1.12867934e-11 0 0)
(-1.08036345e-11 0 0)
(-1.28498318e-11 0 0)
(-1.11675631e-11 0 0)
(-1.20555249e-11 0 0)
(-1.15756424e-11 0 0)
(-1.30198657e-11 0 0)
(-1.20648808e-11 0 0)
(-1.12892403e-11 0 0)
(-1.202285e-11 0 0)
(-1.20140565e-11 0 0)
(-1.18003735e-11 0 0)
(-1.11203132e-11 0 0)
(-1.13179015e-11 0 0)
(-1.23532309e-11 0 0)
(-1.16440092e-11 0 0)
(-1.19297843e-11 0 0)
(-1.12272235e-11 0 0)
(-1.06581062e-11 0 0)
(-1.10211033e-11 0 0)
(-1.11943532e-11 0 0)
(-1.09763763e-11 0 0)
(-1.17565685e-11 0 0)
(-1.09390193e-11 0 0)
(-1.01834767e-11 0 0)
(-1.109101e-11 0 0)
(-1.11990068e-11 0 0)
(-1.14967627e-11 0 0)
(-1.03748932e-11 0 0)
(-1.13153291e-11 0 0)
(-1.11141185e-11 0 0)
(-1.02942082e-11 0 0)
(-1.04383268e-11 0 0)
(-9.84474676e-12 0 0)
(-1.15530686e-11 0 0)
(-1.08788533e-11 0 0)
(-9.15839668e-12 0 0)
(-1.02564444e-11 0 0)
(-1.01326658e-11 0 0)
(-9.55653719e-12 0 0)
(-9.57722194e-12 0 0)
(-9.04949277e-12 0 0)
(-8.69610765e-12 0 0)
(-8.49905082e-12 0 0)
(-7.68536885e-12 0 0)
(-7.80312268e-12 0 0)
(-7.30366177e-12 0 0)
(-7.56412629e-12 0 0)
(-7.59131413e-12 0 0)
(-8.27586165e-12 0 0)
(-7.39023773e-12 0 0)
(-6.98676917e-12 0 0)
(-7.77138275e-12 0 0)
(-7.44234371e-12 0 0)
(-6.99940308e-12 0 0)
(-7.15526188e-12 0 0)
(-6.77095157e-12 0 0)
(-6.44270766e-12 0 0)
(-7.76935337e-12 0 0)
(-7.24893735e-12 0 0)
(-6.57201738e-12 0 0)
(-7.7635506e-12 0 0)
(-7.9641399e-12 0 0)
(-6.7381687e-12 0 0)
(-6.47069278e-12 0 0)
(-6.57851826e-12 0 0)
(-6.53632422e-12 0 0)
(-6.55034432e-12 0 0)
(-7.3324863e-12 0 0)
(-5.93126708e-12 0 0)
(-6.0191972e-12 0 0)
(-6.95562117e-12 0 0)
(-7.30426792e-12 0 0)
(-6.44127101e-12 0 0)
(-5.86306181e-12 0 0)
(-6.47565644e-12 0 0)
(-5.79166315e-12 0 0)
(-6.64013045e-12 0 0)
(-5.26758158e-12 0 0)
(-5.4817867e-12 0 0)
(-5.31693424e-12 0 0)
(-6.27057651e-12 0 0)
(-4.77968966e-12 0 0)
(-5.31165791e-12 0 0)
(-4.9619743e-12 0 0)
(-3.81134664e-12 0 0)
(-3.46238016e-12 0 0)
(-4.34945106e-12 0 0)
(-4.44563959e-12 0 0)
(-4.10677055e-12 0 0)
(-5.14157606e-12 0 0)
(-4.54848848e-12 0 0)
(-3.6569756e-12 0 0)
(-3.78531036e-12 0 0)
(-3.17250423e-12 0 0)
(-2.51999794e-12 0 0)
(-3.46149691e-12 0 0)
(-2.1649478e-12 0 0)
(-2.20606229e-12 0 0)
(-3.20645015e-12 0 0)
(-3.19532746e-12 0 0)
(-2.17877765e-12 0 0)
(-2.21893177e-12 0 0)
(-2.03132854e-12 0 0)
(-2.58924386e-12 0 0)
(-2.12504327e-12 0 0)
(-1.58267845e-12 0 0)
(-1.00224506e-12 0 0)
(-1.31601548e-12 0 0)
(-8.34440947e-13 0 0)
(-4.66167431e-13 0 0)
(8.23468676e-13 0 0)
(-1.08421971e-12 0 0)
(5.95228645e-14 0 0)
(8.79713843e-14 0 0)
(5.1965162e-13 0 0)
(-1.65470723e-13 0 0)
(6.53285049e-13 0 0)
(4.13861793e-13 0 0)
(1.21626205e-12 0 0)
(1.20003102e-12 0 0)
(6.27982184e-13 0 0)
(1.52663711e-12 0 0)
(3.15875267e-13 0 0)
(-1.10381155e-13 0 0)
(8.67591213e-13 0 0)
(9.68856397e-13 0 0)
(1.2372875e-12 0 0)
(1.9348859e-12 0 0)
(1.73623677e-12 0 0)
(7.95366307e-13 0 0)
(9.31654943e-13 0 0)
(1.09436298e-12 0 0)
(2.67664207e-12 0 0)
(9.27418095e-13 0 0)
(1.96115296e-12 0 0)
(1.87993125e-12 0 0)
(8.32738245e-13 0 0)
(1.36487284e-12 0 0)
(5.22484004e-13 0 0)
(9.91823005e-13 0 0)
(1.4281538e-12 0 0)
(1.29293977e-12 0 0)
(9.87566596e-13 0 0)
(1.35894224e-12 0 0)
(2.22770478e-12 0 0)
(1.81202928e-12 0 0)
(1.28647522e-12 0 0)
(1.24583458e-12 0 0)
(1.64681349e-12 0 0)
(1.65538673e-12 0 0)
(2.22740022e-12 0 0)
(1.03793924e-12 0 0)
(2.27033712e-12 0 0)
(2.39108313e-12 0 0)
(2.60582937e-12 0 0)
(2.12590687e-12 0 0)
(2.7334069e-12 0 0)
(1.46237943e-12 0 0)
(1.82444358e-12 0 0)
(1.51587453e-12 0 0)
(1.73568676e-12 0 0)
(8.76372618e-13 0 0)
(2.71508297e-12 0 0)
(1.94650221e-12 0 0)
(2.01361824e-12 0 0)
(1.51835414e-12 0 0)
(6.90150537e-13 0 0)
(7.90245374e-13 0 0)
(1.86417762e-12 0 0)
(2.073477e-12 0 0)
(1.95291517e-12 0 0)
(1.84969873e-12 0 0)
(2.38361039e-12 0 0)
(1.3639546e-12 0 0)
(1.75085815e-12 0 0)
(1.05386063e-12 0 0)
(1.03792562e-12 0 0)
(1.87140159e-12 0 0)
(1.31880675e-12 0 0)
(2.35887619e-12 0 0)
(1.97676784e-12 0 0)
(1.77458833e-12 0 0)
(2.51309758e-12 0 0)
(2.10837555e-12 0 0)
(2.34004681e-12 0 0)
(1.48919982e-12 0 0)
(2.43334604e-12 0 0)
(1.78112176e-12 0 0)
(2.72068471e-12 0 0)
(2.62460933e-12 0 0)
(2.88841805e-12 0 0)
(1.22371022e-12 0 0)
(2.70173758e-12 0 0)
(1.6711885e-12 0 0)
(2.35370641e-12 0 0)
(2.34879995e-12 0 0)
(3.39981358e-12 0 0)
(3.06621716e-12 0 0)
(3.89955518e-12 0 0)
(2.06833937e-12 0 0)
(3.27773064e-12 0 0)
(3.09683258e-12 0 0)
(2.52929606e-12 0 0)
(3.12619895e-12 0 0)
(4.02443956e-12 0 0)
(3.28738875e-12 0 0)
(4.16745813e-12 0 0)
(3.52526815e-12 0 0)
(4.07897913e-12 0 0)
(4.99280357e-12 0 0)
(4.79523815e-12 0 0)
(5.16434894e-12 0 0)
(4.58811329e-12 0 0)
(4.39878057e-12 0 0)
(5.01754409e-12 0 0)
(5.30571741e-12 0 0)
(4.79582171e-12 0 0)
(4.78960702e-12 0 0)
(4.66139302e-12 0 0)
(5.25768378e-12 0 0)
(4.41774504e-12 0 0)
(5.06067961e-12 0 0)
(6.61321026e-12 0 0)
(6.10786233e-12 0 0)
(5.7366646e-12 0 0)
(5.17869167e-12 0 0)
(6.35596712e-12 0 0)
(6.74227255e-12 0 0)
(6.72885959e-12 0 0)
(5.97668691e-12 0 0)
(7.3613021e-12 0 0)
(6.11719455e-12 0 0)
(6.28390887e-12 0 0)
(6.59625373e-12 0 0)
(5.81381883e-12 0 0)
(6.20396541e-12 0 0)
(6.1893559e-12 0 0)
(5.90915066e-12 0 0)
(6.03398408e-12 0 0)
(6.1133608e-12 0 0)
(6.26693664e-12 0 0)
(6.47046983e-12 0 0)
(6.79038947e-12 0 0)
(5.86434138e-12 0 0)
(6.19764833e-12 0 0)
(6.30263095e-12 0 0)
(7.39642419e-12 0 0)
(7.25408589e-12 0 0)
(6.96557931e-12 0 0)
(6.25987525e-12 0 0)
(6.95198287e-12 0 0)
(6.67854258e-12 0 0)
(6.70124347e-12 0 0)
(7.04375788e-12 0 0)
(6.14019375e-12 0 0)
(6.82335312e-12 0 0)
(6.11020095e-12 0 0)
(7.98364889e-12 0 0)
(6.81444472e-12 0 0)
(6.8292564e-12 0 0)
(7.31801744e-12 0 0)
(6.29463994e-12 0 0)
(7.93370703e-12 0 0)
(6.71503805e-12 0 0)
(6.85069537e-12 0 0)
(6.84942687e-12 0 0)
(6.93881511e-12 0 0)
(7.80587407e-12 0 0)
(7.85275062e-12 0 0)
(8.08206372e-12 0 0)
(6.43749126e-12 0 0)
(7.39301327e-12 0 0)
(7.34709276e-12 0 0)
(6.15356695e-12 0 0)
(8.1432854e-12 0 0)
(6.97162036e-12 0 0)
(7.86540614e-12 0 0)
(6.96869995e-12 0 0)
(7.27751105e-12 0 0)
(7.1551803e-12 0 0)
(7.31727779e-12 0 0)
(6.42252964e-12 0 0)
(7.22345387e-12 0 0)
(7.70685319e-12 0 0)
(7.50743921e-12 0 0)
(6.42275475e-12 0 0)
(7.14092134e-12 0 0)
(7.36346852e-12 0 0)
(7.19533977e-12 0 0)
(7.13733127e-12 0 0)
(6.17915889e-12 0 0)
(7.28383378e-12 0 0)
(6.11716164e-12 0 0)
(7.37236731e-12 0 0)
(5.6735113e-12 0 0)
(6.27966969e-12 0 0)
(7.69885918e-12 0 0)
(5.93371181e-12 0 0)
(7.34029084e-12 0 0)
(6.55359343e-12 0 0)
(6.3612334e-12 0 0)
(6.90286186e-12 0 0)
(6.67720981e-12 0 0)
(7.31637637e-12 0 0)
(7.57471797e-12 0 0)
(7.19484933e-12 0 0)
(7.07908057e-12 0 0)
(7.67609818e-12 0 0)
(7.56377326e-12 0 0)
(7.31472584e-12 0 0)
(8.53260892e-12 0 0)
(5.82849835e-12 0 0)
(7.78942693e-12 0 0)
(7.51383365e-12 0 0)
(8.29767829e-12 0 0)
(8.36980667e-12 0 0)
(8.22398928e-12 0 0)
(8.16600171e-12 0 0)
(8.69779342e-12 0 0)
(9.20507629e-12 0 0)
(8.11590677e-12 0 0)
(7.64242631e-12 0 0)
(8.90260845e-12 0 0)
(7.77082248e-12 0 0)
(7.06000205e-12 0 0)
(7.9367408e-12 0 0)
(7.69591605e-12 0 0)
(7.22985686e-12 0 0)
(7.4138212e-12 0 0)
(7.52278538e-12 0 0)
(8.44100753e-12 0 0)
(8.12969717e-12 0 0)
(8.08369389e-12 0 0)
(8.19648861e-12 0 0)
(8.20652217e-12 0 0)
(8.24441327e-12 0 0)
(8.35276881e-12 0 0)
(9.06474798e-12 0 0)
(8.77178165e-12 0 0)
(8.34859142e-12 0 0)
(8.75675732e-12 0 0)
(9.65418195e-12 0 0)
(7.92635987e-12 0 0)
(7.79126014e-12 0 0)
(8.69663366e-12 0 0)
(7.9035265e-12 0 0)
(7.74586552e-12 0 0)
(8.8299455e-12 0 0)
(8.4410538e-12 0 0)
(8.54542872e-12 0 0)
(8.74260647e-12 0 0)
(8.09074561e-12 0 0)
(8.2631747e-12 0 0)
(8.61209571e-12 0 0)
(8.63254158e-12 0 0)
(7.61645166e-12 0 0)
(8.76250728e-12 0 0)
(9.39273453e-12 0 0)
(8.13921498e-12 0 0)
(8.1388779e-12 0 0)
(7.43219346e-12 0 0)
(7.74433012e-12 0 0)
(7.9490219e-12 0 0)
(7.35546668e-12 0 0)
(7.60037027e-12 0 0)
(7.583498e-12 0 0)
(8.14808359e-12 0 0)
(8.71367344e-12 0 0)
(6.78178751e-12 0 0)
(7.28866358e-12 0 0)
(8.83543193e-12 0 0)
(8.66972185e-12 0 0)
(8.71318663e-12 0 0)
(8.22190982e-12 0 0)
(8.91262849e-12 0 0)
(8.56603476e-12 0 0)
(8.77860241e-12 0 0)
(7.55278533e-12 0 0)
(8.62396402e-12 0 0)
(9.15424506e-12 0 0)
(1.00972519e-11 0 0)
(9.60474956e-12 0 0)
(9.88329701e-12 0 0)
(9.18403997e-12 0 0)
(1.00660445e-11 0 0)
(9.75551825e-12 0 0)
(1.04014041e-11 0 0)
(1.05657096e-11 0 0)
(1.03134601e-11 0 0)
(1.05788759e-11 0 0)
(1.05868822e-11 0 0)
(1.14886471e-11 0 0)
(1.12916348e-11 0 0)
(1.06840271e-11 0 0)
(1.1333628e-11 0 0)
(1.02835832e-11 0 0)
(1.00196658e-11 0 0)
(1.06530754e-11 0 0)
(1.08364367e-11 0 0)
(9.98032959e-12 0 0)
(1.08025989e-11 0 0)
(1.04849609e-11 0 0)
(1.06317456e-11 0 0)
(1.02764043e-11 0 0)
(1.01280371e-11 0 0)
(1.09345983e-11 0 0)
(1.07203342e-11 0 0)
(1.09780007e-11 0 0)
(9.95141961e-12 0 0)
(1.00155849e-11 0 0)
(1.006818e-11 0 0)
(1.07698225e-11 0 0)
(1.04643569e-11 0 0)
(9.52459609e-12 0 0)
(1.1164707e-11 0 0)
(1.03056495e-11 0 0)
(1.13361568e-11 0 0)
(9.63094148e-12 0 0)
(1.00274806e-11 0 0)
(1.06731648e-11 0 0)
(1.06480156e-11 0 0)
(1.17045004e-11 0 0)
(9.6845462e-12 0 0)
(1.10175256e-11 0 0)
(1.09186388e-11 0 0)
(1.19801057e-11 0 0)
(1.12647472e-11 0 0)
(1.09064298e-11 0 0)
(1.08768085e-11 0 0)
(1.10216729e-11 0 0)
(1.08021525e-11 0 0)
(1.12893285e-11 0 0)
(1.21131516e-11 0 0)
(1.09261598e-11 0 0)
(1.05116705e-11 0 0)
(9.87290409e-12 0 0)
(1.05241227e-11 0 0)
(1.05249612e-11 0 0)
(1.0167518e-11 0 0)
(1.1044878e-11 0 0)
(1.06736556e-11 0 0)
(9.70286744e-12 0 0)
(1.02171319e-11 0 0)
(1.14578845e-11 0 0)
(1.11320281e-11 0 0)
(1.11660334e-11 0 0)
(1.13116382e-11 0 0)
(1.07658614e-11 0 0)
(1.06847451e-11 0 0)
(1.08716463e-11 0 0)
(1.02803133e-11 0 0)
(1.08953465e-11 0 0)
(1.0620372e-11 0 0)
(1.04761087e-11 0 0)
(1.0297954e-11 0 0)
(1.03362481e-11 0 0)
(1.0117409e-11 0 0)
(9.74306844e-12 0 0)
(9.93766506e-12 0 0)
(9.13130081e-12 0 0)
(9.71148108e-12 0 0)
(9.61056279e-12 0 0)
(1.00159792e-11 0 0)
(9.63909942e-12 0 0)
(8.7098226e-12 0 0)
(9.00504432e-12 0 0)
(9.46600234e-12 0 0)
(9.04081757e-12 0 0)
(8.39165352e-12 0 0)
(9.92952387e-12 0 0)
(9.30819633e-12 0 0)
(9.69267491e-12 0 0)
(7.95157276e-12 0 0)
(8.51416707e-12 0 0)
(8.73502083e-12 0 0)
(8.78123546e-12 0 0)
(8.833859e-12 0 0)
(8.98210597e-12 0 0)
(9.5086944e-12 0 0)
(8.70950898e-12 0 0)
(7.90395395e-12 0 0)
(9.04778645e-12 0 0)
(9.17941977e-12 0 0)
(8.71401297e-12 0 0)
(8.70888307e-12 0 0)
(8.13541026e-12 0 0)
(8.72794823e-12 0 0)
(9.34502982e-12 0 0)
(9.29129608e-12 0 0)
(1.00266612e-11 0 0)
(9.93098101e-12 0 0)
(1.10410736e-11 0 0)
(1.01091352e-11 0 0)
(9.92567589e-12 0 0)
(9.48477806e-12 0 0)
(9.86967762e-12 0 0)
(1.09720302e-11 0 0)
(1.10014597e-11 0 0)
(1.01248467e-11 0 0)
(1.08013111e-11 0 0)
(1.05045533e-11 0 0)
(1.13889641e-11 0 0)
(1.1147587e-11 0 0)
(1.01597058e-11 0 0)
(1.05119232e-11 0 0)
(9.89109445e-12 0 0)
(1.04678881e-11 0 0)
(1.06097431e-11 0 0)
(1.08203251e-11 0 0)
(1.09083958e-11 0 0)
(1.06363438e-11 0 0)
(1.05466873e-11 0 0)
(1.11498658e-11 0 0)
(9.66971423e-12 0 0)
(1.05283604e-11 0 0)
(1.01030452e-11 0 0)
(1.00650643e-11 0 0)
(9.4693987e-12 0 0)
(1.01448165e-11 0 0)
(9.42316291e-12 0 0)
(1.01075511e-11 0 0)
(9.27257899e-12 0 0)
(1.00906115e-11 0 0)
(9.64610791e-12 0 0)
(9.92251234e-12 0 0)
(1.02142136e-11 0 0)
(1.10667269e-11 0 0)
(1.08772536e-11 0 0)
(1.05901205e-11 0 0)
(9.36490732e-12 0 0)
(9.78860637e-12 0 0)
(9.7097543e-12 0 0)
(9.92741501e-12 0 0)
(9.04532027e-12 0 0)
(9.0456518e-12 0 0)
(9.83823023e-12 0 0)
(9.4482089e-12 0 0)
(9.00487965e-12 0 0)
(8.99318786e-12 0 0)
(8.6513323e-12 0 0)
(8.11975164e-12 0 0)
(8.7349303e-12 0 0)
(8.09238878e-12 0 0)
(7.85636337e-12 0 0)
(7.68472713e-12 0 0)
(8.1113798e-12 0 0)
(7.42048133e-12 0 0)
(6.93085475e-12 0 0)
(7.47449684e-12 0 0)
(6.86339504e-12 0 0)
(6.47093472e-12 0 0)
(6.03153202e-12 0 0)
(7.159722e-12 0 0)
(6.22927779e-12 0 0)
(6.45330212e-12 0 0)
(5.72818857e-12 0 0)
(5.58648629e-12 0 0)
(5.09883641e-12 0 0)
(6.47512049e-12 0 0)
(5.42626991e-12 0 0)
(5.73162925e-12 0 0)
(5.32407289e-12 0 0)
(5.73023814e-12 0 0)
(5.99895676e-12 0 0)
(5.36108909e-12 0 0)
(5.56670631e-12 0 0)
(4.05255357e-12 0 0)
(3.86215606e-12 0 0)
(3.83360766e-12 0 0)
(3.99152237e-12 0 0)
(4.01210259e-12 0 0)
(4.06820458e-12 0 0)
(4.39767634e-12 0 0)
(4.17199915e-12 0 0)
(5.63680774e-12 0 0)
(5.24408961e-12 0 0)
(5.58010082e-12 0 0)
(5.01698729e-12 0 0)
(6.29778104e-12 0 0)
(5.07451307e-12 0 0)
(5.11100217e-12 0 0)
(5.20181037e-12 0 0)
(3.72947823e-12 0 0)
(4.56331645e-12 0 0)
(3.88749379e-12 0 0)
(3.96023455e-12 0 0)
(3.2766518e-12 0 0)
(3.22094401e-12 0 0)
(2.76461267e-12 0 0)
(4.14981506e-12 0 0)
(2.16510647e-12 0 0)
(2.66676445e-12 0 0)
(3.18100518e-12 0 0)
(2.88226804e-12 0 0)
(2.89781807e-12 0 0)
(1.95754881e-12 0 0)
(2.48816088e-12 0 0)
(2.28077181e-12 0 0)
(1.29306661e-12 0 0)
(3.05449225e-12 0 0)
(2.27469485e-12 0 0)
(1.63631796e-12 0 0)
(2.06775958e-12 0 0)
(1.56293427e-12 0 0)
(2.34122549e-12 0 0)
(1.4606593e-12 0 0)
(1.62329818e-12 0 0)
(1.86400306e-12 0 0)
(1.56168082e-12 0 0)
(1.84838311e-12 0 0)
(2.49351758e-12 0 0)
(1.77022144e-12 0 0)
(2.96234958e-13 0 0)
(2.44556547e-13 0 0)
(4.20621751e-13 0 0)
(2.12043597e-13 0 0)
(1.78363594e-13 0 0)
(1.52190144e-12 0 0)
(7.36490872e-13 0 0)
(3.15910366e-13 0 0)
(5.47056406e-13 0 0)
(-1.35823132e-13 0 0)
(-1.27475463e-12 0 0)
(-1.46514716e-13 0 0)
(-3.79852154e-13 0 0)
(-5.09598437e-13 0 0)
(-1.03612334e-12 0 0)
(-2.20631503e-12 0 0)
(-4.77440047e-13 0 0)
(-6.32940806e-13 0 0)
(-1.16658984e-12 0 0)
(-1.71000122e-12 0 0)
(-9.17914932e-13 0 0)
(-9.00012418e-13 0 0)
(-6.10736772e-13 0 0)
(-8.47219497e-13 0 0)
(-9.83036446e-13 0 0)
(-6.05815762e-13 0 0)
(-1.82994151e-12 0 0)
(-1.45726737e-12 0 0)
(-2.09171094e-12 0 0)
(-1.7805396e-12 0 0)
(-1.5686602e-12 0 0)
(-1.62728857e-12 0 0)
(-2.37568636e-12 0 0)
(-1.92432294e-12 0 0)
(-2.30044128e-12 0 0)
(-2.86959114e-12 0 0)
(-3.70524245e-12 0 0)
(-3.00684958e-12 0 0)
(-1.83061552e-12 0 0)
(-3.45135948e-12 0 0)
(-3.85827592e-12 0 0)
(-3.93717556e-12 0 0)
(-3.82976341e-12 0 0)
(-3.83999229e-12 0 0)
(-3.61523763e-12 0 0)
(-4.12448131e-12 0 0)
(-3.85562382e-12 0 0)
(-3.30098265e-12 0 0)
(-4.08417133e-12 0 0)
(-4.49682975e-12 0 0)
(-4.17892983e-12 0 0)
(-3.81404003e-12 0 0)
(-4.4034051e-12 0 0)
(-3.96059541e-12 0 0)
(-5.09700159e-12 0 0)
(-4.45307719e-12 0 0)
(-3.63395844e-12 0 0)
(-3.7208516e-12 0 0)
(-4.24278285e-12 0 0)
(-3.62856296e-12 0 0)
(-4.46952744e-12 0 0)
(-5.08568908e-12 0 0)
(-3.53236204e-12 0 0)
(-4.60622988e-12 0 0)
(-4.46234857e-12 0 0)
(-4.39303435e-12 0 0)
(-3.66128761e-12 0 0)
(-4.19640951e-12 0 0)
(-5.47970966e-12 0 0)
(-4.96739277e-12 0 0)
(-5.0857209e-12 0 0)
(-4.57524288e-12 0 0)
(-4.61679862e-12 0 0)
(-4.24861345e-12 0 0)
(-4.72961882e-12 0 0)
(-5.91432974e-12 0 0)
(-5.59540695e-12 0 0)
(-6.14316443e-12 0 0)
(-5.45336448e-12 0 0)
(-6.14757077e-12 0 0)
(-6.80148634e-12 0 0)
(-5.5082482e-12 0 0)
(-5.6031893e-12 0 0)
(-4.63488935e-12 0 0)
(-5.90313925e-12 0 0)
(-5.18356178e-12 0 0)
(-5.37684816e-12 0 0)
(-6.64475766e-12 0 0)
(-5.50166704e-12 0 0)
(-5.26776012e-12 0 0)
(-6.20303997e-12 0 0)
(-6.52460473e-12 0 0)
(-5.1039706e-12 0 0)
(-6.54643369e-12 0 0)
(-6.2863936e-12 0 0)
(-7.63164887e-12 0 0)
(-6.34153807e-12 0 0)
(-6.91659162e-12 0 0)
(-7.00754604e-12 0 0)
(-7.24213284e-12 0 0)
(-7.71734568e-12 0 0)
(-6.75069416e-12 0 0)
(-7.28107677e-12 0 0)
(-8.16921863e-12 0 0)
(-7.66759999e-12 0 0)
(-7.17830319e-12 0 0)
(-6.68707143e-12 0 0)
(-7.93091033e-12 0 0)
(-8.08694144e-12 0 0)
(-7.76241995e-12 0 0)
(-6.9943862e-12 0 0)
(-7.74741952e-12 0 0)
(-8.06943548e-12 0 0)
(-8.46828845e-12 0 0)
(-7.72209305e-12 0 0)
(-9.69899396e-12 0 0)
(-8.84334899e-12 0 0)
(-9.8664253e-12 0 0)
(-1.02311486e-11 0 0)
(-1.04330374e-11 0 0)
(-1.027287e-11 0 0)
(-1.07436873e-11 0 0)
(-9.79453945e-12 0 0)
(-9.46641204e-12 0 0)
(-1.02352284e-11 0 0)
(-1.08531103e-11 0 0)
(-1.0401305e-11 0 0)
(-1.09213921e-11 0 0)
(-1.03100456e-11 0 0)
(-9.90465205e-12 0 0)
(-9.43603084e-12 0 0)
(-1.00923952e-11 0 0)
(-1.03340868e-11 0 0)
(-9.53053569e-12 0 0)
(-1.02642965e-11 0 0)
(-8.94667249e-12 0 0)
(-8.80340322e-12 0 0)
(-9.11656169e-12 0 0)
(-8.89411684e-12 0 0)
(-8.35353572e-12 0 0)
(-8.88373899e-12 0 0)
(-9.9056804e-12 0 0)
(-9.51316561e-12 0 0)
(-9.06490242e-12 0 0)
(-8.41179859e-12 0 0)
(-9.61134545e-12 0 0)
(-9.91489933e-12 0 0)
(-9.58568668e-12 0 0)
(-9.89654439e-12 0 0)
(-9.66791631e-12 0 0)
(-1.00971217e-11 0 0)
(-1.01859466e-11 0 0)
(-1.00612343e-11 0 0)
(-9.86306629e-12 0 0)
(-1.09330167e-11 0 0)
(-1.02465851e-11 0 0)
(-1.02251519e-11 0 0)
(-1.08277466e-11 0 0)
(-1.07903042e-11 0 0)
(-1.02933499e-11 0 0)
(-1.04434147e-11 0 0)
(-1.07904805e-11 0 0)
(-1.09310463e-11 0 0)
(-1.12462147e-11 0 0)
(-1.08766982e-11 0 0)
(-1.11761806e-11 0 0)
(-1.09897482e-11 0 0)
(-9.92368824e-12 0 0)
(-1.0577362e-11 0 0)
(-1.10916991e-11 0 0)
(-1.05342379e-11 0 0)
(-1.08570836e-11 0 0)
(-1.1182002e-11 0 0)
(-1.03068255e-11 0 0)
(-1.12221718e-11 0 0)
(-1.0800829e-11 0 0)
(-1.07810428e-11 0 0)
(-1.10178016e-11 0 0)
(-1.1216349e-11 0 0)
(-1.05891908e-11 0 0)
(-1.12213213e-11 0 0)
(-1.08151579e-11 0 0)
(-1.08283052e-11 0 0)
(-1.16177776e-11 0 0)
(-1.1392265e-11 0 0)
(-1.2313076e-11 0 0)
(-1.28382318e-11 0 0)
(-1.21010455e-11 0 0)
(-1.19055253e-11 0 0)
(-1.27723401e-11 0 0)
(-1.23536234e-11 0 0)
(-1.21239863e-11 0 0)
(-1.27787243e-11 0 0)
(-1.19995161e-11 0 0)
(-1.18648771e-11 0 0)
(-1.20252382e-11 0 0)
(-1.19170031e-11 0 0)
(-1.1986866e-11 0 0)
(-1.20300227e-11 0 0)
(-1.181082e-11 0 0)
(-1.20476211e-11 0 0)
(-1.13728364e-11 0 0)
(-1.12839262e-11 0 0)
(-1.15084231e-11 0 0)
(-1.17298613e-11 0 0)
(-1.12532463e-11 0 0)
(-1.18152622e-11 0 0)
(-1.21703029e-11 0 0)
(-1.19712046e-11 0 0)
(-1.19506853e-11 0 0)
(-1.1378954e-11 0 0)
(-1.15469124e-11 0 0)
(-1.11046454e-11 0 0)
(-1.16396066e-11 0 0)
(-1.09189701e-11 0 0)
(-1.14541439e-11 0 0)
(-1.15479208e-11 0 0)
(-1.16376831e-11 0 0)
(-1.18737556e-11 0 0)
(-1.20870562e-11 0 0)
(-1.22060668e-11 0 0)
(-1.23784916e-11 0 0)
(-1.22233822e-11 0 0)
(-1.17856363e-11 0 0)
(-1.18914873e-11 0 0)
(-1.25688172e-11 0 0)
(-1.19664847e-11 0 0)
(-1.25028411e-11 0 0)
(-1.19370497e-11 0 0)
(-1.13909389e-11 0 0)
(-1.31210221e-11 0 0)
(-1.28382283e-11 0 0)
(-1.26704422e-11 0 0)
(-1.17174145e-11 0 0)
(-1.17204408e-11 0 0)
(-1.13084727e-11 0 0)
(-1.23743432e-11 0 0)
(-1.16427729e-11 0 0)
(-1.22155984e-11 0 0)
(-1.28906224e-11 0 0)
(-1.24465547e-11 0 0)
(-1.21223551e-11 0 0)
(-1.22247036e-11 0 0)
(-1.30147639e-11 0 0)
(-1.23785055e-11 0 0)
(-1.14738458e-11 0 0)
(-1.15092614e-11 0 0)
(-1.17229037e-11 0 0)
(-1.172253e-11 0 0)
(-1.13611415e-11 0 0)
(-1.18583149e-11 0 0)
(-1.20881996e-11 0 0)
(-1.08920909e-11 0 0)
(-1.17323954e-11 0 0)
(-1.18104976e-11 0 0)
(-1.11126812e-11 0 0)
(-1.05223434e-11 0 0)
(-1.18243222e-11 0 0)
(-1.17360715e-11 0 0)
(-1.07681281e-11 0 0)
(-1.12079455e-11 0 0)
(-1.1182371e-11 0 0)
(-1.0918577e-11 0 0)
(-1.10720136e-11 0 0)
(-1.05287463e-11 0 0)
(-1.04842458e-11 0 0)
(-1.11837867e-11 0 0)
(-1.0681215e-11 0 0)
(-1.12128997e-11 0 0)