/*--------------------------------*- C++ -*----------------------------------*\
| =========                 |                                                 |
| \\      /  F ield         | OpenFOAM: The Open Source CFD Toolbox           |
|  \\    /   O peration     | Version:  2206                                  |
|   \\  /    A nd           | Website:  www.openfoam.com                      |
|    \\/     M anipulation  |                                                 |
\*---------------------------------------------------------------------------*/
FoamFile
{
    version     2.0;
    format      ascii;
    arch        "LSB;label=32;scalar=64";
    class       volScalarField;
    location    "9e-06";
    object      p;
}
// * * * * * * * * * * * * * * * * * * * * * * * * * * * * * * * * * * * * * //

dimensions      [1 -1 -2 0 0 0 0];

internalField   nonuniform List<scalar> 
3183
(
101325
101325
101325
101325
101325
101325
101325
101325
101325
101325
101325
101325
101325
101325
101325
101325
101325
101325
101325
101325
101325
101325
101325
101325
101325
101325
101325
101325
101325
101325
101325
101325
101325
101325
101325
101325
101325
101325
101325
101325
101325
101325
101325
101325
101325
101325
101325
101325
101325
101325
101325
101325
101325
101325
101325
101325
101325
101325
101325
101325
101325
101325
101325
101325
101325
101325
101325
101325
101325
101325
101325
101325
101325
101325
101325
101325
101325
101325
101325
101325
101325
101325
101325
101325
101325
101325
101325
101325
101325
101325
101325
101325
101325
101325
101325
101325
101325
101325
101325
101325
101325
101325
101325
101325
101325
101325
101325
101325
101325
101325
101325
101325
101325
101325
101325
101325
101325
101325
101325
101325
101325
101325
101325
101325
101325
101325
101325
101325
101325
101325
101325
101325
101325
101325
101325
101325
101325
101325
101325
101325
101325
101325
101325
101325
101325
101325
101325
101325
101325
101325
101325
101325
101325
101325
101325
101325
101325
101325
101325
101325
101325
101325
101325
101325
101325
101325
101325
101325
101325
101325
101325
101325
101325
101325
101325
101325
101325
101325
101325
101325
101325
101325
101325
101325
101325
101325
101325
101325
101325
101325
101325
101325
101325
101325
101325
101325
101325
101325
101325
101325
101325
101325
101325
101325
101325
101325
101325
101325
101325
101325
101325
101325
101325
101325
101325
101325
101325
101325
101325
101325
101325
101325
101325
101325
101325
101325
101325
101325
101325
101325
101325
101325
101325
101325
101325
101325
101325
101325
101325
101325
101325
101325
101325
101325
101325
101325
101325
101325
101325
101325
101325
101325
101325
101325
101325
101325
101325
101325
101325
101325
101325
101325
101325
101325
101325
101325
101325
101325
101325
101325
101325
101325
101325
101325
101325
101325
101325
101325
101325
101325
101325
101325
101325
101325
101325
101325
101325
101325
101325
101325
101325
101325
101325
101325
101325
101325
101325
101325
101325
101325
101325
101325
101325
101325
101325
101325
101325
101325
101325
101325
101325
101325
101325
101325
101325
101325
101325
101325
101325
101325
101325
101325
101325
101325
101325
101325
101325
101325
101325
101325
101325
101325
101325
101325
101325
101325
101325
101325
101325
101325
101325
101325
101325
101325
101325
101325
101325
101325
101325
101325
101325
101325
101325
101325
101325
101325
101325
101325
101325
101325
101325
101325
101325
101325
101325
101325
101325
101325
101325
101325
101325
101325
101325
101325
101325
101325
101325
101325
101325
101325
101325
101325
101325
101325
101325
101325
101325
101325
101325
101325
101325
101325
101325
101325
101325
101325
101325
101325
101325
101325
101325
101325
101325
101325
101325
101325
101325
101325
101325
101325
101325
101325
101325
101325
101325
101325
101325
101325
101325
101325
101325
101325
101325
101325
101325
101325
101325
101325
101325
101325
101325
101325
101325
101325
101325
101325
101325
101325
101325
101325
101325
101325
101325
101325
101325
101325
101325
101325
101325
101325
101325
101325
101325
101325
101325
101325
101325
101325
101325
101325
101325
101325
101325
101325
101325
101325
101325
101325
101325
101325
101325
101325
101325
101325
101325
101325
101325
101325
101325
101325
101325
101325
101325
101325
101325
101325
101325
101325
101325
101325
101325
101325
101325
101325
101325
101325
101325
101325
101325
101325
101325
101325
101325
101325
101325
101325
101325
101325
101325
101325
101325
101325
101325
101325
101325
101325
101325
101325
101325
101325
101325
101325
101325
101325
101325
101325
101325
101325
101325
101325
101325
101325
101325
101325
101325
101325
101325
101325
101325
101325
101325
101325
101325
101325
101325
101325
101325
101325
101325
101325
101325
101325
101325
101325
101325
101325
101325
101325
101325
101325
101325
101325
101325
101325
101325
101325
101325
101325
101325
101325
101325
101325
101325
101325
101325
101325
101325
101325
101325
101325
101325
101325
101325
101325
101325
101325
101325
101325
101325
101325
101325
101325
101325
101325
101325
101325
101325
101325
101325
101325
101325
101325
101325
101325
101325
101325
101325
101325
101325
101325
101325
101325
101325
101325
101325
101325
101325
101325
101325
101325
101325
101325
101325
101325
101325
101325
101325
101325
101325
101325
101325
101325
101325
101325
101325
101325
101325
101325
101325
101325
101325
101325
101325
101325
101325
101325
101325
101325
101325
101325
101325
101325
101325
101325
101325
101325
101325
101325
101325
101325
101325
101325
101325
101325
101325
101325
101325
101325
101325
101325
101325
101325
101325
101325
101325
101325
101325
101325
101325
101325
101325
101325
101325
101325
101325
101325
101325
101325
101325
101325
101325
101325
101325
101325
101325
101325
101325
101325
101325
101325
101325
101325
101325
101325
101325
101325
101325
101325
101325
101325
101325
101325
101325
101325
101325
101325
101325
101325
101325
101325
101325
101325
101325
101325
101325
101325
101325
101325
101325
101325
101325
101325
101325
101325
101325
101325
101325
101325
101325
101325
101325
101325
101325
101325
101325
101325
101325
101325
101325
101325
101325
101325
101325
101325
101325
101325
101325
101325
101325
101325
101325
101325
101325
101325
101325
101325
101325
101325
101325
101325
101325
101325
101325
101325
101325
101325
101325
101325
101325
101325
101325
101325
101325
101325
101325
101325
101325
101325
101325
101325
101325
101325
101325
101325
101325
101325
101325
101325
101325
101325
101325
101325
101325
101325
101325
101325
101325
101325
101325
101325
101325
101325
101325
101325
101325
101325
101325
101325
101325
101325
101325
101325
101325
101325
101325
101325
101325
101325
101325
101325
101325
101325
101325
101325
101325
101325
101325
101325
101325
101325
101325
101325
101325
101325
101325
101325
101325
101325
101325
101325
101325
101325
101325
101325
101325
101325
101325
101325
101325
101325
101325
101325
101325
101325
101325
101325
101325
101325
101325
101325
101325
101325
101325
101325
101325
101325
101325
101325
101325
101325
101325
101325
101325
101325
101325
101325
101325
101325
101325
101325
101325
101325
101325
101325
101325
101325
101325
101325
101325
101325
101325
101325
101325
101325
101325
101325
101325
101325
101325
101325
101325
101325
101325
101325
101325
101325
101325
101325
101325
101325
101325
101325
101325
101325
101325
101325
101325
101325
101325
101325
101325
101325
101325
101325
101325
101325
101325
101325
101325
101325
101325
101325
101325
101325
101325
101325
101325
101325
101325
101325
101325
101325
101325
101325
101325
101325
101325
101325
101325
101325
101325
101325
101325
101325
101325
101325
101325
101325
101325
101325
101325
101325
101325
101325
101325
101325
101325
101325
101325
101325
101325
101325
101325
101325
101325
101325
101325
101325
101325
101325
101325
101325
101325
101325
101325
101325
101325
101325
101325
101325
101325
101325
101325
101325
101325
101325
101325
101325
101325
101325
101325
101325
101325
101325
101325
101325
101325
101325
101325
101325
101325
101325
101325
101325
101325
101325
101325
101325
101325
101325
101325
101325
101325
101325
101325
101325
101325
101325
101325
101325
101325
101325
101325
101325
101325
101325
101325
101325
101325
101325
101325
101325
101325
101325
101325
101325
101325
101325
101325
101325
101325
101325
101325
101325
101325
101325
101325
101325
101325
101325
101325
101325
101325
101325
101325
101325
101325
101325
101325
101325
101325
101325
101325
101325
101325
101325
101325
101325
101325
101325
101325
101325
101325
101325
101325
101325
101325
101325
101325
101325
101325
101325
101325
101325
101325
101325
101325
101325
101325
101325
101325
101325
101325
101325
101325
101325
101325
101325
101325
101325
101325
101325
101325
101325
101325
101325
101325
101325
101325
101325
101325
101325
101325
101325
101325
101325
101325
101325
101325
101325
101325
101325
101325
101325
101325
101325
101325
101325
101325
101325
101325
101325
101325
101325
101325
101325
101325
101325
101325
101325
101325
101325
101325
101325
101325
101325
101325
101325
101325
101325
101325
101325
101325
101325
101325
101325
101325
101325
101325
101325
101325
101325
101325
101325
101325
101325
101325
101325
101325
101325
101325
101325
101325
101325
101325
101325
101325
101325
101325
101325
101325
101325
101325
101325
101325
101325
101325
101325
101325
101325
101325
101325
101325
101325
101325
101325
101325
101325
101325
101325
101325
101325
101325
101325
101325
101325
101325
101325
101325
101325
101325
101325
101325
101325
101325
101325
101325
101325
101325
101325
101325
101325
101325
101325
101325
101325
101325
101325
101325
101325
101325
101325
101325
101325
101325
101325
101325
101325
101325
101325
101325
101325
101325
101325
101325
101325
101325
101325
101325
101325
101325
101325
101325
101325
101325
101325
101325
101325
101325
101325
101325
101325
101325
101325
101325
101325
101325
101325
101325
101325
101325
101325
101325
101325
101325
101325
101325
101325
101325
101325
101325
101325
101325
101325
101325
101325
101325
101325
101325
101325
101325
101325
101325
101325
101325
101325
101325
101325
101325
101325
101325
101325
101325
101325
101325
101325
101325
101325
101325
101325
101325
101325
101325
101325
101325
101325
101325
101325
101325
101325
101325
101325
101325
101325
101325
101325
101325
101325
101325
101325
101325
101325
101325
101325
101325
101325
101325
101325
101325
101325
101325
101325
101325
101325
101325
101325
101325
101325
101325
101325
101325
101325
101325
101325
101325
101325
101325
101325
101325
101325
101325
101325
101325
101325
101325
101325
101325
101325
101325
101325
101325
101325
101325
101325
101325
101325
101325
101325
101325
101325
101325
101325
101325
101325
101325
101325
101325
101325
101325
101325
101325
101325
101325
101325
101325
101325
101325
101325
101325
101325
101325
101325
101325
101325
101325
101325
101325
101325
101325
101325
101325
101325
101325
101325
101325
101325
101325
101325
101325
101325
101325
101325
101325
101325
101325
101325
101325
101325
101325
101325
101325
101325
101325
101325
101325
101325
101325
101325
101325
101325
101325
101325
101325
101325
101325
101325
101325
101325
101325
101325
101325
101325
101325
101325
101325
101325
101325
101325
101325
101325
101325
101325
101325
101325
101325
101325
101325
101325
101325
101325
101325
101325
101325
101325
101325
101325
101325
101325
101325
101325
101325
101325
101325
101325
101325
101325
101325
101325
101325
101325
101325
101325
101325
101325
101325
101325
101325
101325
101325
101325
101325
101325
101325
101325
101325
101325
101325
101325
101325
101325
101325
101325
101325
101325
101325
101325
101325
101325
101325
101325
101325
101325
101325
101325
101325
101325
101325
101325
101325
101325
101325
101325
101325
101325
101325
101325
101325
101325
101325
101325
101325
101325
101325
101325
101325
101325
101325
101325
101325
101325
101325
101325
101325
101325
101325
101325
101325
101325
101325
101325
101325
101325
101325
101325
101325
101325
101325
101325
101325
101325
101325
101325
101325
101325
101325
101325
101325
101325
101325
101325
101325
101325
101325
101325
101325
101325
101325
101325
101325
101325
101325
101325
101325
101325
101325
101325
101325
101325
101325
101325
101325
101325
101325
101325
101325
101325
101325
101325
101325
101325
101325
101325
101325
101325
101325
101325
101325
101325
101325
101325
101325
101325
101325
101325
101325
101325
101325
101325
101325
101325
101325
101325
101325
101325
101325
101325
101325
101325
101325
101325
101325
101325
101325
101325
101325
101325
101325
101325
101325
101325
101325
101325
101325
101325
101325
101325
101325
101325
101325
101325
101325
101325
101325
101325
101325
101325
101325
101325
101325
101325
101325
101325
101325
101325
101325
101325
101325
101325
101325
101325
101325
101325
101325
101325
101325
101325
101325
101325
101325
101325
101325
101325
101325
101325
101325
101325
101325
101325
101325
101325
101325
101325
101325
101325
101325
101325
101325
101325
101325
101325
101325
101325
101325
101325
101325
101325
101325
101325
101325
101325
101325
101325
101325
101325
101325
101325
101325
101325
101325
101325
101325
101325
101325
101325
101325
101325
101325
101325
101325
101325
101325
101325
101325
101325
101325
101325
101325
101325
101325
101325
101325
101325
101325
101325
101325
101325
101325
101325
101325
101325
101325
101325
101325
101325
101325
101325
101325
101325
101325
101325
101325
101325
101325
101325
101325
101325
101325
101325
101325
101325
101325
101325
101325
101325
101325
101325
101325
101325
101325
101325
101325
101325
101325
101325
101325
101325
101325
101325
101325
101325
101325
101325
101325
101325
101325
101325
101325
101325
101325
101325
101325
101325
101325
101325
101325
101325
101325
101325
101325
101325
101325
101325
101325
101325
101325
101325
101325
101325
101325
101325
101325
101325
101325
101325
101325
101325
101325
101325
101325
101325
101325
101325
101325
101325
101325
101325
101325
101325
101325
101325
101325
101325
101325
101325
101325
101325
101325
101325
101325
101325
101325
101325
101325
101325
101325
101325
101325
101325
101325
101325
101325
101325
101325
101325
101325
101325
101325
101325
101325
101325
101325
101325
101325
101325
101325
101325
101325
101325
101325
101325
101325
101325
101325
101325
101325
101325
101325
101325
101325
101325
101325
101325
101325
101325
101325
101325
101325
101325
101325
101325
101325
101325
101325
101325
101325
101325
101325
101325
101325
101325
101325
101325
101325
101325
101325
101325
101325
101325
101325
101325
101325
101325
101325
101325
101325
101325
101325
101325
101325
101325
101325
101325
101325
101325
101325
101325
101325
101325
101325
101325
101325
101325
101325
101325
101325
101325
101325
101325
101325
101325
101325
101325
101325
101325
101325
101325
101325
101325
101325
101325
101325
101325
101325
101325
101325
101325
101325
101325
101325
101325
101325
101325
101325
101325
101325
101325
101325
101325
101325
101325
101325
101325
101325
101325
101325
101325
101325
101325
101325
101325
101325
101325
101325
101325
101325
101325
101325
101325
101325
101325
101325
101325
101325
101325
101325
101325
101325
101325
101325
101325
101325
101325
101325
101325
101325
101325
101325
101325
101325
101325
101325
101325
101325
101325
101325
101325
101325
101325
101325
101325
101325
101325
101325
101325
101325
101325
101325
101325
101325
101325
101325
101325
101325
101325
101325
101325
101325
101325
101325
101325
101325
101325
101325
101325
101325
101325
101325
101325
101325
101325
101325
101325
101325
101325
101325
101325
101325
101325
101325
101324.999
101324.999
101324.999
101324.999
101324.999
101324.999
101324.999
101324.999
101324.999
101324.999
101324.999
101324.999
101324.999
101324.999
101324.999
101324.998
101324.998
101324.998
101324.998
101324.998
101324.998
101324.998
101324.997
101324.997
101324.997
101324.997
101324.997
101324.996
101324.996
101324.996
101324.995
101324.995
101324.995
101324.994
101324.994
101324.994
101324.993
101324.993
101324.992
101324.991
101324.991
101324.99
101324.99
101324.989
101324.988
101324.987
101324.986
101324.985
101324.985
101324.983
101324.982
101324.981
101324.98
101324.979
101324.977
101324.976
101324.974
101324.972
101324.97
101324.968
101324.966
101324.964
101324.962
101324.959
101324.957
101324.954
101324.951
101324.948
101324.945
101324.941
101324.937
101324.933
101324.929
101324.925
101324.92
101324.915
101324.91
101324.904
101324.899
101324.892
101324.886
101324.879
101324.872
101324.864
101324.856
101324.847
101324.838
101324.829
101324.819
101324.808
101324.797
101324.785
101324.772
101324.759
101324.746
101324.731
101324.716
101324.7
101324.683
101324.665
101324.646
101324.627
101324.606
101324.584
101324.562
101324.538
101324.513
101324.486
101324.459
101324.43
101324.4
101324.368
101324.335
101324.3
101324.264
101324.225
101324.186
101324.144
101324.1
101324.055
101324.007
101323.958
101323.906
101323.852
101323.795
101323.736
101323.675
101323.611
101323.544
101323.475
101323.402
101323.327
101323.249
101323.167
101323.082
101322.994
101322.903
101322.808
101322.709
101322.607
101322.5
101322.39
101322.276
101322.158
101322.035
101321.908
101321.777
101321.641
101321.5
101321.354
101321.204
101321.049
101320.889
101320.723
101320.552
101320.376
101320.195
101320.008
101319.815
101319.616
101319.412
101319.202
101318.986
101318.764
101318.536
101318.302
101318.062
101317.815
101317.562
101317.303
101317.038
101316.766
101316.488
101316.203
101315.912
101315.615
101315.311
101315.001
101314.685
101314.362
101314.033
101313.698
101313.357
101313.01
101312.657
101312.298
101311.934
101311.564
101311.188
101310.807
101310.421
101310.031
101309.635
101309.235
101308.83
101308.421
101308.008
101307.592
101307.172
101306.749
101306.323
101305.894
101305.463
101305.03
101304.595
101304.159
101303.722
101303.284
101302.846
101302.408
101301.971
101301.534
101301.098
101300.664
101300.232
101299.803
101299.376
101298.952
101298.532
101298.117
101297.705
101297.299
101296.898
101296.503
101296.114
101295.731
101295.356
101294.988
101294.628
101294.277
101293.933
101293.6
101293.275
101292.96
101292.656
101292.362
101292.078
101291.806
101291.545
101291.297
101291.06
101290.835
101290.623
101290.424
101290.237
101290.064
101289.904
101289.757
101289.624
101289.505
101289.399
101289.307
101289.229
101289.164
101289.114
101289.077
101289.054
101289.044
101289.048
101289.066
101289.096
101289.14
101289.196
101289.265
101289.347
101289.44
101289.546
101289.663
101289.791
101289.931
101290.081
101290.241
101290.411
101290.59
101290.778
101290.975
101291.181
101291.394
101291.614
101291.841
101292.075
101292.315
101292.56
101292.81
101293.065
101293.324
101293.586
101293.852
101294.121
101294.391
101294.664
101294.938
101295.213
101295.488
101295.763
101296.039
101296.313
101296.587
101296.859
101297.129
101297.397
101297.663
101297.925
101298.185
101298.442
101298.695
101298.944
101299.189
101299.43
101299.667
101299.899
101300.126
101300.348
101300.566
101300.778
101300.985
101301.187
101301.384
101301.576
101301.762
101301.943
101302.118
101302.289
101302.454
101302.614
101302.769
101302.919
101303.064
101303.205
101303.34
101303.471
101303.598
101303.72
101303.838
101303.952
101304.062
101304.169
101304.271
101304.371
101304.466
101304.559
101304.648
101304.735
101304.819
101304.9
101304.978
101305.054
101305.128
101305.199
101305.269
101305.336
101305.401
101305.465
101305.527
101305.587
101305.645
101305.702
101305.757
101305.811
101305.863
101305.913
101305.963
101306.01
101306.057
101306.101
101306.145
101306.187
101306.227
101306.266
101306.304
101306.34
101306.375
101306.409
101306.44
101306.471
101306.5
101306.528
101306.554
101306.579
101306.603
101306.626
101306.648
101306.668
101306.688
101306.706
101306.724
101306.742
101306.759
101306.775
101306.791
101306.807
101306.824
101306.84
101306.857
101306.875
101306.893
101306.912
101306.933
101306.955
101306.978
101307.003
101307.03
101307.059
101307.09
101307.124
101307.16
101307.199
101307.24
101307.284
101307.331
101307.381
101307.434
101307.49
101307.548
101307.61
101307.674
101307.74
101307.81
101307.881
101307.955
101308.031
101308.108
101308.187
101308.267
101308.349
101308.43
101308.513
101308.595
101308.677
101308.758
101308.839
101308.918
101308.996
101309.072
101309.146
101309.218
101309.287
101309.353
101309.416
101309.476
101309.533
101309.586
101309.636
101309.682
101309.724
101309.763
101309.798
101309.83
101309.859
101309.884
101309.906
101309.926
101309.943
101309.957
101309.97
101309.98
101309.989
101309.997
101310.003
101310.009
101310.013
101310.018
101310.022
101310.026
101310.031
101310.036
101310.041
101310.047
101310.053
101310.06
101310.068
101310.077
101310.086
101310.096
101310.107
101310.119
101310.131
101310.144
101310.158
101310.172
101310.188
101310.203
101310.219
101310.236
101310.254
101310.272
101310.291
101310.31
101310.33
101310.35
101310.37
101310.391
101310.411
101310.431
101310.449
101310.465
101310.478
101310.487
101310.491
101310.486
101310.472
101310.444
101310.385
101310.299
101310.602
101310.864
101310.826
101309.883
101309.855
101309.935
101310.16
101310.247
101310.394
101310.445
101310.492
101310.498
101310.5
101310.491
101310.48
101310.466
101310.452
101310.436
101310.421
101310.405
101310.39
101310.375
101310.36
101310.346
101310.332
101310.318
101310.305
101310.292
101310.28
101310.268
101310.257
101310.246
101310.235
101310.224
101310.214
101310.204
101310.194
101310.184
101310.174
101310.165
101310.155
101310.146
101310.137
101310.128
101310.118
101310.109
101310.1
101310.091
101310.082
101310.073
101310.064
101310.055
101310.046
101310.037
101310.028
101310.019
101310.01
101310.001
101309.992
101309.983
101309.974
101309.966
101309.957
101309.949
101309.94
101309.932
101309.924
101309.916
101309.908
101309.9
101309.893
101309.885
101309.878
101309.871
101309.864
101309.857
101309.851
101309.844
101309.838
101309.832
101309.826
101309.82
101309.814
101309.809
101309.803
101309.798
101309.792
101309.787
101309.781
101309.776
101309.771
101309.765
101309.76
101309.754
101309.748
101309.742
101309.736
101309.729
101309.722
101309.715
101309.708
101309.7
101309.691
101309.683
101309.673
101309.664
101309.653
101309.642
101309.631
101309.619
101309.606
101309.592
101309.578
101309.563
101309.547
101309.53
101309.513
101309.495
101309.476
101309.456
101309.435
101309.413
101309.39
101309.367
101309.343
101309.317
101309.291
101309.264
101309.237
101309.208
101309.178
101309.148
101309.117
101309.085
101309.052
101309.019
101308.985
101308.95
101308.915
101308.879
101308.842
101308.805
101308.767
101308.729
101308.69
101308.651
101308.611
101308.572
101308.531
101308.491
101308.45
101308.41
101308.369
101308.328
101308.287
101308.246
101308.205
101308.164
101308.123
101308.082
101308.042
101308.001
101307.961
101307.921
101307.882
101307.843
101307.804
101307.766
101307.728
101307.691
101307.654
101307.618
101307.582
101307.547
101307.512
101307.478
101307.445
101307.412
101307.38
101307.349
101307.318
101307.288
101307.258
101307.229
101307.201
101307.173
101307.147
101307.121
101307.096
101307.072
101307.048
101307.025
101307.003
101306.981
101306.96
101306.94
101306.92
101306.901
101306.883
101306.865
101306.848
101306.831
101306.815
101306.799
101306.784
101306.769
101306.755
101306.741
101306.728
101306.715
101306.703
101306.69
101306.679
101306.667
101306.656
101306.645
101306.634
101306.623
101306.613
101306.603
101306.593
101306.583
101306.573
101306.563
101306.553
101306.544
101306.534
101306.524
101306.515
101306.505
101306.495
101306.485
101306.475
101306.465
101306.455
101306.444
101306.434
101306.423
101306.412
101306.401
101306.39
101306.378
101306.366
101306.354
101306.341
101306.329
101306.316
101306.303
101306.289
101306.275
101306.261
101306.246
101306.232
101306.216
101306.201
101306.185
101306.169
101306.152
101306.136
101306.118
101306.101
101306.083
101306.065
101306.046
101306.027
101306.008
101305.988
101305.968
101305.948
101305.927
101305.906
101305.885
101305.863
101305.841
101305.818
101305.796
101305.773
101305.749
101305.725
101305.701
101305.677
101305.652
101305.627
101305.602
101305.576
101305.55
101305.523
101305.497
101305.469
101305.442
101305.414
101305.386
101305.358
101305.329
101305.3
101305.27
101305.24
101305.21
101305.179
101305.148
101305.117
101305.085
101305.053
101305.02
101304.987
101304.954
101304.92
101304.886
101304.851
101304.816
101304.78
101304.744
101304.707
101304.67
101304.632
101304.594
101304.555
101304.516
101304.476
101304.435
101304.394
101304.353
101304.31
101304.267
101304.223
101304.179
101304.133
101304.088
101304.041
101303.993
101303.945
101303.896
101303.846
101303.795
101303.744
101303.691
101303.638
101303.584
101303.528
101303.472
101303.415
101303.357
101303.298
101303.238
101303.176
101303.114
101303.051
101302.986
101302.92
101302.853
101302.786
101302.716
101302.646
101302.574
101302.502
101302.428
101302.352
101302.276
101302.198
101302.119
101302.039
101301.957
101301.874
101301.789
101301.704
101301.616
101301.528
101301.438
101301.347
101301.254
101301.16
101301.065
101300.968
101300.87
101300.77
101300.669
101300.567
101300.463
101300.358
101300.251
101300.143
101300.034
101299.923
101299.811
101299.697
101299.583
101299.466
101299.349
101299.23
101299.11
101298.989
101298.866
101298.742
101298.617
101298.491
101298.363
101298.234
101298.104
101297.974
101297.841
101297.708
101297.574
101297.439
101297.303
101297.166
101297.028
101296.889
101296.749
101296.609
101296.468
101296.326
101296.183
101296.04
101295.896
101295.751
101295.606
101295.461
101295.315
101295.169
101295.022
101294.875
101294.728
101294.581
101294.434
101294.286
101294.139
101293.991
101293.844
101293.696
101293.549
101293.403
101293.256
101293.11
101292.964
101292.819
101292.674
101292.53
101292.387
101292.244
101292.103
101291.961
101291.821
101291.682
101291.544
101291.407
101291.271
101291.137
101291.003
101290.871
101290.741
101290.612
101290.484
101290.358
101290.234
101290.111
101289.99
101289.871
101289.754
101289.639
101289.526
101289.415
101289.306
101289.199
101289.095
101288.993
101288.893
101288.795
101288.701
101288.608
101288.518
101288.431
101288.347
101288.265
101288.186
101288.11
101288.037
101287.967
101287.899
101287.835
101287.774
101287.716
101287.661
101287.609
101287.56
101287.515
101287.473
101287.434
101287.398
101287.366
101287.337
101287.312
101287.29
101287.271
101287.256
101287.245
101287.236
101287.232
101287.231
101287.233
101287.238
101287.248
101287.26
101287.277
101287.298
101287.326
101287.361
101287.404
101287.458
101287.523
101287.601
101287.695
101287.807
101287.94
101288.097
101288.283
101288.5
101288.756
101289.053
101289.4
101289.801
101290.266
101290.8
101291.414
101292.115
101292.912
101293.814
101294.83
101295.967
101297.231
101298.624
101300.147
101301.797
101303.564
101305.432
101307.381
101309.382
101311.399
101313.392
101315.316
101317.127
101318.783
101320.249
101321.5
101322.525
101323.328
101323.926
101324.348
101324.628
101324.801
101324.901
101324.955
101324.981
101324.993
101324.998
101324.999
101325
101325
101325
101325
101325
101325
101325
101325
101325
101325
101325
101325
101325
101325
101325
101325
101325
101325
101325
101325
101325
101325
101325
101325
101325
)
;

boundaryField
{
    closed
    {
        type            zeroGradient;
    }
    open
    {
        type            waveTransmissive;
        gamma           1.25;
        fieldInf        101325;
        lInf            1;
        value           uniform 101325;
    }
    sides
    {
        type            empty;
    }
}


// ************************************************************************* //
