/*--------------------------------*- C++ -*----------------------------------*\
| =========                 |                                                 |
| \\      /  F ield         | OpenFOAM: The Open Source CFD Toolbox           |
|  \\    /   O peration     | Version:  2206                                  |
|   \\  /    A nd           | Website:  www.openfoam.com                      |
|    \\/     M anipulation  |                                                 |
\*---------------------------------------------------------------------------*/
FoamFile
{
    version     2.0;
    format      ascii;
    arch        "LSB;label=32;scalar=64";
    class       surfaceScalarField;
    location    "9e-06";
    object      phi;
}
// * * * * * * * * * * * * * * * * * * * * * * * * * * * * * * * * * * * * * //

dimensions      [1 0 -1 0 0 0 0];

oriented        oriented;

internalField   nonuniform List<scalar> 
3182
(
3.18020166e-18
-2.89882098e-18
5.85588034e-19
-1.22733531e-18
-1.31099445e-21
-1.19959617e-23
-8.75115876e-25
-2.38221814e-29
3.61117669e-25
1.13561857e-23
3.22393883e-22
1.12519629e-18
3.58431524e-18
-1.60585758e-18
1.11588126e-18
-7.82835635e-19
-4.25605534e-19
-3.76123893e-18
-3.81132014e-18
4.66395161e-18
3.16935142e-20
3.34291208e-22
7.98649995e-22
1.00655351e-18
2.46577298e-18
1.85124066e-18
3.39514692e-18
5.12970174e-19
1.70583934e-20
-3.78929261e-19
-2.36487414e-18
-4.17098438e-18
-3.84802487e-18
-3.76768915e-18
-1.30326793e-18
9.34676866e-20
-7.08644839e-19
-1.18586998e-18
-3.32843374e-19
-4.13988383e-19
-2.05690417e-18
-2.31973664e-18
-1.19644806e-18
-1.30428324e-18
-1.72859071e-18
-1.63140679e-18
-1.41404445e-18
-6.55581028e-19
-1.19580027e-18
-5.36937976e-19
9.75016235e-19
1.43072873e-18
3.14773277e-18
3.57744967e-18
4.55860021e-18
4.57200065e-18
5.43196997e-18
5.65018947e-18
6.95260758e-18
8.03833651e-18
8.69482488e-18
9.98544474e-18
1.17053487e-17
1.30204996e-17
1.39325442e-17
1.58826625e-17
1.6966973e-17
1.69671346e-17
1.7854473e-17
1.73787907e-17
1.69632388e-17
1.61969556e-17
1.5259295e-17
1.47659057e-17
1.30240895e-17
1.21691158e-17
1.25750795e-17
1.13550244e-17
1.05817184e-17
8.53732102e-18
8.89778182e-18
7.67107701e-18
6.8382605e-18
6.69518522e-18
5.65989397e-18
5.8627145e-18
5.33661696e-18
4.46189689e-18
4.07772533e-18
3.74846294e-18
1.42242722e-18
-1.14142864e-18
-2.32742494e-18
-2.37882529e-18
-4.65125418e-18
-3.8942738e-18
-6.11403828e-18
-5.61608778e-18
-3.36607987e-19
-4.08590751e-19
-3.94467843e-18
-2.61584459e-18
-1.43789877e-18
-2.91414355e-18
-3.07308917e-18
-2.18133649e-18
-3.20734226e-18
-1.25058367e-18
-5.62317857e-18
-4.93331574e-18
-5.85404836e-18
-4.18140491e-18
-7.59701088e-18
-1.00079825e-17
-1.11660895e-17
-1.20903285e-17
-1.31637323e-17
-1.21142221e-17
-1.49388727e-17
-1.38739474e-17
-1.43988251e-17
-1.93282753e-17
-1.53824595e-17
-1.822221e-17
-1.74219863e-17
-1.76278744e-17
-1.70157519e-17
-1.69646002e-17
-1.78621162e-17
-1.38045511e-17
-1.52346811e-17
-1.5602937e-17
-1.93052565e-17
-1.62328219e-17
-1.65463183e-17
-1.90898346e-17
-1.8843576e-17
-1.93271483e-17
-1.991522e-17
-1.98433852e-17
-2.36306258e-17
-2.29575842e-17
-2.65371248e-17
-2.27641268e-17
-2.3074224e-17
-2.57562996e-17
-2.32372641e-17
-2.34366286e-17
-2.29539083e-17
-2.54095782e-17
-1.97187842e-17
-2.35915706e-17
-2.2492166e-17
-2.36470625e-17
-2.19692841e-17
-2.66072103e-17
-2.73757465e-17
-3.04781893e-17
-2.75690419e-17
-2.84582797e-17
-2.76835852e-17
-2.85563872e-17
-3.02685094e-17
-3.39288288e-17
-3.14399892e-17
-3.2670144e-17
-3.3161128e-17
-3.38010977e-17
-3.22702538e-17
-3.26974697e-17
-3.30960072e-17
-3.63997738e-17
-3.38808835e-17
-3.31220888e-17
-3.28411458e-17
-3.23545165e-17
-3.03569177e-17
-3.28208892e-17
-3.59895246e-17
-3.77203511e-17
-3.62371141e-17
-3.85194333e-17
-4.07366735e-17
-3.79640646e-17
-3.8849562e-17
-3.99126071e-17
-3.92833069e-17
-4.14148012e-17
-3.98173762e-17
-3.99712446e-17
-4.20952935e-17
-4.25836297e-17
-4.68158707e-17
-4.52885091e-17
-4.90464938e-17
-4.78690446e-17
-4.67198849e-17
-5.03933902e-17
-4.9401218e-17
-5.1103074e-17
-5.10915119e-17
-5.22805928e-17
-5.07250996e-17
-4.93477017e-17
-4.82905495e-17
-4.6899645e-17
-4.47981296e-17
-4.80764601e-17
-4.85209737e-17
-5.28895739e-17
-5.36718747e-17
-4.91348801e-17
-5.1981244e-17
-5.44462447e-17
-5.62837397e-17
-5.46799289e-17
-5.7535253e-17
-5.4838527e-17
-5.47377357e-17
-5.78477715e-17
-5.6704524e-17
-5.51150123e-17
-5.62863307e-17
-5.70883602e-17
-5.43085968e-17
-5.44544889e-17
-5.5877872e-17
-5.63694888e-17
-5.66729635e-17
-5.63976106e-17
-5.90345993e-17
-6.12204933e-17
-6.26127369e-17
-6.23863023e-17
-6.42433952e-17
-6.50641059e-17
-6.2066967e-17
-5.77125806e-17
-6.26553487e-17
-6.2191311e-17
-6.38262238e-17
-6.11766992e-17
-5.88230572e-17
-5.72783333e-17
-5.8524582e-17
-5.71227282e-17
-5.97359415e-17
-6.23529564e-17
-6.13329967e-17
-6.33171931e-17
-6.25827877e-17
-6.34228584e-17
-6.08982739e-17
-6.14369121e-17
-5.82253843e-17
-5.88872957e-17
-5.7437754e-17
-6.00540181e-17
-6.08584802e-17
-6.37811825e-17
-6.36230261e-17
-6.69811673e-17
-6.6805568e-17
-6.62278805e-17
-6.36563003e-17
-6.28474336e-17
-6.22489616e-17
-6.23386693e-17
-6.65879717e-17
-6.57250311e-17
-6.80765154e-17
-6.74447565e-17
-6.69012449e-17
-6.77938993e-17
-6.90561685e-17
-6.97494342e-17
-6.82036967e-17
-7.00696673e-17
-7.26213305e-17
-7.0292012e-17
-7.10141006e-17
-7.22177617e-17
-7.42348646e-17
-7.35847585e-17
-7.28778457e-17
-7.61938423e-17
-7.72486695e-17
-7.93138767e-17
-7.53103504e-17
-7.57485925e-17
-7.49165842e-17
-7.74641135e-17
-7.83097851e-17
-7.7976855e-17
-8.0339375e-17
-8.41490742e-17
-8.11789685e-17
-8.57928664e-17
-8.61762445e-17
-8.49328046e-17
-8.41744105e-17
-8.42032603e-17
-8.43949052e-17
-8.3693804e-17
-8.57981073e-17
-8.69462659e-17
-8.6100666e-17
-8.36926043e-17
-8.57522129e-17
-8.86367391e-17
-8.80559453e-17
-8.90093866e-17
-9.11657551e-17
-9.34008747e-17
-9.1891006e-17
-9.31306814e-17
-9.67189451e-17
-9.19501596e-17
-9.21871785e-17
-9.32912054e-17
-9.39333864e-17
-9.33209928e-17
-9.14506715e-17
-8.68269046e-17
-8.8612505e-17
-8.71421379e-17
-8.35297607e-17
-8.23578043e-17
-8.03229329e-17
-8.24526443e-17
-8.3124291e-17
-8.32206956e-17
-8.55656846e-17
-8.22070412e-17
-8.30528338e-17
-8.21465758e-17
-8.12565146e-17
-8.50791269e-17
-8.41735743e-17
-8.51680156e-17
-8.51280868e-17
-8.51801851e-17
-8.56094902e-17
-8.38348654e-17
-8.2109621e-17
-8.1533012e-17
-8.29544841e-17
-8.72974328e-17
-8.5581527e-17
-8.56620369e-17
-8.7029723e-17
-8.6419278e-17
-8.55730829e-17
-8.45215284e-17
-8.14282486e-17
-8.61870035e-17
-8.73378315e-17
-8.85773523e-17
-8.37395306e-17
-8.73724033e-17
-8.27470434e-17
-8.38986357e-17
-8.54220079e-17
-8.70142312e-17
-8.52578907e-17
-8.66363698e-17
-8.5448931e-17
-8.55876583e-17
-8.67936787e-17
-8.94775317e-17
-8.67401208e-17
-8.41607952e-17
-8.21583211e-17
-8.00743226e-17
-7.82178178e-17
-7.91145795e-17
-7.65154276e-17
-7.44839988e-17
-7.11691463e-17
-7.34797468e-17
-7.21946363e-17
-7.37186914e-17
-7.03744348e-17
-7.28619026e-17
-7.32545411e-17
-7.56764448e-17
-7.49174343e-17
-7.25960156e-17
-7.37301576e-17
-7.19948415e-17
-7.20213457e-17
-7.01784604e-17
-6.63433817e-17
-6.57120227e-17
-6.23939249e-17
-6.62773757e-17
-6.52978827e-17
-6.62838241e-17
-6.06747508e-17
-6.11848588e-17
-5.81531846e-17
-5.71004871e-17
-5.88916568e-17
-6.04679618e-17
-5.6692139e-17
-5.83091961e-17
-5.80849911e-17
-5.37248381e-17
-5.42589904e-17
-5.55330307e-17
-5.48406686e-17
-5.44628626e-17
-5.31359124e-17
-5.26291147e-17
-5.42297138e-17
-5.3494497e-17
-5.47468317e-17
-5.31229933e-17
-4.98726203e-17
-4.90196259e-17
-5.0268549e-17
-4.83728011e-17
-4.80145424e-17
-5.00873393e-17
-4.89747817e-17
-4.83476036e-17
-4.55819963e-17
-4.36558974e-17
-4.40936506e-17
-4.52540778e-17
-4.61947048e-17
-4.83192935e-17
-4.68518599e-17
-4.3985871e-17
-4.73786521e-17
-4.48000885e-17
-4.41769252e-17
-4.06612649e-17
-4.01161104e-17
-3.89427683e-17
-3.92310544e-17
-4.35777647e-17
-4.28747112e-17
-4.2887851e-17
-4.06131498e-17
-4.29450646e-17
-4.16910926e-17
-4.34328282e-17
-4.27922346e-17
-4.31547286e-17
-3.89604991e-17
-4.35411058e-17
-4.29651672e-17
-4.11495009e-17
-3.70450878e-17
-3.75362045e-17
-3.76145306e-17
-3.82996236e-17
-3.78524143e-17
-3.88460576e-17
-3.58143807e-17
-3.67120451e-17
-3.4795632e-17
-3.55018477e-17
-3.36957222e-17
-3.46818436e-17
-3.17565634e-17
-3.35625892e-17
-3.1411086e-17
-3.28575985e-17
-3.10101765e-17
-2.91657945e-17
-2.79213672e-17
-2.72213744e-17
-2.75231179e-17
-2.9476002e-17
-2.96924147e-17
-3.10332234e-17
-2.90005197e-17
-2.71844134e-17
-2.84912967e-17
-2.59590093e-17
-2.61500324e-17
-2.56122958e-17
-2.187121e-17
-2.4766258e-17
-2.4302883e-17
-2.29928141e-17
-2.1035461e-17
-2.41683881e-17
-2.15896517e-17
-2.29073241e-17
-2.66058151e-17
-2.57955004e-17
-2.69274656e-17
-2.66921397e-17
-2.43084164e-17
-2.51320247e-17
-2.35370687e-17
-2.39496197e-17
-2.13283886e-17
-1.76088815e-17
-1.94879792e-17
-1.96668627e-17
-1.8077743e-17
-1.47766607e-17
-1.92326972e-17
-1.63315969e-17
-1.73824995e-17
-1.5227418e-17
-1.7611369e-17
-1.517116e-17
-1.03979356e-17
-8.82286649e-18
-6.20770151e-18
-1.05177924e-17
-1.0989398e-17
-1.17282883e-17
-9.04564513e-18
-1.03667297e-17
-1.19110928e-17
-1.04004669e-17
-9.80014778e-18
-1.05111765e-17
-1.16276165e-17
-1.0222996e-17
-9.44425946e-18
-8.65693998e-18
-7.56189229e-18
-1.09574562e-17
-9.26418857e-18
-1.35010615e-17
-9.49556341e-18
-7.61635e-18
-4.69021635e-18
-7.94412719e-18
-7.96363337e-18
-4.97147814e-18
-4.77388583e-18
-4.95551934e-18
-2.43998719e-18
-2.48829405e-18
-4.09133388e-19
-1.44837553e-18
2.43145716e-18
1.42733757e-18
2.78734608e-18
2.85459556e-18
5.46283435e-18
4.00763595e-18
1.63684103e-18
4.12344703e-18
5.41157038e-18
4.95275295e-18
6.77014138e-18
6.53566307e-18
6.68442261e-18
6.17146434e-18
6.3376897e-18
4.43750235e-18
4.92387828e-18
4.83084346e-18
6.14231737e-18
5.43389064e-18
2.94709449e-18
5.02264165e-18
7.38673856e-18
9.63548093e-18
7.95523595e-18
7.27012978e-18
8.34102408e-18
8.09195071e-18
1.02846243e-17
9.06477563e-18
7.56995005e-18
7.59595456e-18
9.30911511e-18
1.17268494e-17
1.66173535e-17
1.64618061e-17
1.91387478e-17
1.96592237e-17
1.84385951e-17
1.48616393e-17
1.68380468e-17
1.57770549e-17
1.95566278e-17
1.97101978e-17
1.98118295e-17
2.13613827e-17
1.77007323e-17
1.76872247e-17
1.51008783e-17
1.38150179e-17
1.48168832e-17
2.01734896e-17
1.98481595e-17
2.37360861e-17
2.51144398e-17
2.4785447e-17
2.8793901e-17
2.56720538e-17
2.58654809e-17
2.2698802e-17
2.53941222e-17
2.36134711e-17
2.44107968e-17
2.26663803e-17
2.29506266e-17
2.40081101e-17
2.4259987e-17
2.57630969e-17
2.44469194e-17
2.53082187e-17
2.39072257e-17
2.61875674e-17
2.50959689e-17
2.71540062e-17
2.7600262e-17
2.9645807e-17
2.76804399e-17
2.90237896e-17
2.47334194e-17
2.77187095e-17
2.83590214e-17
3.07566144e-17
3.05437463e-17
2.97442406e-17
2.70390679e-17
2.88931383e-17
3.04924044e-17
2.73898119e-17
2.84480032e-17
2.8715336e-17
3.0117529e-17
3.04166914e-17
2.82858475e-17
2.83665929e-17
2.75384237e-17
2.7385415e-17
2.86833216e-17
2.84540812e-17
2.4630443e-17
2.81027963e-17
2.72378113e-17
2.7761914e-17
2.69005959e-17
2.54092198e-17
2.94591597e-17
2.91112345e-17
2.87545854e-17
2.85146019e-17
2.55726752e-17
2.65811647e-17
2.79364116e-17
2.78945286e-17
3.05047627e-17
2.73117866e-17
3.02268237e-17
3.17490718e-17
3.25088631e-17
3.39888871e-17
3.18434755e-17
2.96334195e-17
3.09657678e-17
3.14673927e-17
3.20468234e-17
3.04645486e-17
3.36410065e-17
3.21258496e-17
3.23984033e-17
3.40313204e-17
3.44203562e-17
3.22882279e-17
3.04095553e-17
3.07764933e-17
2.63542236e-17
2.78128514e-17
2.83661869e-17
3.1038956e-17
3.00892982e-17
3.21818623e-17
3.00607439e-17
3.14996667e-17
3.09223685e-17
3.15100696e-17
3.43343746e-17
3.35911657e-17
3.34850458e-17
3.18467792e-17
3.3211385e-17
3.07970694e-17
3.07424485e-17
3.43967596e-17
3.43103346e-17
3.34747541e-17
3.23928338e-17
3.45803933e-17
3.32453398e-17
3.80042556e-17
3.47353585e-17
3.61459235e-17
3.50496883e-17
3.99542527e-17
3.67962698e-17
3.19425913e-17
3.5774413e-17
3.21073058e-17
3.07260839e-17
3.2542844e-17
3.00532691e-17
3.03214051e-17
3.13106414e-17
3.42959995e-17
3.04184144e-17
3.251881e-17
3.2512369e-17
3.27129029e-17
2.99321851e-17
3.16292418e-17
3.4138638e-17
3.37416209e-17
3.69463381e-17
3.5765549e-17
3.23783372e-17
3.07880401e-17
2.82460329e-17
2.86327541e-17
2.93420285e-17
2.78095046e-17
3.10660522e-17
2.78302637e-17
2.67834547e-17
3.25779992e-17
3.16397635e-17
3.19210814e-17
3.50334281e-17
3.58203004e-17
3.56972642e-17
3.53076328e-17
3.592505e-17
3.56250488e-17
3.46827078e-17
3.54206973e-17
3.41002957e-17
3.23302461e-17
3.37948e-17
3.23844697e-17
2.88186654e-17
2.81926372e-17
2.60533114e-17
2.59861599e-17
2.51121078e-17
2.79836978e-17
2.81444315e-17
2.79412333e-17
2.52309178e-17
2.66673634e-17
2.69017084e-17
2.38443308e-17
2.12155451e-17
1.82449876e-17
2.13723542e-17
2.14473095e-17
2.17912781e-17
1.93069261e-17
2.20853973e-17
1.97994453e-17
2.17102127e-17
2.11159176e-17
1.77808414e-17
1.87799562e-17
1.76253836e-17
1.99712529e-17
2.31692258e-17
2.71895275e-17
2.38339398e-17
2.44999393e-17
2.6664644e-17
2.91611375e-17
2.63950725e-17
2.81720848e-17
2.4224955e-17
2.50033844e-17
2.32353244e-17
2.51766969e-17
2.55954738e-17
2.31409174e-17
2.55319781e-17
2.90499547e-17
2.71444591e-17
2.8249664e-17
2.64829819e-17
2.75774932e-17
2.22860244e-17
2.63136748e-17
2.67353396e-17
2.45876459e-17
2.54358458e-17
2.18850072e-17
2.55176582e-17
2.37313676e-17
2.79634879e-17
2.54943393e-17
2.60536311e-17
2.40785408e-17
2.49796863e-17
2.71688347e-17
2.46241391e-17
2.82197509e-17
2.7678156e-17
2.90054565e-17
2.80722316e-17
3.17898044e-17
2.91492134e-17
2.77829951e-17
3.0981109e-17
2.88955687e-17
3.30101076e-17
3.42930283e-17
3.42038498e-17
3.36726948e-17
3.43020924e-17
3.12278781e-17
3.3292931e-17
3.18161185e-17
3.0269907e-17
2.55243318e-17
2.72292672e-17
2.69821664e-17
2.43007062e-17
2.53564502e-17
2.34952521e-17
2.23639355e-17
2.31274331e-17
2.71955322e-17
2.93113109e-17
2.79438417e-17
3.16000237e-17
3.04386418e-17
2.91558805e-17
2.83655081e-17
2.72496083e-17
2.96158229e-17
2.93670915e-17
3.25263186e-17
3.1718043e-17
3.2299915e-17
3.37331611e-17
3.00314741e-17
3.21463278e-17
3.28276364e-17
3.38577768e-17
3.30535172e-17
2.96426163e-17
3.29493975e-17
3.39819056e-17
3.18488033e-17
3.27238794e-17
3.09842137e-17
3.26948707e-17
3.51241295e-17
3.48191223e-17
3.63992251e-17
3.59747016e-17
3.60424641e-17
3.28445636e-17
3.64565523e-17
3.3880071e-17
3.66375795e-17
3.45021908e-17
3.53312702e-17
3.55806423e-17
3.49758777e-17
3.35437419e-17
3.35906257e-17
3.38992961e-17
3.17673599e-17
3.16428327e-17
3.12131914e-17
3.22416065e-17
3.43399912e-17
3.86808462e-17
3.8220365e-17
3.55903671e-17
3.51085977e-17
3.78945319e-17
3.99976951e-17
4.39574687e-17
4.2633119e-17
4.39032212e-17
4.43083487e-17
4.37776561e-17
4.48546417e-17
4.38082486e-17
4.54645114e-17
4.98777108e-17
4.84828489e-17
4.79049373e-17
4.58923815e-17
4.52475145e-17
4.67553394e-17
4.92667911e-17
5.16204709e-17
5.05597207e-17
5.15956485e-17
5.56984323e-17
5.11103908e-17
5.16094879e-17
4.94347082e-17
4.58283275e-17
4.46778279e-17
4.62440235e-17
4.69410477e-17
4.52898743e-17
4.4266268e-17
4.58564648e-17
4.65819819e-17
4.93082494e-17
4.6032386e-17
4.53798341e-17
4.5850375e-17
4.36570304e-17
4.39260973e-17
4.55989819e-17
4.90922604e-17
4.80842174e-17
4.99527953e-17
5.17912883e-17
5.13590103e-17
5.16083623e-17
5.21874303e-17
5.00511081e-17
5.20800334e-17
5.2169126e-17
4.82542683e-17
5.028632e-17
5.35238148e-17
5.37169709e-17
5.4171786e-17
5.44677041e-17
5.14429994e-17
5.17620711e-17
5.21351297e-17
4.86945334e-17
5.28239704e-17
5.04950021e-17
5.17158464e-17
5.45304721e-17
5.40788201e-17
5.54876084e-17
5.2872963e-17
5.29455958e-17
5.10295051e-17
4.94366006e-17
4.94958099e-17
5.06847806e-17
4.97832422e-17
5.11308247e-17
5.17047953e-17
5.62774596e-17
5.31161333e-17
5.46989351e-17
5.12288383e-17
4.94870844e-17
5.18772281e-17
4.98057627e-17
4.8574612e-17
5.41767975e-17
5.47565503e-17
5.63540082e-17
5.71723881e-17
5.43873267e-17
5.52657091e-17
5.10120516e-17
5.39209088e-17
5.29492073e-17
5.60370722e-17
5.24528097e-17
5.26349826e-17
5.35944189e-17
5.58399957e-17
5.38177994e-17
5.44483032e-17
5.49839063e-17
5.53144976e-17
5.64386374e-17
5.90777533e-17
5.84696484e-17
5.82541928e-17
5.73722817e-17
5.7123689e-17
6.04627805e-17
5.71732214e-17
6.13542732e-17
5.69057211e-17
5.8277047e-17
5.71232968e-17
5.40610966e-17
5.08035434e-17
5.32117505e-17
4.97138352e-17
4.82963221e-17
4.74195924e-17
4.77194606e-17
4.51117012e-17
4.64769192e-17
4.41224767e-17
4.11949002e-17
3.61294583e-17
3.78978064e-17
3.96761838e-17
3.72859454e-17
3.85688323e-17
3.70627463e-17
3.31848613e-17
3.65788442e-17
3.24984165e-17
3.14335863e-17
3.05893193e-17
2.92745402e-17
3.26133947e-17
2.86467543e-17
2.6728751e-17
2.7954494e-17
2.37539435e-17
2.67390315e-17
2.52152868e-17
2.65082747e-17
2.92894795e-17
2.45787925e-17
2.47031408e-17
1.84760268e-17
1.90077548e-17
1.52416017e-17
1.50827727e-17
1.26573934e-17
1.48233032e-17
1.27436228e-17
9.68472684e-18
1.01000321e-17
9.99446072e-18
9.04548814e-18
9.76087763e-18
9.2206619e-18
1.20343034e-17
1.08814003e-17
1.21025763e-17
1.22904442e-17
1.11162235e-17
1.12761994e-17
1.12156535e-17
8.71392622e-18
8.44946584e-18
1.17757326e-17
1.09769788e-17
1.07070844e-17
8.16239688e-18
1.20263011e-17
1.05330513e-17
9.58747807e-18
1.20161153e-17
8.43056728e-18
4.83956744e-18
5.08026516e-18
5.27892554e-18
2.02834346e-18
5.99458703e-18
4.94238416e-18
3.55894202e-18
5.56230853e-18
6.79378396e-18
5.96720487e-18
9.71274942e-18
1.15816352e-17
9.17259518e-18
5.77863677e-18
6.68322054e-18
7.6023359e-18
6.99333115e-18
3.64823916e-18
5.40089933e-18
6.49519117e-18
2.12407172e-18
6.52991036e-19
2.55038361e-18
1.18121752e-18
2.43268086e-18
8.31704729e-20
-1.47713438e-18
-1.35279484e-19
2.08655545e-18
1.52281101e-18
1.1240409e-18
8.40271627e-19
-1.72486446e-18
3.69244265e-19
-1.06175901e-19
-4.17621486e-19
-3.48867059e-18
-5.98685444e-18
-3.66521593e-18
-6.3046033e-18
-6.4738713e-18
-6.66495645e-18
-7.13084713e-18
-7.8209545e-18
-9.58580782e-18
-8.51149898e-18
-5.02236248e-18
-4.93532736e-18
-9.34686722e-18
-1.16605628e-17
-1.1516173e-17
-1.23715977e-17
-1.16157444e-17
-1.51150783e-17
-1.57937793e-17
-1.77659041e-17
-1.92145472e-17
-1.61403267e-17
-1.74438876e-17
-1.66353179e-17
-1.79165522e-17
-1.80233774e-17
-1.94857162e-17
-1.89940955e-17
-1.73115072e-17
-1.58978871e-17
-1.66130097e-17
-1.65825104e-17
-1.51971538e-17
-1.24738041e-17
-1.59566381e-17
-1.60709679e-17
-1.64315985e-17
-1.57847645e-17
-1.93011662e-17
-1.56663009e-17
-1.96695665e-17
-1.86062622e-17
-1.66465466e-17
-1.87089681e-17
-2.15154783e-17
-2.17461287e-17
-2.22383702e-17
-2.07857522e-17
-1.61065216e-17
-1.69015183e-17
-1.80946674e-17
-1.93312465e-17
-2.08217758e-17
-1.95324419e-17
-2.09739426e-17
-1.93880538e-17
-2.31008302e-17
-1.97191793e-17
-2.28981483e-17
-2.24214796e-17
-1.98672907e-17
-1.91007597e-17
-2.26897651e-17
-2.18405898e-17
-2.15625961e-17
-2.28002639e-17
-2.00619214e-17
-2.18380223e-17
-2.20179055e-17
-1.85258858e-17
-2.12803913e-17
-1.91869379e-17
-2.12217507e-17
-2.13655163e-17
-2.28229639e-17
-2.33157117e-17
-2.16123932e-17
-2.1702355e-17
-2.14419297e-17
-2.14459564e-17
-2.52198283e-17
-2.75220623e-17
-2.43039855e-17
-2.88210157e-17
-3.03202664e-17
-3.05988009e-17
-2.97779118e-17
-3.25231672e-17
-3.14365762e-17
-3.27131914e-17
-2.92230679e-17
-2.89933354e-17
-3.14746941e-17
-3.5501153e-17
-3.67106372e-17
-3.91060607e-17
-4.14850125e-17
-3.75300813e-17
-3.70984267e-17
-3.30181049e-17
-3.80429478e-17
-3.85083443e-17
-4.02966739e-17
-3.99689795e-17
-3.63523717e-17
-3.99792773e-17
-3.71302569e-17
-3.90986755e-17
-3.88732011e-17
-4.03626651e-17
-3.60100396e-17
-3.87511346e-17
-3.61449404e-17
-3.57680535e-17
-3.34779591e-17
-3.51238215e-17
-3.44229393e-17
-3.58542699e-17
-3.67552733e-17
-3.52319102e-17
-3.96810339e-17
-3.83473286e-17
-3.92447655e-17
-4.1267946e-17
-3.66152545e-17
-3.926314e-17
-3.86791596e-17
-3.96244961e-17
-4.06001772e-17
-4.12475089e-17
-4.11768213e-17
-4.29615159e-17
-4.09485767e-17
-4.20823807e-17
-4.66052611e-17
-4.61771462e-17
-4.87974793e-17
-4.85174008e-17
-4.63264802e-17
-4.55500349e-17
-4.48811318e-17
-4.4270786e-17
-4.39629153e-17
-4.34310018e-17
-4.27301221e-17
-3.95031888e-17
-4.27679063e-17
-4.46076829e-17
-4.35287116e-17
-4.06681177e-17
-3.74645879e-17
-3.80602349e-17
-3.92886103e-17
-3.8394391e-17
-4.00300976e-17
-4.01887076e-17
-3.9823147e-17
-4.36631721e-17
-4.58718669e-17
-4.43699301e-17
-4.7686624e-17
-4.75394962e-17
-4.90813891e-17
-5.01267091e-17
-5.05858578e-17
-5.09433805e-17
-5.25736308e-17
-5.1548349e-17
-5.3213912e-17
-4.71571698e-17
-4.85277361e-17
-4.80363911e-17
-4.70331865e-17
-4.50980146e-17
-4.32254254e-17
-4.40650029e-17
-4.70805973e-17
-4.55113731e-17
-4.74945224e-17
-4.8267294e-17
-4.76783044e-17
-4.50472188e-17
-4.55239461e-17
-4.72885592e-17
-4.71751701e-17
-4.78625432e-17
-4.82052677e-17
-4.77987131e-17
-4.96482811e-17
-5.24100384e-17
-5.10236684e-17
-5.07321678e-17
-4.79514433e-17
-4.40813123e-17
-4.63221506e-17
-4.60320835e-17
-4.23093936e-17
-4.35861193e-17
-4.15632435e-17
-4.33781778e-17
-4.44239832e-17
-4.45714667e-17
-4.61561447e-17
-4.6272249e-17
-4.39670605e-17
-4.47895364e-17
-4.42833164e-17
-4.39824441e-17
-4.04371925e-17
-4.17053521e-17
-4.22873476e-17
-4.38809036e-17
-4.18247804e-17
-4.62945489e-17
-4.32407059e-17
-4.38451344e-17
-3.93188621e-17
-3.74730598e-17
-3.73745599e-17
-3.90008305e-17
-3.82185004e-17
-3.89425509e-17
-3.85783527e-17
-3.77478833e-17
-3.6039086e-17
-3.75752849e-17
-3.46576876e-17
-3.74955243e-17
-3.59763901e-17
-3.4883647e-17
-3.49064548e-17
-3.53511568e-17
-3.50244891e-17
-3.46279372e-17
-3.32144656e-17
-3.34538652e-17
-3.06638815e-17
-3.18188762e-17
-3.18586557e-17
-3.37641683e-17
-3.38421485e-17
-3.40475603e-17
-3.16586426e-17
-3.17536065e-17
-3.38772673e-17
-3.50130054e-17
-3.43914105e-17
-3.28295387e-17
-3.42988378e-17
-3.29243512e-17
-3.20710969e-17
-3.17065191e-17
-3.13346603e-17
-3.24003194e-17
-3.08615331e-17
-3.47479526e-17
-3.19328961e-17
-3.34197635e-17
-3.25554241e-17
-2.92113815e-17
-2.93237863e-17
-2.63078572e-17
-2.4640489e-17
-2.62147284e-17
-2.49522931e-17
-2.43424928e-17
-2.1847429e-17
-2.49649677e-17
-2.37694833e-17
-2.46562531e-17
-2.68366435e-17
-2.49160701e-17
-2.66012463e-17
-2.5947567e-17
-2.74037306e-17
-2.65638374e-17
-2.99103902e-17
-3.05618338e-17
-3.12264935e-17
-3.25302421e-17
-3.441744e-17
-3.47706984e-17
-3.16079455e-17
-3.21631499e-17
-3.31280247e-17
-3.49787774e-17
-3.10026563e-17
-3.27607799e-17
-3.2428053e-17
-3.53914185e-17
-3.35401287e-17
-3.29194923e-17
-3.21782879e-17
-3.53183307e-17
-3.38763606e-17
-3.58846891e-17
-3.48487241e-17
-3.8663514e-17
-3.89194257e-17
-3.73914209e-17
-3.81783306e-17
-3.8160376e-17
-3.98963474e-17
-3.84291954e-17
-4.02603506e-17
-3.93538576e-17
-3.8785437e-17
-3.78808414e-17
-3.41592831e-17
-3.44815921e-17
-3.43587915e-17
-3.41491393e-17
-3.25289047e-17
-3.08677053e-17
-3.17655756e-17
-3.08969019e-17
-3.17879737e-17
-3.24342682e-17
-3.35253755e-17
-3.5163016e-17
-3.37951943e-17
-3.13258543e-17
-3.18137805e-17
-3.26329272e-17
-3.54079005e-17
-3.55940613e-17
-3.50145347e-17
-3.45018243e-17
-3.23378518e-17
-3.61807954e-17
-3.78011737e-17
-3.63456889e-17
-3.81383152e-17
-3.62548857e-17
-3.87014547e-17
-3.73428083e-17
-3.7226596e-17
-3.69676784e-17
-3.65349038e-17
-3.6700503e-17
-3.80709265e-17
-3.6983599e-17
-3.97585632e-17
-3.51933716e-17
-3.96057303e-17
-3.68432993e-17
-3.99545754e-17
-3.85391997e-17
-4.00678023e-17
-4.15781211e-17
-3.97582605e-17
-3.84317018e-17
-3.98060041e-17
-4.3506037e-17
-4.32863025e-17
-4.15652998e-17
-4.12637351e-17
-4.15159607e-17
-4.06826615e-17
-3.9696971e-17
-3.81650675e-17
-3.94932439e-17
-4.02454167e-17
-3.636777e-17
-3.14648172e-17
-2.84834562e-17
-2.94553438e-17
-3.10187667e-17
-2.98636008e-17
-3.33249321e-17
-3.52810759e-17
-3.40360209e-17
-3.42871501e-17
-3.26750887e-17
-3.44969612e-17
-3.33736323e-17
-3.49615719e-17
-3.79969803e-17
-3.54848692e-17
-3.95173661e-17
-3.77754293e-17
-3.67272552e-17
-3.83100142e-17
-3.54132287e-17
-3.93877818e-17
-3.69184053e-17
-3.81821803e-17
-3.90580121e-17
-4.1089784e-17
-4.40544196e-17
-3.97810467e-17
-4.18847385e-17
-4.2475626e-17
-4.35324329e-17
-4.51571428e-17
-4.36995537e-17
-4.57634966e-17
-4.51742961e-17
-4.37949327e-17
-4.34413777e-17
-4.19675868e-17
-4.25377867e-17
-4.36721855e-17
-4.57507208e-17
-4.08217246e-17
-3.99780989e-17
-3.82546244e-17
-3.77112637e-17
-3.52763771e-17
-3.24951872e-17
-3.43886543e-17
-3.35669173e-17
-3.51745353e-17
-3.38367846e-17
-3.03372652e-17
-2.93648351e-17
-2.85139353e-17
-2.82020526e-17
-2.993716e-17
-3.22614112e-17
-3.14054696e-17
-2.87335752e-17
-2.76832123e-17
-3.06784041e-17
-3.15882178e-17
-3.15631935e-17
-2.99325034e-17
-3.37245359e-17
-3.15595358e-17
-3.03215761e-17
-2.72191803e-17
-2.51098702e-17
-2.54309533e-17
-2.43112442e-17
-2.55338253e-17
-2.44309557e-17
-2.47176127e-17
-2.52966755e-17
-2.5317138e-17
-2.37715042e-17
-2.60823457e-17
-2.50388465e-17
-2.29233635e-17
-2.37111716e-17
-2.214201e-17
-2.23531907e-17
-1.95493342e-17
-2.17297729e-17
-2.15163463e-17
-2.02760601e-17
-1.97531615e-17
-2.03060914e-17
-2.07691153e-17
-2.34014608e-17
-2.4724475e-17
-2.38945952e-17
-2.63978319e-17
-2.4945254e-17
-2.60167229e-17
-2.36514635e-17
-2.54441547e-17
-2.12438472e-17
-1.73975751e-17
-1.69016723e-17
-1.81085046e-17
-2.06462843e-17
-1.99327108e-17
-1.91236889e-17
-1.99027138e-17
-1.95890065e-17
-1.87482111e-17
-1.64896428e-17
-1.66809464e-17
-1.92352739e-17
-2.10478619e-17
-2.13304265e-17
-1.79534722e-17
-1.73831977e-17
-1.75639398e-17
-1.36527129e-17
-1.2282269e-17
-1.62376479e-17
-1.53033609e-17
-1.11976922e-17
-1.14755426e-17
-1.41724271e-17
-1.22751434e-17
-1.24824862e-17
-1.36381516e-17
-8.36016643e-18
-1.06723276e-17
-1.22672512e-17
-1.02030787e-17
-1.50505325e-17
-1.63103233e-17
-1.74007376e-17
-2.25436123e-17
-1.619862e-17
-1.84630664e-17
-2.05162911e-17
-1.99140293e-17
-2.0968243e-17
-2.23121211e-17
-2.16587586e-17
-2.10105789e-17
-2.47305617e-17
-2.35179965e-17
-1.97844913e-17
-2.27711296e-17
-2.2412044e-17
-2.50265583e-17
-2.61599054e-17
-2.41753384e-17
-2.29600357e-17
-2.25144331e-17
-2.25217751e-17
-2.17627362e-17
-2.15216132e-17
-1.91519642e-17
-2.24491245e-17
-2.26062339e-17
-2.14168856e-17
-2.45155842e-17
-2.2275185e-17
-1.80046398e-17
-2.1109039e-17
-1.84971211e-17
-1.97913162e-17
-1.89728711e-17
-1.70021093e-17
-1.84230396e-17
-1.84698087e-17
-1.44462345e-17
-1.72150689e-17
-1.45128823e-17
-1.53504553e-17
-1.69117611e-17
-1.23663123e-17
-1.17453462e-17
-1.07573719e-17
-1.01600607e-17
-9.90248899e-18
-7.09100378e-18
-5.15339795e-18
-6.56934523e-18
-6.20792871e-18
-5.61909756e-18
-4.18175837e-18
1.0666838e-18
2.40558762e-18
9.15300255e-19
-1.33638345e-18
1.61902259e-18
1.24001932e-18
-1.48437269e-18
9.32589015e-19
1.28085969e-18
1.67863778e-18
3.82806378e-18
4.65045159e-18
3.45701749e-18
1.44066768e-18
3.46002199e-18
2.39975122e-18
2.39609591e-18
2.89143981e-18
6.07710911e-18
2.87361302e-18
2.67744851e-18
7.56616802e-18
7.14293105e-18
7.97608584e-18
8.70817908e-18
1.15213406e-17
9.58281223e-18
9.91779679e-18
1.56165797e-17
1.33517227e-17
1.37212574e-17
1.33715299e-17
1.21914363e-17
1.32997679e-17
1.23011081e-17
1.38728751e-17
1.73610215e-17
1.56494485e-17
1.75472961e-17
1.71457877e-17
1.75504233e-17
2.01932351e-17
2.07122896e-17
1.9277243e-17
1.86608487e-17
2.11531233e-17
2.13516366e-17
2.01157018e-17
2.38801307e-17
2.12568172e-17
2.10759633e-17
2.00067083e-17
1.79591924e-17
1.99043997e-17
2.1244461e-17
2.06813754e-17
2.26299425e-17
2.35730306e-17
2.34565209e-17
2.48152492e-17
2.35756131e-17
2.35692178e-17
2.56015081e-17
2.87019139e-17
2.87273377e-17
2.9454677e-17
3.14068883e-17
3.00024504e-17
3.12476229e-17
3.19194673e-17
3.31714762e-17
3.09380636e-17
3.39172326e-17
3.24449124e-17
3.33890986e-17
3.12630698e-17
3.05525549e-17
2.89463656e-17
2.82933186e-17
2.87753306e-17
2.86675009e-17
3.01388407e-17
3.17304657e-17
3.39643497e-17
3.54497021e-17
3.23081098e-17
2.8880447e-17
2.98607028e-17
3.07257915e-17
3.47884727e-17
3.14167419e-17
3.09666609e-17
3.11453216e-17
3.48863431e-17
3.62463596e-17
3.73334767e-17
4.27037207e-17
4.36217419e-17
4.03671921e-17
4.10488609e-17
3.9342436e-17
4.2825861e-17
4.4940804e-17
4.42307325e-17
4.25490118e-17
4.35246729e-17
4.55840386e-17
4.95851592e-17
4.84294436e-17
5.15332287e-17
5.07748894e-17
4.96864427e-17
5.20624883e-17
5.01032623e-17
4.6912747e-17
4.38478315e-17
4.73075113e-17
4.4228387e-17
4.91410072e-17
4.93246563e-17
4.94012676e-17
5.03258435e-17
5.17001993e-17
5.31688995e-17
5.73648968e-17
5.78999488e-17
6.08282105e-17
6.09816747e-17
6.36546138e-17
6.45920289e-17
6.39014598e-17
6.62245502e-17
6.60469726e-17
6.84659821e-17
7.06400492e-17
7.11512379e-17
6.98891268e-17
7.13991414e-17
6.92010905e-17
6.91788839e-17
6.90328935e-17
6.89348586e-17
6.9952514e-17
6.81828689e-17
6.78626087e-17
6.68768158e-17
6.89939178e-17
6.96970589e-17
6.44754057e-17
6.70316626e-17
6.96062037e-17
6.86720326e-17
7.05028909e-17
7.45537673e-17
7.56447939e-17
7.81782553e-17
7.87079642e-17
7.79358178e-17
7.73034244e-17
7.70099838e-17
7.79270136e-17
7.99027095e-17
7.96042598e-17
7.86661179e-17
8.28886515e-17
8.03849934e-17
7.96440286e-17
7.44398543e-17
7.51805361e-17
7.71458507e-17
7.59804457e-17
8.04928696e-17
8.50983904e-17
8.07058929e-17
8.03558112e-17
8.12602283e-17
8.25243841e-17
8.03671297e-17
8.24909807e-17
8.31189502e-17
8.42147499e-17
8.40073554e-17
8.18649779e-17
8.10076596e-17
8.15369529e-17
8.29439054e-17
8.65762311e-17
8.22548638e-17
8.5940815e-17
8.44343965e-17
8.28260284e-17
8.53053124e-17
8.45677863e-17
8.15159983e-17
8.37792395e-17
8.36819654e-17
8.49726161e-17
8.46293655e-17
8.46768888e-17
8.54124004e-17
8.2398623e-17
8.06036269e-17
8.4028691e-17
8.36980095e-17
8.71905666e-17
9.04696726e-17
9.10603324e-17
8.95381736e-17
8.77454383e-17
8.92725697e-17
8.77490151e-17
8.76372994e-17
8.61842987e-17
8.62054492e-17
8.6981437e-17
8.53046192e-17
8.68231918e-17
8.78384365e-17
8.93603064e-17
9.08334845e-17
9.08784942e-17
8.93202182e-17
8.97570328e-17
8.91711649e-17
8.75221559e-17
8.52536678e-17
8.45034707e-17
8.55217096e-17
8.39607025e-17
8.64766346e-17
9.17751707e-17
8.99256126e-17
9.00225333e-17
9.0594377e-17