/*--------------------------------*- C++ -*----------------------------------*\
| =========                 |                                                 |
| \\      /  F ield         | OpenFOAM: The Open Source CFD Toolbox           |
|  \\    /   O peration     | Version:  2206                                  |
|   \\  /    A nd           | Website:  www.openfoam.com                      |
|    \\/     M anipulation  |                                                 |
\*---------------------------------------------------------------------------*/
FoamFile
{
    version     2.0;
    format      ascii;
    arch        "LSB;label=32;scalar=64";
    class       volScalarField;
    location    "9e-06";
    object      PVsourcePV;
}
// * * * * * * * * * * * * * * * * * * * * * * * * * * * * * * * * * * * * * //

dimensions      [1 -3 -1 0 0 0 0];

internalField   nonuniform List<scalar> 
3183
(
0
0
0
0
0
0
0
0
0
0
0
0
0
0
0
0
0
0
0
0
0
0
0
0
0
0
0
0
0
0
0
0
0
0
0
0
0
0
0
0
0
0
0
0
0
0
0
0
0
0
0
0
0
0
0
0
0
0
0
0
0
0
0
0
0
0
0
0
0
0
0
0
0
0
0
0
0
0
0
0
0
0
0
0
0
0
0
0
0
0
0
0
0
0
0
0
0
0
0
0
0
0
0
0
0
0
0
0
0
0
0
0
0
0
0
0
0
0
0
0
0
0
0
0
0
0
0
0
0
0
0
0
0
0
0
0
0
0
0
0
0
0
0
0
0
0
0
0
0
0
0
0
0
0
0
0
0
0
0
0
0
0
0
0
0
0
0
0
0
0
0
0
0
0
0
0
0
0
0
0
0
0
0
0
0
0
0
0
0
0
0
0
0
0
0
0
0
0
0
0
0
0
0
0
0
0
0
0
0
0
0
0
0
0
0
0
0
0
0
0
0
0
0
0
0
0
0
0
0
0
0
0
0
0
0
0
0
0
0
0
0
0
0
0
0
0
0
0
0
0
0
0
0
0
0
0
0
0
0
0
0
0
0
0
0
0
0
0
0
0
0
0
0
0
0
0
0
0
0
0
0
0
0
0
0
0
0
0
0
0
0
0
0
0
0
0
0
0
0
0
0
0
0
0
0
0
0
0
0
0
0
0
0
0
0
0
0
0
0
0
0
0
0
0
0
0
0
0
0
0
0
0
0
0
0
0
0
0
0
0
0
0
0
0
0
0
0
0
0
0
0
0
0
0
0
0
0
0
0
0
0
0
0
0
0
0
0
0
0
0
0
0
0
0
0
0
0
0
0
0
0
0
0
0
0
0
0
0
0
0
0
0
0
0
0
0
0
0
0
0
0
0
0
0
0
0
0
0
0
0
0
0
0
0
0
0
0
0
0
0
0
0
0
0
0
0
0
0
0
0
0
0
0
0
0
0
0
0
0
0
0
0
0
0
0
0
0
0
0
0
0
0
0
0
0
0
0
0
0
0
0
0
0
0
0
0
0
0
0
0
0
0
0
0
0
0
0
0
0
0
0
0
0
0
0
0
0
0
0
0
0
0
0
0
0
0
0
0
0
0
0
0
0
0
0
0
0
0
0
0
0
0
0
0
0
0
0
0
0
0
0
0
0
0
0
0
0
0
0
0
0
0
0
0
0
0
0
0
0
0
0
0
0
0
0
0
0
0
0
0
0
0
0
0
0
0
0
0
0
0
0
0
0
0
0
0
0
0
0
0
0
0
0
0
0
0
0
0
0
0
0
0
0
0
0
0
0
0
0
0
0
0
0
0
0
0
0
0
0
0
0
0
0
0
0
0
0
0
0
0
0
0
0
0
0
0
0
0
0
0
0
0
0
0
0
0
0
0
0
0
0
0
0
0
0
0
0
0
0
0
0
0
0
0
0
0
0
0
0
0
0
0
0
0
0
0
0
0
0
0
0
0
0
0
0
0
0
0
0
0
0
0
0
0
0
0
0
0
0
0
0
0
0
0
0
0
0
0
0
0
0
0
0
0
0
0
0
0
0
0
0
0
0
0
0
0
0
0
0
0
0
0
0
0
0
0
0
0
0
0
0
0
0
0
0
0
0
0
0
0
0
0
0
0
0
0
0
0
0
0
0
0
0
0
0
0
0
0
0
0
0
0
0
0
0
0
0
0
0
0
0
0
0
0
0
0
0
0
0
0
0
0
0
0
0
0
0
0
0
0
0
0
0
0
0
0
0
0
0
0
0
0
0
0
0
0
0
0
0
0
0
0
0
0
0
0
0
0
0
0
0
0
0
0
0
0
0
0
0
0
0
0
0
0
0
0
0
0
0
0
0
0
0
0
0
0
0
0
0
0
0
0
0
0
0
0
0
0
0
0
0
0
0
0
0
0
0
0
0
0
0
0
0
0
0
0
0
0
0
0
0
0
0
0
0
0
0
0
0
0
0
0
0
0
0
0
0
0
0
0
0
0
0
0
0
0
0
0
0
0
0
0
0
0
0
0
0
0
0
0
0
0
0
0
0
0
0
0
0
0
0
0
0
0
0
0
0
0
0
0
0
0
0
0
0
0
0
0
0
0
0
0
0
0
0
0
0
0
0
0
0
0
0
0
0
0
0
0
0
0
0
0
0
0
0
0
0
0
0
0
0
0
0
0
0
0
0
0
0
0
0
0
0
0
0
0
0
0
0
0
0
0
0
0
0
0
0
0
0
0
0
0
0
0
0
0
0
0
0
0
0
0
0
0
0
0
0
0
0
0
0
0
0
0
0
0
0
0
0
0
0
0
0
0
0
0
0
0
0
0
0
0
0
0
0
0
0
0
0
0
0
0
0
0
0
0
0
0
0
0
0
0
0
0
0
0
0
0
0
0
0
0
0
0
0
0
0
0
0
0
0
0
0
0
0
0
0
0
0
0
0
0
0
0
0
0
0
0
0
0
0
0
0
0
0
0
0
0
0
0
0
0
0
0
0
0
0
0
0
0
0
0
0
0
0
0
0
0
0
0
0
0
0
0
0
0
0
0
0
0
0
0
0
0
0
0
0
0
0
0
0
0
0
0
0
0
0
0
0
0
0
0
0
0
0
0
0
0
0
0
0
0
0
0
0
0
0
0
0
0
0
0
0
0
0
0
0
0
0
0
0
0
0
0
0
0
0
0
0
0
0
0
0
0
0
0
0
0
0
0
0
0
0
0
0
0
0
0
0
0
0
0
0
0
0
0
0
0
0
0
0
0
0
0
0
0
0
0
0
0
0
0
0
0
0
0
0
0
0
0
0
0
0
0
0
0
0
0
0
0
0
0
0
0
0
0
0
0
0
0
0
0
0
0
0
0
0
0
0
0
0
0
0
0
0
0
0
0
0
0
0
0
0
0
0
0
0
0
0
0
0
0
0
0
0
0
0
0
0
0
0
0
0
0
0
0
0
0
0
0
0
0
0
0
0
0
0
0
0
0
0
0
0
0
0
0
0
0
0
0
0
0
0
0
0
0
0
0
0
0
0
0
0
0
0
0
0
0
0
0
0
0
0
0
0
0
0
0
0
0
0
0
0
0
0
0
0
0
0
0
0
0
0
0
0
0
0
0
0
0
0
0
0
0
0
0
0
0
0
0
0
0
0
0
0
0
0
0
0
0
0
0
0
0
0
0
0
0
0
0
0
0
0
0
0
0
0
0
0
0
0
0
0
0
0
0
0
0
0
0
0
0
0
0
0
0
0
0
0
0
0
0
0
0
0
0
0
0
0
0
0
0
0
0
0
0
0
0
0
0
0
0
0
0
0
0
0
0
0
0
0
0
0
0
0
0
0
0
0
0
0
0
0
0
0
0
0
0
0
0
0
0
0
0
0
0
0
0
0
0
0
0
0
0
0
0
0
0
0
0
0
0
0
0
0
0
0
0
0
0
0
0
0
0
0
0
0
0
0
0
0
0
0
0
0
0
0
0
0
0
0
0
0
0
0
0
0
0
0
0
0
0
0
0
0
0
0
0
0
0
0
0
0
0
0
0
0
0
0
0
0
0
0
0
0
0
0
0
0
0
0
0
0
0
0
0
0
0
0
0
0
0
0
0
0
0
0
0
0
0
0
0
0
0
0
0
0
0
0
0
0
0
0
0
0
0
0
0
0
0
0
0
0
0
0
0
0
0
0
0
0
0
0
0
0
0
0
0
0
0
0
0
0
0
0
0
0
0
0
0
0
0
0
0
0
0
0
0
0
0
0
0
0
0
0
0
0
0
0
0
0
0
0
0
0
0
0
0
0
0
0
0
0
0
0
0
0
0
0
0
0
0
0
0
0
0
0
0
0
0
0
0
0
0
0
0
0
0
0
0
0
0
0
0
0
0
0
0
0
0
0
0
0
0
0
0
0
0
0
0
0
0
0
0
0
0
0
0
0
0
0
0
0
0
0
0
0
0
0
0
0
0
0
0
0
0
0
0
0
0
0
0
0
0
0
0
0
0
0
0
0
0
0
0
0
0
0
0
0
0
0
0
0
0
0
0
0
0
0
0
0
0
0
0
0
0
0
0
0
0
0
0
0
0
0
0
0
0
0
0
0
0
0
0
0
0
0
0
0
0
0
0
0
0
0
0
0
0
0
0
0
0
0
0
0
0
0
0
0
0
0
0
0
0
0
0
0
0
0
0
0
0
0
0
0
0
0
0
0
0
0
0
0
0
0
0
0
0
0
0
0
0
0
0
0
0
0
0
0
0
0
0
0
0
0
0
0
0
0
0
0
0
0
0
0
0
0
0
0
0
0
0
0
0
0
0
0
0
0
0
0
0
0
0
0
0
0
0
0
0
0
0
0
0
0
0
0
0
0
0
0
0
0
0
0
0
0
0
0
0
0
0
0
0
0
0
0
0
0
0
0
0
0
0
0
0
0
0
0
0
0
0
0
0
0
0
0
0
0
0
0
0
0
0
0
0
0
0
0
0
0
0
0
0
0
0
0
0
0
0
0
0
0
0
0
0
0
0
0
0
0
0
0
0
0
0
0
0
0
0
0
0
0
0
0
0
0
0
0
0
0
0
0
0
0
0
0
0
0
0
0
0
0
0
0
0
0
0
0
0
0
0
0
0
0
0
0
0
0
0
0
0
0
0
0
0
0
0
0
0
0
0
0
0
0
0
0
0
0
0
0
0
0
0
0
0
0
0
0
0
0
0
0
0
0
0
0
0
0
0
0
0
0
0
0
0
0
0
0
0
0
0
0
0
0
0
0
0
0
0
0
0
0
0
0
0
0
0
0
0
0
0
0
0
0
0
0
0
0
0
0
0
0
0
0
0
0
0
0
0
0
0
0
0
0
0
0
0
0
0
0
0
0
0
0
0
0
0
0
0
0
0
0
0
0
0
0
0
0
0
0
0
0
0
0
0
0
0
0
0
0
0
0
0
0
0
0
0
0
0
0
0
0
0
0
0
0
0
0
0
0
0
0
0
0
0
0
0
0
0
0
0
0
0
0
0
0
0
0
0
0
0
0
0
0
0
0
0
0
0
0
0
0
0
0
0
0
0
0
0
0
0
0
0
0
0
0
0
0
0
0
0
0
0
0
0
0
0
0
0
0
0
0
0
0
0
0
0
0
0
0
0
0
0
0
0
0
0
0
0
0
0
0
0
0
0
0
0
0
0
0
0
0
0
0
0
0
0
0
0
0
0
0
0
0
0
0
0
0
0
0
0
0
0
0
0
0
0
0
0
0
0
0
0
0
0
0
0
0
0
0
0
0
0
0
0
0
0
0
0
0
0
0
0
0
0
0
0
0
0
0
0
0
0
0
0
0
0
0
0
0
0
0
0
0
0
0
0
0
0
0
0
0
9.28038573e-300
0
1.29545155e-296
0
1.75183213e-293
0
2.29753542e-290
0
2.92530891e-287
0
3.61931237e-284
0
4.35509629e-281
0
5.10070538e-278
0
5.81889753e-275
0
6.47027454e-272
0
7.01694896e-269
0
7.42625941e-266
0
7.67401948e-263
0
7.74685083e-260
0
7.64329492e-257
0
7.37359129e-254
0
6.95821369e-251
0
6.4254308e-248
3.46114287e-250
5.80827545e-245
1.51945985e-246
5.14135041e-242
2.36228344e-243
4.45787022e-239
2.89002742e-240
3.78725214e-236
3.13910258e-237
3.15344833e-233
3.15930816e-234
2.57408141e-230
3.00636763e-231
2.06033074e-227
2.73548837e-228
1.6174313e-224
2.39650318e-225
1.24559987e-221
2.03079776e-222
9.41192439e-219
1.66993249e-219
6.9791554e-216
1.33566273e-216
5.07953082e-213
1.04095795e-213
3.62916659e-210
7.91605014e-211
2.54573871e-207
5.88030582e-208
1.75347819e-204
4.27064318e-205
1.18609001e-201
3.03462916e-202
7.87974302e-199
2.11105921e-199
5.14192073e-196
1.43846337e-196
3.29605862e-193
9.60478918e-194
2.07564766e-190
6.28675507e-191
1.28419251e-187
4.03506587e-188
7.80636492e-185
2.54024774e-185
4.66262034e-182
1.56892406e-182
2.73646515e-179
9.50851077e-180
1.57812198e-176
5.65560661e-177
8.94314116e-174
3.30188416e-174
4.98015161e-171
1.89238661e-171
2.72519824e-168
1.06478829e-168
1.46538855e-165
5.88238297e-166
7.74281265e-163
3.19082594e-163
4.01998143e-160
1.69952785e-160
2.05074994e-157
8.88867824e-158
1.0278853e-154
4.56490059e-155
5.06169144e-152
2.30200156e-152
2.44870963e-149
1.13985226e-149
1.16368857e-146
5.54169285e-147
5.43196472e-144
2.64522978e-144
2.49032562e-141
1.23959978e-141
1.12121277e-138
5.70244021e-139
4.95680151e-136
2.57489278e-136
2.15149598e-133
1.14111294e-133
9.16735078e-131
4.96266486e-131
3.83393622e-128
2.11766674e-128
1.57351713e-125
8.86522491e-126
6.33644406e-123
3.64030639e-123
2.50312838e-120
1.46595942e-120
9.69825112e-118
5.78834721e-118
3.68450459e-115
2.24048114e-115
1.37225734e-112
8.49923747e-113
5.00899507e-110
3.15907866e-110
1.79144694e-107
1.1501756e-107
6.27576586e-105
4.10075312e-105
2.15278635e-102
1.43127123e-102
7.22867577e-100
4.888686e-100
2.37510001e-97
1.63349023e-97
7.63309884e-95
5.33735354e-95
2.39846893e-92
1.70466455e-92
7.36523984e-90
5.31937536e-90
2.20927882e-87
1.62099606e-87
6.46995072e-85
4.82145611e-85
1.84883247e-82
1.39896815e-82
5.15206691e-80
3.95740759e-80
1.39918175e-77
1.09070406e-77
3.70062473e-75
2.92680648e-75
9.52488642e-73
7.64091591e-73
2.38384189e-70
1.93913339e-70
5.79625597e-68
4.7796655e-68
1.36790805e-65
1.14313727e-65
3.13008083e-63
2.65006625e-63
6.93669e-61
5.94808642e-61
1.48699429e-58
1.29097467e-58
3.07918595e-56
2.7057178e-56
6.15008502e-54
5.46783288e-54
1.18283637e-51
1.06362824e-51
2.18658517e-49
1.98792451e-49
3.87715534e-47
3.56242191e-47
6.57904938e-45
6.10684467e-45
1.06557932e-42
9.98793962e-43
1.64247037e-40
1.55392498e-40
2.40121224e-38
2.29193202e-38
3.31659601e-36
3.19218435e-36
4.30838796e-34
4.17933838e-34
5.23579225e-32
5.1159923e-32
5.91480454e-30
5.81800815e-30
6.16400392e-28
6.09899092e-28
5.87038384e-26
5.83610267e-26
5.04934448e-24
5.03202758e-24
3.86364644e-22
3.83994164e-22
2.57778351e-20
2.52046722e-20
1.45872442e-18
1.43379819e-18
6.7176964e-17
6.71125059e-17
2.35898062e-15
2.36535104e-15
1.33223924e-11
1.35759289e-11
0.0307054085
0.10476707
0.762984992
0.763182316
0.303990615
0.247956411
0.0340152409
0.0298488265
0.00550590335
0.00509834017
0.000771315961
0.000750499208
9.83884087e-05
9.78729379e-05
1.19977949e-05
1.1985274e-05
1.87571346e-06
1.87523766e-06
7.94570729e-07
7.94996522e-07
6.89103959e-07
6.89162962e-07
6.79557509e-07
6.79564755e-07
6.78755126e-07
6.78755445e-07
6.7869105e-07
6.78691367e-07
6.78685109e-07
6.7868677e-07
6.78685288e-07
6.78686609e-07
6.78684366e-07
6.78687514e-07
6.78684336e-07
6.78685963e-07
6.7868564e-07
6.78684479e-07
6.78685704e-07
6.78685109e-07
6.78685665e-07
6.78684839e-07
6.78686471e-07
6.78685204e-07
6.78685943e-07
6.78685327e-07
6.78686449e-07
6.78685332e-07
6.78685589e-07
6.7868518e-07
6.78686001e-07
6.78684898e-07
6.78686586e-07
6.78684737e-07
6.78685865e-07
6.78686332e-07
6.78685414e-07
6.78686026e-07
6.7868542e-07
6.78685421e-07
6.78685144e-07
6.7868594e-07
6.78685241e-07
6.78685782e-07
6.78686067e-07
6.78685108e-07
6.78686058e-07
6.7868533e-07
6.7868532e-07
6.78684605e-07
6.78685287e-07
6.78685119e-07
6.78684893e-07
6.786861e-07
6.78684779e-07
6.78686758e-07
6.78685246e-07
6.78686675e-07
6.78685784e-07
6.78686175e-07
6.78685431e-07
6.7868645e-07
6.78684702e-07
6.78686624e-07
6.78684994e-07
6.78686144e-07
6.78685573e-07
6.78684863e-07
6.78686082e-07
6.78684613e-07
6.78686587e-07
6.78685627e-07
6.78685651e-07
6.78685554e-07
6.78686632e-07
6.78685812e-07
6.78685525e-07
6.78685817e-07
6.78686167e-07
6.78686073e-07
6.78686174e-07
6.78685504e-07
6.78686425e-07
6.78686713e-07
6.78685288e-07
6.7868567e-07
6.78686e-07
6.78686043e-07
6.78685272e-07
6.78686257e-07
6.78685246e-07
6.7868488e-07
6.78685514e-07
6.78685654e-07
6.78685134e-07
6.78685778e-07
6.78685764e-07
6.78686189e-07
6.7868544e-07
6.78686204e-07
6.78685444e-07
6.7868613e-07
6.78685271e-07
6.78686617e-07
6.78685196e-07
6.78686009e-07
6.7868538e-07
6.78686395e-07
6.78685173e-07
6.78686766e-07
6.78685545e-07
6.78685906e-07
6.78686489e-07
6.78686724e-07
6.78686961e-07
6.78685779e-07
6.7868729e-07
6.78685635e-07
6.78686624e-07
6.78684995e-07
6.78685967e-07
6.78685435e-07
6.78685481e-07
6.78685642e-07
6.7868582e-07
6.78685392e-07
6.78686036e-07
6.78685201e-07
6.78686334e-07
6.78685619e-07
6.7868677e-07
6.78684161e-07
6.78687123e-07
6.78685129e-07
6.78686499e-07
6.78685981e-07
6.78686225e-07
6.78685544e-07
6.78686806e-07
6.78686703e-07
6.78686843e-07
6.7868553e-07
6.78687021e-07
6.78685825e-07
6.78686983e-07
6.78686377e-07
6.78685867e-07
6.78686055e-07
6.78686038e-07
6.78685518e-07
6.78686298e-07
6.7868522e-07
6.78685765e-07
6.78685581e-07
6.78686622e-07
6.78685922e-07
6.7868665e-07
6.78686584e-07
6.78685719e-07
6.78687558e-07
6.78686651e-07
6.78687387e-07
6.78686955e-07
6.78686876e-07
6.78686324e-07
6.78686354e-07
6.78685938e-07
6.78686339e-07
6.78685777e-07
6.78686917e-07
6.78686488e-07
6.78685678e-07
6.78686998e-07
6.78686354e-07
6.78686884e-07
6.78686224e-07
6.78686471e-07
6.78685809e-07
6.78686669e-07
6.78685369e-07
6.78687434e-07
6.78685962e-07
6.78686924e-07
6.78685817e-07
6.78686661e-07
6.786863e-07
6.78686502e-07
6.78686146e-07
6.78687614e-07
6.78686481e-07
6.78687265e-07
6.78686034e-07
6.78687342e-07
6.78686592e-07
6.78686213e-07
6.78687062e-07
6.78686097e-07
6.78686874e-07
6.78686154e-07
6.78687343e-07
6.78686069e-07
6.78686957e-07
6.78685772e-07
6.78686376e-07
6.78686418e-07
6.78685798e-07
6.78686663e-07
6.7868676e-07
6.7868659e-07
6.78687167e-07
6.78686702e-07
6.78686644e-07
6.78686523e-07
6.78687491e-07
6.78686592e-07
6.78686451e-07
6.78686988e-07
6.78687061e-07
6.78687093e-07
6.7868757e-07
6.78686704e-07
6.78687899e-07
6.78686874e-07
6.78686901e-07
6.78686357e-07
6.78687383e-07
6.78686142e-07
6.78686963e-07
6.78686171e-07
6.78686349e-07
6.7868666e-07
6.78686969e-07
6.78687101e-07
6.78686677e-07
6.78686251e-07
6.7868713e-07
6.78686479e-07
6.78687697e-07
6.78687051e-07
6.78686304e-07
6.78687513e-07
6.78687115e-07
6.78686966e-07
6.7868666e-07
6.78688061e-07
6.78686289e-07
6.78686751e-07
6.78686381e-07
6.78687092e-07
6.78685511e-07
6.78687941e-07
6.78686164e-07
6.78686486e-07
6.786873e-07
6.78686482e-07
6.78687881e-07
6.78686568e-07
6.78687235e-07
6.78687003e-07
6.78686817e-07
6.78687105e-07
6.7868674e-07
6.78686904e-07
6.78687083e-07
6.78686605e-07
6.78686293e-07
6.78686762e-07
6.78686098e-07
6.78686647e-07
6.78687282e-07
6.78686692e-07
6.78686887e-07
6.78686973e-07
6.78687107e-07
6.78686964e-07
6.78686285e-07
6.78686199e-07
6.78687367e-07
6.78687445e-07
6.78687427e-07
6.7868686e-07
6.78687179e-07
6.78686798e-07
6.78687237e-07
6.78686406e-07
6.78687734e-07
6.78687192e-07
6.78686919e-07
6.78687385e-07
6.78687771e-07
6.78687606e-07
6.78687039e-07
6.7868701e-07
6.78687082e-07
6.78686587e-07
6.78687211e-07
6.78687741e-07
6.78686159e-07
6.78688497e-07
6.78686512e-07
6.78687782e-07
6.78686954e-07
6.78687716e-07
6.78686937e-07
6.78687264e-07
6.78687307e-07
6.78687036e-07
6.78687595e-07
6.78687222e-07
6.78687746e-07
6.78687032e-07
6.7868707e-07
6.78687018e-07
6.78687078e-07
6.78687101e-07
6.78686624e-07
6.78688051e-07
6.78687066e-07
6.78686658e-07
6.78687868e-07
6.78686739e-07
6.78687302e-07
6.78687147e-07
6.78687602e-07
6.78687259e-07
6.78687887e-07
6.78686949e-07
6.78687325e-07
6.78687579e-07
6.78686844e-07
6.78687653e-07
6.78688031e-07
6.78686604e-07
6.78687047e-07
6.78687705e-07
6.78686431e-07
6.78688304e-07
6.78687103e-07
6.78686912e-07
6.78687481e-07
6.7868766e-07
6.78686982e-07
6.78688022e-07
6.78687255e-07
6.7868725e-07
6.78688011e-07
6.78687454e-07
6.78688124e-07
6.78687777e-07
6.78688487e-07
6.78687564e-07
6.78688291e-07
6.78687562e-07
6.78687976e-07
6.78687067e-07
6.78687704e-07
6.78687209e-07
6.78687832e-07
6.78687675e-07
6.78687627e-07
6.78687861e-07
6.78687921e-07
6.78687838e-07
6.78687519e-07
6.7868778e-07
6.78686363e-07
6.78687949e-07
6.78687114e-07
6.78687226e-07
6.78688053e-07
6.78687385e-07
6.78687689e-07
6.78687566e-07
6.78687277e-07
6.7868804e-07
6.78687669e-07
6.78688472e-07
6.78687893e-07
6.78688e-07
6.78687388e-07
6.78687568e-07
6.78687954e-07
6.78686871e-07
6.78688648e-07
6.78687135e-07
6.78688405e-07
6.78687005e-07
6.78688526e-07
6.78687997e-07
6.78687863e-07
6.78688037e-07
6.78688141e-07
6.78687912e-07
6.78687885e-07
6.78688298e-07
6.78687677e-07
6.78688203e-07
6.78687688e-07
6.78688077e-07
6.78687887e-07
6.78687779e-07
6.78688544e-07
6.7868751e-07
6.78688309e-07
6.78688551e-07
6.78687777e-07
6.78688418e-07
6.78688472e-07
6.78687849e-07
6.78688718e-07
6.78687966e-07
6.78688156e-07
6.7868843e-07
6.78688676e-07
6.78688528e-07
6.78688336e-07
6.78687973e-07
6.786894e-07
6.78687991e-07
6.78689169e-07
6.7868791e-07
6.78688722e-07
6.78687486e-07
6.78688632e-07
6.78688817e-07
6.78687926e-07
6.78688207e-07
6.7868924e-07
6.78688544e-07
6.78687781e-07
6.78688432e-07
6.78688147e-07
6.78688349e-07
6.78688118e-07
6.78688485e-07
6.78689328e-07
6.78687633e-07
6.78688531e-07
6.78687912e-07
6.78688404e-07
6.78688165e-07
6.78689105e-07
6.78687496e-07
6.78688619e-07
6.78688254e-07
6.78689222e-07
6.78688733e-07
6.78687856e-07
6.78688759e-07
6.7868837e-07
6.78689564e-07
6.78688065e-07
6.78688199e-07
6.78689713e-07
6.78686861e-07
6.78690002e-07
6.78687647e-07
6.78689166e-07
6.78687689e-07
6.78688933e-07
6.78688024e-07
6.78688676e-07
6.78688203e-07
6.78688574e-07
6.78688263e-07
6.78688487e-07
6.78689016e-07
6.78688242e-07
6.78689073e-07
6.78688158e-07
6.78689449e-07
6.78688903e-07
6.78689101e-07
6.78688757e-07
6.78689839e-07
6.7868787e-07
6.78689268e-07
6.78687667e-07
6.78690009e-07
6.78687299e-07
6.78689649e-07
6.78687944e-07
6.78689818e-07
6.78688425e-07
6.7868914e-07
6.78688979e-07
6.78688818e-07
6.78689475e-07
6.78688952e-07
6.78688893e-07
6.78689095e-07
6.78688872e-07
6.78689261e-07
6.78689221e-07
6.78689392e-07
6.78689265e-07
6.78688962e-07
6.78689332e-07
6.7868918e-07
6.78689075e-07
6.78689426e-07
6.78689423e-07
6.78689441e-07
6.78689437e-07
6.78689448e-07
6.78689469e-07
6.78689566e-07
6.78689628e-07
6.7868963e-07
6.7868971e-07
6.78689725e-07
6.78689814e-07
6.78689868e-07
6.78689869e-07
6.7868995e-07
6.78689988e-07
6.78689956e-07
6.78690004e-07
6.7869004e-07
6.7869008e-07
6.78690084e-07
6.7869008e-07
6.78690114e-07
6.78690098e-07
6.78690102e-07
6.78690114e-07
6.78690118e-07
6.78690082e-07
6.78690124e-07
6.786901e-07
6.78690104e-07
6.78690108e-07
6.78690111e-07
6.78690111e-07
6.78690125e-07
6.78690113e-07
6.78690111e-07
6.78690101e-07
6.7869009e-07
6.78690119e-07
6.78690102e-07
6.78690107e-07
6.78690113e-07
6.78690106e-07
6.78690118e-07
6.78690112e-07
6.78690112e-07
6.78690124e-07
6.78690104e-07
6.78690115e-07
6.78690101e-07
6.78690121e-07
6.78690116e-07
6.78690107e-07
6.78690118e-07
6.78690099e-07
6.78690097e-07
6.78690127e-07
)
;

boundaryField
{
    closed
    {
        type            calculated;
        value           uniform 0;
    }
    open
    {
        type            calculated;
        value           uniform 0;
    }
    sides
    {
        type            empty;
    }
}


// ************************************************************************* //
