/*--------------------------------*- C++ -*----------------------------------*\
| =========                 |                                                 |
| \\      /  F ield         | OpenFOAM: The Open Source CFD Toolbox           |
|  \\    /   O peration     | Version:  2206                                  |
|   \\  /    A nd           | Website:  www.openfoam.com                      |
|    \\/     M anipulation  |                                                 |
\*---------------------------------------------------------------------------*/
FoamFile
{
    version     2.0;
    format      ascii;
    arch        "LSB;label=32;scalar=64";
    class       volScalarField;
    location    "9e-06";
    object      sourcePV;
}
// * * * * * * * * * * * * * * * * * * * * * * * * * * * * * * * * * * * * * //

dimensions      [1 -3 -1 0 0 0 0];

internalField   nonuniform List<scalar> 
3183
(
0
0
0
0
0
0
0
0
0
0
0
0
0
0
0
0
0
0
0
0
0
0
0
0
0
0
0
0
0
0
0
0
0
0
0
0
0
0
0
0
0
0
0
0
0
0
0
0
0
0
0
0
0
0
0
0
0
0
0
0
0
0
0
0
0
0
0
0
0
0
0
0
0
0
0
0
0
0
0
0
0
0
0
0
0
0
0
0
0
0
0
0
0
0
0
0
0
0
0
0
0
0
0
0
0
0
0
0
0
0
0
0
0
0
0
0
0
0
0
0
0
0
0
0
0
0
0
0
0
0
0
0
0
0
0
0
0
0
0
0
0
0
0
0
0
0
0
0
0
0
0
0
0
0
0
0
0
0
0
0
0
0
0
0
0
0
0
0
0
0
0
0
0
0
0
0
0
0
0
0
0
0
0
0
0
0
0
0
0
0
0
0
0
0
0
0
0
0
0
0
0
0
0
0
0
0
0
0
0
0
0
0
0
0
0
0
0
0
0
0
0
0
0
0
0
0
0
0
0
0
0
0
0
0
0
0
0
0
0
0
0
0
0
0
0
0
0
0
0
0
0
0
0
0
0
0
0
0
0
0
0
0
0
0
0
0
0
0
0
0
0
0
0
0
0
0
0
0
0
0
0
0
0
0
0
0
0
0
0
0
0
0
0
0
0
0
0
0
0
0
0
0
0
0
0
0
0
0
0
0
0
0
0
0
0
0
0
0
0
0
0
0
0
0
0
0
0
0
0
0
0
0
0
0
0
0
0
0
0
0
0
0
0
0
0
0
0
0
0
0
0
0
0
0
0
0
0
0
0
0
0
0
0
0
0
0
0
0
0
0
0
0
0
0
0
0
0
0
0
0
0
0
0
0
0
0
0
0
0
0
0
0
0
0
0
0
0
0
0
0
0
0
0
0
0
0
0
0
0
0
0
0
0
0
0
0
0
0
0
0
0
0
0
0
0
0
0
0
0
0
0
0
0
0
0
0
0
0
0
0
0
0
0
0
0
0
0
0
0
0
0
0
0
0
0
0
0
0
0
0
0
0
0
0
0
0
0
0
0
0
0
0
0
0
0
0
0
0
0
0
0
0
0
0
0
0
0
0
0
0
0
0
0
0
0
0
0
0
0
0
0
0
0
0
0
0
0
0
0
0
0
0
0
0
0
0
0
0
0
0
0
0
0
0
0
0
0
0
0
0
0
0
0
0
0
0
0
0
0
0
0
0
0
0
0
0
0
0
0
0
0
0
0
0
0
0
0
0
0
0
0
0
0
0
0
0
0
0
0
0
0
0
0
0
0
0
0
0
0
0
0
0
0
0
0
0
0
0
0
0
0
0
0
0
0
0
0
0
0
0
0
0
0
0
0
0
0
0
0
0
0
0
0
0
0
0
0
0
0
0
0
0
0
0
0
0
0
0
0
0
0
0
0
0
0
0
0
0
0
0
0
0
0
0
0
0
0
0
0
0
0
0
0
0
0
0
0
0
0
0
0
0
0
0
0
0
0
0
0
0
0
0
0
0
0
0
0
0
0
0
0
0
0
0
0
0
0
0
0
0
0
0
0
0
0
0
0
0
0
0
0
0
0
0
0
0
0
0
0
0
0
0
0
0
0
0
0
0
0
0
0
0
0
0
0
0
0
0
0
0
0
0
0
0
0
0
0
0
0
0
0
0
0
0
0
0
0
0
0
0
0
0
0
0
0
0
0
0
0
0
0
0
0
0
0
0
0
0
0
0
0
0
0
0
0
0
0
0
0
0
0
0
0
0
0
0
0
0
0
0
0
0
0
0
0
0
0
0
0
0
0
0
0
0
0
0
0
0
0
0
0
0
0
0
0
0
0
0
0
0
0
0
0
0
0
0
0
0
0
0
0
0
0
0
0
0
0
0
0
0
0
0
0
0
0
0
0
0
0
0
0
0
0
0
0
0
0
0
0
0
0
0
0
0
0
0
0
0
0
0
0
0
0
0
0
0
0
0
0
0
0
0
0
0
0
0
0
0
0
0
0
0
0
0
0
0
0
0
0
0
0
0
0
0
0
0
0
0
0
0
0
0
0
0
0
0
0
0
0
0
0
0
0
0
0
0
0
0
0
0
0
0
0
0
0
0
0
0
0
0
0
0
0
0
0
0
0
0
0
0
0
0
0
0
0
0
0
0
0
0
0
0
0
0
0
0
0
0
0
0
0
0
0
0
0
0
0
0
0
0
0
0
0
0
0
0
0
0
0
0
0
0
0
0
0
0
0
0
0
0
0
0
0
0
0
0
0
0
0
0
0
0
0
0
0
0
0
0
0
0
0
0
0
0
0
0
0
0
0
0
0
0
0
0
0
0
0
0
0
0
0
0
0
0
0
0
0
0
0
0
0
0
0
0
0
0
0
0
0
0
0
0
0
0
0
0
0
0
0
0
0
0
0
0
0
0
0
0
0
0
0
0
0
0
0
0
0
0
0
0
0
0
0
0
0
0
0
0
0
0
0
0
0
0
0
0
0
0
0
0
0
0
0
0
0
0
0
0
0
0
0
0
0
0
0
0
0
0
0
0
0
0
0
0
0
0
0
0
0
0
0
0
0
0
0
0
0
0
0
0
0
0
0
0
0
0
0
0
0
0
0
0
0
0
0
0
0
0
0
0
0
0
0
0
0
0
0
0
0
0
0
0
0
0
0
0
0
0
0
0
0
0
0
0
0
0
0
0
0
0
0
0
0
0
0
0
0
0
0
0
0
0
0
0
0
0
0
0
0
0
0
0
0
0
0
0
0
0
0
0
0
0
0
0
0
0
0
0
0
0
0
0
0
0
0
0
0
0
0
0
0
0
0
0
0
0
0
0
0
0
0
0
0
0
0
0
0
0
0
0
0
0
0
0
0
0
0
0
0
0
0
0
0
0
0
0
0
0
0
0
0
0
0
0
0
0
0
0
0
0
0
0
0
0
0
0
0
0
0
0
0
0
0
0
0
0
0
0
0
0
0
0
0
0
0
0
0
0
0
0
0
0
0
0
0
0
0
0
0
0
0
0
0
0
0
0
0
0
0
0
0
0
0
0
0
0
0
0
0
0
0
0
0
0
0
0
0
0
0
0
0
0
0
0
0
0
0
0
0
0
0
0
0
0
0
0
0
0
0
0
0
0
0
0
0
0
0
0
0
0
0
0
0
0
0
0
0
0
0
0
0
0
0
0
0
0
0
0
0
0
0
0
0
0
0
0
0
0
0
0
0
0
0
0
0
0
0
0
0
0
0
0
0
0
0
0
0
0
0
0
0
0
0
0
0
0
0
0
0
0
0
0
0
0
0
0
0
0
0
0
0
0
0
0
0
0
0
0
0
0
0
0
0
0
0
0
0
0
0
0
0
0
0
0
0
0
0
0
0
0
0
0
0
0
0
0
0
0
0
0
0
0
0
0
0
0
0
0
0
0
0
0
0
0
0
0
0
0
0
0
0
0
0
0
0
0
0
0
0
0
0
0
0
0
0
0
0
0
0
0
0
0
0
0
0
0
0
0
0
0
0
0
0
0
0
0
0
0
0
0
0
0
0
0
0
0
0
0
0
0
0
0
0
0
0
0
0
0
0
0
0
0
0
0
0
0
0
0
0
0
0
0
0
0
0
0
0
0
0
0
0
0
0
0
0
0
0
0
0
0
0
0
0
0
0
0
0
0
0
0
0
0
0
0
0
0
0
0
0
0
0
0
0
0
0
0
0
0
0
0
0
0
0
0
0
0
0
0
0
0
0
0
0
0
0
0
0
0
0
0
0
0
0
0
0
0
0
0
0
0
0
0
0
0
0
0
0
0
0
0
0
0
0
0
0
0
0
0
0
0
0
0
0
0
0
0
0
0
0
0
0
0
0
0
0
0
0
0
0
0
0
0
0
0
0
0
0
0
0
0
0
0
0
0
0
0
0
0
0
0
0
0
0
0
0
0
0
0
0
0
0
0
0
0
0
0
0
0
0
0
0
0
0
0
0
0
0
0
0
0
0
0
0
0
0
0
0
0
0
0
0
0
0
0
0
0
0
0
0
0
0
0
0
0
0
0
0
0
0
0
0
0
0
0
0
0
0
0
0
0
0
0
0
0
0
0
0
0
0
0
0
0
0
0
0
0
0
0
0
0
0
0
0
0
0
0
0
0
0
0
0
0
0
0
0
0
0
0
0
0
0
0
0
0
0
0
0
0
0
0
0
0
0
0
0
0
0
0
0
0
0
0
0
0
0
0
0
0
0
0
0
0
0
0
0
0
0
0
0
0
0
0
0
0
0
0
0
0
0
0
0
0
0
0
0
0
0
0
0
0
0
0
0
0
0
0
0
0
0
0
0
0
0
0
0
0
0
0
0
0
0
0
0
0
0
0
0
0
0
0
0
0
0
0
0
0
0
0
0
0
0
0
0
0
0
0
0
0
0
0
0
0
0
0
0
0
0
0
0
0
0
0
0
0
0
0
0
0
0
0
0
0
0
0
0
0
0
0
0
0
0
0
0
0
0
0
0
0
0
0
0
0
0
0
0
0
0
0
0
0
0
0
0
0
0
0
0
0
0
0
0
0
0
0
0
0
0
0
0
0
0
0
0
0
0
0
0
0
0
0
0
0
0
0
0
0
0
0
0
0
0
0
0
0
0
0
0
0
0
0
0
0
0
0
0
0
0
0
0
0
0
0
0
0
0
0
0
0
0
0
0
0
0
0
0
0
0
0
0
0
0
0
0
0
0
0
0
0
0
0
0
0
0
0
0
0
0
0
0
0
0
0
0
0
0
0
0
0
0
0
0
0
0
0
0
0
0
0
0
0
0
0
0
0
0
0
0
0
0
0
0
0
0
0
0
0
0
0
0
0
0
0
0
0
0
0
0
0
0
0
0
0
0
0
0
0
0
0
0
0
0
0
0
0
0
0
0
0
0
0
0
0
0
0
0
0
0
0
0
0
0
0
0
0
0
0
0
0
0
0
0
0
0
0
0
0
0
0
0
0
0
0
0
0
0
0
0
0
0
0
0
0
0
0
0
0
0
0
0
0
0
0
0
0
0
0
0
0
0
0
0
0
0
0
0
0
0
0
0
0
0
0
0
0
0
0
0
0
0
0
0
0
0
0
0
0
0
0
0
0
0
0
0
0
0
0
0
0
0
0
0
0
0
0
0
0
0
0
0
0
0
0
0
0
0
0
0
0
0
0
0
0
0
0
0
0
0
0
0
0
0
0
0
0
0
0
0
0
0
0
0
0
0
0
0
0
0
0
0
0
0
0
0
0
0
0
0
0
0
0
0
0
0
0
0
0
0
0
0
0
0
0
0
0
0
0
0
0
0
0
0
0
0
0
0
0
0
0
0
0
0
0
0
0
0
0
0
0
0
0
0
1.12309857e-299
0
1.6202621e-296
0
2.26172825e-293
0
3.05852288e-290
0
4.01126598e-287
0
5.10729542e-284
0
6.31895572e-281
0
7.60356051e-278
0
8.90531906e-275
0
1.01592104e-271
0
1.12964492e-268
0
1.22508878e-265
0
1.29655027e-262
0
1.33980669e-259
0
1.35252231e-256
0
1.33444249e-253
0
1.28735495e-250
0
1.21483419e-247
0
1.12181565e-244
6.04280766e-247
1.01406653e-241
2.65282422e-243
8.97628121e-239
4.12430952e-240
7.78299346e-236
5.04569749e-237
6.61216169e-233
5.48055768e-234
5.50560393e-230
5.5158346e-231
4.4940875e-227
5.2488158e-228
3.59713045e-224
4.77588783e-225
2.82387252e-221
4.18405375e-222
2.17469222e-218
3.54556883e-219
1.64322743e-215
2.91553433e-216
1.21849041e-212
2.33193292e-213
8.86835041e-210
1.81740799e-210
6.3361602e-207
1.38206281e-207
4.44460399e-204
1.02664231e-204
3.06139673e-201
7.45611388e-202
2.07079398e-198
5.29815759e-199
1.37572395e-195
3.68569726e-196
8.97727694e-193
2.5114125e-193
5.75458716e-190
1.67689968e-190
3.62387224e-187
1.09760427e-187
2.24207109e-184
7.04481956e-185
1.36291288e-181
4.43501731e-182
8.14046661e-179
2.73918376e-179
4.77759318e-176
1.66009044e-176
2.7552424e-173
9.87412086e-174
1.56138258e-170
5.76475797e-171
8.69484431e-168
3.30391687e-168
4.75792229e-165
1.85901337e-165
2.55842117e-162
1.02700496e-162
1.35181729e-159
5.57086147e-160
7.01848364e-157
2.96720486e-157
3.58040333e-154
1.55187391e-154
1.79458446e-151
7.96985775e-152
8.83720466e-149
4.01906342e-149
4.27520097e-146
1.99006752e-146
2.03168331e-143
9.67523887e-144
9.48366459e-141
4.61830539e-141
4.34785831e-138
2.16421665e-138
1.95752484e-135
9.95588762e-136
8.65407737e-133
4.49550407e-133
3.7562958e-130
1.99226853e-130
1.60052733e-127
8.6643142e-128
6.6936674e-125
3.69723334e-125
2.74720279e-122
1.54777919e-122
1.10627946e-119
6.35560917e-120
4.37021063e-117
2.55941785e-117
1.6932172e-114
1.01058726e-114
6.4327748e-112
3.91165495e-112
2.39582343e-109
1.48388146e-109
8.74520208e-107
5.51543391e-107
3.12768635e-104
2.00809103e-104
1.09568566e-101
7.15950289e-102
3.75854866e-99
2.49885575e-99
1.26205415e-96
8.53515454e-97
4.14668596e-94
2.85190981e-94
1.33266236e-91
9.31848297e-92
4.18748576e-89
2.97617302e-89
1.28589687e-86
9.28709487e-87
3.85717884e-84
2.83009625e-84
1.12958838e-81
8.41777791e-82
3.22787572e-79
2.44245782e-79
8.99499114e-77
6.90923601e-77
2.44283075e-74
1.90425969e-74
6.46091893e-72
5.10991002e-72
1.66294946e-69
1.33402714e-69
4.16194841e-67
3.38553206e-67
1.01196805e-64
8.3448157e-65
2.38823001e-62
1.99580282e-62
5.46480662e-60
4.62674939e-60
1.21107637e-57
1.03847612e-57
2.59614262e-55
2.25391206e-55
5.37594928e-53
4.7239114e-53
1.07374305e-50
9.5462868e-51
2.06511346e-48
1.85698804e-48
3.817558e-46
3.47071644e-46
6.76912364e-44
6.21963069e-44
1.14863591e-41
1.06619372e-41
1.86039443e-39
1.7437939e-39
2.86758823e-37
2.71299688e-37
4.19227529e-35
4.00148301e-35
5.79044337e-33
5.57323312e-33
7.52201246e-31
7.29670486e-31
9.14116717e-29
8.9320085e-29
1.03266544e-26
1.01576576e-26
1.07617315e-24
1.06482253e-24
1.02491003e-22
1.01892488e-22
8.8156481e-21
8.78541452e-21
6.74553846e-19
6.70415226e-19
4.50055098e-17
4.4004825e-17
2.54678626e-15
2.50326757e-15
1.17284229e-13
1.17171692e-13
4.11854313e-12
4.12966525e-12
2.66795219e-09
2.70846659e-09
0.62169432
1.90490732
10.2441557
9.98243516
3.66316148
2.97162844
0.399513453
0.350578371
0.0646675516
0.0598806687
0.00905920302
0.00881470753
0.00115558084
0.00114952656
0.00014091177
0.00014076471
2.20265977e-05
2.20210093e-05
9.32843483e-06
9.33343582e-06
8.08971381e-06
8.09040681e-06
7.9775895e-06
7.97767461e-06
7.9681654e-06
7.96816915e-06
7.96741283e-06
7.96741655e-06
7.96734304e-06
7.96736255e-06
7.96734515e-06
7.96736067e-06
7.96733432e-06
7.9673713e-06
7.96733397e-06
7.96735307e-06
7.96734928e-06
7.96733565e-06
7.96735003e-06
7.96734305e-06
7.96734958e-06
7.96733988e-06
7.96735905e-06
7.96734417e-06
7.96735284e-06
7.96734561e-06
7.96735878e-06
7.96734567e-06
7.96734869e-06
7.96734388e-06
7.96735353e-06
7.96734056e-06
7.96736039e-06
7.96733868e-06
7.96735193e-06
7.96735741e-06
7.96734663e-06
7.96735381e-06
7.9673467e-06
7.96734671e-06
7.96734346e-06
7.96735281e-06
7.9673446e-06
7.96735095e-06
7.9673543e-06
7.96734303e-06
7.96735419e-06
7.96734564e-06
7.96734553e-06
7.96733712e-06
7.96734514e-06
7.96734317e-06
7.96734051e-06
7.96735468e-06
7.96733917e-06
7.96736241e-06
7.96734465e-06
7.96736144e-06
7.96735098e-06
7.96735557e-06
7.96734682e-06
7.9673588e-06
7.96733827e-06
7.96736085e-06
7.9673417e-06
7.9673552e-06
7.9673485e-06
7.96734016e-06
7.96735448e-06
7.96733722e-06
7.96736041e-06
7.96734913e-06
7.96734942e-06
7.96734827e-06
7.96736093e-06
7.9673513e-06
7.96734794e-06
7.96735137e-06
7.96735548e-06
7.96735436e-06
7.96735555e-06
7.96734769e-06
7.96735851e-06
7.96736188e-06
7.96734515e-06
7.96734964e-06
7.96735352e-06
7.96735401e-06
7.96734496e-06
7.96735654e-06
7.96734465e-06
7.96734035e-06
7.96734781e-06
7.96734945e-06
7.96734334e-06
7.9673509e-06
7.96735074e-06
7.96735573e-06
7.96734694e-06
7.96735591e-06
7.96734698e-06
7.96735504e-06
7.96734495e-06
7.96736076e-06
7.96734407e-06
7.96735361e-06
7.96734623e-06
7.96735816e-06
7.96734379e-06
7.96736251e-06
7.96734817e-06
7.96735241e-06
7.96735926e-06
7.96736201e-06
7.9673648e-06
7.96735092e-06
7.96736866e-06
7.96734923e-06
7.96736084e-06
7.96734171e-06
7.96735313e-06
7.96734688e-06
7.96734742e-06
7.96734931e-06
7.9673514e-06
7.96734637e-06
7.96735393e-06
7.96734413e-06
7.96735744e-06
7.96734904e-06
7.96736255e-06
7.96733191e-06
7.9673667e-06
7.96734329e-06
7.96735937e-06
7.96735329e-06
7.96735615e-06
7.96734816e-06
7.96736298e-06
7.96736177e-06
7.96736341e-06
7.96734799e-06
7.96736551e-06
7.96735146e-06
7.96736506e-06
7.96735794e-06
7.96735195e-06
7.96735415e-06
7.96735396e-06
7.96734785e-06
7.96735701e-06
7.96734436e-06
7.96735075e-06
7.96734859e-06
7.96736081e-06
7.9673526e-06
7.96736114e-06
7.96736037e-06
7.96735021e-06
7.96737181e-06
7.96736115e-06
7.96736981e-06
7.96736473e-06
7.9673638e-06
7.96735732e-06
7.96735767e-06
7.96735279e-06
7.96735749e-06
7.96735089e-06
7.96736428e-06
7.96735925e-06
7.96734973e-06
7.96736523e-06
7.96735767e-06
7.9673639e-06
7.96735614e-06
7.96735905e-06
7.96735127e-06
7.96736137e-06
7.9673461e-06
7.96737036e-06
7.96735306e-06
7.96736436e-06
7.96735137e-06
7.96736128e-06
7.96735703e-06
7.96735941e-06
7.96735523e-06
7.96737246e-06
7.96735916e-06
7.96736837e-06
7.96735391e-06
7.96736928e-06
7.96736046e-06
7.96735602e-06
7.96736598e-06
7.96735465e-06
7.96736378e-06
7.96735532e-06
7.96736929e-06
7.96735432e-06
7.96736475e-06
7.96735084e-06
7.96735793e-06
7.96735842e-06
7.96735113e-06
7.9673613e-06
7.96736243e-06
7.96736044e-06
7.96736722e-06
7.96736176e-06
7.96736108e-06
7.96735966e-06
7.96737102e-06
7.96736046e-06
7.96735881e-06
7.96736511e-06
7.96736597e-06
7.96736635e-06
7.96737196e-06
7.96736178e-06
7.96737581e-06
7.96736378e-06
7.9673641e-06
7.9673577e-06
7.96736975e-06
7.96735518e-06
7.96736482e-06
7.96735552e-06
7.96735762e-06
7.96736126e-06
7.96736489e-06
7.96736644e-06
7.96736146e-06
7.96735646e-06
7.96736679e-06
7.96735914e-06
7.96737345e-06
7.96736586e-06
7.96735709e-06
7.96737128e-06
7.96736661e-06
7.96736486e-06
7.96736126e-06
7.96737772e-06
7.96735691e-06
7.96736233e-06
7.96735799e-06
7.96736634e-06
7.96734777e-06
7.96737631e-06
7.96735543e-06
7.96735922e-06
7.96736878e-06
7.96735917e-06
7.9673756e-06
7.96736018e-06
7.96736802e-06
7.96736529e-06
7.96736311e-06
7.96736649e-06
7.9673622e-06
7.96736413e-06
7.96736623e-06
7.96736062e-06
7.96735696e-06
7.96736247e-06
7.96735466e-06
7.96736111e-06
7.96736857e-06
7.96736164e-06
7.96736393e-06
7.96736494e-06
7.96736651e-06
7.96736484e-06
7.96735686e-06
7.96735585e-06
7.96736956e-06
7.96737048e-06
7.96737027e-06
7.96736361e-06
7.96736736e-06
7.96736289e-06
7.96736804e-06
7.96735828e-06
7.96737388e-06
7.96736751e-06
7.96736431e-06
7.96736979e-06
7.96737432e-06
7.96737237e-06
7.96736572e-06
7.96736538e-06
7.96736622e-06
7.9673604e-06
7.96736773e-06
7.96737396e-06
7.96735538e-06
7.96738284e-06
7.96735952e-06
7.96737445e-06
7.96736471e-06
7.96737367e-06
7.96736452e-06
7.96736836e-06
7.96736886e-06
7.96736568e-06
7.96737224e-06
7.96736787e-06
7.96737402e-06
7.96736563e-06
7.96736608e-06
7.96736546e-06
7.96736617e-06
7.96736645e-06
7.96736084e-06
7.9673776e-06
7.96736604e-06
7.96736124e-06
7.96737545e-06
7.96736219e-06
7.9673688e-06
7.96736699e-06
7.96737233e-06
7.9673683e-06
7.96737567e-06
7.96736466e-06
7.96736908e-06
7.96737206e-06
7.96736343e-06
7.96737293e-06
7.96737737e-06
7.9673606e-06
7.96736581e-06
7.96737353e-06
7.96735857e-06
7.96738058e-06
7.96736647e-06
7.96736422e-06
7.96737091e-06
7.967373e-06
7.96736505e-06
7.96737726e-06
7.96736825e-06
7.9673682e-06
7.96737714e-06
7.96737059e-06
7.96737846e-06
7.96737438e-06
7.96738273e-06
7.96737188e-06
7.96738042e-06
7.96737186e-06
7.96737672e-06
7.96736605e-06
7.96737352e-06
7.96736771e-06
7.96737503e-06
7.96737318e-06
7.96737262e-06
7.96737537e-06
7.96737608e-06
7.9673751e-06
7.96737135e-06
7.96737441e-06
7.96735777e-06
7.9673764e-06
7.9673666e-06
7.96736791e-06
7.96737762e-06
7.96736977e-06
7.96737335e-06
7.9673719e-06
7.96736851e-06
7.96737747e-06
7.96737311e-06
7.96738255e-06
7.96737575e-06
7.967377e-06
7.96736982e-06
7.96737192e-06
7.96737647e-06
7.96736375e-06
7.96738461e-06
7.96736684e-06
7.96738176e-06
7.96736532e-06
7.96738318e-06
7.96737697e-06
7.96737539e-06
7.96737744e-06
7.96737866e-06
7.96737597e-06
7.96737565e-06
7.9673805e-06
7.96737321e-06
7.96737939e-06
7.96737333e-06
7.96737791e-06
7.96737567e-06
7.9673744e-06
7.96738339e-06
7.96737125e-06
7.96738063e-06
7.96738348e-06
7.96737438e-06
7.96738191e-06
7.96738255e-06
7.96737523e-06
7.96738544e-06
7.96737661e-06
7.96737883e-06
7.96738205e-06
7.96738494e-06
7.9673832e-06
7.96738095e-06
7.96737668e-06
7.96739345e-06
7.96737689e-06
7.96739073e-06
7.96737595e-06
7.96738548e-06
7.96737097e-06
7.96738442e-06
7.96738659e-06
7.96737613e-06
7.96737943e-06
7.96739157e-06
7.96738339e-06
7.96737443e-06
7.96738207e-06
7.96737872e-06
7.9673811e-06
7.96737839e-06
7.9673827e-06
7.9673926e-06
7.96737269e-06
7.96738324e-06
7.96737597e-06
7.96738175e-06
7.96737894e-06
7.96738998e-06
7.96737109e-06
7.96738427e-06
7.96737998e-06
7.96739136e-06
7.96738561e-06
7.96737531e-06
7.96738592e-06
7.96738135e-06
7.96739537e-06
7.96737777e-06
7.96737934e-06
7.96739712e-06
7.96736362e-06
7.96740052e-06
7.96737286e-06
7.9673907e-06
7.96737335e-06
7.96738796e-06
7.96737728e-06
7.96738494e-06
7.96737939e-06
7.96738374e-06
7.96738009e-06
7.96738272e-06
7.96738893e-06
7.96737985e-06
7.9673896e-06
7.96737886e-06
7.96739402e-06
7.96738761e-06
7.96738993e-06
7.96738589e-06
7.9673986e-06
7.96737547e-06
7.9673919e-06
7.96737309e-06
7.96740059e-06
7.96736877e-06
7.96739637e-06
7.96737634e-06
7.96739835e-06
7.967382e-06
7.9673904e-06
7.9673885e-06
7.96738661e-06
7.96739432e-06
7.96738818e-06
7.96738749e-06
7.96738987e-06
7.96738724e-06
7.96739181e-06
7.96739134e-06
7.96739335e-06
7.96739186e-06
7.9673883e-06
7.96739265e-06
7.96739086e-06
7.96738963e-06
7.96739375e-06
7.96739372e-06
7.96739393e-06
7.96739388e-06
7.96739401e-06
7.96739425e-06
7.96739539e-06
7.96739613e-06
7.96739615e-06
7.96739709e-06
7.96739726e-06
7.96739831e-06
7.96739894e-06
7.96739895e-06
7.96739991e-06
7.96740035e-06
7.96739998e-06
7.96740054e-06
7.96740097e-06
7.96740143e-06
7.96740147e-06
7.96740143e-06
7.96740183e-06
7.96740164e-06
7.9674017e-06
7.96740183e-06
7.96740188e-06
7.96740145e-06
7.96740195e-06
7.96740166e-06
7.96740172e-06
7.96740176e-06
7.9674018e-06
7.96740179e-06
7.96740196e-06
7.96740182e-06
7.96740179e-06
7.96740168e-06
7.96740155e-06
7.96740189e-06
7.96740169e-06
7.96740175e-06
7.96740182e-06
7.96740174e-06
7.96740188e-06
7.96740181e-06
7.96740181e-06
7.96740195e-06
7.96740172e-06
7.96740184e-06
7.96740168e-06
7.96740192e-06
7.96740186e-06
7.96740175e-06
7.96740188e-06
7.96740165e-06
7.96740163e-06
7.96740198e-06
)
;

boundaryField
{
    closed
    {
        type            calculated;
        value           uniform 0;
    }
    open
    {
        type            calculated;
        value           uniform 0;
    }
    sides
    {
        type            empty;
    }
}


// ************************************************************************* //
