/*--------------------------------*- C++ -*----------------------------------*\
| =========                 |                                                 |
| \\      /  F ield         | OpenFOAM: The Open Source CFD Toolbox           |
|  \\    /   O peration     | Version:  2206                                  |
|   \\  /    A nd           | Website:  www.openfoam.com                      |
|    \\/     M anipulation  |                                                 |
\*---------------------------------------------------------------------------*/
FoamFile
{
    version     2.0;
    format      ascii;
    arch        "LSB;label=32;scalar=64";
    class       volVectorField;
    location    "9e-06";
    object      U;
}
// * * * * * * * * * * * * * * * * * * * * * * * * * * * * * * * * * * * * * //

dimensions      [0 1 -1 0 0 0 0];

internalField   nonuniform List<vector> 
3183
(
(2.36300955e-13 0 0)
(-3.42346184e-14 0 0)
(-1.40309604e-13 0 0)
(-8.97856958e-14 0 0)
(-9.44744751e-14 0 0)
(-3.49926985e-18 0 0)
(-2.76482197e-19 0 0)
(-1.55711202e-23 0 0)
(7.64478857e-24 0 0)
(1.08423068e-19 0 0)
(3.30680649e-18 0 0)
(7.50002423e-14 0 0)
(3.72348497e-13 0 0)
(1.09573114e-13 0 0)
(-2.7920254e-14 0 0)
(1.10658884e-14 0 0)
(-5.03781308e-14 0 0)
(-2.97260075e-13 0 0)
(-6.89532578e-13 0 0)
(-5.89294718e-17 0 0)
(3.60352229e-13 0 0)
(8.58359845e-17 0 0)
(1.88027733e-17 0 0)
(1.27150965e-13 0 0)
(2.50105723e-13 0 0)
(3.55000501e-13 0 0)
(4.44094899e-13 0 0)
(3.6579766e-13 0 0)
(-4.24178927e-14 0 0)
(1.72366509e-13 0 0)
(-2.60282938e-13 0 0)
(-3.90599488e-13 0 0)
(-6.20820122e-13 0 0)
(-5.2406568e-13 0 0)
(-3.48484798e-13 0 0)
(-6.15724842e-14 0 0)
(-1.49866535e-13 0 0)
(-2.47686374e-13 0 0)
(-7.18254423e-14 0 0)
(-8.77099293e-14 0 0)
(-3.01730171e-13 0 0)
(-3.30823186e-13 0 0)
(-1.28009086e-15 0 0)
(-4.12605984e-13 0 0)
(-2.42071398e-13 0 0)
(-1.35542974e-13 0 0)
(-2.68577529e-13 0 0)
(-1.877343e-13 0 0)
(-2.55813091e-13 0 0)
(-1.03632028e-13 0 0)
(4.34612276e-14 0 0)
(3.90700424e-13 0 0)
(2.43736629e-13 0 0)
(5.1101361e-13 0 0)
(8.52919376e-13 0 0)
(5.97476777e-13 0 0)
(8.59260265e-13 0 0)
(9.3699986e-13 0 0)
(9.86368192e-13 0 0)
(1.17447915e-12 0 0)
(1.38569288e-12 0 0)
(1.45616423e-12 0 0)
(1.6900262e-12 0 0)
(1.66100659e-12 0 0)
(2.09699335e-12 0 0)
(2.48396966e-12 0 0)
(2.42618374e-12 0 0)
(2.70834774e-12 0 0)
(3.03896223e-12 0 0)
(2.39302174e-12 0 0)
(2.77481989e-12 0 0)
(2.66189728e-12 0 0)
(2.57349356e-12 0 0)
(2.44466672e-12 0 0)
(2.29506755e-12 0 0)
(1.59747438e-12 0 0)
(1.84330219e-12 0 0)
(1.94482332e-12 0 0)
(1.64217464e-12 0 0)
(1.34185323e-12 0 0)
(1.42263774e-12 0 0)
(1.13610741e-12 0 0)
(1.64969986e-12 0 0)
(4.53247873e-13 0 0)
(1.16202053e-12 0 0)
(8.96290998e-13 0 0)
(6.6488095e-13 0 0)
(4.81330646e-13 0 0)
(1.20411553e-12 0 0)
(8.80240395e-13 0 0)
(-2.55142902e-13 0 0)
(-4.30995125e-13 0 0)
(2.89057651e-13 0 0)
(-7.07589748e-13 0 0)
(-5.33019318e-13 0 0)
(-1.41165837e-13 0 0)
(-2.14902052e-12 0 0)
(-3.71746215e-13 0 0)
(-7.08536432e-13 0 0)
(-5.81335128e-13 0 0)
(4.44554647e-13 0 0)
(-2.05986533e-13 0 0)
(3.72390842e-13 0 0)
(-6.9978408e-13 0 0)
(-8.37751049e-13 0 0)
(-4.37462736e-13 0 0)
(-1.47339168e-13 0 0)
(9.62490138e-14 0 0)
(-1.57151202e-12 0 0)
(-8.48702144e-13 0 0)
(8.57834348e-14 0 0)
(-9.009102e-13 0 0)
(-6.22060175e-13 0 0)
(-1.7100475e-12 0 0)
(-2.43301615e-12 0 0)
(-4.57146558e-13 0 0)
(-2.63410533e-12 0 0)
(-1.42848028e-12 0 0)
(-2.39713513e-12 0 0)
(-3.11282174e-12 0 0)
(-1.90498984e-12 0 0)
(-2.19499372e-12 0 0)
(-2.66462335e-12 0 0)
(-2.29821212e-12 0 0)
(-2.98627135e-12 0 0)
(-2.87326526e-12 0 0)
(-1.96302734e-12 0 0)
(-3.34037688e-12 0 0)
(-1.56658079e-12 0 0)
(-2.78020515e-12 0 0)
(-2.38654106e-12 0 0)
(-1.94567824e-12 0 0)
(-2.84984475e-12 0 0)
(-3.1791698e-12 0 0)
(-1.45109525e-12 0 0)
(-3.32517468e-12 0 0)
(-3.23258264e-12 0 0)
(-3.5139475e-12 0 0)
(-2.93482569e-12 0 0)
(-3.01666353e-12 0 0)
(-2.82434533e-12 0 0)
(-3.86688083e-12 0 0)
(-3.63051486e-12 0 0)
(-4.454313e-12 0 0)
(-2.47281599e-12 0 0)
(-3.82423318e-12 0 0)
(-3.62889211e-12 0 0)
(-4.19563845e-12 0 0)
(-3.55217306e-12 0 0)
(-3.19272754e-12 0 0)
(-3.96052845e-12 0 0)
(-2.94725405e-12 0 0)
(-2.99623971e-12 0 0)
(-3.86675509e-12 0 0)
(-4.24511403e-12 0 0)
(-3.80982983e-12 0 0)
(-3.66537686e-12 0 0)
(-4.26571656e-12 0 0)
(-4.37370538e-12 0 0)
(-4.48968119e-12 0 0)
(-4.53459491e-12 0 0)
(-4.98238896e-12 0 0)
(-4.37875638e-12 0 0)
(-4.18225911e-12 0 0)
(-5.31431626e-12 0 0)
(-4.88114153e-12 0 0)
(-5.30885257e-12 0 0)
(-4.99388288e-12 0 0)
(-4.69879671e-12 0 0)
(-5.38448273e-12 0 0)
(-5.21420441e-12 0 0)
(-4.8104048e-12 0 0)
(-5.80200238e-12 0 0)
(-5.25638569e-12 0 0)
(-4.77936958e-12 0 0)
(-5.05910698e-12 0 0)
(-4.20766836e-12 0 0)
(-5.47009982e-12 0 0)
(-4.58281107e-12 0 0)
(-6.35396443e-12 0 0)
(-5.48656163e-12 0 0)
(-6.17570864e-12 0 0)
(-5.23371924e-12 0 0)
(-5.72698223e-12 0 0)
(-6.89763339e-12 0 0)
(-6.51846845e-12 0 0)
(-5.8381982e-12 0 0)
(-6.27641585e-12 0 0)
(-5.63772929e-12 0 0)
(-5.65866798e-12 0 0)
(-6.78815128e-12 0 0)
(-6.50383674e-12 0 0)
(-7.08386889e-12 0 0)
(-7.04001093e-12 0 0)
(-8.01849899e-12 0 0)
(-7.15227663e-12 0 0)
(-6.88268372e-12 0 0)
(-7.4919562e-12 0 0)
(-7.65187411e-12 0 0)
(-8.70160422e-12 0 0)
(-7.38076326e-12 0 0)
(-8.79806694e-12 0 0)
(-6.89247309e-12 0 0)
(-7.79394045e-12 0 0)
(-7.95173697e-12 0 0)
(-6.9010239e-12 0 0)
(-7.29900513e-12 0 0)
(-6.63510188e-12 0 0)
(-7.94454709e-12 0 0)
(-6.58584503e-12 0 0)
(-8.94563245e-12 0 0)
(-8.67119327e-12 0 0)
(-6.87067897e-12 0 0)
(-9.77782405e-12 0 0)
(-8.10679721e-12 0 0)
(-8.48998386e-12 0 0)
(-9.09492002e-12 0 0)
(-9.22328931e-12 0 0)
(-7.93178928e-12 0 0)
(-8.55071416e-12 0 0)
(-8.37452672e-12 0 0)
(-9.77041343e-12 0 0)
(-9.43513941e-12 0 0)
(-7.59598993e-12 0 0)
(-8.17536097e-12 0 0)
(-8.0801253e-12 0 0)
(-8.77917189e-12 0 0)
(-8.55080666e-12 0 0)
(-9.35374645e-12 0 0)
(-8.47403634e-12 0 0)
(-8.4416756e-12 0 0)
(-9.1547431e-12 0 0)
(-9.29135303e-12 0 0)
(-9.53664893e-12 0 0)
(-9.80237328e-12 0 0)
(-9.33542905e-12 0 0)
(-9.76583057e-12 0 0)
(-9.48687006e-12 0 0)
(-9.11786535e-12 0 0)
(-9.77861073e-12 0 0)
(-1.01582091e-11 0 0)
(-1.00447013e-11 0 0)
(-9.32813108e-12 0 0)
(-8.70787338e-12 0 0)
(-9.11558907e-12 0 0)
(-9.09731255e-12 0 0)
(-8.70197351e-12 0 0)
(-8.79193536e-12 0 0)
(-9.67507587e-12 0 0)
(-9.68240391e-12 0 0)
(-8.84858129e-12 0 0)
(-9.6774536e-12 0 0)
(-9.54999585e-12 0 0)
(-9.72605209e-12 0 0)
(-9.78530441e-12 0 0)
(-9.13792877e-12 0 0)
(-8.74661806e-12 0 0)
(-9.01158768e-12 0 0)
(-8.75736963e-12 0 0)
(-9.5543898e-12 0 0)
(-1.03485143e-11 0 0)
(-1.01249644e-11 0 0)
(-1.04427081e-11 0 0)
(-9.38389247e-12 0 0)
(-1.02432209e-11 0 0)
(-9.18880743e-12 0 0)
(-9.86488957e-12 0 0)
(-9.81281477e-12 0 0)
(-1.06577899e-11 0 0)
(-9.69140771e-12 0 0)
(-9.75771701e-12 0 0)
(-1.05511745e-11 0 0)
(-1.036024e-11 0 0)
(-1.05785536e-11 0 0)
(-1.09107322e-11 0 0)
(-9.96716731e-12 0 0)
(-1.08927262e-11 0 0)
(-1.13538526e-11 0 0)
(-1.11305949e-11 0 0)
(-1.02079288e-11 0 0)
(-1.04989065e-11 0 0)
(-1.15854905e-11 0 0)
(-1.14620635e-11 0 0)
(-1.14002121e-11 0 0)
(-1.07908723e-11 0 0)
(-1.16519636e-11 0 0)
(-1.13944103e-11 0 0)
(-1.24451116e-11 0 0)
(-1.20859077e-11 0 0)
(-1.21795811e-11 0 0)
(-1.08260692e-11 0 0)
(-1.20571591e-11 0 0)
(-1.12493964e-11 0 0)
(-1.30363268e-11 0 0)
(-1.12220003e-11 0 0)
(-1.24487128e-11 0 0)
(-1.31059411e-11 0 0)
(-1.25850355e-11 0 0)
(-1.28649294e-11 0 0)
(-1.44086749e-11 0 0)
(-1.2915726e-11 0 0)
(-1.32215674e-11 0 0)
(-1.20931714e-11 0 0)
(-1.31117823e-11 0 0)
(-1.40688576e-11 0 0)
(-1.35466706e-11 0 0)
(-1.24188323e-11 0 0)
(-1.31748622e-11 0 0)
(-1.40962349e-11 0 0)
(-1.27186672e-11 0 0)
(-1.4184419e-11 0 0)
(-1.42002928e-11 0 0)
(-1.28526422e-11 0 0)
(-1.35142759e-11 0 0)
(-1.43596436e-11 0 0)
(-1.37978089e-11 0 0)
(-1.56404785e-11 0 0)
(-1.5126202e-11 0 0)
(-1.30771498e-11 0 0)
(-1.48986308e-11 0 0)
(-1.45297985e-11 0 0)
(-1.43313508e-11 0 0)
(-1.37864382e-11 0 0)
(-1.32092742e-11 0 0)
(-1.45824462e-11 0 0)
(-1.26989294e-11 0 0)
(-1.32119445e-11 0 0)
(-1.288148e-11 0 0)
(-1.24782695e-11 0 0)
(-1.27529707e-11 0 0)
(-1.22647496e-11 0 0)
(-1.33417469e-11 0 0)
(-1.34696076e-11 0 0)
(-1.22135633e-11 0 0)
(-1.18585662e-11 0 0)
(-1.28938856e-11 0 0)
(-1.25161481e-11 0 0)
(-1.3845796e-11 0 0)
(-1.30644889e-11 0 0)
(-1.26920889e-11 0 0)
(-1.33728173e-11 0 0)
(-1.33814555e-11 0 0)
(-1.31077e-11 0 0)
(-1.22626718e-11 0 0)
(-1.23580341e-11 0 0)
(-1.23417209e-11 0 0)
(-1.3916846e-11 0 0)
(-1.1943276e-11 0 0)
(-1.37599893e-11 0 0)
(-1.32704804e-11 0 0)
(-1.28772589e-11 0 0)
(-1.33755735e-11 0 0)
(-1.32870085e-11 0 0)
(-1.29100858e-11 0 0)
(-1.23056501e-11 0 0)
(-1.25864931e-11 0 0)
(-1.46185162e-11 0 0)
(-1.26452573e-11 0 0)
(-1.37627748e-11 0 0)
(-1.30060205e-11 0 0)
(-1.29181177e-11 0 0)
(-1.2741128e-11 0 0)
(-1.37245086e-11 0 0)
(-1.30331185e-11 0 0)
(-1.25672865e-11 0 0)
(-1.36659797e-11 0 0)
(-1.31279638e-11 0 0)
(-1.40752613e-11 0 0)
(-1.26469987e-11 0 0)
(-1.41809972e-11 0 0)
(-1.2580643e-11 0 0)
(-1.44989171e-11 0 0)
(-1.23542731e-11 0 0)
(-1.24078353e-11 0 0)
(-1.19551734e-11 0 0)
(-1.26564392e-11 0 0)
(-1.25433663e-11 0 0)
(-1.10750873e-11 0 0)
(-1.16878462e-11 0 0)
(-1.11180195e-11 0 0)
(-1.11894957e-11 0 0)
(-1.11423957e-11 0 0)
(-1.11161674e-11 0 0)
(-1.13581128e-11 0 0)
(-1.10518345e-11 0 0)
(-1.20728012e-11 0 0)
(-1.13848196e-11 0 0)
(-1.1209793e-11 0 0)
(-1.14585014e-11 0 0)
(-1.05152069e-11 0 0)
(-1.09724447e-11 0 0)
(-1.13415639e-11 0 0)
(-1.08429607e-11 0 0)
(-9.64740251e-12 0 0)
(-1.04918685e-11 0 0)
(-9.06316183e-12 0 0)
(-1.06698376e-11 0 0)
(-1.0655113e-11 0 0)
(-9.97397372e-12 0 0)
(-9.16560964e-12 0 0)
(-8.96996613e-12 0 0)
(-9.09916669e-12 0 0)
(-8.71956443e-12 0 0)
(-1.01028641e-11 0 0)
(-8.39781444e-12 0 0)
(-8.4794623e-12 0 0)
(-8.03024226e-12 0 0)
(-9.69332297e-12 0 0)
(-8.3475675e-12 0 0)
(-8.64252547e-12 0 0)
(-9.06785176e-12 0 0)
(-7.87863616e-12 0 0)
(-7.99562203e-12 0 0)
(-8.91763625e-12 0 0)
(-8.24857188e-12 0 0)
(-8.14057835e-12 0 0)
(-8.07658993e-12 0 0)
(-7.90815871e-12 0 0)
(-8.70861068e-12 0 0)
(-7.83501413e-12 0 0)
(-6.87534923e-12 0 0)
(-7.20173444e-12 0 0)
(-7.3396399e-12 0 0)
(-7.24086711e-12 0 0)
(-8.27761342e-12 0 0)
(-7.5147924e-12 0 0)
(-6.54206121e-12 0 0)
(-7.01648577e-12 0 0)
(-7.83503511e-12 0 0)
(-6.18576569e-12 0 0)
(-6.39128803e-12 0 0)
(-8.12503577e-12 0 0)
(-7.3075666e-12 0 0)
(-6.8385497e-12 0 0)
(-6.74679081e-12 0 0)
(-7.09209618e-12 0 0)
(-7.75460675e-12 0 0)
(-6.17763736e-12 0 0)
(-5.84135016e-12 0 0)
(-6.36142708e-12 0 0)
(-5.58700455e-12 0 0)
(-7.29856349e-12 0 0)
(-6.27202286e-12 0 0)
(-6.1569157e-12 0 0)
(-6.13262513e-12 0 0)
(-7.00027675e-12 0 0)
(-6.71730144e-12 0 0)
(-6.84079487e-12 0 0)
(-7.05262869e-12 0 0)
(-5.80589777e-12 0 0)
(-6.82553625e-12 0 0)
(-5.96523711e-12 0 0)
(-6.22498426e-12 0 0)
(-7.27051916e-12 0 0)
(-6.47616665e-12 0 0)
(-4.81047742e-12 0 0)
(-5.55253706e-12 0 0)
(-6.68737535e-12 0 0)
(-5.67175998e-12 0 0)
(-5.73693725e-12 0 0)
(-5.56970763e-12 0 0)
(-5.98604636e-12 0 0)
(-5.67842617e-12 0 0)
(-4.49478532e-12 0 0)
(-6.19818158e-12 0 0)
(-5.42046888e-12 0 0)
(-4.13510494e-12 0 0)
(-5.12919895e-12 0 0)
(-4.59104622e-12 0 0)
(-5.59522426e-12 0 0)
(-4.29226829e-12 0 0)
(-4.49093064e-12 0 0)
(-4.12983687e-12 0 0)
(-5.26587831e-12 0 0)
(-3.64196356e-12 0 0)
(-4.11382846e-12 0 0)
(-4.74195948e-12 0 0)
(-5.31731429e-12 0 0)
(-4.16451362e-12 0 0)
(-4.6553497e-12 0 0)
(-4.00630988e-12 0 0)
(-4.14011143e-12 0 0)
(-3.76260945e-12 0 0)
(-3.93215587e-12 0 0)
(-3.84940974e-12 0 0)
(-3.70043473e-12 0 0)
(-3.82757615e-12 0 0)
(-3.97328259e-12 0 0)
(-3.2764954e-12 0 0)
(-3.12744947e-12 0 0)
(-4.09175667e-12 0 0)
(-2.96597823e-12 0 0)
(-5.11913918e-12 0 0)
(-3.08896722e-12 0 0)
(-3.95037797e-12 0 0)
(-5.0413113e-12 0 0)
(-2.90210465e-12 0 0)
(-4.31824222e-12 0 0)
(-3.17621349e-12 0 0)
(-3.95746769e-12 0 0)
(-3.44403716e-12 0 0)
(-3.37703966e-12 0 0)
(-2.35468497e-12 0 0)
(-2.93607176e-12 0 0)
(-2.48833266e-12 0 0)
(-2.87072099e-12 0 0)
(-2.65803494e-12 0 0)
(-3.05321387e-12 0 0)
(-2.06923173e-12 0 0)
(-3.07407637e-12 0 0)
(-2.11114926e-12 0 0)
(-3.15663272e-12 0 0)
(-1.59135473e-12 0 0)
(-1.4457001e-12 0 0)
(-1.47455085e-12 0 0)
(-1.30743632e-12 0 0)
(-1.79839393e-12 0 0)
(-1.15104409e-12 0 0)
(-2.32034543e-12 0 0)
(-6.31329916e-13 0 0)
(-2.10265648e-12 0 0)
(-1.12775908e-12 0 0)
(-1.83681146e-12 0 0)
(-1.95273383e-12 0 0)
(-2.0519171e-12 0 0)
(-9.0132308e-13 0 0)
(-2.14574617e-12 0 0)
(-2.3204411e-13 0 0)
(-1.0856566e-12 0 0)
(-2.31917026e-12 0 0)
(-1.8100633e-12 0 0)
(-1.59680133e-12 0 0)
(-1.88001367e-12 0 0)
(-1.28130426e-12 0 0)
(-3.73947613e-13 0 0)
(-1.32432833e-12 0 0)
(-1.10156734e-12 0 0)
(-7.22332056e-13 0 0)
(-9.04405588e-13 0 0)
(-1.11518446e-12 0 0)
(2.75001259e-14 0 0)
(-6.69059868e-13 0 0)
(-8.62726203e-13 0 0)
(2.84447505e-14 0 0)
(-1.87775222e-13 0 0)
(7.12455981e-13 0 0)
(-3.58890665e-13 0 0)
(8.35925126e-13 0 0)
(9.72967927e-13 0 0)
(3.9950787e-13 0 0)
(1.8212879e-13 0 0)
(1.10666831e-12 0 0)
(1.05883137e-12 0 0)
(6.76749327e-13 0 0)
(9.23627767e-14 0 0)
(1.51857845e-12 0 0)
(1.18878379e-12 0 0)
(1.096879e-12 0 0)
(1.94840073e-12 0 0)
(-2.2823142e-13 0 0)
(7.90620457e-13 0 0)
(5.94684139e-13 0 0)
(1.56138961e-12 0 0)
(1.00660619e-12 0 0)
(-3.57106005e-13 0 0)
(6.93362631e-13 0 0)
(8.90460091e-13 0 0)
(1.34022004e-12 0 0)
(1.95639453e-12 0 0)
(1.11729319e-12 0 0)
(1.30753708e-12 0 0)
(7.90162104e-13 0 0)
(1.26641389e-12 0 0)
(2.37511162e-12 0 0)
(1.83849779e-12 0 0)
(1.01315571e-12 0 0)
(9.9533365e-13 0 0)
(2.18208478e-12 0 0)
(1.73438328e-12 0 0)
(3.2958391e-12 0 0)
(1.92451336e-12 0 0)
(3.02084656e-12 0 0)
(2.83334345e-12 0 0)
(2.68407311e-12 0 0)
(2.36888871e-12 0 0)
(2.47717171e-12 0 0)
(3.36006326e-12 0 0)
(3.35441484e-12 0 0)
(2.54124616e-12 0 0)
(2.73524142e-12 0 0)
(3.00070657e-12 0 0)
(3.36856995e-12 0 0)
(2.29270033e-12 0 0)
(2.07863937e-12 0 0)
(2.89912856e-12 0 0)
(2.75331179e-12 0 0)
(2.87404191e-12 0 0)
(3.6870699e-12 0 0)
(4.20382807e-12 0 0)
(3.38420145e-12 0 0)
(4.1326983e-12 0 0)
(3.72221181e-12 0 0)
(4.11353692e-12 0 0)
(4.05059214e-12 0 0)
(3.5364393e-12 0 0)
(3.88422741e-12 0 0)
(3.90805079e-12 0 0)
(3.59817775e-12 0 0)
(3.45001591e-12 0 0)
(3.48160093e-12 0 0)
(3.98813669e-12 0 0)
(3.77880564e-12 0 0)
(4.07576865e-12 0 0)
(3.53621504e-12 0 0)
(3.86225404e-12 0 0)
(3.9219551e-12 0 0)
(4.12560332e-12 0 0)
(3.88147143e-12 0 0)
(4.01824241e-12 0 0)
(4.54812192e-12 0 0)
(4.89026284e-12 0 0)
(4.00337597e-12 0 0)
(3.98588788e-12 0 0)
(3.31737138e-12 0 0)
(4.67212476e-12 0 0)
(4.92282539e-12 0 0)
(4.26490548e-12 0 0)
(4.32307742e-12 0 0)
(4.66543725e-12 0 0)
(4.52419878e-12 0 0)
(5.02041872e-12 0 0)
(3.88321668e-12 0 0)
(4.21502165e-12 0 0)
(4.10385272e-12 0 0)
(4.30187877e-12 0 0)
(4.77191576e-12 0 0)
(4.52585152e-12 0 0)
(4.52060696e-12 0 0)
(3.51450455e-12 0 0)
(4.77393672e-12 0 0)
(3.37529539e-12 0 0)
(4.22360733e-12 0 0)
(5.08335233e-12 0 0)
(3.63807976e-12 0 0)
(4.48843806e-12 0 0)
(3.78313399e-12 0 0)
(4.20429453e-12 0 0)
(4.35091712e-12 0 0)
(4.18109894e-12 0 0)
(4.37605348e-12 0 0)
(4.80132981e-12 0 0)
(3.95243672e-12 0 0)
(4.23758645e-12 0 0)
(4.03963199e-12 0 0)
(4.14401675e-12 0 0)
(4.20575831e-12 0 0)
(4.40827565e-12 0 0)
(4.37484812e-12 0 0)
(4.25214543e-12 0 0)
(4.68003613e-12 0 0)
(4.30294328e-12 0 0)
(5.3596676e-12 0 0)
(5.12260559e-12 0 0)
(5.92167117e-12 0 0)
(3.68611629e-12 0 0)
(4.7359525e-12 0 0)
(5.04583854e-12 0 0)
(4.31584754e-12 0 0)
(5.08229818e-12 0 0)
(5.7105271e-12 0 0)
(5.36181527e-12 0 0)
(4.63535236e-12 0 0)
(5.55685591e-12 0 0)
(5.40422519e-12 0 0)
(4.62371595e-12 0 0)
(4.22696642e-12 0 0)
(4.04781239e-12 0 0)
(4.48655807e-12 0 0)
(4.39585262e-12 0 0)
(5.21524093e-12 0 0)
(4.27929642e-12 0 0)
(4.5156242e-12 0 0)
(4.50687146e-12 0 0)
(4.48259082e-12 0 0)
(4.90857211e-12 0 0)
(5.09882e-12 0 0)
(5.05616104e-12 0 0)
(3.81725872e-12 0 0)
(5.42091264e-12 0 0)
(5.56942969e-12 0 0)
(4.35728983e-12 0 0)
(5.44436829e-12 0 0)
(5.01197077e-12 0 0)
(5.13546574e-12 0 0)
(4.89559045e-12 0 0)
(5.41109982e-12 0 0)
(5.07876574e-12 0 0)
(5.0586256e-12 0 0)
(5.2608453e-12 0 0)
(5.39660845e-12 0 0)
(5.35073489e-12 0 0)
(5.39057573e-12 0 0)
(5.12287043e-12 0 0)
(5.81387023e-12 0 0)
(5.83229178e-12 0 0)
(5.2403361e-12 0 0)
(5.41109795e-12 0 0)
(5.03329301e-12 0 0)
(5.26793041e-12 0 0)
(4.95975366e-12 0 0)
(4.66963608e-12 0 0)
(4.51948647e-12 0 0)
(4.71364866e-12 0 0)
(5.43869899e-12 0 0)
(4.49538928e-12 0 0)
(5.08438451e-12 0 0)
(5.0619944e-12 0 0)
(4.98381818e-12 0 0)
(5.34305171e-12 0 0)
(4.55579954e-12 0 0)
(4.97328605e-12 0 0)
(4.99689237e-12 0 0)
(5.92091056e-12 0 0)
(5.2631769e-12 0 0)
(5.70420288e-12 0 0)
(4.84599428e-12 0 0)
(4.02829265e-12 0 0)
(4.85980514e-12 0 0)
(4.4313263e-12 0 0)
(4.65022073e-12 0 0)
(4.7818728e-12 0 0)
(4.34206022e-12 0 0)
(3.48471071e-12 0 0)
(4.93627732e-12 0 0)
(4.76510108e-12 0 0)
(5.34694857e-12 0 0)
(4.99526447e-12 0 0)
(5.27497687e-12 0 0)
(5.93598392e-12 0 0)
(4.99358565e-12 0 0)
(6.09396456e-12 0 0)
(4.26575393e-12 0 0)
(5.98159075e-12 0 0)
(5.49948345e-12 0 0)
(5.85119849e-12 0 0)
(4.96524706e-12 0 0)
(5.01345375e-12 0 0)
(5.14302028e-12 0 0)
(4.59949286e-12 0 0)
(4.02877945e-12 0 0)
(3.88180473e-12 0 0)
(4.50619373e-12 0 0)
(4.56950431e-12 0 0)
(4.12999042e-12 0 0)
(4.0182689e-12 0 0)
(3.80386771e-12 0 0)
(4.73092275e-12 0 0)
(3.72077212e-12 0 0)
(4.13167891e-12 0 0)
(3.560588e-12 0 0)
(3.38272414e-12 0 0)
(3.15549336e-12 0 0)
(2.97076255e-12 0 0)
(3.49475387e-12 0 0)
(3.37764464e-12 0 0)
(3.13144324e-12 0 0)
(2.97315617e-12 0 0)
(3.50407724e-12 0 0)
(3.27783246e-12 0 0)
(3.23790257e-12 0 0)
(2.92542616e-12 0 0)
(2.8650436e-12 0 0)
(2.34853507e-12 0 0)
(3.8882182e-12 0 0)
(3.78914814e-12 0 0)
(3.14836347e-12 0 0)
(4.37579764e-12 0 0)
(3.17842919e-12 0 0)
(4.24014169e-12 0 0)
(4.48887646e-12 0 0)
(4.46263774e-12 0 0)
(3.88697811e-12 0 0)
(3.90685815e-12 0 0)
(4.18573736e-12 0 0)
(3.43802136e-12 0 0)
(4.05676698e-12 0 0)
(3.52082847e-12 0 0)
(3.06442303e-12 0 0)
(3.96294085e-12 0 0)
(4.05636195e-12 0 0)
(4.56072207e-12 0 0)
(4.65960726e-12 0 0)
(4.20177321e-12 0 0)
(4.4710695e-12 0 0)
(3.46233836e-12 0 0)
(3.17292262e-12 0 0)
(4.31271875e-12 0 0)
(4.21639923e-12 0 0)
(4.27683481e-12 0 0)
(3.75970746e-12 0 0)
(3.40680568e-12 0 0)
(3.86211057e-12 0 0)
(3.73705371e-12 0 0)
(4.60855489e-12 0 0)
(3.44140893e-12 0 0)
(3.34686635e-12 0 0)
(4.37332853e-12 0 0)
(4.41991884e-12 0 0)
(4.07585047e-12 0 0)
(3.60910126e-12 0 0)
(4.3177879e-12 0 0)
(4.60790234e-12 0 0)
(4.38841159e-12 0 0)
(3.96181773e-12 0 0)
(5.01802281e-12 0 0)
(4.88432628e-12 0 0)
(4.4977059e-12 0 0)
(4.55053195e-12 0 0)
(4.76417806e-12 0 0)
(4.79316838e-12 0 0)
(5.29788844e-12 0 0)
(5.36338448e-12 0 0)
(5.75331374e-12 0 0)
(5.36190777e-12 0 0)
(4.67927927e-12 0 0)
(4.38966483e-12 0 0)
(3.63844712e-12 0 0)
(5.40743436e-12 0 0)
(4.80951534e-12 0 0)
(3.4565748e-12 0 0)
(3.83392173e-12 0 0)
(4.24831497e-12 0 0)
(3.30379642e-12 0 0)
(3.51036668e-12 0 0)
(3.49016567e-12 0 0)
(4.03278561e-12 0 0)
(4.26074474e-12 0 0)
(4.82132814e-12 0 0)
(4.32553486e-12 0 0)
(5.63727997e-12 0 0)
(4.69199697e-12 0 0)
(4.19887092e-12 0 0)
(4.14067848e-12 0 0)
(4.48158972e-12 0 0)
(3.47503631e-12 0 0)
(4.87758648e-12 0 0)
(5.93651419e-12 0 0)
(5.34168521e-12 0 0)
(3.93219603e-12 0 0)
(5.0201832e-12 0 0)
(5.5147716e-12 0 0)
(4.9308841e-12 0 0)
(4.57050679e-12 0 0)
(5.52276191e-12 0 0)
(4.86463324e-12 0 0)
(4.69919175e-12 0 0)
(4.41124768e-12 0 0)
(6.05612462e-12 0 0)
(4.77814145e-12 0 0)
(4.38586274e-12 0 0)
(4.66795165e-12 0 0)
(5.05389708e-12 0 0)
(6.3184552e-12 0 0)
(4.63799555e-12 0 0)
(5.63709327e-12 0 0)
(4.7476575e-12 0 0)
(5.98983107e-12 0 0)
(5.47756335e-12 0 0)
(5.44544629e-12 0 0)
(4.37678437e-12 0 0)
(6.15140814e-12 0 0)
(5.65698755e-12 0 0)
(5.27335692e-12 0 0)
(5.67455056e-12 0 0)
(5.12678323e-12 0 0)
(5.27395984e-12 0 0)
(5.10577679e-12 0 0)
(4.532735e-12 0 0)
(5.02617206e-12 0 0)
(4.85218965e-12 0 0)
(4.86745792e-12 0 0)
(4.98368495e-12 0 0)
(4.97805548e-12 0 0)
(6.30956195e-12 0 0)
(5.57382974e-12 0 0)
(5.35957007e-12 0 0)
(5.88730723e-12 0 0)
(5.73569395e-12 0 0)
(7.3946581e-12 0 0)
(6.24857656e-12 0 0)
(6.75086149e-12 0 0)
(6.69742051e-12 0 0)
(6.37354912e-12 0 0)
(6.99827383e-12 0 0)
(6.68438704e-12 0 0)
(7.08455811e-12 0 0)
(7.37748453e-12 0 0)
(7.99912949e-12 0 0)
(7.07061453e-12 0 0)
(6.85080139e-12 0 0)
(7.64526767e-12 0 0)
(6.87427889e-12 0 0)
(7.78601198e-12 0 0)
(7.90814248e-12 0 0)
(7.62954339e-12 0 0)
(8.26906092e-12 0 0)
(7.99645187e-12 0 0)
(8.838011e-12 0 0)
(8.36950846e-12 0 0)
(7.12849149e-12 0 0)
(6.37840968e-12 0 0)
(7.33373391e-12 0 0)
(7.21753847e-12 0 0)
(7.99313261e-12 0 0)
(6.16412161e-12 0 0)
(6.81266625e-12 0 0)
(8.221755e-12 0 0)
(7.25694744e-12 0 0)
(7.54982792e-12 0 0)
(6.91210038e-12 0 0)
(6.84367293e-12 0 0)
(7.17548279e-12 0 0)
(7.24394421e-12 0 0)
(7.09387643e-12 0 0)
(6.58670893e-12 0 0)
(7.23939155e-12 0 0)
(7.40292557e-12 0 0)
(7.18834426e-12 0 0)
(8.21870733e-12 0 0)
(7.18943496e-12 0 0)
(8.2652188e-12 0 0)
(7.83086664e-12 0 0)
(8.57217233e-12 0 0)
(7.72388869e-12 0 0)
(7.45020799e-12 0 0)
(7.98870658e-12 0 0)
(7.55032034e-12 0 0)
(7.5688377e-12 0 0)
(8.61089886e-12 0 0)
(7.70496353e-12 0 0)
(9.02617342e-12 0 0)
(7.77836888e-12 0 0)
(8.88579961e-12 0 0)
(6.8557926e-12 0 0)
(8.02217962e-12 0 0)
(8.15501515e-12 0 0)
(7.67028644e-12 0 0)
(7.80490623e-12 0 0)
(7.80641517e-12 0 0)
(9.04492021e-12 0 0)
(7.70278052e-12 0 0)
(8.20671989e-12 0 0)
(9.12725282e-12 0 0)
(7.13901753e-12 0 0)
(7.89132569e-12 0 0)
(7.22227386e-12 0 0)
(8.69614683e-12 0 0)
(7.9709869e-12 0 0)
(7.21950365e-12 0 0)
(7.42038521e-12 0 0)
(8.18469833e-12 0 0)
(8.99983279e-12 0 0)
(8.10332794e-12 0 0)
(8.26654356e-12 0 0)
(7.71173162e-12 0 0)
(7.4262672e-12 0 0)
(7.93669571e-12 0 0)
(7.63956637e-12 0 0)
(8.33223036e-12 0 0)
(8.03996911e-12 0 0)
(8.62343312e-12 0 0)
(8.44864278e-12 0 0)
(9.37612573e-12 0 0)
(8.26810015e-12 0 0)
(8.07283595e-12 0 0)
(8.28184378e-12 0 0)
(7.75315181e-12 0 0)
(8.4951653e-12 0 0)
(8.41197256e-12 0 0)
(8.33185156e-12 0 0)
(7.99532541e-12 0 0)
(8.71299593e-12 0 0)
(8.31307913e-12 0 0)
(8.74479708e-12 0 0)
(8.63684124e-12 0 0)
(8.25562277e-12 0 0)
(8.08861603e-12 0 0)
(9.20747233e-12 0 0)
(9.25020524e-12 0 0)
(8.68905107e-12 0 0)
(8.40733191e-12 0 0)
(8.69044654e-12 0 0)
(9.86530313e-12 0 0)
(8.51723302e-12 0 0)
(8.79088675e-12 0 0)
(9.61071049e-12 0 0)
(8.54030307e-12 0 0)
(8.90663475e-12 0 0)
(8.20377913e-12 0 0)
(8.85391865e-12 0 0)
(6.96520026e-12 0 0)
(7.35452394e-12 0 0)
(8.07236887e-12 0 0)
(7.30363426e-12 0 0)
(7.78188339e-12 0 0)
(6.69165155e-12 0 0)
(7.38207762e-12 0 0)
(6.45761922e-12 0 0)
(6.71479489e-12 0 0)
(6.19259622e-12 0 0)
(6.22806792e-12 0 0)
(5.89176575e-12 0 0)
(5.82070101e-12 0 0)
(5.41147363e-12 0 0)
(5.9595857e-12 0 0)
(4.84202561e-12 0 0)
(5.87947434e-12 0 0)
(5.36788916e-12 0 0)
(5.11263667e-12 0 0)
(4.83937386e-12 0 0)
(4.8617712e-12 0 0)
(4.29243242e-12 0 0)
(4.64542754e-12 0 0)
(4.48154214e-12 0 0)
(4.20503619e-12 0 0)
(3.79057865e-12 0 0)
(4.11009963e-12 0 0)
(4.04672403e-12 0 0)
(3.34118791e-12 0 0)
(4.58563083e-12 0 0)
(4.23774829e-12 0 0)
(3.89039721e-12 0 0)
(3.19557834e-12 0 0)
(2.51459228e-12 0 0)
(2.7957255e-12 0 0)
(2.47593759e-12 0 0)
(3.22111044e-12 0 0)
(1.32236342e-12 0 0)
(2.35428182e-12 0 0)
(1.59547027e-12 0 0)
(1.79101239e-12 0 0)
(1.24677662e-12 0 0)
(1.73839387e-12 0 0)
(1.35472201e-12 0 0)
(9.59557151e-13 0 0)
(1.97223307e-12 0 0)
(1.48923896e-12 0 0)
(1.95304263e-12 0 0)
(2.04707322e-12 0 0)
(1.3082488e-12 0 0)
(2.08282107e-12 0 0)
(1.5096512e-12 0 0)
(1.52783058e-12 0 0)
(1.02213953e-12 0 0)
(1.91154424e-12 0 0)
(1.55424012e-12 0 0)
(1.44258378e-12 0 0)
(1.38090918e-12 0 0)
(1.86017646e-12 0 0)
(1.66071672e-12 0 0)
(1.76679868e-12 0 0)
(1.28378625e-12 0 0)
(1.36706051e-12 0 0)
(1.29860962e-12 0 0)
(7.34264936e-13 0 0)
(1.37537294e-12 0 0)
(-3.59342866e-13 0 0)
(1.09398106e-12 0 0)
(8.6133991e-13 0 0)
(5.86119809e-13 0 0)
(7.62370194e-13 0 0)
(1.24105979e-12 0 0)
(1.55264929e-12 0 0)
(9.79998436e-13 0 0)
(1.83433607e-12 0 0)
(5.88702949e-13 0 0)
(1.50122205e-12 0 0)
(6.88074479e-13 0 0)
(1.7304988e-12 0 0)
(1.26843083e-12 0 0)
(5.52253887e-13 0 0)
(7.80027125e-14 0 0)
(7.27162689e-13 0 0)
(1.24153497e-12 0 0)
(1.31503073e-13 0 0)
(-1.45855316e-13 0 0)
(6.598308e-13 0 0)
(4.66861443e-13 0 0)
(1.61731709e-13 0 0)
(1.38130496e-13 0 0)
(3.98418966e-13 0 0)
(4.57181631e-13 0 0)
(-4.89492008e-13 0 0)
(6.66927721e-13 0 0)
(-5.30389989e-13 0 0)
(-7.51846461e-13 0 0)
(1.48902916e-13 0 0)
(5.42728347e-13 0 0)
(2.67816957e-13 0 0)
(-6.18787216e-13 0 0)
(-2.31008931e-13 0 0)
(-1.00307839e-12 0 0)
(-4.05202402e-13 0 0)
(-1.24167257e-12 0 0)
(-1.25334749e-12 0 0)
(-1.30873507e-12 0 0)
(-8.47258434e-13 0 0)
(-1.52229152e-12 0 0)
(-1.42911846e-12 0 0)
(-7.38985708e-13 0 0)
(-6.99524138e-13 0 0)
(-8.9166788e-13 0 0)
(-1.5077074e-12 0 0)
(-2.17233383e-12 0 0)
(-2.25092166e-12 0 0)
(-1.9518093e-12 0 0)
(-2.2969484e-12 0 0)
(-1.82847989e-12 0 0)
(-2.1818715e-12 0 0)
(-2.85902334e-12 0 0)
(-2.35835803e-12 0 0)
(-2.89549971e-12 0 0)
(-3.08290318e-12 0 0)
(-2.43558877e-12 0 0)
(-2.88000197e-12 0 0)
(-2.98636076e-12 0 0)
(-2.80670294e-12 0 0)
(-2.51076359e-12 0 0)
(-2.70460107e-12 0 0)
(-2.14280166e-12 0 0)
(-1.79111942e-12 0 0)
(-3.50401753e-12 0 0)
(-2.16776631e-12 0 0)
(-1.9634209e-12 0 0)
(-2.57046043e-12 0 0)
(-2.18707363e-12 0 0)
(-2.55225621e-12 0 0)
(-2.29825708e-12 0 0)
(-2.29564319e-12 0 0)
(-3.29237991e-12 0 0)
(-3.03934043e-12 0 0)
(-2.65685738e-12 0 0)
(-2.48498894e-12 0 0)
(-2.92671181e-12 0 0)
(-3.28194646e-12 0 0)
(-2.94779774e-12 0 0)
(-3.96941691e-12 0 0)
(-2.7411508e-12 0 0)
(-2.37762508e-12 0 0)
(-2.62063662e-12 0 0)
(-2.60146477e-12 0 0)
(-3.53506489e-12 0 0)
(-2.83813202e-12 0 0)
(-2.95002061e-12 0 0)
(-3.68124112e-12 0 0)
(-3.25292914e-12 0 0)
(-3.09632102e-12 0 0)
(-3.30676519e-12 0 0)
(-3.57736813e-12 0 0)
(-2.74311045e-12 0 0)
(-3.14215441e-12 0 0)
(-3.02676947e-12 0 0)
(-3.25785285e-12 0 0)
(-3.89042085e-12 0 0)
(-3.49143703e-12 0 0)
(-3.01038768e-12 0 0)
(-3.72640874e-12 0 0)
(-3.07724361e-12 0 0)
(-3.39121661e-12 0 0)
(-3.36776256e-12 0 0)
(-2.74359917e-12 0 0)
(-2.83963554e-12 0 0)
(-2.80624926e-12 0 0)
(-2.98931372e-12 0 0)
(-4.00795702e-12 0 0)
(-3.38871535e-12 0 0)
(-3.27921716e-12 0 0)
(-3.72150449e-12 0 0)
(-3.23723741e-12 0 0)
(-2.68785617e-12 0 0)
(-4.64420918e-12 0 0)
(-3.4717642e-12 0 0)
(-4.04662395e-12 0 0)
(-4.51616247e-12 0 0)
(-4.42405401e-12 0 0)
(-4.94501171e-12 0 0)
(-4.86560827e-12 0 0)
(-4.79511431e-12 0 0)
(-5.1045178e-12 0 0)
(-4.73179604e-12 0 0)
(-4.42897917e-12 0 0)
(-4.40891099e-12 0 0)
(-5.84160975e-12 0 0)
(-6.04217394e-12 0 0)
(-2.90382273e-12 0 0)
(-6.16482802e-12 0 0)
(-6.39755508e-12 0 0)
(-5.22381454e-12 0 0)
(-5.51060005e-12 0 0)
(-6.0024817e-12 0 0)
(-5.16986654e-12 0 0)
(-6.12086592e-12 0 0)
(-6.44873944e-12 0 0)
(-5.63885361e-12 0 0)
(-5.39495173e-12 0 0)
(-6.49210532e-12 0 0)
(-5.67582559e-12 0 0)
(-6.13682854e-12 0 0)
(-6.26560191e-12 0 0)
(-5.45166738e-12 0 0)
(-4.97858948e-12 0 0)
(-5.98664359e-12 0 0)
(-5.72595466e-12 0 0)
(-5.62464907e-12 0 0)
(-5.49933262e-12 0 0)
(-4.483854e-12 0 0)
(-5.52800886e-12 0 0)
(-5.92028682e-12 0 0)
(-5.3215375e-12 0 0)
(-5.81900839e-12 0 0)
(-5.5931536e-12 0 0)
(-5.78133266e-12 0 0)
(-6.29974009e-12 0 0)
(-6.10799305e-12 0 0)
(-6.11134147e-12 0 0)
(-5.87648519e-12 0 0)
(-5.60289193e-12 0 0)
(-6.82269701e-12 0 0)
(-5.7683341e-12 0 0)
(-6.14929702e-12 0 0)
(-6.89839827e-12 0 0)
(-6.28565187e-12 0 0)
(-6.12484708e-12 0 0)
(-6.81473422e-12 0 0)
(-7.62188026e-12 0 0)
(-6.70059236e-12 0 0)
(-7.84234945e-12 0 0)
(-7.73150884e-12 0 0)
(-6.11455703e-12 0 0)
(-6.87627946e-12 0 0)
(-6.92108124e-12 0 0)
(-7.65703455e-12 0 0)
(-6.51956423e-12 0 0)
(-6.91174196e-12 0 0)
(-5.97692373e-12 0 0)
(-6.57822251e-12 0 0)
(-6.12748738e-12 0 0)
(-6.75002627e-12 0 0)
(-6.80842817e-12 0 0)
(-6.52505349e-12 0 0)
(-4.6202486e-12 0 0)
(-5.88347446e-12 0 0)
(-6.96844224e-12 0 0)
(-5.64331346e-12 0 0)
(-6.79228412e-12 0 0)
(-5.85087651e-12 0 0)
(-5.90692374e-12 0 0)
(-7.65472239e-12 0 0)
(-7.41880201e-12 0 0)
(-6.25486306e-12 0 0)
(-7.26296209e-12 0 0)
(-7.40901413e-12 0 0)
(-8.02651678e-12 0 0)
(-7.70466081e-12 0 0)
(-7.66856661e-12 0 0)
(-8.1682386e-12 0 0)
(-7.50863117e-12 0 0)
(-8.41619235e-12 0 0)
(-6.90258757e-12 0 0)
(-7.59452012e-12 0 0)
(-7.95582504e-12 0 0)
(-8.00361566e-12 0 0)
(-6.36102124e-12 0 0)
(-7.17637633e-12 0 0)
(-6.37277109e-12 0 0)
(-7.32384759e-12 0 0)
(-7.2575088e-12 0 0)
(-6.84913621e-12 0 0)
(-6.97802346e-12 0 0)
(-6.87295628e-12 0 0)
(-7.56648432e-12 0 0)
(-7.40206901e-12 0 0)
(-6.124933e-12 0 0)
(-8.2255229e-12 0 0)
(-6.7351823e-12 0 0)
(-7.40491987e-12 0 0)
(-7.79407326e-12 0 0)
(-7.87263322e-12 0 0)
(-7.70986465e-12 0 0)
(-7.9033976e-12 0 0)
(-7.23201974e-12 0 0)
(-7.70639021e-12 0 0)
(-6.65275306e-12 0 0)
(-6.61607402e-12 0 0)
(-7.71438468e-12 0 0)
(-6.93063121e-12 0 0)
(-6.37297207e-12 0 0)
(-6.73037298e-12 0 0)
(-6.53752334e-12 0 0)
(-6.88671974e-12 0 0)
(-6.62504137e-12 0 0)
(-6.2895468e-12 0 0)
(-7.51976555e-12 0 0)
(-6.70795082e-12 0 0)
(-6.836367e-12 0 0)
(-6.50018749e-12 0 0)
(-6.73112884e-12 0 0)
(-6.12820774e-12 0 0)
(-6.81611819e-12 0 0)
(-6.77208873e-12 0 0)
(-6.27864659e-12 0 0)
(-7.0775325e-12 0 0)
(-7.36847457e-12 0 0)
(-6.4677552e-12 0 0)
(-5.74581462e-12 0 0)
(-6.76350014e-12 0 0)
(-6.01030933e-12 0 0)
(-6.06625549e-12 0 0)
(-5.14323328e-12 0 0)
(-6.44561555e-12 0 0)
(-6.0925221e-12 0 0)
(-5.53259737e-12 0 0)
(-6.10581583e-12 0 0)
(-5.31308432e-12 0 0)
(-6.16115552e-12 0 0)
(-5.67100642e-12 0 0)
(-5.56554801e-12 0 0)
(-6.36311802e-12 0 0)
(-4.76177591e-12 0 0)
(-5.07789468e-12 0 0)
(-5.83153383e-12 0 0)
(-5.32734293e-12 0 0)
(-5.3591309e-12 0 0)
(-5.13504592e-12 0 0)
(-5.90362887e-12 0 0)
(-4.70769654e-12 0 0)
(-4.48099959e-12 0 0)
(-5.35678843e-12 0 0)
(-5.07002636e-12 0 0)
(-4.36421435e-12 0 0)
(-5.414496e-12 0 0)
(-4.69670908e-12 0 0)
(-5.03472162e-12 0 0)
(-6.34503452e-12 0 0)
(-5.04515271e-12 0 0)
(-5.02498787e-12 0 0)
(-5.35232714e-12 0 0)
(-5.41038253e-12 0 0)
(-5.25057355e-12 0 0)
(-5.53063971e-12 0 0)
(-4.1898687e-12 0 0)
(-4.7722397e-12 0 0)
(-5.80975233e-12 0 0)
(-4.09252073e-12 0 0)
(-4.27992821e-12 0 0)
(-6.00347784e-12 0 0)
(-5.28561872e-12 0 0)