/*--------------------------------*- C++ -*----------------------------------*\
| =========                 |                                                 |
| \\      /  F ield         | OpenFOAM: The Open Source CFD Toolbox           |
|  \\    /   O peration     | Version:  2206                                  |
|   \\  /    A nd           | Website:  www.openfoam.com                      |
|    \\/     M anipulation  |                                                 |
\*---------------------------------------------------------------------------*/
FoamFile
{
    version     2.0;
    format      ascii;
    arch        "LSB;label=32;scalar=64";
    class       volScalarField;
    location    "9.8e-06";
    object      p;
}
// * * * * * * * * * * * * * * * * * * * * * * * * * * * * * * * * * * * * * //

dimensions      [1 -1 -2 0 0 0 0];

internalField   nonuniform List<scalar> 
3183
(
101325
101325
101325
101325
101325
101325
101325
101325
101325
101325
101325
101325
101325
101325
101325
101325
101325
101325
101325
101325
101325
101325
101325
101325
101325
101325
101325
101325
101325
101325
101325
101325
101325
101325
101325
101325
101325
101325
101325
101325
101325
101325
101325
101325
101325
101325
101325
101325
101325
101325
101325
101325
101325
101325
101325
101325
101325
101325
101325
101325
101325
101325
101325
101325
101325
101325
101325
101325
101325
101325
101325
101325
101325
101325
101325
101325
101325
101325
101325
101325
101325
101325
101325
101325
101325
101325
101325
101325
101325
101325
101325
101325
101325
101325
101325
101325
101325
101325
101325
101325
101325
101325
101325
101325
101325
101325
101325
101325
101325
101325
101325
101325
101325
101325
101325
101325
101325
101325
101325
101325
101325
101325
101325
101325
101325
101325
101325
101325
101325
101325
101325
101325
101325
101325
101325
101325
101325
101325
101325
101325
101325
101325
101325
101325
101325
101325
101325
101325
101325
101325
101325
101325
101325
101325
101325
101325
101325
101325
101325
101325
101325
101325
101325
101325
101325
101325
101325
101325
101325
101325
101325
101325
101325
101325
101325
101325
101325
101325
101325
101325
101325
101325
101325
101325
101325
101325
101325
101325
101325
101325
101325
101325
101325
101325
101325
101325
101325
101325
101325
101325
101325
101325
101325
101325
101325
101325
101325
101325
101325
101325
101325
101325
101325
101325
101325
101325
101325
101325
101325
101325
101325
101325
101325
101325
101325
101325
101325
101325
101325
101325
101325
101325
101325
101325
101325
101325
101325
101325
101325
101325
101325
101325
101325
101325
101325
101325
101325
101325
101325
101325
101325
101325
101325
101325
101325
101325
101325
101325
101325
101325
101325
101325
101325
101325
101325
101325
101325
101325
101325
101325
101325
101325
101325
101325
101325
101325
101325
101325
101325
101325
101325
101325
101325
101325
101325
101325
101325
101325
101325
101325
101325
101325
101325
101325
101325
101325
101325
101325
101325
101325
101325
101325
101325
101325
101325
101325
101325
101325
101325
101325
101325
101325
101325
101325
101325
101325
101325
101325
101325
101325
101325
101325
101325
101325
101325
101325
101325
101325
101325
101325
101325
101325
101325
101325
101325
101325
101325
101325
101325
101325
101325
101325
101325
101325
101325
101325
101325
101325
101325
101325
101325
101325
101325
101325
101325
101325
101325
101325
101325
101325
101325
101325
101325
101325
101325
101325
101325
101325
101325
101325
101325
101325
101325
101325
101325
101325
101325
101325
101325
101325
101325
101325
101325
101325
101325
101325
101325
101325
101325
101325
101325
101325
101325
101325
101325
101325
101325
101325
101325
101325
101325
101325
101325
101325
101325
101325
101325
101325
101325
101325
101325
101325
101325
101325
101325
101325
101325
101325
101325
101325
101325
101325
101325
101325
101325
101325
101325
101325
101325
101325
101325
101325
101325
101325
101325
101325
101325
101325
101325
101325
101325
101325
101325
101325
101325
101325
101325
101325
101325
101325
101325
101325
101325
101325
101325
101325
101325
101325
101325
101325
101325
101325
101325
101325
101325
101325
101325
101325
101325
101325
101325
101325
101325
101325
101325
101325
101325
101325
101325
101325
101325
101325
101325
101325
101325
101325
101325
101325
101325
101325
101325
101325
101325
101325
101325
101325
101325
101325
101325
101325
101325
101325
101325
101325
101325
101325
101325
101325
101325
101325
101325
101325
101325
101325
101325
101325
101325
101325
101325
101325
101325
101325
101325
101325
101325
101325
101325
101325
101325
101325
101325
101325
101325
101325
101325
101325
101325
101325
101325
101325
101325
101325
101325
101325
101325
101325
101325
101325
101325
101325
101325
101325
101325
101325
101325
101325
101325
101325
101325
101325
101325
101325
101325
101325
101325
101325
101325
101325
101325
101325
101325
101325
101325
101325
101325
101325
101325
101325
101325
101325
101325
101325
101325
101325
101325
101325
101325
101325
101325
101325
101325
101325
101325
101325
101325
101325
101325
101325
101325
101325
101325
101325
101325
101325
101325
101325
101325
101325
101325
101325
101325
101325
101325
101325
101325
101325
101325
101325
101325
101325
101325
101325
101325
101325
101325
101325
101325
101325
101325
101325
101325
101325
101325
101325
101325
101325
101325
101325
101325
101325
101325
101325
101325
101325
101325
101325
101325
101325
101325
101325
101325
101325
101325
101325
101325
101325
101325
101325
101325
101325
101325
101325
101325
101325
101325
101325
101325
101325
101325
101325
101325
101325
101325
101325
101325
101325
101325
101325
101325
101325
101325
101325
101325
101325
101325
101325
101325
101325
101325
101325
101325
101325
101325
101325
101325
101325
101325
101325
101325
101325
101325
101325
101325
101325
101325
101325
101325
101325
101325
101325
101325
101325
101325
101325
101325
101325
101325
101325
101325
101325
101325
101325
101325
101325
101325
101325
101325
101325
101325
101325
101325
101325
101325
101325
101325
101325
101325
101325
101325
101325
101325
101325
101325
101325
101325
101325
101325
101325
101325
101325
101325
101325
101325
101325
101325
101325
101325
101325
101325
101325
101325
101325
101325
101325
101325
101325
101325
101325
101325
101325
101325
101325
101325
101325
101325
101325
101325
101325
101325
101325
101325
101325
101325
101325
101325
101325
101325
101325
101325
101325
101325
101325
101325
101325
101325
101325
101325
101325
101325
101325
101325
101325
101325
101325
101325
101325
101325
101325
101325
101325
101325
101325
101325
101325
101325
101325
101325
101325
101325
101325
101325
101325
101325
101325
101325
101325
101325
101325
101325
101325
101325
101325
101325
101325
101325
101325
101325
101325
101325
101325
101325
101325
101325
101325
101325
101325
101325
101325
101325
101325
101325
101325
101325
101325
101325
101325
101325
101325
101325
101325
101325
101325
101325
101325
101325
101325
101325
101325
101325
101325
101325
101325
101325
101325
101325
101325
101325
101325
101325
101325
101325
101325
101325
101325
101325
101325
101325
101325
101325
101325
101325
101325
101325
101325
101325
101325
101325
101325
101325
101325
101325
101325
101325
101325
101325
101325
101325
101325
101325
101325
101325
101325
101325
101325
101325
101325
101325
101325
101325
101325
101325
101325
101325
101325
101325
101325
101325
101325
101325
101325
101325
101325
101325
101325
101325
101325
101325
101325
101325
101325
101325
101325
101325
101325
101325
101325
101325
101325
101325
101325
101325
101325
101325
101325
101325
101325
101325
101325
101325
101325
101325
101325
101325
101325
101325
101325
101325
101325
101325
101325
101325
101325
101325
101325
101325
101325
101325
101325
101325
101325
101325
101325
101325
101325
101325
101325
101325
101325
101325
101325
101325
101325
101325
101325
101325
101325
101325
101325
101325
101325
101325
101325
101325
101325
101325
101325
101325
101325
101325
101325
101325
101325
101325
101325
101325
101325
101325
101325
101325
101325
101325
101325
101325
101325
101325
101325
101325
101325
101325
101325
101325
101325
101325
101325
101325
101325
101325
101325
101325
101325
101325
101325
101325
101325
101325
101325
101325
101325
101325
101325
101325
101325
101325
101325
101325
101325
101325
101325
101325
101325
101325
101325
101325
101325
101325
101325
101325
101325
101325
101325
101325
101325
101325
101325
101325
101325
101325
101325
101325
101325
101325
101325
101325
101325
101325
101325
101325
101325
101325
101325
101325
101325
101325
101325
101325
101325
101325
101325
101325
101325
101325
101325
101325
101325
101325
101325
101325
101325
101325
101325
101325
101325
101325
101325
101325
101325
101325
101325
101325
101325
101325
101325
101325
101325
101325
101325
101325
101325
101325
101325
101325
101325
101325
101325
101325
101325
101325
101325
101325
101325
101325
101325
101325
101325
101325
101325
101325
101325
101325
101325
101325
101325
101325
101325
101325
101325
101325
101325
101325
101325
101325
101325
101325
101325
101325
101325
101325
101325
101325
101325
101325
101325
101325
101325
101325
101325
101325
101325
101325
101325
101325
101325
101325
101325
101325
101325
101325
101325
101325
101325
101325
101325
101325
101325
101325
101325
101325
101325
101325
101325
101325
101325
101325
101325
101325
101325
101325
101325
101325
101325
101325
101325
101325
101325
101325
101325
101325
101325
101325
101325
101325
101325
101325
101325
101325
101325
101325
101325
101325
101325
101325
101325
101325
101325
101325
101325
101325
101325
101325
101325
101325
101325
101325
101325
101325
101325
101325
101325
101325
101325
101325
101325
101325
101325
101325
101325
101325
101325
101325
101325
101325
101325
101325
101325
101325
101325
101325
101325
101325
101325
101325
101325
101325
101325
101325
101325
101325
101325
101325
101325
101325
101325
101325
101325
101325
101325
101325
101325
101325
101325
101325
101325
101325
101325
101325
101325
101325
101325
101325
101325
101325
101325
101325
101325
101325
101325
101325
101325
101325
101325
101325
101325
101325
101325
101325
101325
101325
101325
101325
101325
101325
101325
101325
101325
101325
101325
101325
101325
101325
101325
101325
101325
101325
101325
101325
101325
101325
101325
101325
101325
101325
101325
101325
101325
101325
101325
101325
101325
101325
101325
101325
101325
101325
101325
101325
101325
101325
101325
101325
101325
101325
101325
101325
101325
101325
101325
101325
101325
101325
101325
101325
101325
101325
101325
101325
101325
101325
101325
101325
101325
101325
101325
101325
101325
101325
101325
101325
101325
101325
101325
101325
101325
101325
101325
101325
101325
101325
101325
101325
101325
101325
101325
101325
101325
101325
101325
101325
101325
101325
101325
101325
101325
101325
101325
101325
101325
101325
101325
101325
101325
101325
101325
101325
101325
101325
101325
101325
101325
101325
101325
101325
101325
101325
101325
101325
101325
101325
101325
101325
101325
101325
101325
101325
101325
101325
101325
101325
101325
101325
101325
101325
101325
101325
101325
101325
101325
101325
101325
101325
101325
101325
101325
101325
101325
101325
101325
101325
101325
101325
101325
101325
101325
101325
101325
101325
101325
101325
101325
101325
101325
101325
101325
101325
101325
101325
101325
101325
101325
101325
101325
101325
101325
101325
101325
101325
101325
101325
101325
101325
101325
101325
101325
101325
101325
101325
101325
101325
101325
101325
101325
101325
101325
101325
101325
101325
101325
101325
101325
101325
101325
101325
101325
101325
101325
101325
101325
101325
101325
101325
101325
101325
101325
101325
101325
101325
101325
101325
101325
101325
101325
101325
101325
101325
101325
101325
101325
101325
101325
101325
101325
101325
101325
101325
101325
101325
101325
101325
101325
101325
101325
101325
101325
101325
101325
101325
101325
101325
101325
101325
101325
101325
101325
101325
101325
101325
101325
101325
101325
101325
101325
101325
101325
101325
101325
101325
101325
101325
101325
101325
101325
101325
101325
101325
101325
101325
101325
101325
101325
101325
101325
101325
101325
101325
101325
101325
101325
101325
101325
101325
101325
101325
101325
101325
101325
101325
101325
101325
101325
101325
101325
101325
101325
101325
101325
101325
101325
101325
101325
101325
101325
101325
101325
101325
101325
101325
101325
101325
101325
101325
101325
101325
101325
101325
101325
101325
101325
101325
101325
101325
101325
101325
101325
101325
101325
101325
101325
101325
101325
101325
101325
101325
101325
101325
101325
101325
101325
101325
101325
101325
101325
101325
101325
101325
101325
101325
101325
101325
101325
101325
101325
101325
101325
101325
101325
101325
101325
101325
101325
101325
101325
101325
101325
101325
101325
101325
101325
101325
101325
101325
101325
101325
101325
101325
101325
101325
101325
101325
101325
101325
101325
101325
101325
101325
101325
101325
101325
101325
101325
101325
101325
101325
101325
101325
101325
101325
101325
101325
101325
101325
101325
101325
101325
101325
101325
101325
101325
101325
101325
101325
101325
101325
101325
101325
101325
101325
101325
101325
101325
101325
101325
101325
101325
101325
101325
101325
101325
101325
101325
101325
101325
101325
101325
101325
101325
101325
101325
101325
101325
101325
101325
101325
101325
101325
101325
101325
101325
101325
101325
101325
101325
101325
101325
101325
101325
101325
101325
101325
101325
101325
101325
101325
101325
101325
101325
101325
101325
101325
101325
101325
101325
101325
101325
101325
101325
101325
101325
101325
101325
101325
101325
101325
101325
101325
101325
101325
101325
101325
101325
101325
101325
101325
101325
101325
101325
101325
101325
101325
101325
101325
101325
101325
101325
101325
101325
101325
101325
101325
101325
101325
101325
101325
101325
101325
101325
101325
101325
101325
101325
101325
101325
101325
101325
101325
101325
101325
101325
101325
101325
101325
101325
101325
101325
101325
101325
101325
101325
101325
101325
101325
101325
101325
101325
101325
101325
101325
101325
101325
101325
101325
101325
101325
101325
101325
101325
101325
101325
101325
101325
101325
101325
101325
101325
101325
101325
101325
101325
101325
101325
101325
101325
101325
101325
101325
101325
101325
101325
101325
101325
101325
101325
101325
101325
101325
101325
101325
101325
101325
101325
101325
101325
101325
101325
101325
101325
101325
101325
101325
101325
101325
101325
101325
101325
101325
101325
101325
101325
101325
101325
101325
101325
101325
101325
101325
101325
101325
101325
101325
101325
101325
101325
101325
101325
101325
101325
101325
101325
101325
101325
101325
101325
101325
101325
101325
101325
101325
101325
101325
101325
101325
101325
101325
101325
101325
101325
101325
101325
101325
101325
101325
101325
101325
101325
101325
101325
101325
101325
101325
101325
101325
101325
101325
101325
101325
101325
101325
101325
101325
101325
101325
101325
101325
101325
101325
101325
101325
101325
101325
101325
101325
101325
101325
101325
101325
101325
101325
101325
101325
101325
101325
101325
101325
101325
101325
101325
101325
101325
101325
101325
101325
101325
101325
101325
101325
101325
101325
101325
101325
101325
101325
101325
101325
101325
101325
101325
101325
101325
101325
101325
101325
101325
101325
101325
101325
101325
101325
101325
101325
101325
101325
101325
101325
101325
101325
101325
101325
101325
101324.999
101324.999
101324.999
101324.999
101324.999
101324.999
101324.999
101324.999
101324.999
101324.999
101324.999
101324.999
101324.999
101324.999
101324.999
101324.998
101324.998
101324.998
101324.998
101324.998
101324.998
101324.998
101324.998
101324.997
101324.997
101324.997
101324.997
101324.997
101324.996
101324.996
101324.996
101324.995
101324.995
101324.995
101324.994
101324.994
101324.994
101324.993
101324.993
101324.992
101324.992
101324.991
101324.991
101324.99
101324.989
101324.988
101324.988
101324.987
101324.986
101324.985
101324.984
101324.983
101324.982
101324.981
101324.98
101324.978
101324.977
101324.975
101324.974
101324.972
101324.97
101324.968
101324.966
101324.964
101324.962
101324.96
101324.957
101324.955
101324.952
101324.949
101324.946
101324.942
101324.939
101324.935
101324.931
101324.927
101324.923
101324.918
101324.913
101324.908
101324.902
101324.897
101324.89
101324.884
101324.877
101324.87
101324.863
101324.855
101324.846
101324.837
101324.828
101324.818
101324.808
101324.797
101324.786
101324.774
101324.762
101324.748
101324.734
101324.72
101324.705
101324.689
101324.672
101324.654
101324.635
101324.616
101324.596
101324.574
101324.552
101324.528
101324.504
101324.478
101324.451
101324.423
101324.393
101324.362
101324.33
101324.296
101324.261
101324.224
101324.186
101324.146
101324.104
101324.06
101324.015
101323.967
101323.918
101323.866
101323.812
101323.756
101323.698
101323.638
101323.575
101323.509
101323.441
101323.37
101323.296
101323.22
101323.14
101323.058
101322.972
101322.884
101322.792
101322.696
101322.597
101322.495
101322.389
101322.279
101322.166
101322.049
101321.927
101321.802
101321.672
101321.538
101321.4
101321.257
101321.11
101320.958
101320.802
101320.641
101320.475
101320.304
101320.128
101319.947
101319.76
101319.569
101319.372
101319.17
101318.963
101318.75
101318.531
101318.307
101318.078
101317.842
101317.601
101317.355
101317.103
101316.845
101316.581
101316.311
101316.036
101315.755
101315.468
101315.176
101314.878
101314.574
101314.265
101313.95
101313.63
101313.304
101312.973
101312.637
101312.296
101311.95
101311.599
101311.243
101310.882
101310.517
101310.148
101309.775
101309.397
101309.016
101308.631
101308.243
101307.851
101307.457
101307.06
101306.66
101306.259
101305.855
101305.449
101305.042
101304.634
101304.225
101303.816
101303.406
101302.997
101302.588
101302.179
101301.772
101301.366
101300.962
101300.56
101300.16
101299.764
101299.37
101298.98
101298.594
101298.212
101297.835
101297.463
101297.096
101296.735
101296.381
101296.032
101295.69
101295.356
101295.029
101294.71
101294.399
101294.096
101293.802
101293.517
101293.242
101292.976
101292.721
101292.475
101292.24
101292.015
101291.802
101291.599
101291.408
101291.228
101291.06
101290.903
101290.758
101290.626
101290.505
101290.397
101290.3
101290.216
101290.145
101290.085
101290.038
101290.002
101289.979
101289.968
101289.969
101289.982
101290.007
101290.043
101290.09
101290.149
101290.218
101290.299
101290.39
101290.491
101290.602
101290.723
101290.854
101290.994
101291.142
101291.299
101291.465
101291.638
101291.818
101292.006
101292.201
101292.402
101292.609
101292.821
101293.039
101293.262
101293.489
101293.72
101293.955
101294.193
101294.434
101294.678
101294.923
101295.171
101295.419
101295.669
101295.92
101296.17
101296.421
101296.672
101296.921
101297.17
101297.417
101297.663
101297.907
101298.149
101298.389
101298.626
101298.86
101299.091
101299.319
101299.544
101299.765
101299.982
101300.195
101300.405
101300.61
101300.811
101301.008
101301.2
101301.389
101301.572
101301.752
101301.926
101302.097
101302.262
101302.424
101302.58
101302.733
101302.881
101303.024
101303.164
101303.299
101303.43
101303.557
101303.68
101303.799
101303.915
101304.027
101304.135
101304.239
101304.34
101304.438
101304.533
101304.625
101304.713
101304.799
101304.882
101304.962
101305.04
101305.115
101305.188
101305.258
101305.327
101305.393
101305.457
101305.519
101305.579
101305.637
101305.694
101305.749
101305.802
101305.854
101305.904
101305.952
101305.999
101306.045
101306.089
101306.132
101306.174
101306.214
101306.253
101306.291
101306.328
101306.364
101306.399
101306.432
101306.465
101306.497
101306.528
101306.558
101306.588
101306.617
101306.645
101306.672
101306.699
101306.726
101306.753
101306.779
101306.805
101306.831
101306.857
101306.883
101306.909
101306.936
101306.963
101306.991
101307.019
101307.048
101307.078
101307.108
101307.14
101307.173
101307.207
101307.242
101307.279
101307.317
101307.356
101307.397
101307.44
101307.484
101307.53
101307.577
101307.627
101307.677
101307.73
101307.784
101307.839
101307.896
101307.954
101308.014
101308.075
101308.137
101308.2
101308.263
101308.328
101308.393
101308.458
101308.524
101308.59
101308.656
101308.721
101308.787
101308.851
101308.915
101308.978
101309.04
101309.101
101309.16
101309.218
101309.274
101309.328
101309.381
101309.431
101309.48
101309.526
101309.57
101309.613
101309.652
101309.69
101309.726
101309.759
101309.79
101309.819
101309.847
101309.872
101309.895
101309.917
101309.937
101309.955
101309.973
101309.989
101310.003
101310.017
101310.03
101310.042
101310.054
101310.065
101310.076
101310.086
101310.096
101310.107
101310.117
101310.127
101310.138
101310.149
101310.16
101310.171
101310.183
101310.195
101310.207
101310.22
101310.233
101310.247
101310.261
101310.275
101310.289
101310.304
101310.319
101310.334
101310.348
101310.363
101310.378
101310.392
101310.406
101310.419
101310.431
101310.442
101310.452
101310.46
101310.466
101310.47
101310.471
101310.469
101310.462
101310.451
101310.434
101310.41
101310.378
101310.337
101310.284
101310.218
101310.136
101310.035
101309.912
101309.763
101309.582
101309.365
101309.104
101308.792
101308.418
101307.971
101307.439
101306.804
101306.048
101305.148
101304.078
101302.802
101301.267
101299.436
101297.751
101295.631
101295.428
101295.939
101297.298
101298.687
101300.117
101301.351
101302.532
101303.527
101304.425
101305.191
101305.869
101306.461
101306.983
101307.443
101307.849
101308.207
101308.523
101308.801
101309.045
101309.261
101309.449
101309.615
101309.76
101309.887
101309.997
101310.093
101310.177
101310.249
101310.311
101310.365
101310.41
101310.449
101310.482
101310.509
101310.532
101310.55
101310.565
101310.576
101310.585
101310.591
101310.594
101310.596
101310.596
101310.595
101310.592
101310.588
101310.583
101310.578
101310.571
101310.564
101310.556
101310.548
101310.54
101310.531
101310.521
101310.512
101310.502
101310.492
101310.482
101310.471
101310.461
101310.451
101310.44
101310.43
101310.419
101310.408
101310.398
101310.387
101310.376
101310.366
101310.355
101310.345
101310.334
101310.324
101310.313
101310.303
101310.293
101310.282
101310.272
101310.262
101310.252
101310.242
101310.232
101310.222
101310.212
101310.202
101310.192
101310.183
101310.173
101310.163
101310.154
101310.144
101310.135
101310.126
101310.117
101310.107
101310.098
101310.089
101310.08
101310.072
101310.063
101310.054
101310.046
101310.037
101310.029
101310.02
101310.012
101310.004
101309.996
101309.987
101309.979
101309.971
101309.963
101309.955
101309.948
101309.94
101309.932
101309.924
101309.916
101309.908
101309.901
101309.893
101309.885
101309.877
101309.869
101309.861
101309.853
101309.844
101309.836
101309.827
101309.819
101309.81
101309.801
101309.792
101309.782
101309.773
101309.763
101309.753
101309.742
101309.732
101309.721
101309.71
101309.698
101309.686
101309.674
101309.661
101309.648
101309.635
101309.621
101309.607
101309.592
101309.577
101309.561
101309.545
101309.528
101309.511
101309.494
101309.476
101309.457
101309.438
101309.419
101309.399
101309.378
101309.357
101309.335
101309.313
101309.291
101309.267
101309.244
101309.22
101309.195
101309.17
101309.144
101309.118
101309.092
101309.065
101309.037
101309.009
101308.981
101308.951
101308.922
101308.892
101308.862
101308.831
101308.801
101308.77
101308.739
101308.708
101308.676
101308.644
101308.612
101308.58
101308.548
101308.515
101308.483
101308.45
101308.417
101308.384
101308.351
101308.318
101308.285
101308.252
101308.219
101308.186
101308.153
101308.12
101308.088
101308.055
101308.023
101307.991
101307.959
101307.927
101307.896
101307.864
101307.833
101307.802
101307.772
101307.742
101307.712
101307.682
101307.653
101307.624
101307.595
101307.567
101307.539
101307.512
101307.485
101307.458
101307.431
101307.405
101307.38
101307.355
101307.33
101307.305
101307.281
101307.258
101307.234
101307.212
101307.189
101307.167
101307.145
101307.124
101307.103
101307.082
101307.062
101307.042
101307.023
101307.003
101306.984
101306.966
101306.947
101306.929
101306.912
101306.894
101306.877
101306.86
101306.843
101306.827
101306.81
101306.794
101306.779
101306.763
101306.747
101306.732
101306.717
101306.701
101306.686
101306.672
101306.657
101306.642
101306.627
101306.613
101306.598
101306.584
101306.569
101306.555
101306.54
101306.526
101306.511
101306.496
101306.482
101306.467
101306.452
101306.437
101306.422
101306.407
101306.392
101306.377
101306.362
101306.346
101306.33
101306.315
101306.299
101306.282
101306.266
101306.25
101306.233
101306.216
101306.199
101306.182
101306.164
101306.146
101306.129
101306.11
101306.092
101306.073
101306.054
101306.035
101306.016
101305.996
101305.976
101305.956
101305.936
101305.915
101305.894
101305.873
101305.851
101305.829
101305.807
101305.785
101305.762
101305.739
101305.715
101305.692
101305.668
101305.643
101305.619
101305.594
101305.568
101305.543
101305.517
101305.49
101305.464
101305.436
101305.409
101305.381
101305.353
101305.324
101305.295
101305.266
101305.236
101305.206
101305.175
101305.144
101305.112
101305.08
101305.048
101305.015
101304.982
101304.948
101304.913
101304.878
101304.843
101304.807
101304.771
101304.734
101304.696
101304.658
101304.619
101304.58
101304.54
101304.5
101304.458
101304.417
101304.374
101304.331
101304.287
101304.243
101304.197
101304.151
101304.105
101304.057
101304.009
101303.96
101303.91
101303.86
101303.808
101303.756
101303.703
101303.649
101303.594
101303.539
101303.482
101303.425
101303.366
101303.307
101303.246
101303.185
101303.123
101303.059
101302.995
101302.93
101302.863
101302.796
101302.728
101302.658
101302.587
101302.516
101302.443
101302.369
101302.294
101302.218
101302.14
101302.062
101301.982
101301.901
101301.819
101301.736
101301.652
101301.566
101301.48
101301.392
101301.303
101301.213
101301.121
101301.029
101300.935
101300.84
101300.744
101300.646
101300.548
101300.448
101300.347
101300.245
101300.141
101300.037
101299.931
101299.825
101299.717
101299.608
101299.498
101299.386
101299.274
101299.161
101299.047
101298.931
101298.815
101298.697
101298.579
101298.459
101298.339
101298.218
101298.096
101297.973
101297.849
101297.724
101297.599
101297.472
101297.345
101297.218
101297.089
101296.96
101296.831
101296.7
101296.57
101296.438
101296.307
101296.174
101296.042
101295.909
101295.776
101295.642
101295.508
101295.374
101295.24
101295.106
101294.971
101294.837
101294.702
101294.568
101294.434
101294.299
101294.166
101294.032
101293.898
101293.765
101293.633
101293.5
101293.369
101293.237
101293.107
101292.977
101292.847
101292.719
101292.591
101292.464
101292.338
101292.212
101292.088
101291.965
101291.843
101291.722
101291.602
101291.483
101291.366
101291.249
101291.135
101291.021
101290.909
101290.799
101290.69
101290.578
101290.462
101290.339
101290.211
101290.077
101289.938
101289.794
101289.645
101289.493
101289.338
101289.181
101289.025
101288.872
101288.724
101288.584
101288.458
101288.351
101288.268
101288.217
101288.207
101288.248
101288.354
101288.537
101288.813
101289.201
101289.719
101290.388
101291.228
101292.259
101293.499
101294.963
101296.657
101298.581
101300.722
101303.054
101305.537
101308.113
101310.711
101313.251
101315.649
101317.828
101319.724
101321.296
101322.532
101323.448
101324.085
101324.497
101324.743
101324.879
101324.948
101324.98
101324.993
101324.998
101325
101325
101325
101325
101325
101325
101325
101325
101325
101325
101325
101325
101325
101325
101325
101325
101325
101325
101325
101325
101325
101325
101325
101325
)
;

boundaryField
{
    closed
    {
        type            zeroGradient;
    }
    open
    {
        type            waveTransmissive;
        gamma           1.25;
        fieldInf        101325;
        lInf            1;
        value           uniform 101325;
    }
    sides
    {
        type            empty;
    }
}


// ************************************************************************* //
