/*--------------------------------*- C++ -*----------------------------------*\
| =========                 |                                                 |
| \\      /  F ield         | OpenFOAM: The Open Source CFD Toolbox           |
|  \\    /   O peration     | Version:  2206                                  |
|   \\  /    A nd           | Website:  www.openfoam.com                      |
|    \\/     M anipulation  |                                                 |
\*---------------------------------------------------------------------------*/
FoamFile
{
    version     2.0;
    format      ascii;
    arch        "LSB;label=32;scalar=64";
    class       surfaceScalarField;
    location    "9.8e-06";
    object      phi;
}
// * * * * * * * * * * * * * * * * * * * * * * * * * * * * * * * * * * * * * //

dimensions      [1 0 -1 0 0 0 0];

oriented        oriented;

internalField   nonuniform List<scalar> 
3182
(
3.47802113e-18
-3.0658238e-18
5.10315717e-19
-1.34757607e-18
-1.70594078e-21
-1.42467765e-23
-1.03965022e-24
-2.34838231e-29
6.15816551e-25
1.59455804e-23
6.55221762e-22
1.50499067e-18
3.5681965e-18
-1.69956649e-18
1.65136598e-18
-7.81179144e-19
-9.6948424e-19
-4.08519771e-18
-3.69328139e-18
4.61578992e-18
3.66262868e-20
3.95238181e-22
1.77497542e-21
1.33197466e-18
2.68150559e-18
1.8537086e-18
3.39281166e-18
7.31400779e-19
1.10159357e-18
-1.62097906e-19
-2.52647264e-18
-2.81433214e-18
-5.96085245e-18
-4.73991053e-18
-2.17083895e-18
-1.2649005e-19
-9.26960431e-19
-1.29411733e-18
-4.41768932e-19
-4.17869751e-19
-2.49009848e-18
-2.85363438e-18
-1.41365911e-18
-9.82986609e-19
-1.83561272e-18
-1.84738689e-18
-1.08903371e-18
-1.19998778e-18
-5.44931641e-19
-5.35051905e-19
1.51892623e-18
2.40884525e-18
3.3645037e-18
4.98980243e-18
5.64360597e-18
6.30947365e-18
8.03689138e-18
8.69077899e-18
1.02084182e-17
1.12951149e-17
1.28206158e-17
1.45417126e-17
1.5174004e-17
1.56203893e-17
1.61086828e-17
1.63200379e-17
1.696895e-17
1.69728251e-17
1.52458233e-17
1.38992216e-17
1.34833326e-17
1.18606762e-17
1.13634411e-17
9.9787004e-18
8.66844436e-18
7.81286129e-18
6.89883794e-18
6.99049426e-18
4.91254334e-18
3.73148584e-18
3.66298069e-18
4.11625116e-18
1.58218119e-18
1.44440202e-18
-5.04174345e-19
-3.33582227e-19
-1.63161554e-18
-4.3160319e-18
-5.60241302e-18
-5.98010255e-18
-7.46831952e-18
-1.00096046e-17
-1.11719521e-17
-1.11535307e-17
-1.28916636e-17
-1.46407904e-17
-1.68621635e-17
-1.47565145e-17
-1.62945646e-17
-1.16582829e-17
-1.30027004e-17
-1.52195643e-17
-1.28941283e-17
-1.4074243e-17
-1.58129841e-17
-1.68961664e-17
-1.64898769e-17
-1.46661208e-17
-1.48609736e-17
-1.43500909e-17
-1.62240068e-17
-1.49487316e-17
-1.53097169e-17
-1.534636e-17
-1.32688587e-17
-1.71601649e-17
-1.45372866e-17
-1.64075142e-17
-1.71064633e-17
-1.97669548e-17
-2.3925676e-17
-2.25956724e-17
-2.22586726e-17
-2.16504306e-17
-2.23507429e-17
-2.48801683e-17
-2.57315788e-17
-2.39456107e-17
-2.52496895e-17
-2.63550996e-17
-2.48845099e-17
-2.37324972e-17
-2.35893163e-17
-2.30212582e-17
-2.31066015e-17
-2.52326994e-17
-2.513617e-17
-2.6907136e-17
-2.23313953e-17
-2.3732424e-17
-2.72896714e-17
-2.82500916e-17
-2.6423999e-17
-2.96384282e-17
-3.01744469e-17
-3.10979771e-17
-3.40022147e-17
-3.18580706e-17
-3.37934903e-17
-3.20786759e-17
-3.34275697e-17
-3.58556462e-17
-3.33777395e-17
-2.97373953e-17
-3.33706416e-17
-3.41813222e-17
-3.64123399e-17
-3.57603694e-17
-3.68885104e-17
-3.654035e-17
-3.56884427e-17
-3.25815828e-17
-3.42793839e-17
-3.63327395e-17
-3.39354358e-17
-3.33928088e-17
-3.35624397e-17
-3.57565115e-17
-3.81041863e-17
-4.18101555e-17
-3.9128283e-17
-4.01370227e-17
-3.75312646e-17
-3.73626311e-17
-3.68477132e-17
-4.04380365e-17
-4.18725383e-17
-4.04045664e-17
-3.80963928e-17
-4.19646732e-17
-4.50438602e-17
-4.37520247e-17
-4.2953769e-17
-4.52213241e-17
-4.50458992e-17
-4.61187659e-17
-4.99481008e-17
-4.63506414e-17
-4.86943178e-17
-4.88277572e-17
-4.91638646e-17
-5.05035059e-17
-5.12168444e-17
-4.97804981e-17
-4.9619274e-17
-4.84945724e-17
-5.05670742e-17
-4.90780479e-17
-5.29751774e-17
-5.28512121e-17
-5.27299776e-17
-5.36649157e-17
-5.24865589e-17
-5.23509567e-17
-5.35813294e-17
-5.56843933e-17
-5.90054612e-17
-6.02787108e-17
-6.04873825e-17
-6.20167455e-17
-5.86130193e-17
-5.92248113e-17
-5.98122768e-17
-5.63624051e-17
-5.67451051e-17
-5.69713327e-17
-5.61183718e-17
-5.70129621e-17
-6.16637571e-17
-5.94679837e-17
-5.76795819e-17
-5.92506416e-17
-5.88965786e-17
-5.74305582e-17
-5.93939762e-17
-6.16400091e-17
-6.18540804e-17
-6.03778425e-17
-5.83081917e-17
-5.83186191e-17
-6.01025752e-17
-6.11493344e-17
-6.06792944e-17
-6.37639433e-17
-6.22802968e-17
-6.30516544e-17
-6.05228092e-17
-6.15323728e-17
-6.45339699e-17
-6.60995276e-17
-6.75537919e-17
-7.02315652e-17
-7.119244e-17
-6.85779488e-17
-6.8997243e-17
-6.93690842e-17
-6.87383299e-17
-6.94390968e-17
-7.03751944e-17
-6.84994402e-17
-6.45138607e-17
-6.49873049e-17
-6.51195678e-17
-6.36364859e-17
-6.03219898e-17
-6.43142158e-17
-6.4639912e-17
-6.36150557e-17
-6.6738221e-17
-6.2644884e-17
-6.46179881e-17
-6.44356373e-17
-6.78838527e-17
-6.71177156e-17
-6.4406546e-17
-6.92516204e-17
-7.03068296e-17
-7.20094609e-17
-7.55549479e-17
-7.64443726e-17
-7.66097008e-17
-7.42970993e-17
-7.4670836e-17
-7.67434446e-17
-7.86557593e-17
-7.94897612e-17
-7.90448664e-17
-7.96672782e-17
-8.21852667e-17
-8.12183655e-17
-8.38226246e-17
-8.50342084e-17
-8.51131163e-17
-8.39558352e-17
-8.33183721e-17
-8.33807883e-17
-8.40738524e-17
-8.30381932e-17
-8.43588306e-17
-8.64852329e-17
-8.57664978e-17
-8.49979172e-17
-8.59968907e-17
-8.70644833e-17
-8.62649516e-17
-8.93379568e-17
-9.02711658e-17
-8.81308793e-17
-9.01416209e-17
-9.27518597e-17
-9.17010517e-17
-9.32735241e-17
-9.34455227e-17
-8.95225341e-17
-9.16090177e-17
-9.07000307e-17
-9.00545458e-17
-9.24368839e-17
-9.35437653e-17
-9.49088134e-17
-9.49064764e-17
-9.10912573e-17
-9.45108141e-17
-9.13840797e-17
-9.41566156e-17
-9.54439546e-17
-9.67511822e-17
-9.95039316e-17
-9.80439162e-17
-9.84469967e-17
-9.77879315e-17
-9.85894009e-17
-1.00485872e-16
-9.79830435e-17
-9.95626118e-17
-9.85317879e-17
-9.6640051e-17
-9.70821183e-17
-9.48145267e-17
-9.38935774e-17
-9.27330427e-17
-9.03462705e-17
-9.0777454e-17
-8.90659484e-17
-8.67917095e-17
-8.81425334e-17
-9.09764373e-17
-8.72241006e-17
-8.70915976e-17
-8.41321853e-17
-8.5836245e-17
-8.87875728e-17
-8.73494269e-17
-8.73771499e-17
-8.62754961e-17
-8.5626313e-17
-8.69769838e-17
-8.56194389e-17
-8.81171471e-17
-8.7118385e-17
-8.79900886e-17
-8.92060864e-17
-8.8776695e-17
-8.93311898e-17
-9.09783046e-17
-9.12986173e-17
-8.76039432e-17
-8.69849752e-17
-8.85463681e-17
-8.88804253e-17
-8.5014232e-17
-8.57071483e-17
-8.72059061e-17
-8.37435362e-17
-8.15818498e-17
-8.30120012e-17
-8.05957282e-17
-8.57186665e-17
-8.34080259e-17
-8.43231137e-17
-8.33552681e-17
-8.27066194e-17
-8.45039775e-17
-8.411009e-17
-8.57844798e-17
-8.67247768e-17
-8.80321658e-17
-8.76869031e-17
-8.80842186e-17
-8.85308731e-17
-8.88132415e-17
-8.48022496e-17
-8.3956211e-17
-8.38591661e-17
-8.07305348e-17
-7.94921077e-17
-7.7935913e-17
-7.762969e-17
-7.73742862e-17
-7.53662404e-17
-7.72942345e-17
-7.3842111e-17
-6.85236897e-17
-7.12828012e-17
-7.1609384e-17
-7.05237691e-17
-6.9380472e-17
-6.92352285e-17
-7.08330632e-17
-6.92153436e-17
-6.77897648e-17
-6.71527086e-17
-6.32429913e-17
-6.40656036e-17
-6.42734406e-17
-6.71790968e-17
-6.51250438e-17
-6.48765074e-17
-6.59091665e-17
-6.30117113e-17
-6.05085173e-17
-6.1889325e-17
-6.19048595e-17
-6.16926288e-17
-5.9513544e-17
-5.6929662e-17
-5.49237632e-17
-5.64727025e-17
-5.6826889e-17
-5.59886759e-17
-5.69678429e-17
-5.98437406e-17
-5.70525331e-17
-5.72707129e-17
-5.75388241e-17
-5.72846223e-17
-5.69613412e-17
-5.24990497e-17
-5.48829371e-17
-5.48386834e-17
-5.51905509e-17
-5.57403529e-17
-5.4698399e-17
-5.47453944e-17
-5.67497923e-17
-5.24818143e-17
-5.18646255e-17
-5.06488001e-17
-4.94649109e-17
-4.71174563e-17
-4.54810486e-17
-4.57521486e-17
-4.62961351e-17
-4.42834323e-17
-4.2275609e-17
-4.29110495e-17
-4.2496923e-17
-4.37564356e-17
-4.66077644e-17
-4.68977083e-17
-4.60148391e-17
-4.54600345e-17
-4.28344248e-17
-4.26398802e-17
-4.06566423e-17
-3.98662814e-17
-3.93982104e-17
-3.85472075e-17
-3.98592961e-17
-4.21948464e-17
-3.93636974e-17
-3.8496367e-17
-3.73922512e-17
-3.4077965e-17
-3.54559465e-17
-3.18948726e-17
-3.19994491e-17
-2.99266484e-17
-3.32408874e-17
-3.27770887e-17
-3.26512995e-17
-2.91968369e-17
-3.3271812e-17
-3.16296624e-17
-2.99828748e-17
-3.1635537e-17
-3.37506231e-17
-3.31958322e-17
-3.32406461e-17
-3.42071979e-17
-2.99147222e-17
-3.09940391e-17
-2.77298627e-17
-2.74988969e-17
-2.78411541e-17
-2.90434518e-17
-3.04327301e-17
-3.25431931e-17
-3.21667261e-17
-3.47057059e-17
-3.26965464e-17
-3.53981914e-17
-3.53141533e-17
-3.67306764e-17
-3.53331571e-17
-3.67647467e-17
-3.65923318e-17
-3.40438567e-17
-3.4127237e-17
-3.31333019e-17
-2.9246185e-17
-3.24247448e-17
-3.38396725e-17
-3.5784115e-17
-3.12576783e-17
-2.99327655e-17
-3.22714923e-17
-2.972154e-17
-2.82214484e-17
-2.12804472e-17
-2.14611744e-17
-1.83527756e-17
-1.59467317e-17
-1.76060899e-17
-1.40940609e-17
-1.75482951e-17
-1.33748132e-17
-1.22147504e-17
-1.15305657e-17
-1.27875164e-17
-1.05356308e-17
-1.13988686e-17
-1.24844848e-17
-1.25005664e-17
-1.21197727e-17
-1.03253232e-17
-1.08743671e-17
-1.09116696e-17
-1.30229928e-17
-1.11664833e-17
-1.32741903e-17
-1.33651215e-17
-1.25966531e-17
-1.28460795e-17
-8.33834408e-18
-9.22880166e-18
-9.48968861e-18
-8.28386872e-18
-7.82276872e-18
-8.48806638e-18
-1.04320238e-17
-6.73191573e-18
-5.13884868e-18
-5.83591246e-18
-3.85739239e-18
-4.25008946e-18
-4.76058184e-18
-8.05746426e-18
-5.14995761e-18
-6.11020383e-18
-3.12278173e-18
-2.37843341e-18
-1.51333717e-18
-1.93738966e-18
1.1612169e-18
8.42413264e-19
2.8932169e-18
-8.69267731e-19
9.43012425e-19
9.58391942e-19
8.50136914e-19
9.19593178e-19
3.58212074e-18
4.5913513e-18
9.58248221e-19
2.91367193e-18
3.94133957e-18
4.48555432e-18
4.8171666e-18
9.06720358e-18
6.54836311e-18
6.69988034e-18
7.32760167e-18
9.28971328e-18
9.89757944e-18
1.26677776e-17
1.21405608e-17
8.13704489e-18
1.06231342e-17
8.90901415e-18
1.15759874e-17
9.98634327e-18
1.28056708e-17
1.07162188e-17
1.46552808e-17
1.39602123e-17
1.39470118e-17
1.33842243e-17
1.04100121e-17
1.19916182e-17
1.05776917e-17
1.10801214e-17
1.05268254e-17
7.23974452e-18
8.1621915e-18
9.78530446e-18
1.27405253e-17
1.60664851e-17
1.90572115e-17
1.66851848e-17
2.04619199e-17
2.08451033e-17
1.79447313e-17
1.87321626e-17
1.83016358e-17
1.77908416e-17
1.70225658e-17
1.58653672e-17
1.79320674e-17
1.85676369e-17
1.74763195e-17
2.06403956e-17
1.8924842e-17
2.14768745e-17
2.35526661e-17
2.22453181e-17
2.29376079e-17
2.37662214e-17
2.3586949e-17
2.40016588e-17
2.25495213e-17
2.49928761e-17
2.34005654e-17
2.26328266e-17
2.49277127e-17
2.54412162e-17
3.08516616e-17
2.79504951e-17
2.92947579e-17
2.90076073e-17
2.65591998e-17
3.05104731e-17
3.10380963e-17
3.16301538e-17
3.30193927e-17
3.36047696e-17
3.0059303e-17
3.19744517e-17
3.28485907e-17
3.40936937e-17
3.58504875e-17
3.60237567e-17
3.63184635e-17
3.43442274e-17
3.50313078e-17
3.56020291e-17
3.47005475e-17
3.74032196e-17
3.77811836e-17
3.5433738e-17
3.64341877e-17
3.33048104e-17
3.68616641e-17
3.63395626e-17
3.91466045e-17
3.90979356e-17
3.61277206e-17
3.67349795e-17
3.54410346e-17
3.87579537e-17
3.76521579e-17
3.92924292e-17
4.08838211e-17
3.729267e-17
3.68923787e-17
3.95164563e-17
3.93041921e-17
4.20531663e-17
3.94670113e-17
3.76509904e-17
3.62807288e-17
3.75140149e-17
3.92723389e-17
3.63128513e-17
3.60484682e-17
3.63975468e-17
3.92958416e-17
4.08775484e-17
3.81231605e-17
3.86666105e-17
3.94795296e-17
3.78678389e-17
3.73751715e-17
3.74584503e-17
3.86997114e-17
3.747084e-17
3.82869015e-17
3.93365468e-17
4.08517964e-17
4.14025985e-17
3.881518e-17
3.61208906e-17
3.47964253e-17
3.455761e-17
3.1996748e-17
2.81276847e-17
3.02938974e-17
3.05747752e-17
3.25909721e-17
3.36463374e-17
3.22196316e-17
3.38342051e-17
3.31141293e-17
3.39442153e-17
3.59880701e-17
3.7070648e-17
3.68138509e-17
3.39957394e-17
3.09320869e-17
3.11116474e-17
3.17210016e-17
3.24961474e-17
3.00234271e-17
3.46318657e-17
3.33040671e-17
3.80176604e-17
3.6902121e-17
3.30223398e-17
3.35102624e-17
3.52859344e-17
3.56688468e-17
3.69709903e-17
3.35474115e-17
3.56943305e-17
3.20349195e-17
3.27963048e-17
3.4733123e-17
3.56692261e-17
3.31936798e-17
3.67846017e-17
3.61793163e-17
3.68107457e-17
3.76422191e-17
3.79397097e-17
3.73941769e-17
3.75963445e-17
3.88891799e-17
3.76610212e-17
3.77075628e-17
3.47447005e-17
3.19134364e-17
2.83833209e-17
2.75740526e-17
2.70953676e-17
2.89198253e-17
3.09534848e-17
3.01417393e-17
2.99005719e-17
2.88210816e-17
2.84566702e-17
2.82984766e-17
3.037707e-17
3.26785208e-17
3.18794635e-17
3.04702544e-17
3.00424022e-17
2.93335969e-17
2.87684007e-17
2.54665738e-17
2.63083213e-17
2.90120881e-17
2.97310195e-17
3.13228633e-17
3.44152433e-17
3.49084693e-17
3.4312711e-17
3.4807785e-17
3.60822701e-17
3.2785575e-17
3.21368533e-17
3.26434506e-17
3.27158131e-17
3.5010966e-17
3.1702821e-17
3.49289127e-17
3.45819065e-17
3.34115126e-17
3.40836799e-17
3.24711516e-17
3.13503513e-17
3.18181661e-17
3.52497906e-17
3.4684035e-17
3.54069926e-17
3.21484718e-17
3.51609382e-17
3.23064379e-17
3.33148878e-17
3.36273262e-17
3.28949163e-17
3.59052554e-17
3.36547974e-17
3.03319569e-17
3.13949499e-17
3.3545717e-17
3.59130813e-17
3.31639454e-17
3.44876864e-17
3.36246266e-17
3.012617e-17
2.96154647e-17
2.9433476e-17
2.82522383e-17
3.27872548e-17
3.36697153e-17
3.73004562e-17
3.47273128e-17
3.16584536e-17
3.0306355e-17
2.65086663e-17
2.60916695e-17
2.86051483e-17
3.13077612e-17
3.52214146e-17
3.2201323e-17
3.15278686e-17
3.28917383e-17
2.87493873e-17
3.43508622e-17
3.38026267e-17
3.40059348e-17
3.54184846e-17
3.24953828e-17
3.4538541e-17
3.48746225e-17
3.6890757e-17
3.45144496e-17
3.71640394e-17
3.52103075e-17
3.88656889e-17
3.72831225e-17
3.87800442e-17
3.86900151e-17
4.09678678e-17
3.81558973e-17
4.02591559e-17
4.24447706e-17
4.12877903e-17
4.15240163e-17
3.95730625e-17
3.66776423e-17
3.53551201e-17
3.90565701e-17
3.80332797e-17
3.85501293e-17
3.79568169e-17
3.74387593e-17
3.79621897e-17
3.44207555e-17
3.75283403e-17
3.59906569e-17
3.69226549e-17
3.74485265e-17
4.01896456e-17
3.90194173e-17
4.07071078e-17
3.97437973e-17
3.97976317e-17
4.11208038e-17
4.21469779e-17
4.04944348e-17
4.42056856e-17
4.59222878e-17
4.71505693e-17
4.6627754e-17
4.1150291e-17
4.35297521e-17
4.14085563e-17
4.24004101e-17
4.33606027e-17
4.18448634e-17
4.12243924e-17
4.17743997e-17
4.46423874e-17
4.33358693e-17
4.499563e-17
4.30478262e-17
4.30279605e-17
4.29230281e-17
4.43404223e-17
4.34243988e-17
4.38040468e-17
4.40755594e-17
4.50282115e-17
4.29074042e-17
4.04352437e-17
4.18008809e-17
3.96899487e-17
4.01108212e-17
4.38447529e-17
4.30532048e-17
4.53112784e-17
4.6940101e-17
4.48979463e-17
4.23740189e-17
4.38726826e-17
4.65897519e-17
4.71253844e-17
4.50653954e-17
4.621404e-17
4.2404327e-17
4.21047006e-17
4.41657908e-17
4.67684839e-17
4.31300739e-17
4.49133153e-17
4.67242269e-17
4.36440434e-17
4.22955108e-17
4.18264146e-17
4.17448733e-17
3.95781759e-17
4.24063698e-17
4.5049229e-17
4.22793307e-17
4.29378835e-17
4.12383431e-17
4.33245895e-17
4.55970763e-17
4.94804138e-17
4.70799148e-17
5.15591069e-17
4.94412549e-17
4.78784777e-17
4.92378776e-17
4.88829832e-17
5.15318632e-17
5.14529528e-17
5.33283898e-17
5.28004723e-17
5.31187672e-17
5.37602751e-17
5.65962446e-17
5.52256958e-17
5.50084706e-17
5.48263318e-17
5.70886959e-17
5.68266967e-17
5.84522453e-17
5.9289667e-17
5.79563875e-17
5.84955221e-17
5.49820461e-17
5.44840864e-17
5.80776822e-17
6.20958969e-17
6.1891511e-17
5.81797953e-17
5.84295557e-17
5.81277633e-17
5.81091349e-17
5.48883475e-17
5.193754e-17
5.68391044e-17
5.85962605e-17
5.91681907e-17
5.83917623e-17
5.75931603e-17
6.03220522e-17
6.09498341e-17
6.18912238e-17
6.28057738e-17
6.04818414e-17
6.03439518e-17
5.89700373e-17
6.32323912e-17
6.47615255e-17
6.37452985e-17
6.53549067e-17
6.586148e-17
6.55843013e-17
6.67796741e-17
6.36888621e-17
6.50648747e-17
6.7482339e-17
6.83513619e-17
6.28463949e-17
6.20318427e-17
6.37687933e-17
6.03310833e-17
6.15063234e-17
6.00428205e-17
5.84092761e-17
5.89070068e-17
6.04647913e-17
5.73840232e-17
5.65856134e-17
5.65370211e-17
5.6375249e-17
5.44080341e-17
5.51137442e-17
5.45965022e-17
5.42336084e-17
5.14766945e-17
5.30042698e-17
5.46201882e-17
5.2142914e-17
5.1435364e-17
5.339807e-17
5.33532916e-17
5.59450769e-17
4.92711746e-17
4.88064381e-17
5.16485103e-17
4.80833428e-17
4.9042511e-17
4.81302182e-17
4.42456491e-17
4.34442881e-17
4.34415762e-17
3.99631279e-17
4.28986124e-17
4.03757551e-17
3.7655859e-17
3.77859639e-17
3.64835057e-17
3.56451431e-17
3.27635861e-17
2.95435603e-17
3.04782082e-17
2.89083531e-17
3.20801823e-17
2.87022428e-17
2.88673065e-17
2.8209558e-17
2.45953487e-17
2.38122362e-17
2.07022005e-17
2.12859701e-17
2.02641972e-17
1.75332153e-17
1.60623154e-17
1.72800204e-17
1.94485703e-17
1.77080023e-17
1.71217989e-17
1.44712104e-17
1.29863544e-17
1.24802932e-17
1.29345649e-17
1.3283858e-17
1.47304964e-17
1.17379711e-17
9.01891367e-18
1.22616481e-17
1.17779871e-17
1.26268098e-17
1.2192643e-17
1.08501661e-17
9.3377986e-18
8.10711954e-18
6.24088251e-18
7.35569737e-18
1.06445973e-17
1.00791577e-17
1.28374966e-17
1.42481628e-17
1.35336267e-17
1.3669611e-17
1.54266691e-17
1.46616687e-17
1.38216955e-17
1.5507709e-17
1.25829447e-17
1.39337809e-17
1.09928588e-17
1.12285759e-17
1.12884036e-17
8.72464489e-18
9.63138865e-18
1.14082144e-17
9.24528096e-18
1.00097608e-17
9.50140484e-18
7.47249795e-18
7.09559197e-18
5.86604707e-18
2.01496172e-18
6.00748228e-18
6.61969879e-18
7.03650253e-18
5.29971765e-18
4.55817186e-18
5.82972394e-18
1.08546793e-18
1.06976121e-18
3.20326244e-18
-2.54675498e-18
-2.67473375e-18
-6.60729325e-19
1.92792395e-19
-9.93707072e-19
-3.70846656e-18
-2.73794484e-18
-8.28478582e-18
-1.04534004e-17
-8.0589885e-18
-1.02803953e-17
-8.34901386e-18
-1.0036024e-17
-8.94247906e-18
-8.5426826e-18
-9.91395792e-18
-7.06509406e-18
-9.36350055e-18
-6.32114971e-18
-6.83124855e-18
-6.40313984e-18
-7.35464591e-18
-7.17319609e-18
-8.93760766e-18
-1.18964434e-17
-9.44515018e-18
-1.2906295e-17
-1.03090248e-17
-1.43678806e-17
-1.19800908e-17
-1.36580177e-17
-1.38901591e-17
-1.33522134e-17
-1.5932364e-17
-1.86053595e-17
-2.01437459e-17
-1.96992599e-17
-1.98600983e-17
-2.12604707e-17
-2.26541808e-17
-2.39971399e-17
-2.61201939e-17
-2.37884653e-17
-2.55900292e-17
-2.61383828e-17
-2.60917063e-17
-2.70844519e-17
-2.86642802e-17
-3.26874209e-17
-2.84274787e-17
-3.03056076e-17
-2.65779125e-17
-2.83105166e-17
-2.72111816e-17
-2.69377382e-17
-2.53693706e-17
-2.27924428e-17
-2.44011905e-17
-2.49409018e-17
-2.40074007e-17
-2.00594494e-17
-1.73178327e-17
-1.54691654e-17
-1.44337862e-17
-1.42544549e-17
-1.44546645e-17
-1.19092564e-17
-1.04733368e-17
-1.3522287e-17
-1.09321583e-17
-1.52622777e-17
-1.33641914e-17
-1.4273029e-17
-2.01317446e-17
-2.05996498e-17
-2.06887275e-17
-1.96826085e-17
-2.07107168e-17
-2.14361087e-17
-2.15520953e-17
-2.5333662e-17
-2.40419931e-17
-2.30379152e-17
-2.28247421e-17
-2.60887315e-17
-2.84612077e-17
-2.98228772e-17
-2.69568231e-17
-3.06707586e-17
-3.07844057e-17
-2.55935605e-17
-2.90450497e-17
-2.84334315e-17
-2.89087485e-17
-3.0260922e-17
-3.58850436e-17
-3.5577155e-17
-3.59796124e-17
-3.22074006e-17
-3.0701758e-17
-3.31088047e-17
-3.26949765e-17
-3.46072388e-17
-3.48587507e-17
-3.71263192e-17
-3.9380929e-17
-3.2549794e-17
-3.25697455e-17
-3.27420378e-17
-3.23727175e-17
-3.17194755e-17
-3.09487545e-17
-3.39221939e-17
-3.3146192e-17
-3.9676357e-17
-3.60649304e-17
-4.35125502e-17
-4.33374375e-17
-4.07016045e-17
-3.96713678e-17
-4.42264519e-17
-4.18174248e-17
-4.31340417e-17
-4.05857608e-17
-4.02169639e-17
-4.3121839e-17
-4.0353413e-17
-3.69349368e-17
-3.63711998e-17
-3.91094872e-17
-3.93400625e-17
-4.28485063e-17
-3.93828944e-17
-4.02101839e-17
-4.10472631e-17
-4.00381401e-17
-3.76157517e-17
-4.09840561e-17
-4.081791e-17
-4.08026963e-17
-4.18370167e-17
-4.28910745e-17
-4.44964903e-17
-4.10403617e-17
-4.12139873e-17
-3.9129527e-17
-3.96752652e-17
-3.91259884e-17
-3.66867439e-17
-3.7826839e-17
-3.72181825e-17
-3.8412684e-17
-3.81832778e-17
-3.87341123e-17
-3.70519501e-17
-3.66877186e-17
-3.5523414e-17
-3.56130651e-17
-3.88553396e-17
-3.88520738e-17
-3.77669493e-17
-3.82184552e-17
-3.57207704e-17
-3.9802695e-17
-3.5191342e-17
-3.47524279e-17
-3.29958552e-17
-3.42037219e-17
-3.49576067e-17
-3.66138852e-17
-3.67933576e-17
-3.74268924e-17
-3.83964252e-17
-3.81630187e-17
-3.65377749e-17
-3.72717236e-17
-3.79646367e-17
-4.15562334e-17
-4.30851022e-17
-4.32368816e-17
-4.54483814e-17
-4.53676149e-17
-4.51358728e-17
-4.79537251e-17
-4.76881956e-17
-4.70699663e-17
-4.72258468e-17
-4.88753516e-17
-5.04310301e-17
-4.88423139e-17
-5.20076859e-17
-5.12013528e-17
-5.09352287e-17
-5.20304856e-17
-5.00880197e-17
-5.11056372e-17
-5.28502626e-17
-5.2494622e-17
-5.23014755e-17
-5.25983848e-17
-5.38893045e-17
-5.28188811e-17
-5.14692079e-17
-5.0683869e-17
-5.33608224e-17
-4.96368112e-17
-5.00894465e-17
-5.17763861e-17
-5.36994871e-17
-5.82720656e-17
-5.60093483e-17
-5.8150452e-17
-5.87766239e-17
-5.91038288e-17
-6.01391087e-17
-5.89315183e-17
-5.88557597e-17
-5.93301831e-17
-5.6997353e-17
-5.71628637e-17
-5.74413017e-17
-5.48685637e-17
-5.58563074e-17
-5.55609371e-17
-5.78183223e-17
-6.04204308e-17
-6.08838094e-17
-5.60612435e-17
-5.71667506e-17
-5.58136984e-17
-5.56578129e-17
-5.38887939e-17
-5.47419639e-17
-5.24129485e-17
-5.35535191e-17
-5.11308567e-17
-4.99653903e-17
-5.44563726e-17
-5.36862965e-17
-5.39110176e-17
-5.23472055e-17
-5.46654839e-17
-4.90113683e-17
-5.00749145e-17
-5.01174918e-17
-4.99178574e-17
-4.87982176e-17
-4.65595447e-17
-4.7167381e-17
-4.09599221e-17
-4.42357668e-17
-4.25708221e-17
-4.76091314e-17
-4.46231242e-17
-4.11900546e-17
-4.14621042e-17
-4.00296817e-17
-3.74782001e-17
-3.80530094e-17
-3.55420431e-17
-3.541752e-17
-3.52851064e-17
-3.59382053e-17
-3.81041208e-17
-3.47941865e-17
-3.42904868e-17
-3.31665113e-17
-3.49568416e-17
-3.89346064e-17
-3.90564865e-17
-3.61137532e-17
-3.64668618e-17
-3.48488353e-17
-3.74406311e-17
-3.59219918e-17
-3.57987451e-17
-3.50336805e-17
-3.73723211e-17
-3.6270046e-17
-3.78678852e-17
-3.6016354e-17
-3.48358896e-17
-3.58909821e-17
-3.07771885e-17
-3.25137329e-17
-3.01117546e-17
-2.94712397e-17
-2.70178651e-17
-3.16186119e-17
-3.0332385e-17
-2.94395016e-17
-3.07452705e-17
-3.27493196e-17
-3.14149105e-17
-3.14334459e-17
-3.32979558e-17
-3.4339992e-17
-3.43959666e-17
-3.47289732e-17
-3.48271834e-17
-3.32059068e-17
-3.53910408e-17
-3.3327779e-17
-3.13528002e-17
-3.00367053e-17
-3.19249974e-17
-2.99672255e-17
-3.01976612e-17
-3.4805433e-17
-3.46611515e-17
-3.70749544e-17
-3.71556016e-17
-3.9630831e-17
-3.92740981e-17
-3.78436464e-17
-4.00328004e-17
-4.01182099e-17
-3.78455546e-17
-4.05478751e-17
-3.84217605e-17
-3.79698639e-17
-4.02558801e-17
-3.99222776e-17
-3.97498884e-17
-4.17818159e-17
-3.84346627e-17
-4.0149743e-17
-3.83709099e-17
-3.75844401e-17
-3.87475101e-17
-3.78774475e-17
-3.95041206e-17
-4.04701824e-17
-4.14988922e-17
-4.33160673e-17
-4.42868334e-17
-4.31288366e-17
-4.06504934e-17
-4.13390809e-17
-4.07652705e-17
-4.21039354e-17
-4.52316724e-17
-4.5766088e-17
-4.89667544e-17
-4.89977562e-17
-4.95373884e-17
-5.16378527e-17
-5.08812939e-17
-5.07455946e-17
-5.03209038e-17
-5.1570872e-17
-4.97042072e-17
-4.76107137e-17
-4.81532404e-17
-4.85946787e-17
-4.58210858e-17
-4.61317337e-17
-4.70716141e-17
-4.84428926e-17
-4.74579781e-17
-4.85815047e-17
-4.82568272e-17
-4.46891758e-17
-4.56541304e-17
-4.86923464e-17
-4.92576682e-17
-5.09280362e-17
-5.17391203e-17
-5.1167541e-17
-5.27830007e-17
-5.19114768e-17
-5.28642581e-17
-5.48754245e-17
-5.23903099e-17
-5.11241817e-17
-4.97220925e-17
-4.46082377e-17
-4.48437188e-17
-4.6045466e-17
-4.39944837e-17
-4.44520583e-17
-4.60480357e-17
-4.57684674e-17
-4.3411448e-17
-4.40901683e-17
-4.59753509e-17
-4.78642995e-17
-5.06849646e-17
-5.02315462e-17
-5.00248416e-17
-4.92182807e-17
-4.76242665e-17
-4.78956795e-17
-4.5305258e-17
-4.44864816e-17
-4.48370084e-17
-4.45940465e-17
-4.55519746e-17
-4.6520178e-17
-5.13387726e-17
-5.14864209e-17
-5.12720349e-17
-5.12135997e-17
-4.9152096e-17
-4.7876593e-17
-4.71780681e-17
-4.64887029e-17
-4.52392357e-17
-4.69154295e-17
-4.61067084e-17
-4.49481557e-17
-4.27876053e-17
-4.18876709e-17
-4.07886514e-17
-4.52178763e-17
-4.16915095e-17
-4.21424833e-17
-4.017746e-17
-4.2188188e-17
-3.67611593e-17
-3.97368736e-17
-3.95695172e-17
-4.37777205e-17
-4.11392279e-17
-3.92034525e-17
-3.75057931e-17
-3.67567382e-17
-3.88404951e-17
-3.4850228e-17
-3.4308078e-17
-3.37180527e-17
-3.53134399e-17
-3.46481548e-17
-3.42413247e-17
-3.36440586e-17
-3.29909005e-17
-3.19562418e-17
-3.16381765e-17
-3.13778026e-17
-3.30966942e-17
-3.31686445e-17
-3.00152769e-17
-2.87412913e-17
-2.86961702e-17
-2.6868811e-17
-2.42734713e-17
-2.54523714e-17
-2.62243682e-17
-2.8376296e-17
-2.67807087e-17
-2.51051899e-17
-2.5306175e-17
-2.57087314e-17
-2.48062711e-17
-2.15686598e-17
-2.18293028e-17
-1.86229932e-17
-1.763909e-17
-2.1673188e-17
-1.81172881e-17
-2.15360641e-17
-1.82665926e-17
-1.75207019e-17
-1.65119714e-17
-1.65989684e-17
-1.56062099e-17
-1.20542832e-17
-1.2450895e-17
-1.28022187e-17
-1.19603156e-17
-1.30079609e-17
-1.41267283e-17
-1.42965091e-17
-1.16653053e-17
-1.12824965e-17
-1.13805722e-17
-1.04715827e-17
-1.2701522e-17
-1.61231389e-17
-1.26548463e-17
-1.53554462e-17
-1.48624456e-17
-1.7840129e-17
-1.70930398e-17
-1.38650822e-17
-1.38744642e-17
-1.41776539e-17
-1.60882817e-17
-1.23675126e-17
-1.33929053e-17
-1.40063989e-17
-1.41043113e-17
-1.31652612e-17
-1.29081581e-17
-1.49407949e-17
-1.62891464e-17
-1.7008516e-17
-1.76251218e-17
-1.77340466e-17
-1.96090357e-17
-1.65089005e-17
-2.12598986e-17
-1.85827829e-17
-1.82168165e-17
-2.00345727e-17
-1.96442051e-17
-2.06836107e-17
-2.04908696e-17
-2.07636449e-17
-2.06822143e-17
-1.58316604e-17
-1.58619842e-17
-1.60409073e-17
-1.86837025e-17
-1.88136865e-17
-1.97571892e-17
-1.79725865e-17
-1.58632113e-17
-1.86314285e-17
-1.64773103e-17
-1.59042967e-17
-1.78162134e-17
-1.44074513e-17
-1.73452196e-17
-1.19911022e-17
-1.78433034e-17
-1.27616573e-17
-1.3953608e-17
-1.28348706e-17
-1.08652368e-17
-1.34636277e-17
-1.47320939e-17
-1.68333721e-17
-1.55488345e-17
-1.70782013e-17
-1.89287536e-17
-1.83831259e-17
-1.56840419e-17
-1.88480458e-17
-1.61830236e-17
-1.85204294e-17
-1.50867976e-17
-1.60825856e-17
-1.48169146e-17
-1.25073159e-17
-1.15797772e-17
-1.29788542e-17
-1.35246741e-17
-1.32604582e-17
-1.23789746e-17
-1.16843181e-17
-1.26047992e-17
-1.23122344e-17
-9.7850733e-18
-1.04948055e-17
-8.94932059e-18
-8.20174636e-18
-4.44530467e-18
-3.32846876e-18
-1.69212926e-19
1.45729559e-18
2.50201751e-18
-3.14326288e-19
-1.0384343e-18
2.10238404e-18
1.93096441e-18
4.34996063e-18
4.56643834e-18
6.74574781e-18
5.40867688e-18
5.29723441e-18
4.3829078e-18
5.93201316e-18
6.3412813e-18
8.09192552e-18
7.73692654e-18
1.09138446e-17
1.02344285e-17
8.36432654e-18
8.9781612e-18
1.03413484e-17
1.11618092e-17
1.22770387e-17
1.47700581e-17
1.71487037e-17
1.62364964e-17
1.66278928e-17
1.91649394e-17
1.94606248e-17
2.03282704e-17
2.14878302e-17
2.10106885e-17
1.79259098e-17
1.77397169e-17
1.86030612e-17
1.82727361e-17
1.86742891e-17
1.9994332e-17
1.80083915e-17
1.9498102e-17
1.77822526e-17
1.82891863e-17
1.90126374e-17
1.56988133e-17
2.05546585e-17
1.80685807e-17
2.10286565e-17
2.09233409e-17
2.08080649e-17
1.98923138e-17
2.25071252e-17
2.54644457e-17
2.38131959e-17
2.56134213e-17
2.71454471e-17
2.70389946e-17
2.86086582e-17
3.06685711e-17
3.15251792e-17
2.9706439e-17
3.08420763e-17
3.29013208e-17
3.35074365e-17
3.58189889e-17
3.78258962e-17
3.97788456e-17
4.28062949e-17
4.17047094e-17
3.83100852e-17
3.54119777e-17
3.52961914e-17
3.35239147e-17
3.57563829e-17
3.36069562e-17
3.4080412e-17
3.40677627e-17
3.48615675e-17
3.48204141e-17
3.57203342e-17
3.50003293e-17
3.7859099e-17
4.31036403e-17
4.09611739e-17
4.25415319e-17
4.0424513e-17
4.22962705e-17
4.07682073e-17
4.10884862e-17
4.39583e-17
4.39269249e-17
4.22304728e-17
4.23757417e-17
4.23520188e-17
4.36299159e-17
4.5605266e-17
4.95874995e-17
5.01098644e-17
4.86380353e-17
4.92203311e-17
4.91170306e-17
4.88837479e-17
4.88608835e-17
4.71323906e-17
4.64456801e-17
4.67009966e-17
4.26861448e-17
4.47445153e-17
4.88166398e-17
4.89337172e-17
5.03016076e-17
5.1507412e-17
5.19518682e-17
5.42920356e-17
5.92644526e-17
5.6472414e-17
6.06707635e-17
6.37389462e-17
6.0961075e-17
6.35177657e-17
6.3795352e-17
6.59138826e-17
6.36119011e-17
6.48314341e-17
6.60851685e-17
6.79611917e-17
7.33802315e-17
7.27177349e-17
7.82266136e-17
7.68718235e-17
7.68932578e-17
7.4746631e-17
7.37641986e-17
7.24493651e-17
6.98897193e-17
7.10906902e-17
7.33360994e-17
7.59944456e-17
7.65703496e-17
7.44610244e-17
7.29903767e-17
7.40478608e-17
7.22686058e-17
6.86379784e-17
7.18951281e-17
7.35404309e-17
7.20539114e-17
7.37953274e-17
7.50514326e-17
7.37846945e-17
7.46031429e-17
7.52821601e-17
7.41705487e-17
7.60749647e-17
7.53504241e-17
7.8088657e-17
7.84766631e-17
7.93430514e-17
8.03108877e-17
8.12423425e-17
7.97325502e-17
8.08265644e-17
8.02097288e-17
8.01970202e-17
7.91487451e-17
8.0542659e-17
7.64172061e-17
7.71060281e-17
7.42182374e-17
7.73105002e-17
7.82419114e-17
8.19896843e-17
8.4885537e-17
8.89542445e-17
8.87018154e-17
8.7899994e-17
8.8767633e-17
8.81033801e-17
8.5669171e-17
8.72577144e-17
8.98655157e-17
9.34286349e-17
9.45773766e-17
9.47374948e-17
9.37449551e-17
9.41160135e-17
9.52149512e-17
9.13947082e-17
9.02660951e-17
8.67834567e-17
9.01081273e-17
9.18239883e-17
9.24029269e-17
9.13667893e-17
8.91839036e-17
8.75186097e-17
9.24776447e-17
9.54751964e-17
9.06493254e-17
9.08604216e-17
8.81448571e-17
9.09974206e-17
8.85731645e-17
8.87110345e-17
9.2958249e-17
9.39443891e-17
9.26360006e-17
9.4545887e-17
8.97388312e-17
9.3354298e-17
9.48108484e-17
9.29667159e-17
9.16530626e-17
9.37395973e-17
9.66445235e-17
9.59527464e-17
1.01126866e-16
9.69473624e-17
9.84768629e-17
9.67448128e-17
1.00140738e-16
1.00016985e-16
9.94317718e-17
9.80191028e-17
9.84522564e-17
9.530086e-17
9.10121094e-17
9.18119825e-17
9.11131122e-17
9.16467368e-17
9.6072883e-17
9.58441287e-17
9.48733278e-17
9.82571601e-17
9.45316441e-17
9.09905232e-17