/*--------------------------------*- C++ -*----------------------------------*\
| =========                 |                                                 |
| \\      /  F ield         | OpenFOAM: The Open Source CFD Toolbox           |
|  \\    /   O peration     | Version:  2206                                  |
|   \\  /    A nd           | Website:  www.openfoam.com                      |
|    \\/     M anipulation  |                                                 |
\*---------------------------------------------------------------------------*/
FoamFile
{
    version     2.0;
    format      ascii;
    arch        "LSB;label=32;scalar=64";
    class       volScalarField;
    location    "9.8e-06";
    object      PVsourcePV;
}
// * * * * * * * * * * * * * * * * * * * * * * * * * * * * * * * * * * * * * //

dimensions      [1 -3 -1 0 0 0 0];

internalField   nonuniform List<scalar> 
3183
(
0
0
0
0
0
0
0
0
0
0
0
0
0
0
0
0
0
0
0
0
0
0
0
0
0
0
0
0
0
0
0
0
0
0
0
0
0
0
0
0
0
0
0
0
0
0
0
0
0
0
0
0
0
0
0
0
0
0
0
0
0
0
0
0
0
0
0
0
0
0
0
0
0
0
0
0
0
0
0
0
0
0
0
0
0
0
0
0
0
0
0
0
0
0
0
0
0
0
0
0
0
0
0
0
0
0
0
0
0
0
0
0
0
0
0
0
0
0
0
0
0
0
0
0
0
0
0
0
0
0
0
0
0
0
0
0
0
0
0
0
0
0
0
0
0
0
0
0
0
0
0
0
0
0
0
0
0
0
0
0
0
0
0
0
0
0
0
0
0
0
0
0
0
0
0
0
0
0
0
0
0
0
0
0
0
0
0
0
0
0
0
0
0
0
0
0
0
0
0
0
0
0
0
0
0
0
0
0
0
0
0
0
0
0
0
0
0
0
0
0
0
0
0
0
0
0
0
0
0
0
0
0
0
0
0
0
0
0
0
0
0
0
0
0
0
0
0
0
0
0
0
0
0
0
0
0
0
0
0
0
0
0
0
0
0
0
0
0
0
0
0
0
0
0
0
0
0
0
0
0
0
0
0
0
0
0
0
0
0
0
0
0
0
0
0
0
0
0
0
0
0
0
0
0
0
0
0
0
0
0
0
0
0
0
0
0
0
0
0
0
0
0
0
0
0
0
0
0
0
0
0
0
0
0
0
0
0
0
0
0
0
0
0
0
0
0
0
0
0
0
0
0
0
0
0
0
0
0
0
0
0
0
0
0
0
0
0
0
0
0
0
0
0
0
0
0
0
0
0
0
0
0
0
0
0
0
0
0
0
0
0
0
0
0
0
0
0
0
0
0
0
0
0
0
0
0
0
0
0
0
0
0
0
0
0
0
0
0
0
0
0
0
0
0
0
0
0
0
0
0
0
0
0
0
0
0
0
0
0
0
0
0
0
0
0
0
0
0
0
0
0
0
0
0
0
0
0
0
0
0
0
0
0
0
0
0
0
0
0
0
0
0
0
0
0
0
0
0
0
0
0
0
0
0
0
0
0
0
0
0
0
0
0
0
0
0
0
0
0
0
0
0
0
0
0
0
0
0
0
0
0
0
0
0
0
0
0
0
0
0
0
0
0
0
0
0
0
0
0
0
0
0
0
0
0
0
0
0
0
0
0
0
0
0
0
0
0
0
0
0
0
0
0
0
0
0
0
0
0
0
0
0
0
0
0
0
0
0
0
0
0
0
0
0
0
0
0
0
0
0
0
0
0
0
0
0
0
0
0
0
0
0
0
0
0
0
0
0
0
0
0
0
0
0
0
0
0
0
0
0
0
0
0
0
0
0
0
0
0
0
0
0
0
0
0
0
0
0
0
0
0
0
0
0
0
0
0
0
0
0
0
0
0
0
0
0
0
0
0
0
0
0
0
0
0
0
0
0
0
0
0
0
0
0
0
0
0
0
0
0
0
0
0
0
0
0
0
0
0
0
0
0
0
0
0
0
0
0
0
0
0
0
0
0
0
0
0
0
0
0
0
0
0
0
0
0
0
0
0
0
0
0
0
0
0
0
0
0
0
0
0
0
0
0
0
0
0
0
0
0
0
0
0
0
0
0
0
0
0
0
0
0
0
0
0
0
0
0
0
0
0
0
0
0
0
0
0
0
0
0
0
0
0
0
0
0
0
0
0
0
0
0
0
0
0
0
0
0
0
0
0
0
0
0
0
0
0
0
0
0
0
0
0
0
0
0
0
0
0
0
0
0
0
0
0
0
0
0
0
0
0
0
0
0
0
0
0
0
0
0
0
0
0
0
0
0
0
0
0
0
0
0
0
0
0
0
0
0
0
0
0
0
0
0
0
0
0
0
0
0
0
0
0
0
0
0
0
0
0
0
0
0
0
0
0
0
0
0
0
0
0
0
0
0
0
0
0
0
0
0
0
0
0
0
0
0
0
0
0
0
0
0
0
0
0
0
0
0
0
0
0
0
0
0
0
0
0
0
0
0
0
0
0
0
0
0
0
0
0
0
0
0
0
0
0
0
0
0
0
0
0
0
0
0
0
0
0
0
0
0
0
0
0
0
0
0
0
0
0
0
0
0
0
0
0
0
0
0
0
0
0
0
0
0
0
0
0
0
0
0
0
0
0
0
0
0
0
0
0
0
0
0
0
0
0
0
0
0
0
0
0
0
0
0
0
0
0
0
0
0
0
0
0
0
0
0
0
0
0
0
0
0
0
0
0
0
0
0
0
0
0
0
0
0
0
0
0
0
0
0
0
0
0
0
0
0
0
0
0
0
0
0
0
0
0
0
0
0
0
0
0
0
0
0
0
0
0
0
0
0
0
0
0
0
0
0
0
0
0
0
0
0
0
0
0
0
0
0
0
0
0
0
0
0
0
0
0
0
0
0
0
0
0
0
0
0
0
0
0
0
0
0
0
0
0
0
0
0
0
0
0
0
0
0
0
0
0
0
0
0
0
0
0
0
0
0
0
0
0
0
0
0
0
0
0
0
0
0
0
0
0
0
0
0
0
0
0
0
0
0
0
0
0
0
0
0
0
0
0
0
0
0
0
0
0
0
0
0
0
0
0
0
0
0
0
0
0
0
0
0
0
0
0
0
0
0
0
0
0
0
0
0
0
0
0
0
0
0
0
0
0
0
0
0
0
0
0
0
0
0
0
0
0
0
0
0
0
0
0
0
0
0
0
0
0
0
0
0
0
0
0
0
0
0
0
0
0
0
0
0
0
0
0
0
0
0
0
0
0
0
0
0
0
0
0
0
0
0
0
0
0
0
0
0
0
0
0
0
0
0
0
0
0
0
0
0
0
0
0
0
0
0
0
0
0
0
0
0
0
0
0
0
0
0
0
0
0
0
0
0
0
0
0
0
0
0
0
0
0
0
0
0
0
0
0
0
0
0
0
0
0
0
0
0
0
0
0
0
0
0
0
0
0
0
0
0
0
0
0
0
0
0
0
0
0
0
0
0
0
0
0
0
0
0
0
0
0
0
0
0
0
0
0
0
0
0
0
0
0
0
0
0
0
0
0
0
0
0
0
0
0
0
0
0
0
0
0
0
0
0
0
0
0
0
0
0
0
0
0
0
0
0
0
0
0
0
0
0
0
0
0
0
0
0
0
0
0
0
0
0
0
0
0
0
0
0
0
0
0
0
0
0
0
0
0
0
0
0
0
0
0
0
0
0
0
0
0
0
0
0
0
0
0
0
0
0
0
0
0
0
0
0
0
0
0
0
0
0
0
0
0
0
0
0
0
0
0
0
0
0
0
0
0
0
0
0
0
0
0
0
0
0
0
0
0
0
0
0
0
0
0
0
0
0
0
0
0
0
0
0
0
0
0
0
0
0
0
0
0
0
0
0
0
0
0
0
0
0
0
0
0
0
0
0
0
0
0
0
0
0
0
0
0
0
0
0
0
0
0
0
0
0
0
0
0
0
0
0
0
0
0
0
0
0
0
0
0
0
0
0
0
0
0
0
0
0
0
0
0
0
0
0
0
0
0
0
0
0
0
0
0
0
0
0
0
0
0
0
0
0
0
0
0
0
0
0
0
0
0
0
0
0
0
0
0
0
0
0
0
0
0
0
0
0
0
0
0
0
0
0
0
0
0
0
0
0
0
0
0
0
0
0
0
0
0
0
0
0
0
0
0
0
0
0
0
0
0
0
0
0
0
0
0
0
0
0
0
0
0
0
0
0
0
0
0
0
0
0
0
0
0
0
0
0
0
0
0
0
0
0
0
0
0
0
0
0
0
0
0
0
0
0
0
0
0
0
0
0
0
0
0
0
0
0
0
0
0
0
0
0
0
0
0
0
0
0
0
0
0
0
0
0
0
0
0
0
0
0
0
0
0
0
0
0
0
0
0
0
0
0
0
0
0
0
0
0
0
0
0
0
0
0
0
0
0
0
0
0
0
0
0
0
0
0
0
0
0
0
0
0
0
0
0
0
0
0
0
0
0
0
0
0
0
0
0
0
0
0
0
0
0
0
0
0
0
0
0
0
0
0
0
0
0
0
0
0
0
0
0
0
0
0
0
0
0
0
0
0
0
0
0
0
0
0
0
0
0
0
0
0
0
0
0
0
0
0
0
0
0
0
0
0
0
0
0
0
0
0
0
0
0
0
0
0
0
0
0
0
0
0
0
0
0
0
0
0
0
0
0
0
0
0
0
0
0
0
0
0
0
0
0
0
0
0
0
0
0
0
0
0
0
0
0
0
0
0
0
0
0
0
0
0
0
0
0
0
0
0
0
0
0
0
0
0
0
0
0
0
0
0
0
0
0
0
0
0
0
0
0
0
0
0
0
0
0
0
0
0
0
0
0
0
0
0
0
0
0
0
0
0
0
0
0
0
0
0
0
0
0
0
0
0
0
0
0
0
0
0
0
0
0
0
0
0
0
0
0
0
0
0
0
0
0
0
0
0
0
0
0
0
0
0
0
0
0
0
0
0
0
0
0
0
0
0
0
0
0
0
0
0
0
0
0
0
0
0
0
0
0
0
0
0
0
0
0
0
0
0
0
0
0
0
0
0
0
0
0
0
0
0
0
0
0
0
0
0
0
0
0
0
0
0
0
0
0
0
0
0
0
0
0
0
0
0
0
0
0
0
0
0
0
0
0
0
0
0
0
0
0
0
0
0
0
0
0
0
0
0
0
0
0
0
0
0
0
0
0
0
0
0
0
0
0
0
0
0
0
0
0
0
0
0
0
0
0
0
0
0
0
0
0
0
0
0
0
0
0
0
0
0
0
0
0
0
0
0
0
0
0
0
0
0
0
0
0
0
0
0
0
0
0
0
0
0
0
0
0
0
0
0
0
0
0
0
0
0
0
0
0
0
0
0
0
0
0
0
0
0
0
0
0
0
0
0
0
0
0
0
0
0
0
0
0
0
0
0
0
0
0
0
0
0
0
0
0
0
0
0
0
0
0
0
0
0
0
0
0
0
0
0
0
0
0
0
0
0
0
0
0
0
0
0
0
0
0
0
0
0
0
0
0
0
0
0
0
0
0
0
0
0
0
0
0
0
0
0
0
0
0
0
0
0
0
0
0
0
0
0
0
0
0
0
0
0
0
0
0
0
0
0
0
0
0
0
0
0
0
0
0
0
0
0
0
0
0
0
0
0
0
0
0
0
0
0
0
0
0
0
0
0
0
0
0
0
0
0
0
0
0
0
0
0
0
0
0
0
0
0
0
0
0
0
0
0
0
0
0
0
0
0
0
0
0
0
0
0
0
0
0
0
0
0
0
0
0
0
0
0
0
0
0
0
0
0
0
0
0
0
0
0
0
1.0535156e-297
0
1.16973727e-294
0
1.26927124e-291
0
1.34664439e-288
0
1.39760219e-285
0
1.4194936e-282
0
1.41149009e-279
0
1.37461537e-276
0
1.31158931e-273
0
1.22651486e-270
6.70665262e-273
1.12445541e-267
2.81386753e-269
1.01096049e-264
4.41803383e-266
8.91597871e-262
5.48943657e-263
7.71542661e-259
6.07123166e-260
6.55259566e-256
6.23302765e-257
5.46297653e-253
6.05971082e-254
4.47200043e-250
5.64098893e-251
3.59516769e-247
5.0627166e-248
2.83899168e-244
4.40059713e-245
2.20249232e-241
3.71641016e-242
1.67896915e-238
3.05655656e-239
1.25781581e-235
2.45247392e-236
9.26191641e-233
1.92236439e-233
6.70429683e-230
1.47367197e-230
4.77121598e-227
1.10582009e-227
3.33871406e-224
8.12837277e-225
2.29747399e-221
5.85629257e-222
1.55484222e-218
4.1377583e-219
1.03496536e-215
2.8682741e-216
6.77649146e-213
1.9514266e-213
4.36471492e-210
1.30346746e-210
2.76571649e-207
8.55039201e-208
1.72419246e-204
5.50953643e-205
1.05757786e-201
3.48801804e-202
6.38272965e-199
2.16998287e-199
3.79038921e-196
1.32683334e-196
2.21491478e-193
7.97476603e-194
1.27360736e-190
4.71206658e-191
7.20652294e-188
2.73740679e-188
4.01264669e-185
1.56364112e-185
2.19862508e-182
8.78280726e-183
1.18545104e-179
4.8512164e-180
6.28958876e-177
2.6351517e-177
3.2836582e-174
1.40769766e-174
1.68685773e-171
7.39550419e-172
8.5264525e-169
3.82103996e-169
4.24042216e-166
1.94154127e-166
2.07481199e-163
9.70183806e-164
9.98739353e-161
4.76749441e-161
4.72934274e-158
2.30375867e-158
2.20288904e-155
1.09464095e-155
1.00923456e-152
5.1140752e-153
4.54736766e-150
2.34904598e-150
2.01490023e-147
1.06073931e-147
8.77860933e-145
4.70844742e-145
3.76032834e-142
2.05424977e-142
1.58342936e-139
8.80815723e-140
6.55367931e-137
3.71123247e-137
2.66576243e-134
1.53635863e-134
1.06546445e-131
6.2480334e-132
4.18373677e-129
2.49574408e-129
1.61368618e-126
9.7900955e-127
6.11250515e-124
3.77070435e-124
2.27339693e-121
1.42567083e-121
8.30025936e-119
5.29034016e-119
2.97417579e-116
1.92626159e-116
1.04566306e-113
6.88029653e-114
3.60621503e-111
2.41015453e-111
1.21961653e-108
8.27763713e-109
4.04367269e-106
2.78651506e-106
1.31392458e-103
9.19117403e-104
4.1827156e-101
2.96952492e-101
1.30401248e-98
9.39401519e-99
3.97990176e-96
2.90867467e-96
1.18864091e-93
8.81127104e-94
3.47236371e-91
2.61029234e-91
9.91725401e-89
7.55859929e-89
2.76777472e-86
2.13833213e-86
7.5441299e-84
5.90683976e-84
2.00713246e-81
1.59231502e-81
5.20909692e-79
4.18625484e-79
1.31789078e-76
1.07264017e-76
3.24799995e-74
2.67670668e-74
7.79178518e-72
6.50021828e-72
1.81794258e-69
1.53486619e-69
4.12148391e-67
3.5207357e-67
9.07051729e-65
7.837689e-65
1.93576663e-62
1.6914852e-62
4.00140091e-60
3.53480684e-60
8.00124589e-58
7.14372381e-58
1.54555467e-55
1.39423293e-55
2.87955825e-53
2.62377414e-53
5.16589373e-51
4.75287239e-51
8.90687838e-49
8.27182272e-49
1.47283553e-46
1.3802057e-46
2.33028847e-44
2.20270032e-44
3.5183562e-42
3.35333391e-42
5.05402907e-40
4.85504267e-40
6.8835162e-38
6.66195369e-38
8.85396766e-36
8.6292025e-36
1.07058651e-33
1.05022693e-33
1.21035943e-31
1.19442314e-31
1.27123305e-29
1.26105896e-29
1.23080678e-27
1.22601728e-27
1.08813823e-25
1.08640899e-25
8.68058159e-24
8.65952024e-24
6.15415707e-22
6.10516328e-22
3.80000404e-20
3.73774138e-20
1.98736246e-18
1.96447357e-18
8.44893428e-17
8.3794221e-17
2.73709238e-15
2.74956141e-15
1.80339074e-11
1.72929984e-11
0.0228756437
0.0831405263
0.746747851
0.769130696
0.360430678
0.296511824
0.0469158248
0.0373159276
0.00746578796
0.00682957468
0.00112453618
0.00108162523
0.00015206505
0.000151260501
1.94376775e-05
1.94825698e-05
2.81322247e-06
2.81349344e-06
8.99193968e-07
8.99844894e-07
6.98645334e-07
6.9862945e-07
6.79047718e-07
6.79050741e-07
6.77274714e-07
6.77275741e-07
6.7712534e-07
6.7712536e-07
6.77111627e-07
6.77113253e-07
6.77112139e-07
6.77112431e-07
6.7711113e-07
6.77113516e-07
6.77109661e-07
6.77112732e-07
6.77111671e-07
6.7711112e-07
6.77111875e-07
6.77110869e-07
6.77112255e-07
6.77110844e-07
6.77112685e-07
6.77111286e-07
6.77112129e-07
6.77111902e-07
6.7711218e-07
6.77111631e-07
6.77111875e-07
6.77111572e-07
6.77112224e-07
6.77110958e-07
6.77112809e-07
6.77111381e-07
6.77111845e-07
6.77112547e-07
6.7711114e-07
6.7711232e-07
6.77111577e-07
6.77111919e-07
6.77111852e-07
6.77112245e-07
6.77111607e-07
6.77111804e-07
6.7711193e-07
6.77111542e-07
6.77112346e-07
6.77111826e-07
6.77111887e-07
6.77110488e-07
6.77111567e-07
6.77111485e-07
6.77110829e-07
6.77112723e-07
6.7711102e-07
6.77112979e-07
6.77111561e-07
6.77112871e-07
6.77111691e-07
6.77112657e-07
6.77111244e-07
6.77112823e-07
6.77110946e-07
6.77112474e-07
6.7711153e-07
6.77112164e-07
6.77112247e-07
6.77110854e-07
6.7711235e-07
6.77110837e-07
6.77112671e-07
6.77111432e-07
6.7711208e-07
6.77111851e-07
6.77112487e-07
6.77112594e-07
6.77111416e-07
6.77112139e-07
6.77112395e-07
6.77112543e-07
6.77111598e-07
6.77112617e-07
6.77112257e-07
6.77113236e-07
6.77111561e-07
6.77112664e-07
6.77111717e-07
6.77112132e-07
6.77111607e-07
6.77112387e-07
6.77111616e-07
6.77111338e-07
6.77111874e-07
6.77111864e-07
6.77111407e-07
6.77111991e-07
6.77111625e-07
6.77112409e-07
6.77111774e-07
6.77112639e-07
6.77111542e-07
6.77112875e-07
6.77111402e-07
6.77113158e-07
6.77111461e-07
6.77112697e-07
6.77111465e-07
6.77112684e-07
6.7711134e-07
6.77112969e-07
6.77111226e-07
6.77112603e-07
6.77112958e-07
6.7711294e-07
6.771125e-07
6.77111849e-07
6.77113947e-07
6.77111615e-07
6.77112676e-07
6.77111795e-07
6.77112136e-07
6.77111739e-07
6.77111846e-07
6.7711162e-07
6.771121e-07
6.77111542e-07
6.77111774e-07
6.7711187e-07
6.77112372e-07
6.77111643e-07
6.77113263e-07
6.77110639e-07
6.77113459e-07
6.77111284e-07
6.77113076e-07
6.77112307e-07
6.77111615e-07
6.77111987e-07
6.77112818e-07
6.77112562e-07
6.77113542e-07
6.77111922e-07
6.77113125e-07
6.77111744e-07
6.77113267e-07
6.77111906e-07
6.77112157e-07
6.77112315e-07
6.77112205e-07
6.77111366e-07
6.77112755e-07
6.77111773e-07
6.77111719e-07
6.77111799e-07
6.77113076e-07
6.77112247e-07
6.77112826e-07
6.77113167e-07
6.77112096e-07
6.77113447e-07
6.77113173e-07
6.77113488e-07
6.77113591e-07
6.77112802e-07
6.77112639e-07
6.77112452e-07
6.77112039e-07
6.77112253e-07
6.77112465e-07
6.77112799e-07
6.77112952e-07
6.77111441e-07
6.7711336e-07
6.77112688e-07
6.77113488e-07
6.77112037e-07
6.77112456e-07
6.77112102e-07
6.7711267e-07
6.77111791e-07
6.77113672e-07
6.77112077e-07
6.77113633e-07
6.77111687e-07
6.77112947e-07
6.77112517e-07
6.77112592e-07
6.77112402e-07
6.77113863e-07
6.77112451e-07
6.77113549e-07
6.77112308e-07
6.77113321e-07
6.77112801e-07
6.7711285e-07
6.77113252e-07
6.77112371e-07
6.77113163e-07
6.77112576e-07
6.77113011e-07
6.7711263e-07
6.7711313e-07
6.77112218e-07
6.77112431e-07
6.77112322e-07
6.77112053e-07
6.77113235e-07
6.77112614e-07
6.77112515e-07
6.7711344e-07
6.77112465e-07
6.77112731e-07
6.77112991e-07
6.77113234e-07
6.77112684e-07
6.77113274e-07
6.77112795e-07
6.77113246e-07
6.77113244e-07
6.77113689e-07
6.77112589e-07
6.77113753e-07
6.77113097e-07
6.77113138e-07
6.77112293e-07
6.77113731e-07
6.77112479e-07
6.77113203e-07
6.77111929e-07
6.7711247e-07
6.77113049e-07
6.7711281e-07
6.77113445e-07
6.7711275e-07
6.77112567e-07
6.77113447e-07
6.77112449e-07
6.771141e-07
6.77113223e-07
6.77112587e-07
6.77113712e-07
6.77113238e-07
6.7711354e-07
6.77112625e-07
6.77114525e-07
6.77112593e-07
6.77112809e-07
6.77112188e-07
6.77113668e-07
6.77112087e-07
6.77114156e-07
6.77112047e-07
6.77112695e-07
6.77113228e-07
6.77112889e-07
6.77113714e-07
6.77113008e-07
6.77113591e-07
6.77113019e-07
6.77113045e-07
6.77113183e-07
6.77112773e-07
6.77112574e-07
6.77113502e-07
6.77112782e-07
6.77112589e-07
6.77112874e-07
6.77112451e-07
6.77113153e-07
6.77113257e-07
6.77112876e-07
6.77113522e-07
6.77112935e-07
6.77112979e-07
6.77113248e-07
6.77112328e-07
6.77112256e-07
6.77113176e-07
6.77113397e-07
6.77113542e-07
6.77113054e-07
6.77112918e-07
6.77113318e-07
6.77113643e-07
6.77112974e-07
6.77113632e-07
6.77113261e-07
6.77112766e-07
6.77113028e-07
6.77114161e-07
6.77113411e-07
6.77113786e-07
6.77112862e-07
6.77113473e-07
6.77112743e-07
6.77113238e-07
6.77114099e-07
6.77112195e-07
6.77114323e-07
6.77112939e-07
6.77113557e-07
6.77112918e-07
6.77113598e-07
6.7711321e-07
6.77113411e-07
6.77112779e-07
6.77113583e-07
6.77113665e-07
6.7711332e-07
6.77113964e-07
6.77112906e-07
6.77113565e-07
6.77113295e-07
6.77113108e-07
6.7711345e-07
6.77113234e-07
6.77113356e-07
6.77113281e-07
6.77112368e-07
6.77113669e-07
6.77113041e-07
6.77113679e-07
6.77112684e-07
6.77113452e-07
6.77113767e-07
6.77113772e-07
6.77113279e-07
6.77113597e-07
6.77113236e-07
6.77113041e-07
6.77114108e-07
6.77114055e-07
6.7711273e-07
6.77113404e-07
6.7711411e-07
6.77112715e-07
6.77114393e-07
6.77113098e-07
6.77112992e-07
6.77113377e-07
6.77114103e-07
6.77113126e-07
6.77113778e-07
6.7711361e-07
6.77113606e-07
6.77113892e-07
6.77113418e-07
6.77114622e-07
6.77113804e-07
6.77114634e-07
6.77113984e-07
6.77114085e-07
6.77113809e-07
6.77114373e-07
6.77113131e-07
6.77113815e-07
6.77113168e-07
6.77113781e-07
6.77113931e-07
6.77113912e-07
6.77113855e-07
6.77113786e-07
6.77114315e-07
6.77113194e-07
6.77114424e-07
6.77112535e-07
6.77113637e-07
6.77113323e-07
6.77113215e-07
6.77113915e-07
6.77113343e-07
6.77113559e-07
6.77113476e-07
6.77113442e-07
6.77114121e-07
6.77113947e-07
6.77114426e-07
6.77114132e-07
6.77114011e-07
6.77114014e-07
6.77113601e-07
6.77113657e-07
6.77113231e-07
6.77114675e-07
6.77113369e-07
6.77113851e-07
6.77113581e-07
6.77114106e-07
6.77114092e-07
6.77113779e-07
6.77114061e-07
6.77114296e-07
6.7711328e-07
6.77114524e-07
6.77114314e-07
6.7711352e-07
6.77114278e-07
6.77114011e-07
6.77113737e-07
6.77113935e-07
6.77113461e-07
6.77114534e-07
6.77113369e-07
6.77114683e-07
6.77114596e-07
6.77114297e-07
6.77114549e-07
6.7711458e-07
6.77113691e-07
6.77114512e-07
6.7711434e-07
6.77114175e-07
6.77114574e-07
6.77114837e-07
6.77114083e-07
6.771145e-07
6.77113819e-07
6.77115193e-07
6.77113793e-07
6.77115252e-07
6.77113869e-07
6.77114747e-07
6.77113469e-07
6.7711479e-07
6.77114245e-07
6.77114538e-07
6.77114287e-07
6.77115351e-07
6.77114236e-07
6.77114069e-07
6.77114341e-07
6.77114092e-07
6.77114496e-07
6.77113995e-07
6.77114918e-07
6.77114599e-07
6.77113984e-07
6.77114845e-07
6.77114245e-07
6.77114221e-07
6.77114562e-07
6.7711491e-07
6.77113591e-07
6.7711514e-07
6.77113687e-07
6.77115492e-07
6.77114291e-07
6.77114669e-07
6.7711458e-07
6.77114529e-07
6.77115413e-07
6.77114052e-07
6.77114011e-07
6.77115259e-07
6.77113215e-07
6.77115514e-07
6.77113484e-07
6.77115508e-07
6.77113802e-07
6.77114724e-07
6.77113846e-07
6.77114958e-07
6.77113928e-07
6.77114601e-07
6.77113919e-07
6.77114714e-07
6.77114224e-07
6.77113669e-07
6.77115375e-07
6.77114338e-07
6.77115518e-07
6.77114288e-07
6.7711491e-07
6.77114504e-07
6.7711622e-07
6.77113365e-07
6.77115549e-07
6.77113551e-07
6.77115644e-07
6.77113557e-07
6.77115471e-07
6.77113639e-07
6.77115994e-07
6.77114667e-07
6.77114862e-07
6.77115232e-07
6.77114797e-07
6.77115086e-07
6.77114839e-07
6.77114767e-07
6.77114965e-07
6.77114634e-07
6.77115086e-07
6.77115039e-07
6.77115314e-07
6.77115098e-07
6.77114871e-07
6.7711523e-07
6.77115057e-07
6.77115008e-07
6.77115321e-07
6.77115351e-07
6.77115365e-07
6.77115379e-07
6.77115388e-07
6.77115422e-07
6.7711557e-07
6.7711562e-07
6.7711564e-07
6.77115748e-07
6.77115792e-07
6.7711592e-07
6.77115987e-07
6.77116012e-07
6.77116137e-07
6.77116206e-07
6.77116212e-07
6.77116285e-07
6.77116359e-07
6.77116436e-07
6.77116453e-07
6.77116471e-07
6.77116527e-07
6.77116521e-07
6.77116537e-07
6.7711656e-07
6.77116571e-07
6.77116531e-07
6.7711658e-07
6.77116555e-07
6.7711656e-07
6.77116562e-07
6.77116566e-07
6.77116567e-07
6.77116578e-07
6.77116569e-07
6.7711657e-07
6.77116555e-07
6.77116543e-07
6.77116573e-07
6.77116558e-07
6.77116563e-07
6.77116567e-07
6.77116562e-07
6.77116572e-07
6.77116568e-07
6.77116565e-07
6.77116578e-07
6.77116557e-07
6.77116566e-07
6.77116557e-07
6.77116572e-07
6.77116567e-07
6.77116561e-07
6.7711657e-07
6.77116554e-07
6.77116546e-07
6.7711658e-07
)
;

boundaryField
{
    closed
    {
        type            calculated;
        value           uniform 0;
    }
    open
    {
        type            calculated;
        value           uniform 0;
    }
    sides
    {
        type            empty;
    }
}


// ************************************************************************* //
