/*--------------------------------*- C++ -*----------------------------------*\
| =========                 |                                                 |
| \\      /  F ield         | OpenFOAM: The Open Source CFD Toolbox           |
|  \\    /   O peration     | Version:  2206                                  |
|   \\  /    A nd           | Website:  www.openfoam.com                      |
|    \\/     M anipulation  |                                                 |
\*---------------------------------------------------------------------------*/
FoamFile
{
    version     2.0;
    format      ascii;
    arch        "LSB;label=32;scalar=64";
    class       volScalarField;
    location    "9.8e-06";
    object      sourcePV;
}
// * * * * * * * * * * * * * * * * * * * * * * * * * * * * * * * * * * * * * //

dimensions      [1 -3 -1 0 0 0 0];

internalField   nonuniform List<scalar> 
3183
(
0
0
0
0
0
0
0
0
0
0
0
0
0
0
0
0
0
0
0
0
0
0
0
0
0
0
0
0
0
0
0
0
0
0
0
0
0
0
0
0
0
0
0
0
0
0
0
0
0
0
0
0
0
0
0
0
0
0
0
0
0
0
0
0
0
0
0
0
0
0
0
0
0
0
0
0
0
0
0
0
0
0
0
0
0
0
0
0
0
0
0
0
0
0
0
0
0
0
0
0
0
0
0
0
0
0
0
0
0
0
0
0
0
0
0
0
0
0
0
0
0
0
0
0
0
0
0
0
0
0
0
0
0
0
0
0
0
0
0
0
0
0
0
0
0
0
0
0
0
0
0
0
0
0
0
0
0
0
0
0
0
0
0
0
0
0
0
0
0
0
0
0
0
0
0
0
0
0
0
0
0
0
0
0
0
0
0
0
0
0
0
0
0
0
0
0
0
0
0
0
0
0
0
0
0
0
0
0
0
0
0
0
0
0
0
0
0
0
0
0
0
0
0
0
0
0
0
0
0
0
0
0
0
0
0
0
0
0
0
0
0
0
0
0
0
0
0
0
0
0
0
0
0
0
0
0
0
0
0
0
0
0
0
0
0
0
0
0
0
0
0
0
0
0
0
0
0
0
0
0
0
0
0
0
0
0
0
0
0
0
0
0
0
0
0
0
0
0
0
0
0
0
0
0
0
0
0
0
0
0
0
0
0
0
0
0
0
0
0
0
0
0
0
0
0
0
0
0
0
0
0
0
0
0
0
0
0
0
0
0
0
0
0
0
0
0
0
0
0
0
0
0
0
0
0
0
0
0
0
0
0
0
0
0
0
0
0
0
0
0
0
0
0
0
0
0
0
0
0
0
0
0
0
0
0
0
0
0
0
0
0
0
0
0
0
0
0
0
0
0
0
0
0
0
0
0
0
0
0
0
0
0
0
0
0
0
0
0
0
0
0
0
0
0
0
0
0
0
0
0
0
0
0
0
0
0
0
0
0
0
0
0
0
0
0
0
0
0
0
0
0
0
0
0
0
0
0
0
0
0
0
0
0
0
0
0
0
0
0
0
0
0
0
0
0
0
0
0
0
0
0
0
0
0
0
0
0
0
0
0
0
0
0
0
0
0
0
0
0
0
0
0
0
0
0
0
0
0
0
0
0
0
0
0
0
0
0
0
0
0
0
0
0
0
0
0
0
0
0
0
0
0
0
0
0
0
0
0
0
0
0
0
0
0
0
0
0
0
0
0
0
0
0
0
0
0
0
0
0
0
0
0
0
0
0
0
0
0
0
0
0
0
0
0
0
0
0
0
0
0
0
0
0
0
0
0
0
0
0
0
0
0
0
0
0
0
0
0
0
0
0
0
0
0
0
0
0
0
0
0
0
0
0
0
0
0
0
0
0
0
0
0
0
0
0
0
0
0
0
0
0
0
0
0
0
0
0
0
0
0
0
0
0
0
0
0
0
0
0
0
0
0
0
0
0
0
0
0
0
0
0
0
0
0
0
0
0
0
0
0
0
0
0
0
0
0
0
0
0
0
0
0
0
0
0
0
0
0
0
0
0
0
0
0
0
0
0
0
0
0
0
0
0
0
0
0
0
0
0
0
0
0
0
0
0
0
0
0
0
0
0
0
0
0
0
0
0
0
0
0
0
0
0
0
0
0
0
0
0
0
0
0
0
0
0
0
0
0
0
0
0
0
0
0
0
0
0
0
0
0
0
0
0
0
0
0
0
0
0
0
0
0
0
0
0
0
0
0
0
0
0
0
0
0
0
0
0
0
0
0
0
0
0
0
0
0
0
0
0
0
0
0
0
0
0
0
0
0
0
0
0
0
0
0
0
0
0
0
0
0
0
0
0
0
0
0
0
0
0
0
0
0
0
0
0
0
0
0
0
0
0
0
0
0
0
0
0
0
0
0
0
0
0
0
0
0
0
0
0
0
0
0
0
0
0
0
0
0
0
0
0
0
0
0
0
0
0
0
0
0
0
0
0
0
0
0
0
0
0
0
0
0
0
0
0
0
0
0
0
0
0
0
0
0
0
0
0
0
0
0
0
0
0
0
0
0
0
0
0
0
0
0
0
0
0
0
0
0
0
0
0
0
0
0
0
0
0
0
0
0
0
0
0
0
0
0
0
0
0
0
0
0
0
0
0
0
0
0
0
0
0
0
0
0
0
0
0
0
0
0
0
0
0
0
0
0
0
0
0
0
0
0
0
0
0
0
0
0
0
0
0
0
0
0
0
0
0
0
0
0
0
0
0
0
0
0
0
0
0
0
0
0
0
0
0
0
0
0
0
0
0
0
0
0
0
0
0
0
0
0
0
0
0
0
0
0
0
0
0
0
0
0
0
0
0
0
0
0
0
0
0
0
0
0
0
0
0
0
0
0
0
0
0
0
0
0
0
0
0
0
0
0
0
0
0
0
0
0
0
0
0
0
0
0
0
0
0
0
0
0
0
0
0
0
0
0
0
0
0
0
0
0
0
0
0
0
0
0
0
0
0
0
0
0
0
0
0
0
0
0
0
0
0
0
0
0
0
0
0
0
0
0
0
0
0
0
0
0
0
0
0
0
0
0
0
0
0
0
0
0
0
0
0
0
0
0
0
0
0
0
0
0
0
0
0
0
0
0
0
0
0
0
0
0
0
0
0
0
0
0
0
0
0
0
0
0
0
0
0
0
0
0
0
0
0
0
0
0
0
0
0
0
0
0
0
0
0
0
0
0
0
0
0
0
0
0
0
0
0
0
0
0
0
0
0
0
0
0
0
0
0
0
0
0
0
0
0
0
0
0
0
0
0
0
0
0
0
0
0
0
0
0
0
0
0
0
0
0
0
0
0
0
0
0
0
0
0
0
0
0
0
0
0
0
0
0
0
0
0
0
0
0
0
0
0
0
0
0
0
0
0
0
0
0
0
0
0
0
0
0
0
0
0
0
0
0
0
0
0
0
0
0
0
0
0
0
0
0
0
0
0
0
0
0
0
0
0
0
0
0
0
0
0
0
0
0
0
0
0
0
0
0
0
0
0
0
0
0
0
0
0
0
0
0
0
0
0
0
0
0
0
0
0
0
0
0
0
0
0
0
0
0
0
0
0
0
0
0
0
0
0
0
0
0
0
0
0
0
0
0
0
0
0
0
0
0
0
0
0
0
0
0
0
0
0
0
0
0
0
0
0
0
0
0
0
0
0
0
0
0
0
0
0
0
0
0
0
0
0
0
0
0
0
0
0
0
0
0
0
0
0
0
0
0
0
0
0
0
0
0
0
0
0
0
0
0
0
0
0
0
0
0
0
0
0
0
0
0
0
0
0
0
0
0
0
0
0
0
0
0
0
0
0
0
0
0
0
0
0
0
0
0
0
0
0
0
0
0
0
0
0
0
0
0
0
0
0
0
0
0
0
0
0
0
0
0
0
0
0
0
0
0
0
0
0
0
0
0
0
0
0
0
0
0
0
0
0
0
0
0
0
0
0
0
0
0
0
0
0
0
0
0
0
0
0
0
0
0
0
0
0
0
0
0
0
0
0
0
0
0
0
0
0
0
0
0
0
0
0
0
0
0
0
0
0
0
0
0
0
0
0
0
0
0
0
0
0
0
0
0
0
0
0
0
0
0
0
0
0
0
0
0
0
0
0
0
0
0
0
0
0
0
0
0
0
0
0
0
0
0
0
0
0
0
0
0
0
0
0
0
0
0
0
0
0
0
0
0
0
0
0
0
0
0
0
0
0
0
0
0
0
0
0
0
0
0
0
0
0
0
0
0
0
0
0
0
0
0
0
0
0
0
0
0
0
0
0
0
0
0
0
0
0
0
0
0
0
0
0
0
0
0
0
0
0
0
0
0
0
0
0
0
0
0
0
0
0
0
0
0
0
0
0
0
0
0
0
0
0
0
0
0
0
0
0
0
0
0
0
0
0
0
0
0
0
0
0
0
0
0
0
0
0
0
0
0
0
0
0
0
0
0
0
0
0
0
0
0
0
0
0
0
0
0
0
0
0
0
0
0
0
0
0
0
0
0
0
0
0
0
0
0
0
0
0
0
0
0
0
0
0
0
0
0
0
0
0
0
0
0
0
0
0
0
0
0
0
0
0
0
0
0
0
0
0
0
0
0
0
0
0
0
0
0
0
0
0
0
0
0
0
0
0
0
0
0
0
0
0
0
0
0
0
0
0
0
0
0
0
0
0
0
0
0
0
0
0
0
0
0
0
0
0
0
0
0
0
0
0
0
0
0
0
0
0
0
0
0
0
0
0
0
0
0
0
0
0
0
0
0
0
0
0
0
0
0
0
0
0
0
0
0
0
0
0
0
0
0
0
0
0
0
0
0
0
0
0
0
0
0
0
0
0
0
0
0
0
0
0
0
0
0
0
0
0
0
0
0
0
0
0
0
0
0
0
0
0
0
0
0
0
0
0
0
0
0
0
0
0
0
0
0
0
0
0
0
0
0
0
0
0
0
0
0
0
0
0
0
0
0
0
0
0
0
0
0
0
0
0
0
0
0
0
0
0
0
0
0
0
0
0
0
0
0
0
0
0
0
0
0
0
0
0
0
0
0
0
0
0
0
0
0
0
0
0
0
0
0
0
0
0
0
0
0
0
0
0
0
0
0
0
0
0
0
0
0
0
0
0
0
0
0
0
0
0
0
0
0
0
0
0
0
0
0
0
0
0
0
0
0
0
0
0
0
0
0
0
0
0
0
0
0
0
0
0
0
0
0
0
0
0
0
0
0
0
0
0
0
0
0
0
0
0
0
0
0
0
0
0
0
0
0
0
0
0
0
0
0
0
0
0
0
0
0
0
0
0
0
0
0
0
0
0
0
0
0
0
0
0
0
0
0
0
0
0
0
0
0
0
0
0
0
0
0
0
0
0
0
0
0
0
0
0
0
0
0
0
0
0
0
0
0
0
0
0
0
0
0
0
0
0
0
0
0
0
0
0
0
0
0
0
0
0
0
0
0
0
0
0
0
0
0
0
0
0
0
0
0
0
0
0
0
0
0
0
0
0
0
0
0
0
0
0
0
0
0
0
0
0
0
0
0
0
0
0
0
0
0
0
0
0
0
0
0
0
0
0
0
0
0
0
0
0
0
0
0
0
0
0
0
0
0
0
0
0
0
0
0
0
0
0
0
0
0
0
0
0
0
0
0
0
0
0
0
0
0
0
0
0
0
0
0
0
0
0
0
0
0
0
0
0
0
0
0
0
0
0
0
0
0
0
0
0
0
0
0
0
0
0
0
0
0
0
0
0
0
0
0
0
0
0
0
0
0
0
0
0
0
0
0
0
0
0
0
0
0
0
0
0
0
0
0
0
0
0
0
0
0
0
0
0
0
0
0
0
0
0
1.38960298e-300
0
1.61809108e-297
0
1.83933238e-294
0
2.04224374e-291
0
2.21602005e-288
0
2.35110579e-285
0
2.44007299e-282
0
2.47829319e-279
0
2.46431987e-276
0
2.39994032e-273
0
2.28990315e-270
0
2.1413717e-267
1.17091416e-269
1.96318617e-264
4.91272997e-266
1.76503543e-261
7.71344314e-263
1.55664029e-258
9.58400467e-260
1.34703596e-255
1.05997604e-256
1.14401736e-252
1.088224e-253
9.53780809e-250
1.05796462e-250
7.80766339e-247
9.84859985e-248
6.27680154e-244
8.83899447e-245
4.95659421e-241
7.6830004e-242
3.84533027e-238
6.48847872e-239
2.93131142e-235
5.33644063e-236
2.19602002e-232
4.28177304e-233
1.61703754e-229
3.35625506e-230
1.17050286e-226
2.57288319e-227
8.33006368e-224
1.93065076e-224
5.82905927e-221
1.41913221e-221
4.01115873e-218
1.02244984e-218
2.71459828e-215
7.22411023e-216
1.80694552e-212
5.00771837e-213
1.18310732e-209
3.40699475e-210
7.62035368e-207
2.2757232e-207
4.82866309e-204
1.49281253e-204
3.01026679e-201
9.61909701e-202
1.84642467e-198
6.08972901e-199
1.11436046e-195
3.78857204e-196
6.61763869e-193
2.3165177e-193
3.86701865e-190
1.39231402e-190
2.22359047e-187
8.22679477e-188
1.25818649e-184
4.77923719e-185
7.00567793e-182
2.72996027e-182
3.83857847e-179
1.5333899e-179
2.0696784e-176
8.46973638e-177
1.098099e-173
4.60071008e-174
5.73293726e-171
2.45769867e-171
2.9450841e-168
1.29118072e-168
1.48863293e-165
6.67115183e-166
7.40335101e-163
3.38973597e-163
3.62241325e-160
1.69384344e-160
1.74369856e-157
8.3235662e-158
8.25695721e-155
4.02213115e-155
3.84602291e-152
1.91113311e-152
1.76202213e-149
8.92866143e-150
7.939247e-147
4.10119824e-147
3.51781333e-144
1.85194425e-144
1.53265698e-141
8.22047608e-142
6.56515544e-139
3.58651369e-139
2.76450855e-136
1.53781575e-136
1.14420656e-133
6.47943899e-134
4.65415334e-131
2.68232779e-131
1.86019387e-128
1.09084385e-128
7.304384e-126
4.35731839e-126
2.81733392e-123
1.7092523e-123
1.06718198e-120
6.5832709e-121
3.9691226e-118
2.48907801e-118
1.44914188e-115
9.23640234e-116
5.19261208e-113
3.36305918e-113
1.82562263e-110
1.20123064e-110
6.29608909e-108
4.20788763e-108
2.12932791e-105
1.44519227e-105
7.0598462e-103
4.86497531e-103
2.29398028e-100
1.60468663e-100
7.30260116e-98
5.18449212e-98
2.27667476e-95
1.64010066e-95
6.94850857e-93
5.0782537e-93
2.0752476e-90
1.53835939e-90
6.06239813e-88
4.55730813e-88
1.7314529e-85
1.31965549e-85
4.83225654e-83
3.73331304e-83
1.31712928e-80
1.03127487e-80
3.50425159e-78
2.78002202e-78
9.09455981e-76
7.30878031e-76
2.30090488e-73
1.87272195e-73
5.67068156e-71
4.67326091e-71
1.3603674e-68
1.1348728e-68
3.17394507e-66
2.67972215e-66
7.19569677e-64
6.14685076e-64
1.58362118e-61
1.36838174e-61
3.37965402e-59
2.9531632e-59
6.98604392e-57
6.17141757e-57
1.39693714e-54
1.2472224e-54
2.69838315e-52
2.43419061e-52
5.02741937e-50
4.58084601e-50
9.01913138e-48
8.29803763e-48
1.55505147e-45
1.44417713e-45
2.57142284e-43
2.40970047e-43
4.06844951e-41
3.84569342e-41
6.1426964e-39
5.85458405e-39
8.82382691e-37
8.47641666e-37
1.20179276e-34
1.16311017e-34
1.54581379e-32
1.50657205e-32
1.86913646e-30
1.83359069e-30
2.11316595e-28
2.08534278e-28
2.21944517e-26
2.20168223e-26
2.14886497e-24
2.14050298e-24
1.89978001e-22
1.89676093e-22
1.51554232e-20
1.51186522e-20
1.07445399e-18
1.06590016e-18
6.63442523e-17
6.52572088e-17
3.46973517e-15
3.42977347e-15
1.47509903e-13
1.4629629e-13
4.77868826e-12
4.80045795e-12
3.38398932e-09
3.27686708e-09
0.473762411
1.54584161
10.1651971
10.1790181
4.36708227
3.57080353
0.55225708
0.438303607
0.0876866529
0.0802142447
0.0132078208
0.012703826
0.00178602002
0.00177657048
0.000228294164
0.00022882143
3.30377637e-05
3.30409463e-05
1.05572485e-05
1.05648937e-05
8.20177851e-06
8.20159194e-06
7.97160193e-06
7.97163744e-06
7.95077777e-06
7.95078983e-06
7.94902336e-06
7.94902359e-06
7.9488623e-06
7.94888139e-06
7.94886831e-06
7.94887174e-06
7.94885646e-06
7.94888449e-06
7.94883921e-06
7.94887527e-06
7.94886281e-06
7.94885634e-06
7.94886521e-06
7.94885339e-06
7.94886967e-06
7.94885309e-06
7.94887472e-06
7.94885829e-06
7.94886819e-06
7.94886553e-06
7.94886879e-06
7.94886234e-06
7.94886521e-06
7.94886165e-06
7.94886931e-06
7.94885444e-06
7.94887618e-06
7.94885941e-06
7.94886486e-06
7.9488731e-06
7.94885658e-06
7.94887043e-06
7.94886171e-06
7.94886572e-06
7.94886494e-06
7.94886955e-06
7.94886205e-06
7.94886437e-06
7.94886586e-06
7.94886129e-06
7.94887074e-06
7.94886463e-06
7.94886535e-06
7.94884892e-06
7.94886159e-06
7.94886062e-06
7.94885293e-06
7.94887517e-06
7.94885517e-06
7.94887817e-06
7.94886151e-06
7.9488769e-06
7.94886305e-06
7.94887439e-06
7.9488578e-06
7.94887634e-06
7.94885429e-06
7.94887224e-06
7.94886115e-06
7.9488686e-06
7.94886957e-06
7.94885322e-06
7.94887078e-06
7.94885302e-06
7.94887456e-06
7.94886e-06
7.94886762e-06
7.94886492e-06
7.94887239e-06
7.94887365e-06
7.94885982e-06
7.9488683e-06
7.94887131e-06
7.94887305e-06
7.94886196e-06
7.94887393e-06
7.94886969e-06
7.94888119e-06
7.94886153e-06
7.94887448e-06
7.94886335e-06
7.94886823e-06
7.94886207e-06
7.94887122e-06
7.94886216e-06
7.9488589e-06
7.9488652e-06
7.94886507e-06
7.94885971e-06
7.94886657e-06
7.94886227e-06
7.94887148e-06
7.94886402e-06
7.94887418e-06
7.9488613e-06
7.94887696e-06
7.94885965e-06
7.94888028e-06
7.94886035e-06
7.94887486e-06
7.94886039e-06
7.94887471e-06
7.94885892e-06
7.94887806e-06
7.94885759e-06
7.94887376e-06
7.94887793e-06
7.94887772e-06
7.94887255e-06
7.9488649e-06
7.94888954e-06
7.94886215e-06
7.94887462e-06
7.94886427e-06
7.94886827e-06
7.94886361e-06
7.94886487e-06
7.94886221e-06
7.94886785e-06
7.94886129e-06
7.94886402e-06
7.94886515e-06
7.94887105e-06
7.94886248e-06
7.94888151e-06
7.94885069e-06
7.94888381e-06
7.94885826e-06
7.94887932e-06
7.94887028e-06
7.94886215e-06
7.94886652e-06
7.94887629e-06
7.94887328e-06
7.94888478e-06
7.94886576e-06
7.94887989e-06
7.94886368e-06
7.94888155e-06
7.94886557e-06
7.94886852e-06
7.94887038e-06
7.94886909e-06
7.94885923e-06
7.94887555e-06
7.94886401e-06
7.94886338e-06
7.94886431e-06
7.94887932e-06
7.94886957e-06
7.94887637e-06
7.94888039e-06
7.94886781e-06
7.94888367e-06
7.94888045e-06
7.94888415e-06
7.94888537e-06
7.9488761e-06
7.94887418e-06
7.94887199e-06
7.94886714e-06
7.94886965e-06
7.94887214e-06
7.94887606e-06
7.94887786e-06
7.94886011e-06
7.94888264e-06
7.94887475e-06
7.94888416e-06
7.94886711e-06
7.94887203e-06
7.94886787e-06
7.94887454e-06
7.94886423e-06
7.94888631e-06
7.94886758e-06
7.94888585e-06
7.948863e-06
7.9488778e-06
7.94887275e-06
7.94887363e-06
7.9488714e-06
7.94888855e-06
7.94887197e-06
7.94888487e-06
7.94887029e-06
7.94888219e-06
7.94887609e-06
7.94887666e-06
7.94888138e-06
7.94887104e-06
7.94888034e-06
7.94887344e-06
7.94887856e-06
7.94887408e-06
7.94887994e-06
7.94886924e-06
7.94887174e-06
7.94887045e-06
7.9488673e-06
7.94888118e-06
7.94887389e-06
7.94887273e-06
7.94888359e-06
7.94887214e-06
7.94887526e-06
7.94887831e-06
7.94888117e-06
7.94887471e-06
7.94888164e-06
7.94887601e-06
7.94888131e-06
7.94888129e-06
7.94888651e-06
7.94887359e-06
7.94888726e-06
7.94887956e-06
7.94888004e-06
7.94887011e-06
7.94888701e-06
7.94887231e-06
7.9488808e-06
7.94886585e-06
7.9488722e-06
7.948879e-06
7.94887619e-06
7.94888365e-06
7.94887548e-06
7.94887333e-06
7.94888367e-06
7.94887195e-06
7.94889134e-06
7.94888104e-06
7.94887357e-06
7.94888679e-06
7.94888121e-06
7.94888476e-06
7.94887402e-06
7.94889634e-06
7.94887364e-06
7.94887617e-06
7.94886889e-06
7.94888627e-06
7.9488677e-06
7.948892e-06
7.94886722e-06
7.94887484e-06
7.9488811e-06
7.94887712e-06
7.94888681e-06
7.94887851e-06
7.94888537e-06
7.94887864e-06
7.94887895e-06
7.94888057e-06
7.94887576e-06
7.94887342e-06
7.94888432e-06
7.94887587e-06
7.9488736e-06
7.94887695e-06
7.94887197e-06
7.94888022e-06
7.94888144e-06
7.94887697e-06
7.94888455e-06
7.94887766e-06
7.94887817e-06
7.94888133e-06
7.94887053e-06
7.94886968e-06
7.94888048e-06
7.94888309e-06
7.94888478e-06
7.94887905e-06
7.94887745e-06
7.94888216e-06
7.94888597e-06
7.94887812e-06
7.94888584e-06
7.94888149e-06
7.94887567e-06
7.94887875e-06
7.94889206e-06
7.94888325e-06
7.94888765e-06
7.9488768e-06
7.94888398e-06
7.9488754e-06
7.94888121e-06
7.94889133e-06
7.94886897e-06
7.94889397e-06
7.94887771e-06
7.94888496e-06
7.94887745e-06
7.94888545e-06
7.94888089e-06
7.94888325e-06
7.94887582e-06
7.94888527e-06
7.94888623e-06
7.94888218e-06
7.94888974e-06
7.94887732e-06
7.94888506e-06
7.94888189e-06
7.94887969e-06
7.9488837e-06
7.94888117e-06
7.9488826e-06
7.94888172e-06
7.948871e-06
7.94888628e-06
7.94887891e-06
7.94888639e-06
7.94887471e-06
7.94888373e-06
7.94888743e-06
7.94888748e-06
7.9488817e-06
7.94888543e-06
7.94888119e-06
7.94887891e-06
7.94889143e-06
7.94889081e-06
7.94887525e-06
7.94888316e-06
7.94889146e-06
7.94887507e-06
7.94889478e-06
7.94887957e-06
7.94887832e-06
7.94888285e-06
7.94889138e-06
7.9488799e-06
7.94888756e-06
7.94888559e-06
7.94888554e-06
7.94888889e-06
7.94888333e-06
7.94889747e-06
7.94888787e-06
7.94889761e-06
7.94888998e-06
7.94889117e-06
7.94888792e-06
7.94889455e-06
7.94887996e-06
7.94888799e-06
7.9488804e-06
7.94888759e-06
7.94888936e-06
7.94888914e-06
7.94888847e-06
7.94888765e-06
7.94889387e-06
7.9488807e-06
7.94889514e-06
7.94887296e-06
7.94888591e-06
7.94888221e-06
7.94888095e-06
7.94888917e-06
7.94888245e-06
7.94888498e-06
7.94888401e-06
7.94888361e-06
7.94889159e-06
7.94888955e-06
7.94889517e-06
7.94889172e-06
7.9488903e-06
7.94889033e-06
7.94888548e-06
7.94888614e-06
7.94888113e-06
7.9488981e-06
7.94888275e-06
7.94888842e-06
7.94888525e-06
7.94889141e-06
7.94889124e-06
7.94888757e-06
7.94889088e-06
7.94889364e-06
7.94888171e-06
7.94889632e-06
7.94889385e-06
7.94888453e-06
7.94889344e-06
7.94889029e-06
7.94888708e-06
7.9488894e-06
7.94888384e-06
7.94889643e-06
7.94888275e-06
7.94889819e-06
7.94889716e-06
7.94889366e-06
7.94889661e-06
7.94889697e-06
7.94888654e-06
7.94889618e-06
7.94889416e-06
7.94889222e-06
7.94889691e-06
7.94889999e-06
7.94889114e-06
7.94889604e-06
7.94888805e-06
7.94890418e-06
7.94888774e-06
7.94890487e-06
7.94888863e-06
7.94889894e-06
7.94888393e-06
7.94889944e-06
7.94889304e-06
7.94889649e-06
7.94889353e-06
7.94890604e-06
7.94889294e-06
7.94889098e-06
7.94889417e-06
7.94889124e-06
7.94889599e-06
7.94889011e-06
7.94890095e-06
7.9488972e-06
7.94888997e-06
7.94890009e-06
7.94889304e-06
7.94889276e-06
7.94889676e-06
7.94890085e-06
7.94888537e-06
7.94890356e-06
7.94888649e-06
7.94890769e-06
7.94889358e-06
7.94889802e-06
7.94889698e-06
7.94889638e-06
7.94890676e-06
7.94889078e-06
7.9488903e-06
7.94890495e-06
7.94888095e-06
7.94890795e-06
7.94888411e-06
7.94890788e-06
7.94888784e-06
7.94889867e-06
7.94888835e-06
7.94890142e-06
7.94888932e-06
7.94889723e-06
7.94888922e-06
7.94889855e-06
7.9488928e-06
7.94888628e-06
7.94890632e-06
7.94889414e-06
7.948908e-06
7.94889355e-06
7.94890085e-06
7.94889608e-06
7.94891624e-06
7.94888271e-06
7.94890836e-06
7.94888489e-06
7.94890947e-06
7.94888496e-06
7.94890745e-06
7.94888593e-06
7.94891358e-06
7.948898e-06
7.94890029e-06
7.94890464e-06
7.94889953e-06
7.94890293e-06
7.94890002e-06
7.94889918e-06
7.9489015e-06
7.94889761e-06
7.94890293e-06
7.94890238e-06
7.94890561e-06
7.94890306e-06
7.94890039e-06
7.94890461e-06
7.94890259e-06
7.948902e-06
7.94890568e-06
7.94890603e-06
7.9489062e-06
7.94890637e-06
7.94890647e-06
7.94890687e-06
7.9489086e-06
7.9489092e-06
7.94890943e-06
7.9489107e-06
7.94891122e-06
7.94891271e-06
7.94891351e-06
7.9489138e-06
7.94891526e-06
7.94891608e-06
7.94891614e-06
7.948917e-06
7.94891787e-06
7.94891878e-06
7.94891897e-06
7.94891919e-06
7.94891985e-06
7.94891978e-06
7.94891997e-06
7.94892023e-06
7.94892036e-06
7.94891989e-06
7.94892046e-06
7.94892018e-06
7.94892023e-06
7.94892025e-06
7.94892031e-06
7.94892032e-06
7.94892044e-06
7.94892034e-06
7.94892035e-06
7.94892018e-06
7.94892003e-06
7.94892039e-06
7.94892021e-06
7.94892026e-06
7.94892032e-06
7.94892025e-06
7.94892038e-06
7.94892033e-06
7.9489203e-06
7.94892044e-06
7.9489202e-06
7.94892031e-06
7.9489202e-06
7.94892037e-06
7.94892032e-06
7.94892024e-06
7.94892035e-06
7.94892017e-06
7.94892007e-06
7.94892046e-06
)
;

boundaryField
{
    closed
    {
        type            calculated;
        value           uniform 0;
    }
    open
    {
        type            calculated;
        value           uniform 0;
    }
    sides
    {
        type            empty;
    }
}


// ************************************************************************* //
