/*--------------------------------*- C++ -*----------------------------------*\
| =========                 |                                                 |
| \\      /  F ield         | OpenFOAM: The Open Source CFD Toolbox           |
|  \\    /   O peration     | Version:  2206                                  |
|   \\  /    A nd           | Website:  www.openfoam.com                      |
|    \\/     M anipulation  |                                                 |
\*---------------------------------------------------------------------------*/
FoamFile
{
    version     2.0;
    format      ascii;
    arch        "LSB;label=32;scalar=64";
    class       surfaceScalarField;
    location    "1.46e-05";
    object      phi;
}
// * * * * * * * * * * * * * * * * * * * * * * * * * * * * * * * * * * * * * //

dimensions      [1 0 -1 0 0 0 0];

oriented        oriented;

internalField   nonuniform List<scalar> 
3182
(
5.20627951e-18
-2.33319195e-18
-1.77308743e-18
-1.99074655e-18
-5.73820378e-21
-3.25501982e-23
-2.31203335e-24
1.10204901e-26
3.71430658e-24
6.5278903e-23
4.93142588e-20
3.73626121e-18
3.572053e-18
4.47622803e-19
1.47418502e-18
-1.10289762e-18
-4.05861083e-18
-4.94293018e-18
-4.2944053e-18
4.31820298e-18
6.5306955e-20
1.50750015e-21
1.01420417e-18
2.28075674e-18
3.97176747e-18
2.2507703e-18
7.38046134e-18
1.88156112e-18
1.85985201e-19
1.1406311e-18
-1.21159278e-18
-2.88037629e-18
-5.43530522e-18
-6.22186823e-18
-6.50741514e-18
-5.28921148e-18
-3.92205307e-18
-4.55304517e-18
-6.40862095e-18
-5.10237702e-18
-3.67806782e-18
-2.02091745e-19
1.41234849e-18
1.92110556e-18
2.08591893e-18
5.53034092e-18
6.71300371e-18
7.79787611e-18
9.97311222e-18
1.11846429e-17
1.19405681e-17
1.08842068e-17
1.04211549e-17
9.44556167e-18
6.94971387e-18
4.14768119e-18
1.53435511e-18
-1.27875172e-18
-3.02868978e-18
-5.21096378e-18
-7.80403836e-18
-1.00090876e-17
-1.11344945e-17
-1.4132466e-17
-1.66684847e-17
-1.84140238e-17
-2.05979142e-17
-2.29712184e-17
-2.38492426e-17
-2.65204606e-17
-2.8648389e-17
-2.89094325e-17
-2.98595636e-17
-3.13368607e-17
-3.2218626e-17
-3.3083691e-17
-3.23189019e-17
-3.3596771e-17
-3.36005081e-17
-3.43454023e-17
-3.26487536e-17
-3.37963864e-17
-3.52250603e-17
-3.52240523e-17
-3.57073157e-17
-3.52452539e-17
-3.5772136e-17
-3.67768978e-17
-3.90123578e-17
-3.88298526e-17
-3.92830549e-17
-3.87041519e-17
-4.00383827e-17
-3.89936398e-17
-3.95546952e-17
-3.84614287e-17
-3.90616614e-17
-4.19467347e-17
-4.21720559e-17
-4.20401591e-17
-4.42149055e-17
-4.15139046e-17
-4.42518203e-17
-4.19770541e-17
-4.54785188e-17
-4.61654604e-17
-4.25694084e-17
-4.39626375e-17
-4.08057466e-17
-4.33789855e-17
-4.20787427e-17
-4.40736562e-17
-4.42738522e-17
-4.66243621e-17
-4.91304729e-17
-5.22027609e-17
-5.02290778e-17
-5.09505358e-17
-5.55091036e-17
-5.60473083e-17
-5.61617819e-17
-5.2628165e-17
-5.47816625e-17
-5.54948061e-17
-5.65829464e-17
-5.70351215e-17
-5.60543105e-17
-5.63548916e-17
-5.3773689e-17
-5.54984061e-17
-5.35812828e-17
-5.50264735e-17
-5.63913167e-17
-5.83814479e-17
-5.93868954e-17
-6.15372078e-17
-5.91288719e-17
-5.9860045e-17
-6.02352903e-17
-5.89882167e-17
-6.07410739e-17
-5.87929578e-17
-5.9516132e-17
-6.27177704e-17
-6.35896832e-17
-6.25169196e-17
-6.02711839e-17
-6.29448618e-17
-6.52617057e-17
-6.39973312e-17
-6.25222726e-17
-6.31643467e-17
-6.31356692e-17
-6.54301663e-17
-6.42440041e-17
-6.71055872e-17
-6.3844341e-17
-6.71399045e-17
-6.43174624e-17
-6.64882427e-17
-6.49453187e-17
-6.56586306e-17
-6.67756273e-17
-7.03989395e-17
-7.11227611e-17
-7.37224904e-17
-7.74998376e-17
-7.46951482e-17
-7.81781247e-17
-7.58126962e-17
-7.558188e-17
-7.27179821e-17
-7.10285887e-17
-7.44418168e-17
-7.34075636e-17
-7.13228171e-17
-7.21733532e-17
-6.96661026e-17
-7.12455129e-17
-7.10837772e-17
-7.25677999e-17
-7.0264309e-17
-7.03715077e-17
-7.22754934e-17
-7.32783068e-17
-7.39207467e-17
-7.76193687e-17
-7.86121428e-17
-8.00207236e-17
-7.90660573e-17
-7.91255314e-17
-7.60596413e-17
-7.93496118e-17
-8.25127418e-17
-8.2365386e-17
-8.14981919e-17
-8.27096897e-17
-8.06240273e-17
-8.45443063e-17
-8.26108427e-17
-8.23736871e-17
-8.28704837e-17
-8.48043797e-17
-8.79626764e-17
-8.72577642e-17
-9.02534389e-17
-9.07530925e-17
-8.92359923e-17
-8.84830545e-17
-8.88351807e-17
-9.19108091e-17
-9.03895264e-17
-9.1328765e-17
-9.21801145e-17
-9.26798878e-17
-9.72168901e-17
-9.70167201e-17
-9.41573772e-17
-9.80252615e-17
-9.66015006e-17
-9.59821642e-17
-9.54729181e-17
-9.66771702e-17
-9.90087255e-17
-9.80198943e-17
-9.88322038e-17
-1.00130723e-16
-9.97058754e-17
-9.99236811e-17
-1.00253749e-16
-1.01130939e-16
-1.01008566e-16
-9.99292733e-17
-1.01887977e-16
-1.01294737e-16
-9.8410172e-17
-9.76215846e-17
-9.61221642e-17
-9.77392734e-17
-9.81991679e-17
-9.56630943e-17
-9.95228076e-17
-1.01381635e-16
-1.00639575e-16
-1.02896691e-16
-1.01390983e-16
-1.02477097e-16
-1.01347358e-16
-1.0287406e-16
-1.04123538e-16
-1.04874096e-16
-1.03184216e-16
-1.06325647e-16
-1.05881353e-16
-1.04740298e-16
-1.02739651e-16
-1.01124587e-16
-1.01487978e-16
-1.01625452e-16
-1.03054681e-16
-1.06068377e-16
-1.03909379e-16
-1.05700817e-16
-1.03338877e-16
-1.03694512e-16
-1.06270414e-16
-1.04347269e-16
-1.05022574e-16
-1.05600697e-16
-1.05529957e-16
-1.05748366e-16
-1.07182452e-16
-1.08580099e-16
-1.07449058e-16
-1.0906658e-16
-1.08998096e-16
-1.05024009e-16
-1.06157428e-16
-1.03121172e-16
-1.07011301e-16
-1.04731946e-16
-1.04053931e-16
-1.04275409e-16
-1.06246948e-16
-1.07000556e-16
-1.06431997e-16
-1.08839326e-16
-1.1069028e-16
-1.12052215e-16
-1.10475804e-16
-1.10063332e-16
-1.07524258e-16
-1.11707618e-16
-1.1062961e-16
-1.09182231e-16
-1.12261905e-16
-1.09182209e-16
-1.11588768e-16
-1.1203966e-16
-1.1214559e-16
-1.12990565e-16
-1.11682439e-16
-1.12374807e-16
-1.1455617e-16
-1.1524096e-16
-1.15133821e-16
-1.18052954e-16
-1.1954022e-16
-1.17849198e-16
-1.18997666e-16
-1.19629805e-16
-1.18911492e-16
-1.18670701e-16
-1.16632213e-16
-1.15223042e-16
-1.18114257e-16
-1.20204457e-16
-1.19524616e-16
-1.20793558e-16
-1.22956167e-16
-1.2125994e-16
-1.23660935e-16
-1.23894861e-16
-1.22917288e-16
-1.21199733e-16
-1.20528812e-16
-1.2351344e-16
-1.23285911e-16
-1.20988696e-16
-1.23797841e-16
-1.1979938e-16
-1.21460182e-16
-1.20630493e-16
-1.14724272e-16
-1.1500558e-16
-1.15229861e-16
-1.16474292e-16
-1.14435358e-16
-1.16206466e-16
-1.15079831e-16
-1.15058994e-16
-1.18141526e-16
-1.16840495e-16
-1.16303512e-16
-1.16913903e-16
-1.17552143e-16
-1.18505381e-16
-1.17869075e-16
-1.19292559e-16
-1.17977017e-16
-1.17812677e-16
-1.17189302e-16
-1.16645045e-16
-1.13080644e-16
-1.097355e-16
-1.08886557e-16
-1.07304472e-16
-1.11067064e-16
-1.12213337e-16
-1.10658514e-16
-1.0630233e-16
-1.08602897e-16
-1.08141614e-16
-1.09782798e-16
-1.09761878e-16
-1.13155554e-16
-1.11847204e-16
-1.12888398e-16
-1.09709801e-16
-1.08900621e-16
-1.0815162e-16
-1.06392791e-16
-1.07789043e-16
-1.06072259e-16
-1.08793778e-16
-1.07998591e-16
-1.05555146e-16
-1.05808896e-16
-1.09165837e-16
-1.0759649e-16
-1.09570134e-16
-1.11295798e-16
-1.10448139e-16
-1.09790346e-16
-1.12788487e-16
-1.15132126e-16
-1.16549022e-16
-1.17857125e-16
-1.17107493e-16
-1.13613661e-16
-1.14847198e-16
-1.1155436e-16
-1.09921757e-16
-1.12815663e-16
-1.09922957e-16
-1.12364485e-16
-1.10004518e-16
-1.05387288e-16
-1.08585026e-16
-1.05297715e-16
-1.08986323e-16
-1.05075359e-16
-1.08709917e-16
-1.08937329e-16
-1.06399337e-16
-1.06622325e-16
-1.05876432e-16
-1.0389649e-16
-1.01450114e-16
-1.0036007e-16
-1.00208601e-16
-1.00379404e-16
-9.87615896e-17
-9.83309156e-17
-9.8321524e-17
-9.7678888e-17
-9.55913253e-17
-9.48557216e-17
-9.36825212e-17
-9.23447243e-17
-8.98670118e-17
-9.06226687e-17
-9.43313898e-17
-9.33645349e-17
-9.19824122e-17
-9.03130782e-17
-8.97401966e-17
-8.98119124e-17
-8.87197345e-17
-9.13359599e-17
-8.85251135e-17
-8.80688196e-17
-8.6746388e-17
-8.37677741e-17
-8.19204016e-17
-8.21656145e-17
-8.14538573e-17
-7.98965736e-17
-7.84431024e-17
-7.64626341e-17
-7.92043627e-17
-8.0586684e-17
-8.10402674e-17
-7.86447207e-17
-7.58907488e-17
-7.44495446e-17
-7.58660702e-17
-7.56091316e-17
-7.57674909e-17
-7.40399514e-17
-7.10483153e-17
-7.00161176e-17
-6.95140249e-17
-6.98088082e-17
-7.41695324e-17
-7.07290898e-17
-6.90213329e-17
-6.60747694e-17
-6.35776714e-17
-6.56424516e-17
-6.40571661e-17
-5.97145695e-17
-5.9325659e-17
-5.87243535e-17
-5.58823755e-17
-5.8612765e-17
-5.85384546e-17
-5.86127929e-17
-5.93863663e-17
-5.89491061e-17
-5.62839811e-17
-5.59156923e-17
-5.89145609e-17
-5.85390558e-17
-5.76414751e-17
-5.88796375e-17
-5.53816738e-17
-5.84452433e-17
-5.72683264e-17
-5.691044e-17
-5.39342076e-17
-5.30326328e-17
-5.55444308e-17
-5.0978322e-17
-4.87184151e-17
-5.04656704e-17
-4.94293663e-17
-4.9645713e-17
-5.17552232e-17
-5.34256459e-17
-4.94821484e-17
-5.15584812e-17
-4.89112577e-17
-4.88363501e-17
-5.2375462e-17
-4.95913818e-17
-4.97727277e-17
-4.69436072e-17
-4.76377815e-17
-5.0048776e-17
-4.92106285e-17
-4.87409942e-17
-4.85738372e-17
-5.09504854e-17
-4.60740515e-17
-4.52206898e-17
-4.58134957e-17
-4.51595071e-17
-4.70484072e-17
-4.36031714e-17
-4.02279313e-17
-4.12434103e-17
-4.08745967e-17
-4.02522423e-17
-3.4494748e-17
-3.47467916e-17
-3.43503142e-17
-3.30749514e-17
-3.47365727e-17
-3.15861459e-17
-3.03867053e-17
-2.87134967e-17
-2.69709611e-17
-2.74288529e-17
-2.54286886e-17
-2.63895829e-17
-2.75398182e-17
-2.96637668e-17
-3.21488614e-17
-2.97033769e-17
-2.87004632e-17
-3.0418752e-17
-3.34059441e-17
-3.25078143e-17
-2.7134734e-17
-2.85558566e-17
-3.03433419e-17
-2.86277739e-17
-2.95385692e-17
-2.75039247e-17
-2.76326493e-17
-2.89772633e-17
-2.66850733e-17
-2.94591631e-17
-3.01794703e-17
-3.22881751e-17
-3.01286351e-17
-2.82238784e-17
-2.69528012e-17
-2.53755494e-17
-2.70578597e-17
-2.1965118e-17
-2.39934574e-17
-2.52640376e-17
-2.56393984e-17
-2.44112085e-17
-2.45352014e-17
-2.39815473e-17
-2.3729908e-17
-2.27499152e-17
-2.20455372e-17
-2.43151278e-17
-2.27641739e-17
-2.25087251e-17
-2.35917451e-17
-2.32503274e-17
-2.23413578e-17
-2.35529061e-17
-1.98142711e-17
-1.82666837e-17
-1.80573261e-17
-1.53092482e-17
-1.47852821e-17
-1.31161262e-17
-1.40132643e-17
-1.51627066e-17
-1.84283583e-17
-1.71286289e-17
-1.47088346e-17
-1.58730083e-17
-1.39024466e-17
-1.46117892e-17
-1.69750314e-17
-1.74819165e-17
-1.71641139e-17
-1.39229059e-17
-1.09058771e-17
-8.41240019e-18
-8.78488124e-18
-6.75465269e-18
-8.59876862e-18
-9.09447088e-18
-6.96350594e-18
-5.89423188e-18
-5.42765407e-18
-3.09040741e-18
-3.07309933e-18
-8.38412344e-19
-3.38820768e-18
-4.99628729e-18
-6.62965229e-18
-3.18932347e-18
-5.54292724e-19
4.76449434e-19
-1.36033767e-18
-2.19015589e-20
1.45208199e-18
-3.2471997e-19
1.09168904e-18
5.60912722e-19
4.72131688e-19
1.22451247e-18
4.01605157e-19
2.99017598e-18
4.06744017e-18
4.65508067e-18
6.4007166e-18
5.13651825e-18
7.17162876e-18
8.34384563e-18
6.14908887e-18
7.19359326e-18
3.10322887e-18
6.67936231e-18
4.12958887e-18
5.77638847e-18
9.22607536e-18
7.79961184e-18
8.92433469e-18
8.42720507e-18
9.7151832e-18
1.08365285e-17
1.089266e-17
1.21012434e-17
1.25080374e-17
1.32652869e-17
1.09042177e-17
1.02387016e-17
1.16394038e-17
1.36499614e-17
1.56456011e-17
1.40388046e-17
1.55868906e-17
1.55071702e-17
1.68222828e-17
1.68231892e-17
1.47385721e-17
1.6982066e-17
1.6495372e-17
2.05550598e-17
1.99946439e-17
2.5774701e-17
2.73059343e-17
2.80442262e-17
2.62459788e-17
2.43441234e-17
2.40701716e-17
2.27461084e-17
2.21014967e-17
2.79974543e-17
2.41148224e-17
2.62393978e-17
2.43539559e-17
2.47657454e-17
2.29571753e-17
2.72085212e-17
2.94839946e-17
2.80556134e-17
2.96877158e-17
2.67305386e-17
2.41820596e-17
2.82560561e-17
2.70555513e-17
3.04204481e-17
2.91152138e-17
2.97623655e-17
3.20958317e-17
3.61123561e-17
3.13759746e-17
3.14797483e-17
3.2983371e-17
3.09975982e-17
3.29022142e-17
3.01058873e-17
2.91624919e-17
3.18745934e-17
3.44286269e-17
3.3120076e-17
3.49001094e-17
3.56471088e-17
3.72668834e-17
3.57405882e-17
3.55990452e-17
3.48239714e-17
3.81452985e-17
3.7378845e-17
4.02438231e-17
4.16411341e-17
4.07593338e-17
4.64235367e-17
4.59330969e-17
4.7821581e-17
5.10191266e-17
5.23919364e-17
5.36460258e-17
5.15356982e-17
5.25758038e-17
5.29473294e-17
5.13562427e-17
5.12401726e-17
5.58695542e-17
5.49703991e-17
5.59245981e-17
5.40789453e-17
5.18471987e-17
5.25249105e-17
5.53444499e-17
5.82124959e-17
5.65855676e-17
5.72600771e-17
5.80486515e-17
5.81626891e-17
5.75183698e-17
5.78773358e-17
5.91037174e-17
5.76396338e-17
6.03334138e-17
5.97848045e-17
6.15076849e-17
6.14417871e-17
6.06768812e-17
6.08863342e-17
6.33874003e-17
6.3018048e-17
6.6315882e-17
6.43927306e-17
6.62889635e-17
7.18562336e-17
7.07198846e-17
7.18647538e-17
6.7582813e-17
6.56124371e-17
6.6109494e-17
6.45692477e-17
6.44673965e-17
5.99079294e-17
6.29121305e-17
6.46703735e-17
6.30941786e-17
6.4405085e-17
6.55184505e-17
6.30671183e-17
6.24627459e-17
6.11650574e-17
6.0807263e-17
5.99862787e-17
6.08020566e-17
6.14569554e-17
5.76425727e-17
5.62695182e-17
5.87444112e-17
6.34834937e-17
6.40594893e-17
6.80571825e-17
6.80653599e-17
6.81055563e-17
6.78695621e-17
7.24027585e-17
6.83469844e-17
7.13835028e-17
7.06574501e-17
6.84680776e-17
7.10951875e-17
7.19283053e-17
7.41387225e-17
7.8864176e-17
7.82697305e-17
7.74381386e-17
7.75109888e-17
7.67834147e-17
7.61585373e-17
7.74498404e-17
7.49886324e-17
7.57254297e-17
7.65518811e-17
8.19368994e-17
7.57126205e-17
7.93859409e-17
7.48588251e-17
7.5965194e-17
7.50042668e-17
7.73595386e-17
7.36896714e-17
7.44428776e-17
7.25803743e-17
7.38091553e-17
6.98441785e-17
6.91995079e-17
6.77097472e-17
6.96365837e-17
7.11585215e-17
7.30083194e-17
7.05651704e-17
7.23531883e-17
6.73493784e-17
7.02781405e-17
7.01501619e-17
6.76382478e-17
7.24558368e-17
7.13975507e-17
6.72080619e-17
6.74882934e-17
6.76752201e-17
6.62991814e-17
6.70992603e-17
6.83074825e-17
6.69535623e-17
6.76375529e-17
6.77575311e-17
6.63010688e-17
6.4779919e-17
6.56087915e-17
6.53564873e-17
6.64332754e-17
6.63312852e-17
6.39690531e-17
6.6834652e-17
6.65817188e-17
6.52279146e-17
6.56401068e-17
6.63827059e-17
6.66864792e-17
6.76106058e-17
6.83260631e-17
7.1620578e-17
6.86459216e-17
6.77373246e-17
6.67025557e-17
6.92754139e-17
7.04742849e-17
6.901461e-17
6.88344517e-17
6.60222442e-17
6.67441691e-17
6.58589112e-17
6.76918584e-17
6.61813063e-17
6.45536696e-17
6.62563562e-17
6.32675214e-17
5.90419545e-17
5.62481743e-17
5.68443309e-17
5.44041438e-17
5.50738363e-17
5.53102224e-17
5.84773323e-17
5.62361229e-17
5.63607347e-17
5.59268963e-17
5.81746716e-17
6.17160964e-17
6.15391149e-17
6.22546758e-17
6.27201566e-17
6.25669328e-17
6.14809696e-17
6.21314462e-17
5.89783692e-17
5.99111708e-17
5.82835846e-17
6.13806956e-17
6.12092205e-17
6.19844429e-17
6.27673271e-17
6.1883605e-17
6.27239717e-17
6.03713934e-17
6.33187581e-17
6.16712128e-17
6.08531135e-17
5.88835134e-17
5.82269248e-17
6.121088e-17
6.05643712e-17
5.73444731e-17
5.59438417e-17
5.67097182e-17
5.60463228e-17
5.89008247e-17
6.01995531e-17
6.24405547e-17
5.79893397e-17
5.94738462e-17
6.26236556e-17
6.36002777e-17
6.45019415e-17
6.47824724e-17
6.43102154e-17
6.48313473e-17
6.09749018e-17
6.49862989e-17
6.68610411e-17
6.74325177e-17
6.68770028e-17
6.22204102e-17
6.24400723e-17
6.21128425e-17
6.2672109e-17
5.95243796e-17
6.04156882e-17
5.66293111e-17
5.95505823e-17
5.79935212e-17
5.86688158e-17
5.64372716e-17
5.64331681e-17
5.87624912e-17
5.72761365e-17
5.90360666e-17
6.00324992e-17
6.04309852e-17
6.10688359e-17
6.03629728e-17
6.17374107e-17
6.05524473e-17
6.19341107e-17
5.94832019e-17
5.88365754e-17
5.86622146e-17
6.3119373e-17
6.13368229e-17
6.59360688e-17
6.21191782e-17
6.25420946e-17
5.84169434e-17
5.59515493e-17
5.28306801e-17
5.36782915e-17
5.4128902e-17
5.59994073e-17
5.73673838e-17
5.39389272e-17
5.3433135e-17
5.31548981e-17
5.57413352e-17
5.59915639e-17
5.55279636e-17
5.50488524e-17
5.47526427e-17
5.66619447e-17
5.56262191e-17
5.36581142e-17
5.56792346e-17
4.94087994e-17
4.90998536e-17
4.71207106e-17
4.86793825e-17
4.83584201e-17
5.21729415e-17
5.14977327e-17
5.55083386e-17
5.5338429e-17
5.30502616e-17
5.57362385e-17
5.8486549e-17
5.4605115e-17
5.36630126e-17
5.5659787e-17
5.64594055e-17
5.90245956e-17
5.9503317e-17
5.80893086e-17
5.96833188e-17
5.90273269e-17
5.67802088e-17
5.63220876e-17
5.76332784e-17
5.70257768e-17
5.60489768e-17
5.61237739e-17
5.37603288e-17
5.48459604e-17
5.39994978e-17
5.46225098e-17
5.64703375e-17
5.42119763e-17
5.65416306e-17
5.9473388e-17
5.58547225e-17
5.75076327e-17
5.82431476e-17
5.73015003e-17
5.61259905e-17
5.52712399e-17
5.33730631e-17
5.54614845e-17
5.28036719e-17
5.37018288e-17
5.14363296e-17
5.18206389e-17
5.04047143e-17
4.91969484e-17
5.05354828e-17
5.31002874e-17
5.10485798e-17
5.04134722e-17
5.20851596e-17
5.12194222e-17
4.84611758e-17
4.73678846e-17
4.25024037e-17
4.41291781e-17
4.63680281e-17
4.62113335e-17
4.41090069e-17
4.30705354e-17
3.97055388e-17
3.81718743e-17
3.51654234e-17
3.52912184e-17
3.94773729e-17
3.60650858e-17
3.51865205e-17
3.63160686e-17
3.48483147e-17
3.44398634e-17
2.99440051e-17
3.22112451e-17
2.93001794e-17
2.91229876e-17
2.55619857e-17
2.84951247e-17
2.56351483e-17
2.53877181e-17
2.56650336e-17
2.16469258e-17
2.61705983e-17
2.63716216e-17
2.49544149e-17
2.32686475e-17
2.50066863e-17
2.48953324e-17
2.5120086e-17
3.04780362e-17
2.63981128e-17
2.47394148e-17
2.4911989e-17
2.53973932e-17
2.52652912e-17
2.20170641e-17
2.32906695e-17
2.24915518e-17
2.28682775e-17
2.1471505e-17
2.33578445e-17
2.33671062e-17
2.04894618e-17
2.29980832e-17
2.37627163e-17
2.26727205e-17
2.24258952e-17
2.19920078e-17
2.26797755e-17
2.45890073e-17
2.2473815e-17
2.19847759e-17
2.32034762e-17
2.03175914e-17
2.10176982e-17
2.02209966e-17
2.17393279e-17
2.661907e-17
2.70942257e-17
2.7982682e-17
2.52896964e-17
2.58256838e-17
2.39861304e-17
2.50986638e-17
2.48301545e-17
2.48292257e-17
2.57956499e-17
2.50182099e-17
2.13171257e-17
2.36654358e-17
2.28415937e-17
2.05885803e-17
2.16527253e-17
2.08063922e-17
2.2451339e-17
1.86829023e-17
2.03562357e-17
1.8923145e-17
1.45221049e-17
1.78603106e-17
1.86583191e-17
1.81182065e-17
1.7846695e-17
1.60331874e-17
1.58321022e-17
1.64834549e-17
1.59280468e-17
1.53339461e-17
1.53596717e-17
1.52974481e-17
1.21963301e-17
1.38821501e-17
1.04100637e-17
7.78766842e-18
1.06704109e-17
9.68888751e-18
8.66640904e-18
1.0151518e-17
6.00732168e-18
7.73770524e-18
5.94579289e-18
4.04961185e-18
3.5062125e-18
1.76816068e-19
1.67167583e-18
1.27637481e-18
-4.93615351e-18
-4.40526501e-18
-3.32787166e-18
-5.94679521e-18
-8.94304947e-18
-1.09459809e-17
-9.31536104e-18
-1.16101897e-17
-1.50750075e-17
-1.62013967e-17
-1.51969172e-17
-1.64670114e-17
-1.98117709e-17
-2.20884742e-17
-2.18511769e-17
-2.06336972e-17
-2.252124e-17
-2.21010696e-17
-2.26233877e-17
-2.29526251e-17
-2.49664568e-17
-2.34330534e-17
-2.53693938e-17
-2.71996342e-17
-2.83235972e-17
-2.72347503e-17
-2.29530366e-17
-2.35529702e-17
-2.47673922e-17
-2.51836311e-17
-2.79201506e-17
-2.78371058e-17
-2.82533021e-17
-2.79213874e-17
-2.82916845e-17
-2.54877181e-17
-2.85693782e-17
-2.977762e-17
-2.74128826e-17
-2.92636883e-17
-3.11188582e-17
-3.25163813e-17
-3.22956811e-17
-3.03114022e-17
-3.22986895e-17
-3.44210486e-17
-3.30102842e-17
-3.29350732e-17
-3.26634554e-17
-3.47739325e-17
-3.57472857e-17
-3.69592852e-17
-3.54977054e-17
-3.55849054e-17
-3.74986963e-17
-3.95186888e-17
-4.06550715e-17
-3.77611389e-17
-4.13794084e-17
-4.13832303e-17
-4.10205574e-17
-4.60015274e-17
-4.61781215e-17
-4.48757837e-17
-4.10362213e-17
-4.46152432e-17
-4.90732878e-17
-4.90423642e-17
-4.80591895e-17
-4.88706399e-17
-5.12087337e-17
-5.0899396e-17
-5.49431665e-17
-5.62712863e-17
-5.67920576e-17
-5.76440943e-17
-6.14398737e-17
-6.17188604e-17
-6.13913802e-17
-6.47534407e-17
-6.4873107e-17
-6.59403196e-17
-6.4032594e-17
-6.48017642e-17
-6.21865755e-17
-6.09266498e-17
-5.96347243e-17
-6.26136378e-17
-6.02351644e-17
-6.22270587e-17
-6.10353801e-17
-6.40445466e-17
-6.19460329e-17
-6.40408217e-17
-6.14136806e-17
-6.59746524e-17
-6.64650198e-17
-6.57245464e-17
-6.9484825e-17
-6.74798002e-17
-6.91654072e-17
-6.49679484e-17
-6.39268725e-17
-6.10265829e-17
-6.40983907e-17
-6.73562962e-17
-6.57982352e-17
-6.18499499e-17
-6.05710186e-17
-6.35400339e-17
-6.32678268e-17
-6.43064898e-17
-6.76843892e-17
-7.07879619e-17
-6.81943148e-17
-6.71886397e-17
-6.86417308e-17
-6.67027418e-17
-6.7202243e-17
-6.35425042e-17
-6.31489597e-17
-6.29036362e-17
-6.51627936e-17
-6.83157177e-17
-6.81560166e-17
-6.9781222e-17
-6.619374e-17
-6.55751367e-17
-6.29351678e-17
-6.30382917e-17
-6.22546046e-17
-6.15247324e-17
-5.97988138e-17
-5.82774852e-17
-5.81376165e-17
-5.72810576e-17
-6.19096884e-17
-5.79297203e-17
-6.16479327e-17
-6.52648573e-17
-6.46405708e-17
-6.22941505e-17
-6.22507152e-17
-6.25906283e-17
-6.20261324e-17
-6.48889369e-17
-6.42616578e-17
-6.65047817e-17
-6.46598089e-17
-6.80399036e-17
-6.88601101e-17
-6.53135953e-17
-6.32471644e-17
-6.54284322e-17
-6.9288031e-17
-6.63702666e-17
-6.23654506e-17
-6.55805921e-17
-6.45631921e-17
-6.68856769e-17
-6.68609699e-17
-6.91078176e-17
-7.05615659e-17
-7.52110286e-17
-7.5369719e-17
-7.21260252e-17
-7.33727374e-17
-7.32522025e-17
-7.31806266e-17
-7.19102426e-17
-7.05886144e-17
-6.81541767e-17
-6.97350014e-17
-6.82574139e-17
-6.89430736e-17
-6.96538849e-17
-6.95423549e-17
-7.03382703e-17
-7.5429619e-17
-7.53013614e-17
-7.4766995e-17
-7.27830834e-17
-7.0917298e-17
-7.21475202e-17
-6.67941685e-17
-6.74181563e-17
-6.69719002e-17
-6.45511882e-17
-6.76275865e-17
-6.99586783e-17
-7.21231735e-17
-7.71616813e-17
-7.84038831e-17
-7.91398543e-17
-7.4411715e-17
-7.61445778e-17
-7.55803173e-17
-7.53835796e-17
-7.26403957e-17
-7.36095236e-17
-7.21489301e-17
-7.63383033e-17
-7.17766122e-17
-7.66067593e-17
-7.48903531e-17
-7.668291e-17
-7.23540924e-17
-7.5751647e-17
-6.89748596e-17
-6.92714847e-17
-6.88314539e-17
-6.69802084e-17
-6.70975463e-17
-6.65754285e-17
-6.55445749e-17
-6.83039638e-17
-6.87599795e-17
-6.72330514e-17
-6.74619306e-17
-6.70136465e-17
-6.6887226e-17
-6.55985735e-17
-6.79062444e-17
-6.54748856e-17
-6.98226044e-17
-6.73584102e-17
-6.66523368e-17
-6.51527204e-17
-6.64385077e-17
-6.43256583e-17
-6.44880396e-17
-6.89931083e-17
-6.65871732e-17
-6.43013129e-17
-6.82503866e-17
-6.55578288e-17
-6.41822897e-17
-6.51283259e-17
-6.6252917e-17
-6.49962643e-17
-6.19424811e-17
-6.28417638e-17
-6.48412562e-17
-6.62522144e-17
-6.72521133e-17
-6.82083323e-17
-6.69848774e-17
-6.6063045e-17
-6.35019916e-17
-6.60806674e-17
-6.37280158e-17
-6.50198366e-17
-6.65798541e-17
-6.44288481e-17
-6.63452351e-17
-6.90269324e-17
-6.50000707e-17
-6.51951249e-17
-6.5918192e-17
-6.69556925e-17
-6.50039882e-17
-6.73285687e-17
-6.89984997e-17
-7.25725715e-17
-7.15393235e-17
-7.0458221e-17
-7.2390835e-17
-7.31020764e-17
-7.51327127e-17
-7.13510966e-17
-6.93706688e-17
-6.9191114e-17
-6.92960697e-17
-6.82828348e-17
-6.51438301e-17
-6.42264517e-17
-6.54129613e-17
-6.44074847e-17
-6.76277852e-17
-6.95437571e-17
-7.2053437e-17
-7.22400282e-17
-7.06692898e-17
-7.42145477e-17
-7.04978533e-17
-7.18546808e-17
-6.74859012e-17
-6.74337408e-17
-6.73336242e-17
-7.26903679e-17
-7.40784814e-17
-7.3474401e-17
-7.44533496e-17
-7.10177751e-17
-6.97656443e-17
-7.44281674e-17
-7.72592319e-17
-7.52762481e-17
-7.82681929e-17
-7.67941423e-17
-7.70275076e-17
-7.44781184e-17
-7.67515049e-17
-7.68845555e-17
-7.78961668e-17
-7.719058e-17
-7.52582793e-17
-7.58832891e-17
-7.51594862e-17
-7.50978868e-17
-7.63031905e-17
-7.20395646e-17
-7.29118516e-17
-7.26254556e-17
-6.86715065e-17
-7.09607085e-17
-7.33048447e-17
-7.11394988e-17
-7.31058102e-17
-7.25504199e-17
-7.03512188e-17
-6.87801061e-17
-6.87208032e-17
-6.70389915e-17
-6.85307116e-17
-6.89085471e-17
-6.68945049e-17
-6.31981627e-17
-6.63088735e-17
-6.59320781e-17
-6.31777046e-17
-6.7621126e-17
-6.78324807e-17
-6.5935161e-17
-6.59580359e-17
-6.75932463e-17
-6.929746e-17
-6.36477571e-17
-6.30139352e-17
-6.20584925e-17
-6.32489825e-17
-6.29064034e-17
-6.01054798e-17
-5.946579e-17
-5.64040788e-17
-5.65695888e-17
-5.56065784e-17
-5.84011506e-17
-5.8891791e-17
-5.96925351e-17
-5.67993037e-17
-5.8814355e-17
-5.6205247e-17
-5.84514244e-17
-5.76735819e-17
-5.5068976e-17
-5.96746185e-17
-5.57496431e-17
-5.50605352e-17
-5.17081075e-17
-5.08167611e-17
-5.07210475e-17
-4.72639709e-17
-5.05791573e-17
-5.57906437e-17
-5.34552702e-17
-5.0014279e-17
-4.74086097e-17
-4.66009485e-17
-4.35792406e-17
-4.60046827e-17
-4.45863051e-17
-4.8321e-17
-4.42647434e-17
-4.5290838e-17
-4.30156364e-17
-4.50717467e-17
-4.49287143e-17
-4.19673815e-17
-4.10653601e-17
-4.24340359e-17
-4.26094744e-17
-4.14504589e-17
-4.25399422e-17
-4.07227286e-17
-3.90657e-17
-3.65059267e-17
-3.82614653e-17
-4.10775998e-17
-3.93566569e-17
-3.91688809e-17
-3.68741503e-17
-3.49067261e-17
-3.39790758e-17
-3.10758859e-17
-2.97592296e-17
-2.97576741e-17
-2.9663901e-17
-3.32271559e-17
-3.11144398e-17
-2.96301312e-17
-3.23171226e-17
-3.10400924e-17
-3.23390329e-17
-3.28911334e-17
-3.03531447e-17
-3.0840643e-17
-2.89603301e-17
-2.70741034e-17
-2.5857207e-17
-2.63941921e-17
-2.59681508e-17
-2.45886224e-17
-2.35092596e-17
-2.57016625e-17
-2.52719593e-17
-2.58818034e-17
-2.6519715e-17
-2.58724197e-17
-2.59467442e-17
-2.50536978e-17
-2.57969945e-17
-2.38910598e-17
-2.0850893e-17
-2.38352862e-17
-2.25122632e-17
-2.33080767e-17
-2.02246998e-17
-1.80683389e-17
-1.62976831e-17
-1.40241968e-17
-1.70051811e-17
-1.58696265e-17
-1.65497217e-17
-1.98324306e-17
-1.69923718e-17
-1.5768247e-17
-1.84159684e-17
-1.78085925e-17
-1.97928585e-17
-2.13246521e-17
-2.18281985e-17
-2.15325385e-17
-2.34565361e-17
-1.96899658e-17
-2.10992536e-17
-2.23014753e-17
-1.89577463e-17
-1.94390263e-17
-1.85710845e-17
-1.59995565e-17
-2.11374188e-17
-1.92925293e-17
-1.810874e-17
-2.20473529e-17
-2.16277729e-17
-1.97587875e-17
-1.4070696e-17
-1.74063829e-17
-1.76596311e-17
-1.65198938e-17
-1.74630922e-17
-1.86127945e-17
-1.72064404e-17
-1.69336173e-17
-1.72952987e-17
-1.42641081e-17
-1.74623126e-17
-1.54038958e-17
-1.01185159e-17
-8.40469262e-18
-5.3841717e-18
-5.26526969e-18
-6.6791936e-18
-4.43761247e-18
-4.44674017e-18
-2.51658551e-18
-4.59312883e-18
-6.70212264e-18
-5.5459873e-18
-6.80066584e-18
-9.96343906e-18
-5.45700406e-18
-7.29685736e-18
-4.16174483e-18
-6.98088895e-18
-5.25730998e-18
-3.61766807e-18
-6.2931524e-18
-4.84562112e-18
-6.47407859e-18
-1.55573216e-18
4.39718322e-19
3.29263378e-20
3.1201587e-20
-1.69038678e-18
-5.74735098e-18
-3.66219213e-18
-1.14608093e-18
-3.66301169e-19
1.69342343e-19
1.63663041e-18
1.41314247e-18
5.19806539e-18
5.06034804e-18
9.4066688e-18
8.25810922e-18
1.14897001e-17
1.28447158e-17
1.21086191e-17
1.21169904e-17
1.41467356e-17
1.11019071e-17
1.14753818e-17
1.43943318e-17
1.59522708e-17
1.94522974e-17
2.01159092e-17
1.86499094e-17
1.8878969e-17
2.09940882e-17
2.51597822e-17
2.62233366e-17
3.04354128e-17
3.07529098e-17
3.05399657e-17
3.3737854e-17
3.48094423e-17
3.8403203e-17
3.67998717e-17
3.18990481e-17
3.25364687e-17
3.32733576e-17
3.4032549e-17
3.33667593e-17
3.35784667e-17
3.61448417e-17
3.58233195e-17
3.67688287e-17
3.53714881e-17
3.8035723e-17
3.68891055e-17
3.92443852e-17
3.96354372e-17
4.07583438e-17
3.81364539e-17
3.98687592e-17
3.92214489e-17
4.0236214e-17
4.12297306e-17
4.15752055e-17
4.20282162e-17
4.30108872e-17
4.47355789e-17
4.58913945e-17
4.71903339e-17
4.81064183e-17
4.57179672e-17
4.89521579e-17
4.75410976e-17
5.14584205e-17
5.13869417e-17
5.49068666e-17
5.47820821e-17
5.66024692e-17
5.83314556e-17
6.14526212e-17
6.48836176e-17
6.8060632e-17
6.80883124e-17
6.6765027e-17
7.17781521e-17
7.12720508e-17
7.64251898e-17
7.79735457e-17
7.79524414e-17
8.30006771e-17
8.45531851e-17
8.8442316e-17
9.18619796e-17
8.94430645e-17
9.65940214e-17
1.00803291e-16
1.11229304e-16
1.13355215e-16
1.23976237e-16
1.26113218e-16
1.29450759e-16
1.37415238e-16
1.45173645e-16
1.52325472e-16
1.62273688e-16
1.71973574e-16
1.82235839e-16
1.89039386e-16
1.9946965e-16
2.09558764e-16
2.2030866e-16
2.33129333e-16
2.46067175e-16
2.59168793e-16
2.74992569e-16
2.90178663e-16
3.08305211e-16
3.24558893e-16
3.48595207e-16
3.72458785e-16
3.97447239e-16
4.27011844e-16
4.58304457e-16
4.87341679e-16
5.20986937e-16
5.55721451e-16
5.94522587e-16
6.37579764e-16
6.82619387e-16
7.33782972e-16
7.85678629e-16
8.47028155e-16
9.10999053e-16
9.80145981e-16
1.05187063e-15
1.13338516e-15
1.21899918e-15
1.30814827e-15
1.40824963e-15
1.51638525e-15
1.63578132e-15
1.75730852e-15
1.88650071e-15
2.03248543e-15
2.18621697e-15
2.35199976e-15
2.53293758e-15
2.72499158e-15
2.93443512e-15
3.15646081e-15
3.402338e-15
3.66170194e-15
3.94321804e-15
4.24622341e-15
4.57428404e-15
4.92605488e-15
5.30391339e-15
5.70870548e-15
6.14676867e-15
6.61845843e-15
7.12313154e-15
7.66619391e-15
8.25978429e-15
8.89323606e-15
9.57421442e-15
1.03043143e-14
1.10902212e-14
1.19352777e-14
1.28469843e-14
1.3824925e-14
1.48750143e-14
1.60058075e-14
1.72216647e-14
1.85281574e-14
1.99335316e-14
2.14423189e-14
2.30593979e-14
2.47984297e-14
2.66667186e-14
2.86753115e-14
3.08305113e-14
3.3147139e-14
3.5628827e-14
3.8295262e-14
4.11622621e-14
4.42391741e-14
4.75392806e-14
5.10818845e-14
5.4880836e-14
5.89601376e-14
6.3333363e-14
6.80308085e-14
7.30618837e-14
7.84592336e-14
8.42489242e-14
9.0455566e-14
9.71044352e-14
1.04236392e-13
1.11876023e-13
1.20063449e-13
1.28840531e-13
1.38241086e-13
1.48313004e-13
1.5909904e-13
1.70654766e-13
1.83026421e-13
1.96273601e-13
2.1046115e-13
2.25648667e-13
2.41903666e-13
2.59302065e-13
2.77922058e-13
2.97842113e-13
3.19157805e-13
3.41958082e-13
3.6634647e-13
3.92427214e-13
4.20323299e-13
4.501472e-13
4.82033321e-13
5.16121513e-13
5.52554628e-13
5.91490175e-13
6.33099757e-13
6.77556865e-13
7.25053494e-13
7.75785997e-13
8.29973164e-13
8.87844817e-13
9.49633078e-13
1.01560635e-12
1.08603515e-12
1.1612089e-12
1.24144183e-12
1.32705661e-12
1.41840766e-12
1.51586714e-12
1.6198255e-12
1.73070544e-12
1.84895199e-12
1.97504306e-12
2.1094737e-12
2.25278409e-12
2.40553191e-12
2.56832698e-12
2.74180318e-12
2.92663483e-12
3.12354312e-12
3.33328717e-12
3.55667591e-12
3.79456147e-12
4.04785409e-12
4.31751192e-12
4.60456497e-12
4.91008262e-12
5.23521534e-12
5.58116738e-12
5.94922983e-12
6.34076852e-12
6.75720688e-12
7.20008169e-12
7.67100163e-12
8.17167583e-12
8.70391043e-12
9.26961014e-12
9.87080324e-12
1.05096302e-11
1.1188343e-11
1.19093363e-11
1.26751394e-11
1.34884195e-11
1.4351999e-11