/*--------------------------------*- C++ -*----------------------------------*\
| =========                 |                                                 |
| \\      /  F ield         | OpenFOAM: The Open Source CFD Toolbox           |
|  \\    /   O peration     | Version:  2206                                  |
|   \\  /    A nd           | Website:  www.openfoam.com                      |
|    \\/     M anipulation  |                                                 |
\*---------------------------------------------------------------------------*/
FoamFile
{
    version     2.0;
    format      ascii;
    arch        "LSB;label=32;scalar=64";
    class       volScalarField;
    location    "1.46e-05";
    object      PVsourcePV;
}
// * * * * * * * * * * * * * * * * * * * * * * * * * * * * * * * * * * * * * //

dimensions      [1 -3 -1 0 0 0 0];

internalField   nonuniform List<scalar> 
3183
(
0
0
0
0
0
0
0
0
0
0
0
0
0
0
0
0
0
0
0
0
0
0
0
0
0
0
0
0
0
0
0
0
0
0
0
0
0
0
0
0
0
0
0
0
0
0
0
0
0
0
0
0
0
0
0
0
0
0
0
0
0
0
0
0
0
0
0
0
0
0
0
0
0
0
0
0
0
0
0
0
0
0
0
0
0
0
0
0
0
0
0
0
0
0
0
0
0
0
0
0
0
0
0
0
0
0
0
0
0
0
0
0
0
0
0
0
0
0
0
0
0
0
0
0
0
0
0
0
0
0
0
0
0
0
0
0
0
0
0
0
0
0
0
0
0
0
0
0
0
0
0
0
0
0
0
0
0
0
0
0
0
0
0
0
0
0
0
0
0
0
0
0
0
0
0
0
0
0
0
0
0
0
0
0
0
0
0
0
0
0
0
0
0
0
0
0
0
0
0
0
0
0
0
0
0
0
0
0
0
0
0
0
0
0
0
0
0
0
0
0
0
0
0
0
0
0
0
0
0
0
0
0
0
0
0
0
0
0
0
0
0
0
0
0
0
0
0
0
0
0
0
0
0
0
0
0
0
0
0
0
0
0
0
0
0
0
0
0
0
0
0
0
0
0
0
0
0
0
0
0
0
0
0
0
0
0
0
0
0
0
0
0
0
0
0
0
0
0
0
0
0
0
0
0
0
0
0
0
0
0
0
0
0
0
0
0
0
0
0
0
0
0
0
0
0
0
0
0
0
0
0
0
0
0
0
0
0
0
0
0
0
0
0
0
0
0
0
0
0
0
0
0
0
0
0
0
0
0
0
0
0
0
0
0
0
0
0
0
0
0
0
0
0
0
0
0
0
0
0
0
0
0
0
0
0
0
0
0
0
0
0
0
0
0
0
0
0
0
0
0
0
0
0
0
0
0
0
0
0
0
0
0
0
0
0
0
0
0
0
0
0
0
0
0
0
0
0
0
0
0
0
0
0
0
0
0
0
0
0
0
0
0
0
0
0
0
0
0
0
0
0
0
0
0
0
0
0
0
0
0
0
0
0
0
0
0
0
0
0
0
0
0
0
0
0
0
0
0
0
0
0
0
0
0
0
0
0
0
0
0
0
0
0
0
0
0
0
0
0
0
0
0
0
0
0
0
0
0
0
0
0
0
0
0
0
0
0
0
0
0
0
0
0
0
0
0
0
0
0
0
0
0
0
0
0
0
0
0
0
0
0
0
0
0
0
0
0
0
0
0
0
0
0
0
0
0
0
0
0
0
0
0
0
0
0
0
0
0
0
0
0
0
0
0
0
0
0
0
0
0
0
0
0
0
0
0
0
0
0
0
0
0
0
0
0
0
0
0
0
0
0
0
0
0
0
0
0
0
0
0
0
0
0
0
0
0
0
0
0
0
0
0
0
0
0
0
0
0
0
0
0
0
0
0
0
0
0
0
0
0
0
0
0
0
0
0
0
0
0
0
0
0
0
0
0
0
0
0
0
0
0
0
0
0
0
0
0
0
0
0
0
0
0
0
0
0
0
0
0
0
0
0
0
0
0
0
0
0
0
0
0
0
0
0
0
0
0
0
0
0
0
0
0
0
0
0
0
0
0
0
0
0
0
0
0
0
0
0
0
0
0
0
0
0
0
0
0
0
0
0
0
0
0
0
0
0
0
0
0
0
0
0
0
0
0
0
0
0
0
0
0
0
0
0
0
0
0
0
0
0
0
0
0
0
0
0
0
0
0
0
0
0
0
0
0
0
0
0
0
0
0
0
0
0
0
0
0
0
0
0
0
0
0
0
0
0
0
0
0
0
0
0
0
0
0
0
0
0
0
0
0
0
0
0
0
0
0
0
0
0
0
0
0
0
0
0
0
0
0
0
0
0
0
0
0
0
0
0
0
0
0
0
0
0
0
0
0
0
0
0
0
0
0
0
0
0
0
0
0
0
0
0
0
0
0
0
0
0
0
0
0
0
0
0
0
0
0
0
0
0
0
0
0
0
0
0
0
0
0
0
0
0
0
0
0
0
0
0
0
0
0
0
0
0
0
0
0
0
0
0
0
0
0
0
0
0
0
0
0
0
0
0
0
0
0
0
0
0
0
0
0
0
0
0
0
0
0
0
0
0
0
0
0
0
0
0
0
0
0
0
0
0
0
0
0
0
0
0
0
0
0
0
0
0
0
0
0
0
0
0
0
0
0
0
0
0
0
0
0
0
0
0
0
0
0
0
0
0
0
0
0
0
0
0
0
0
0
0
0
0
0
0
0
0
0
0
0
0
0
0
0
0
0
0
0
0
0
0
0
0
0
0
0
0
0
0
0
0
0
0
0
0
0
0
0
0
0
0
0
0
0
0
0
0
0
0
0
0
0
0
0
0
0
0
0
0
0
0
0
0
0
0
0
0
0
0
0
0
0
0
0
0
0
0
0
0
0
0
0
0
0
0
0
0
0
0
0
0
0
0
0
0
0
0
0
0
0
0
0
0
0
0
0
0
0
0
0
0
0
0
0
0
0
0
0
0
0
0
0
0
0
0
0
0
0
0
0
0
0
0
0
0
0
0
0
0
0
0
0
0
0
0
0
0
0
0
0
0
0
0
0
0
0
0
0
0
0
0
0
0
0
0
0
0
0
0
0
0
0
0
0
0
0
0
0
0
0
0
0
0
0
0
0
0
0
0
0
0
0
0
0
0
0
0
0
0
0
0
0
0
0
0
0
0
0
0
0
0
0
0
0
0
0
0
0
0
0
0
0
0
0
0
0
0
0
0
0
0
0
0
0
0
0
0
0
0
0
0
0
0
0
0
0
0
0
0
0
0
0
0
0
0
0
0
0
0
0
0
0
0
0
0
0
0
0
0
0
0
0
0
0
0
0
0
0
0
0
0
0
0
0
0
0
0
0
0
0
0
0
0
0
0
0
0
0
0
0
0
0
0
0
0
0
0
0
0
0
0
0
0
0
0
0
0
0
0
0
0
0
0
0
0
0
0
0
0
0
0
0
0
0
0
0
0
0
0
0
0
0
0
0
0
0
0
0
0
0
0
0
0
0
0
0
0
0
0
0
0
0
0
0
0
0
0
0
0
0
0
0
0
0
0
0
0
0
0
0
0
0
0
0
0
0
0
0
0
0
0
0
0
0
0
0
0
0
0
0
0
0
0
0
0
0
0
0
0
0
0
0
0
0
0
0
0
0
0
0
0
0
0
0
0
0
0
0
0
0
0
0
0
0
0
0
0
0
0
0
0
0
0
0
0
0
0
0
0
0
0
0
0
0
0
0
0
0
0
0
0
0
0
0
0
0
0
0
0
0
0
0
0
0
0
0
0
0
0
0
0
0
0
0
0
0
0
0
0
0
0
0
0
0
0
0
0
0
0
0
0
0
0
0
0
0
0
0
0
0
0
0
0
0
0
0
0
0
0
0
0
0
0
0
0
0
0
0
0
0
0
0
0
0
0
0
0
0
0
0
0
0
0
0
0
0
0
0
0
0
0
0
0
0
0
0
0
0
0
0
0
0
0
0
0
0
0
0
0
0
0
0
0
0
0
0
0
0
0
0
0
0
0
0
0
0
0
0
0
0
0
0
0
0
0
0
0
0
0
0
0
0
0
0
0
0
0
0
0
0
0
0
0
0
0
0
0
0
0
0
0
0
0
0
0
0
0
0
0
0
0
0
0
0
0
0
0
0
0
0
0
0
0
0
0
0
0
0
0
0
0
0
0
0
0
0
0
0
0
0
0
0
0
0
0
0
0
0
0
0
0
0
0
0
0
0
0
0
0
0
0
0
0
0
0
0
0
0
0
0
0
0
0
0
0
0
0
0
0
0
0
0
0
0
0
0
0
0
0
0
0
0
0
0
0
0
0
0
0
0
0
0
0
0
0
0
0
0
0
0
0
0
0
0
0
0
0
0
0
0
0
0
0
0
0
0
0
0
0
0
0
0
0
0
0
0
0
0
0
0
0
0
0
0
0
0
0
0
0
0
0
0
0
0
0
0
0
0
0
0
0
0
0
0
0
0
0
0
0
0
0
0
0
0
0
0
0
0
0
0
0
0
0
0
0
0
0
0
0
0
0
0
0
0
0
0
0
0
0
0
0
0
0
0
0
0
0
0
0
0
0
0
0
0
0
0
0
0
0
0
0
0
0
0
0
0
0
0
0
0
0
0
0
0
0
0
0
0
0
0
0
0
0
0
0
0
0
0
0
0
0
0
0
0
0
0
0
0
0
0
0
0
0
0
0
0
0
0
0
0
0
0
0
0
0
0
0
0
0
0
0
0
0
0
0
0
0
0
0
0
0
0
0
0
0
0
0
0
0
0
0
0
0
0
0
0
0
0
0
0
0
0
0
0
0
0
0
0
0
0
0
0
0
0
0
0
0
0
0
0
0
0
0
0
0
0
0
0
0
0
0
0
0
0
0
0
0
0
0
0
0
0
0
0
0
0
0
0
0
0
0
0
0
0
0
0
0
0
0
0
0
0
0
0
0
0
0
0
0
0
0
0
0
0
0
0
0
0
0
0
0
0
0
0
0
0
0
0
0
0
0
0
0
0
0
0
0
0
0
0
0
0
0
0
0
0
0
0
0
0
0
0
0
0
0
0
0
0
0
0
0
0
0
0
0
0
0
0
0
0
0
0
0
0
0
0
0
0
0
0
0
0
0
0
0
0
0
0
0
0
0
0
0
0
0
0
0
0
0
0
0
0
0
0
0
0
0
0
0
0
0
0
0
0
0
0
0
0
0
0
0
0
0
0
0
0
0
0
0
0
0
0
0
0
0
0
0
0
0
0
0
0
0
0
0
0
0
0
0
0
0
0
0
0
0
0
0
0
0
0
0
0
0
0
0
0
0
0
0
0
0
0
0
0
0
0
0
0
0
0
0
0
0
0
0
0
0
0
0
0
0
0
0
0
0
0
0
0
0
0
0
0
0
0
0
0
0
0
0
0
0
0
0
0
0
0
0
0
0
0
0
0
0
0
0
0
0
0
0
0
0
0
0
0
0
0
0
0
0
0
0
0
0
0
0
0
0
0
0
0
0
0
0
0
0
0
0
0
0
0
0
0
0
0
0
0
0
0
0
0
0
0
0
0
0
0
0
0
0
0
0
0
0
0
0
0
0
0
0
0
0
0
0
0
0
0
0
0
0
0
0
0
0
0
0
0
0
0
0
0
0
0
0
0
0
0
0
0
0
0
0
0
0
0
0
0
0
0
0
0
0
0
0
0
0
0
0
0
0
0
0
0
0
0
0
0
0
0
0
0
0
0
0
0
0
0
0
0
0
0
0
0
0
0
0
0
0
0
0
0
0
0
0
0
0
0
0
0
4.03907996e-300
1.50535839e-300
2.50654354e-297
9.50676666e-298
1.53856972e-294
5.93591892e-295
9.34150635e-292
3.66446706e-292
5.610249e-289
2.2368652e-289
3.33287906e-286
1.35019048e-286
1.95855105e-283
8.05816933e-284
1.13849969e-280
4.75633458e-281
6.54662431e-278
2.77641805e-278
3.72384195e-275
1.60208533e-275
2.09534852e-272
9.1483834e-273
1.16630851e-269
5.16582608e-270
6.4218884e-267
2.88613055e-267
3.49786655e-264
1.59360944e-264
1.88465989e-261
8.70253297e-262
1.00449816e-258
4.70012518e-259
5.2959992e-256
2.5105793e-256
2.76200533e-253
1.32629081e-253
1.42486339e-250
6.92950384e-251
7.27088651e-248
3.5806436e-248
3.66994251e-245
1.82983278e-245
1.83223117e-242
9.24799556e-243
9.04775322e-240
4.62235232e-240
4.41906162e-237
2.28480849e-237
2.13469851e-234
1.1168601e-234
1.01987637e-231
5.39882962e-232
4.81891514e-229
2.58071942e-229
2.25178546e-226
1.2198586e-226
1.04055458e-223
5.70153388e-224
4.75494923e-221
2.63494879e-221
2.14858229e-218
1.20402188e-218
9.59983963e-216
5.43951936e-216
4.24093353e-213
2.42958191e-213
1.85234932e-210
1.07282049e-210
7.99881169e-208
4.68301304e-208
3.41464208e-205
2.02070738e-205
1.44097595e-202
8.61860199e-203
6.01081683e-200
3.63328735e-200
2.47826369e-197
1.51378763e-197
1.00987926e-194
6.23309497e-195
4.06694723e-192
2.53621417e-192
1.61849939e-189
1.01971725e-189
6.36455012e-187
4.05090419e-187
2.47285552e-184
1.58989197e-184
9.49224013e-182
6.16439007e-182
3.59947401e-179
2.36091941e-179
1.34824683e-176
8.93101237e-177
4.98789975e-174
3.33662035e-174
1.8223845e-171
1.23099326e-171
6.57491925e-169
4.48437147e-169
2.34218439e-166
1.61286019e-166
8.23724618e-164
5.72652559e-164
2.85970487e-161
2.00693333e-161
9.79905615e-159
6.94172778e-159
3.31370966e-156
2.36939994e-156
1.10573922e-153
7.97969186e-154
3.64030147e-151
2.65123999e-151
1.1822356e-148
8.68885712e-149
3.78691568e-146
2.80840457e-146
1.19622294e-143
8.9509648e-144
3.72572174e-141
2.812677e-141
1.14394253e-138
8.71230648e-139
3.46189458e-136
2.6596821e-136
1.03241929e-133
8.00066487e-134
3.03350067e-131
2.37101822e-131
8.77984695e-129
6.92093718e-129
2.50258981e-126
1.98939346e-126
7.02348907e-124
5.62992197e-124
1.94031695e-121
1.5682145e-121
5.27521413e-119
4.2985354e-119
1.41104572e-116
1.1591318e-116
3.71241124e-114
3.07412967e-114
9.60416563e-112
8.01608784e-112
2.44241866e-109
2.0545716e-109
6.10378437e-107
5.17439457e-107
1.49848179e-104
1.28006212e-104
3.61263433e-102
3.10943842e-102
8.54979519e-100
7.41396112e-100
1.98553166e-97
1.73446425e-97
4.52280859e-95
3.97966938e-95
1.01009152e-92
8.95168978e-93
2.21072326e-90
1.9730512e-90
4.73933585e-88
4.25926012e-88
9.94685319e-86
9.00050577e-86
2.04268311e-83
1.86078976e-83
4.10213935e-81
3.76158676e-81
8.05090626e-79
7.4304942e-79
1.54318221e-76
1.43333874e-76
2.88683177e-74
2.69809192e-74
5.26659696e-72
4.95236115e-72
9.36250724e-70
8.85651699e-70
1.62043299e-67
1.54180764e-67
2.72798281e-65
2.61039819e-65
4.46258978e-63
4.29391455e-63
7.08589851e-61
6.85480268e-61
1.09082199e-58
1.06075654e-58
1.6259526e-56
1.5891083e-56
2.34342466e-54
2.30139933e-54
3.26077399e-52
3.21699412e-52
4.37310633e-50
4.33279594e-50
5.64232838e-48
5.61159593e-48
6.98940536e-46
6.97300441e-46
8.29379825e-44
8.22202122e-44
9.40433054e-42
9.40772696e-42
1.01587069e-39
1.01474592e-39
1.04228952e-37
1.03759033e-37
1.01194486e-35
1.00292466e-35
9.25804294e-34
9.14805944e-34
7.94247324e-32
7.85837849e-32
6.35311168e-30
6.3029192e-30
4.70663853e-28
4.61446287e-28
3.20422596e-26
3.19694687e-26
1.98377085e-24
1.9751599e-24
1.10416165e-22
1.09768263e-22
5.43833589e-21
5.40227456e-21
2.32235659e-19
2.30077371e-19
8.3625314e-18
8.35111324e-18
2.43810822e-16
2.43712967e-16
5.4057194e-15
5.42564342e-15
7.91634057e-11
7.99973332e-11
0.0052369728
0.0231554524
0.564035661
0.667240264
0.633191106
0.561692351
0.175977294
0.144355731
0.027542605
0.0242811969
0.0058669798
0.00536755545
0.00110220856
0.00105079358
0.000186664039
0.00018441665
2.99139136e-05
2.98634386e-05
4.90993152e-06
4.91958593e-06
1.24127943e-06
1.24097851e-06
7.39469865e-07
7.3969089e-07
6.76160877e-07
6.76194401e-07
6.68681527e-07
6.68680636e-07
6.67843372e-07
6.67844308e-07
6.67754511e-07
6.67756151e-07
6.67746355e-07
6.67747635e-07
6.67744463e-07
6.67746914e-07
6.67745132e-07
6.67744961e-07
6.67745461e-07
6.67744007e-07
6.67746445e-07
6.67744403e-07
6.67746844e-07
6.67744548e-07
6.67746028e-07
6.67745642e-07
6.67745551e-07
6.67746335e-07
6.67746016e-07
6.67745592e-07
6.67746195e-07
6.67745719e-07
6.67746158e-07
6.67745821e-07
6.67746251e-07
6.67745876e-07
6.67745394e-07
6.67747279e-07
6.67744938e-07
6.67746008e-07
6.67746064e-07
6.67746263e-07
6.67745786e-07
6.67745206e-07
6.67745504e-07
6.67745516e-07
6.67745483e-07
6.6774606e-07
6.67745396e-07
6.67745682e-07
6.67744965e-07
6.67745447e-07
6.67744634e-07
6.67746082e-07
6.67745044e-07
6.67745899e-07
6.6774602e-07
6.67746494e-07
6.67745474e-07
6.6774652e-07
6.67745304e-07
6.67745823e-07
6.67745703e-07
6.67746153e-07
6.67745849e-07
6.67744784e-07
6.677468e-07
6.67744822e-07
6.67746198e-07
6.67744195e-07
6.67746851e-07
6.67745125e-07
6.67746537e-07
6.67745462e-07
6.67746734e-07
6.67745206e-07
6.67746253e-07
6.67746204e-07
6.6774651e-07
6.67746271e-07
6.67745667e-07
6.67745983e-07
6.67746443e-07
6.67746005e-07
6.677461e-07
6.67745757e-07
6.67746152e-07
6.67745965e-07
6.67745927e-07
6.67746003e-07
6.67745052e-07
6.67746138e-07
6.67745407e-07
6.67745943e-07
6.67745592e-07
6.67745399e-07
6.67744891e-07
6.67746806e-07
6.67744738e-07
6.67747089e-07
6.67745225e-07
6.677468e-07
6.67744309e-07
6.6774604e-07
6.67746012e-07
6.67745632e-07
6.67745246e-07
6.67746838e-07
6.67745706e-07
6.67746612e-07
6.6774653e-07
6.67745493e-07
6.67746998e-07
6.67746317e-07
6.67745908e-07
6.67746565e-07
6.67746259e-07
6.67746184e-07
6.67745909e-07
6.677457e-07
6.67745441e-07
6.67746421e-07
6.67744559e-07
6.67746596e-07
6.67745103e-07
6.6774572e-07
6.67745424e-07
6.67745564e-07
6.67746936e-07
6.67744828e-07
6.677466e-07
6.67745248e-07
6.67746436e-07
6.6774524e-07
6.67746872e-07
6.67745963e-07
6.67746445e-07
6.67746104e-07
6.67746133e-07
6.67745543e-07
6.67748164e-07
6.6774474e-07
6.67748146e-07
6.6774467e-07
6.67748027e-07
6.67745317e-07
6.67746843e-07
6.67746056e-07
6.67745992e-07
6.67745505e-07
6.67745094e-07
6.67745959e-07
6.67745084e-07
6.67746353e-07
6.67745583e-07
6.67746522e-07
6.67746492e-07
6.67746782e-07
6.6774651e-07
6.67746883e-07
6.6774673e-07
6.67747431e-07
6.67746252e-07
6.67747363e-07
6.6774584e-07
6.67745797e-07
6.67746451e-07
6.67745532e-07
6.67746873e-07
6.67746163e-07
6.67746701e-07
6.67745153e-07
6.6774675e-07
6.67746301e-07
6.67747043e-07
6.67745811e-07
6.67745949e-07
6.67745607e-07
6.67746662e-07
6.67745463e-07
6.67747612e-07
6.67744977e-07
6.67747778e-07
6.67745252e-07
6.6774666e-07
6.67746382e-07
6.67746093e-07
6.67745997e-07
6.67747797e-07
6.67746634e-07
6.67747021e-07
6.67746672e-07
6.6774651e-07
6.67746308e-07
6.67747086e-07
6.67746371e-07
6.67746267e-07
6.67746069e-07
6.67746108e-07
6.6774686e-07
6.67746099e-07
6.67746205e-07
6.67746817e-07
6.67746556e-07
6.67746411e-07
6.67746294e-07
6.67747936e-07
6.67745359e-07
6.67747207e-07
6.67746792e-07
6.67746752e-07
6.67746202e-07
6.67746602e-07
6.6774641e-07
6.6774616e-07
6.67747697e-07
6.67746456e-07
6.6774697e-07
6.67746464e-07
6.6774719e-07
6.67746631e-07
6.67747915e-07
6.67745113e-07
6.67748798e-07
6.67744842e-07
6.67748137e-07
6.67745987e-07
6.67745675e-07
6.67747154e-07
6.67744864e-07
6.67747433e-07
6.67745971e-07
6.67746824e-07
6.67745954e-07
6.67746997e-07
6.67746563e-07
6.67746648e-07
6.67746569e-07
6.67746948e-07
6.67747206e-07
6.67746974e-07
6.67746556e-07
6.67747428e-07
6.67746167e-07
6.6774673e-07
6.67745858e-07
6.67746888e-07
6.67746233e-07
6.6774708e-07
6.67745149e-07
6.67747418e-07
6.67745689e-07
6.67746838e-07
6.67746663e-07
6.67746344e-07
6.67747642e-07
6.67746418e-07
6.67746941e-07
6.67746561e-07
6.67746652e-07
6.67746562e-07
6.67746462e-07
6.67746277e-07
6.67746538e-07
6.67746465e-07
6.67746403e-07
6.67746184e-07
6.67747268e-07
6.67746482e-07
6.67747027e-07
6.67746663e-07
6.67746519e-07
6.67747593e-07
6.6774549e-07
6.67745831e-07
6.67747349e-07
6.67745834e-07
6.67747713e-07
6.67747245e-07
6.67747051e-07
6.67747002e-07
6.67746681e-07
6.67747661e-07
6.67746741e-07
6.67746886e-07
6.6774684e-07
6.6774639e-07
6.67746443e-07
6.67745831e-07
6.6774715e-07
6.67746159e-07
6.6774788e-07
6.67745517e-07
6.67748351e-07
6.67746363e-07
6.67746854e-07
6.6774679e-07
6.67747393e-07
6.67746672e-07
6.6774565e-07
6.67748191e-07
6.67745386e-07
6.67748203e-07
6.67745528e-07
6.67747711e-07
6.67746165e-07
6.6774651e-07
6.67747378e-07
6.6774626e-07
6.67747305e-07
6.67746838e-07
6.67747092e-07
6.6774651e-07
6.67747235e-07
6.67746009e-07
6.67747243e-07
6.67746716e-07
6.67747469e-07
6.67745946e-07
6.6774707e-07
6.67747056e-07
6.67747676e-07
6.67747168e-07
6.67747653e-07
6.67747118e-07
6.67747232e-07
6.67746397e-07
6.67747528e-07
6.67747231e-07
6.67746333e-07
6.67747859e-07
6.67746972e-07
6.67746573e-07
6.67746865e-07
6.67746959e-07
6.67746261e-07
6.67747661e-07
6.67746535e-07
6.67747791e-07
6.67746824e-07
6.67746805e-07
6.67746893e-07
6.67746904e-07
6.67747278e-07
6.67747472e-07
6.6774676e-07
6.67747212e-07
6.67747253e-07
6.67747946e-07
6.67747451e-07
6.67747951e-07
6.67747365e-07
6.67747498e-07
6.67747139e-07
6.67747922e-07
6.67746794e-07
6.6774742e-07
6.67747037e-07
6.67747559e-07
6.67747284e-07
6.67747219e-07
6.67747216e-07
6.67747124e-07
6.67746938e-07
6.67747271e-07
6.67747539e-07
6.67746441e-07
6.67747859e-07
6.67745672e-07
6.6774772e-07
6.67746294e-07
6.67747806e-07
6.67746472e-07
6.67747378e-07
6.67746747e-07
6.67747316e-07
6.67747592e-07
6.67747308e-07
6.67747597e-07
6.67747029e-07
6.67746936e-07
6.67747055e-07
6.67746483e-07
6.67748107e-07
6.67745977e-07
6.67748339e-07
6.67746219e-07
6.67748238e-07
6.67746753e-07
6.67747386e-07
6.67747386e-07
6.67748063e-07
6.67747275e-07
6.67747753e-07
6.67747373e-07
6.67746756e-07
6.67747447e-07
6.67747607e-07
6.67747598e-07
6.67747542e-07
6.67747691e-07
6.67748131e-07
6.67746804e-07
6.67749146e-07
6.67747096e-07
6.67748248e-07
6.67747268e-07
6.67748405e-07
6.67747304e-07
6.6774864e-07
6.67746875e-07
6.67748729e-07
6.67747937e-07
6.67747058e-07
6.67748448e-07
6.67747328e-07
6.6774798e-07
6.67748208e-07
6.67747372e-07
6.677481e-07
6.67747305e-07
6.67747736e-07
6.67747122e-07
6.67747821e-07
6.6774712e-07
6.67748327e-07
6.67747485e-07
6.6774838e-07
6.67747284e-07
6.67747873e-07
6.67748423e-07
6.67747287e-07
6.67748342e-07
6.67747402e-07
6.67747174e-07
6.67748217e-07
6.67746989e-07
6.67747902e-07
6.67748109e-07
6.67747028e-07
6.67748206e-07
6.67747505e-07
6.67747046e-07
6.67748407e-07
6.67746809e-07
6.67748754e-07
6.67747763e-07
6.67748331e-07
6.67747299e-07
6.67747842e-07
6.6774761e-07
6.67747276e-07
6.67747496e-07
6.67747293e-07
6.67747568e-07
6.67747813e-07
6.67747372e-07
6.67748448e-07
6.677468e-07
6.67747564e-07
6.67747364e-07
6.67747556e-07
6.67746689e-07
6.67747765e-07
6.67747216e-07
6.67747531e-07
6.67747442e-07
6.67747024e-07
6.67748211e-07
6.67747049e-07
6.67748207e-07
6.6774684e-07
6.67748953e-07
6.67746713e-07
6.67748851e-07
6.67745216e-07
6.6774983e-07
6.67745724e-07
6.67749005e-07
6.67746136e-07
6.67747489e-07
6.67747344e-07
6.67747888e-07
6.67748268e-07
6.67748398e-07
6.67747023e-07
6.67748617e-07
6.67747394e-07
6.6774772e-07
6.67747738e-07
6.67747914e-07
6.67747523e-07
6.67747978e-07
6.67747841e-07
6.67748159e-07
6.67747859e-07
6.67747893e-07
6.67748152e-07
6.67747823e-07
6.67747758e-07
6.6774815e-07
6.67748079e-07
6.67748088e-07
6.67747995e-07
6.67748121e-07
6.67748008e-07
6.67748159e-07
6.67748177e-07
6.67748228e-07
6.67748238e-07
6.67748289e-07
6.67748399e-07
6.67748459e-07
6.67748421e-07
6.67748549e-07
6.67748628e-07
6.67748657e-07
6.67748753e-07
6.67748865e-07
6.67749008e-07
6.6774909e-07
6.67749216e-07
6.677494e-07
6.67749536e-07
6.67749746e-07
6.67749976e-07
6.6775022e-07
6.67750422e-07
6.67750698e-07
6.67750928e-07
6.67751127e-07
6.67751315e-07
6.67751445e-07
6.67751534e-07
6.6775161e-07
6.67751635e-07
6.67751645e-07
6.67751626e-07
6.67751625e-07
6.67751664e-07
6.67751641e-07
6.67751652e-07
6.67751647e-07
6.67751642e-07
6.6775166e-07
6.67751659e-07
6.67751649e-07
6.67751671e-07
6.67751647e-07
6.67751654e-07
6.67751645e-07
6.67751649e-07
6.67751648e-07
6.67751649e-07
6.67751653e-07
6.67751643e-07
6.67751631e-07
6.67751668e-07
)
;

boundaryField
{
    closed
    {
        type            calculated;
        value           uniform 0;
    }
    open
    {
        type            calculated;
        value           uniform 0;
    }
    sides
    {
        type            empty;
    }
}


// ************************************************************************* //
