/*--------------------------------*- C++ -*----------------------------------*\
| =========                 |                                                 |
| \\      /  F ield         | OpenFOAM: The Open Source CFD Toolbox           |
|  \\    /   O peration     | Version:  2206                                  |
|   \\  /    A nd           | Website:  www.openfoam.com                      |
|    \\/     M anipulation  |                                                 |
\*---------------------------------------------------------------------------*/
FoamFile
{
    version     2.0;
    format      ascii;
    arch        "LSB;label=32;scalar=64";
    class       volScalarField;
    location    "1.46e-05";
    object      rho;
}
// * * * * * * * * * * * * * * * * * * * * * * * * * * * * * * * * * * * * * //

dimensions      [1 -3 0 0 0 0 0];

internalField   nonuniform List<scalar> 
3183
(
1.03926466
1.03926466
1.03926466
1.03926466
1.03926466
1.03926466
1.03926466
1.03926466
1.03926466
1.03926466
1.03926466
1.03926466
1.03926466
1.03926466
1.03926466
1.03926466
1.03926466
1.03926466
1.03926466
1.03926466
1.03926466
1.03926466
1.03926466
1.03926466
1.03926466
1.03926466
1.03926466
1.03926466
1.03926466
1.03926466
1.03926466
1.03926466
1.03926466
1.03926466
1.03926466
1.03926466
1.03926466
1.03926466
1.03926466
1.03926466
1.03926466
1.03926466
1.03926466
1.03926466
1.03926466
1.03926466
1.03926466
1.03926466
1.03926466
1.03926466
1.03926466
1.03926466
1.03926466
1.03926466
1.03926466
1.03926466
1.03926466
1.03926466
1.03926466
1.03926466
1.03926466
1.03926466
1.03926466
1.03926466
1.03926466
1.03926466
1.03926466
1.03926466
1.03926466
1.03926466
1.03926466
1.03926466
1.03926466
1.03926466
1.03926466
1.03926466
1.03926466
1.03926466
1.03926466
1.03926466
1.03926466
1.03926466
1.03926466
1.03926466
1.03926466
1.03926466
1.03926466
1.03926466
1.03926466
1.03926466
1.03926466
1.03926466
1.03926466
1.03926466
1.03926466
1.03926466
1.03926466
1.03926466
1.03926466
1.03926466
1.03926466
1.03926466
1.03926466
1.03926466
1.03926466
1.03926466
1.03926466
1.03926466
1.03926466
1.03926466
1.03926466
1.03926466
1.03926466
1.03926466
1.03926466
1.03926466
1.03926466
1.03926466
1.03926466
1.03926466
1.03926466
1.03926466
1.03926466
1.03926466
1.03926466
1.03926466
1.03926466
1.03926466
1.03926466
1.03926466
1.03926466
1.03926466
1.03926466
1.03926466
1.03926466
1.03926466
1.03926466
1.03926466
1.03926466
1.03926466
1.03926466
1.03926466
1.03926466
1.03926466
1.03926466
1.03926466
1.03926466
1.03926466
1.03926466
1.03926466
1.03926466
1.03926466
1.03926466
1.03926466
1.03926466
1.03926466
1.03926466
1.03926466
1.03926466
1.03926466
1.03926466
1.03926466
1.03926466
1.03926466
1.03926466
1.03926466
1.03926466
1.03926466
1.03926466
1.03926466
1.03926466
1.03926466
1.03926466
1.03926466
1.03926466
1.03926466
1.03926466
1.03926466
1.03926466
1.03926466
1.03926466
1.03926466
1.03926466
1.03926466
1.03926466
1.03926466
1.03926466
1.03926466
1.03926466
1.03926466
1.03926466
1.03926466
1.03926466
1.03926466
1.03926466
1.03926466
1.03926466
1.03926466
1.03926466
1.03926466
1.03926466
1.03926466
1.03926466
1.03926466
1.03926466
1.03926466
1.03926466
1.03926466
1.03926466
1.03926466
1.03926466
1.03926466
1.03926466
1.03926466
1.03926466
1.03926466
1.03926466
1.03926466
1.03926466
1.03926466
1.03926466
1.03926466
1.03926466
1.03926466
1.03926466
1.03926466
1.03926466
1.03926466
1.03926466
1.03926466
1.03926466
1.03926466
1.03926466
1.03926466
1.03926466
1.03926466
1.03926466
1.03926466
1.03926466
1.03926466
1.03926466
1.03926466
1.03926466
1.03926466
1.03926466
1.03926466
1.03926466
1.03926466
1.03926466
1.03926466
1.03926466
1.03926466
1.03926466
1.03926466
1.03926466
1.03926466
1.03926466
1.03926466
1.03926466
1.03926466
1.03926466
1.03926466
1.03926466
1.03926466
1.03926466
1.03926466
1.03926466
1.03926466
1.03926466
1.03926466
1.03926466
1.03926466
1.03926466
1.03926466
1.03926466
1.03926466
1.03926466
1.03926466
1.03926466
1.03926466
1.03926466
1.03926466
1.03926466
1.03926466
1.03926466
1.03926466
1.03926466
1.03926466
1.03926466
1.03926466
1.03926466
1.03926466
1.03926466
1.03926466
1.03926466
1.03926466
1.03926466
1.03926466
1.03926466
1.03926466
1.03926466
1.03926466
1.03926466
1.03926466
1.03926466
1.03926466
1.03926466
1.03926466
1.03926466
1.03926466
1.03926466
1.03926466
1.03926466
1.03926466
1.03926466
1.03926466
1.03926466
1.03926466
1.03926466
1.03926466
1.03926466
1.03926466
1.03926466
1.03926466
1.03926466
1.03926466
1.03926466
1.03926466
1.03926466
1.03926466
1.03926466
1.03926466
1.03926466
1.03926466
1.03926466
1.03926466
1.03926466
1.03926466
1.03926466
1.03926466
1.03926466
1.03926466
1.03926466
1.03926466
1.03926466
1.03926466
1.03926466
1.03926466
1.03926466
1.03926466
1.03926466
1.03926466
1.03926466
1.03926466
1.03926466
1.03926466
1.03926466
1.03926466
1.03926466
1.03926466
1.03926466
1.03926466
1.03926466
1.03926466
1.03926466
1.03926466
1.03926466
1.03926466
1.03926466
1.03926466
1.03926466
1.03926466
1.03926466
1.03926466
1.03926466
1.03926466
1.03926466
1.03926466
1.03926466
1.03926466
1.03926466
1.03926466
1.03926466
1.03926466
1.03926466
1.03926466
1.03926466
1.03926466
1.03926466
1.03926466
1.03926466
1.03926466
1.03926466
1.03926466
1.03926466
1.03926466
1.03926466
1.03926466
1.03926466
1.03926466
1.03926466
1.03926466
1.03926466
1.03926466
1.03926466
1.03926466
1.03926466
1.03926466
1.03926466
1.03926466
1.03926466
1.03926466
1.03926466
1.03926466
1.03926466
1.03926466
1.03926466
1.03926466
1.03926466
1.03926466
1.03926466
1.03926466
1.03926466
1.03926466
1.03926466
1.03926466
1.03926466
1.03926466
1.03926466
1.03926466
1.03926466
1.03926466
1.03926466
1.03926466
1.03926466
1.03926466
1.03926466
1.03926466
1.03926466
1.03926466
1.03926466
1.03926466
1.03926466
1.03926466
1.03926466
1.03926466
1.03926466
1.03926466
1.03926466
1.03926466
1.03926466
1.03926466
1.03926466
1.03926466
1.03926466
1.03926466
1.03926466
1.03926466
1.03926466
1.03926466
1.03926466
1.03926466
1.03926466
1.03926466
1.03926466
1.03926466
1.03926466
1.03926466
1.03926466
1.03926466
1.03926466
1.03926466
1.03926466
1.03926466
1.03926466
1.03926466
1.03926466
1.03926466
1.03926466
1.03926466
1.03926466
1.03926466
1.03926466
1.03926466
1.03926466
1.03926466
1.03926466
1.03926466
1.03926466
1.03926466
1.03926466
1.03926466
1.03926466
1.03926466
1.03926466
1.03926466
1.03926466
1.03926466
1.03926466
1.03926466
1.03926466
1.03926466
1.03926466
1.03926466
1.03926466
1.03926466
1.03926466
1.03926466
1.03926466
1.03926466
1.03926466
1.03926466
1.03926466
1.03926466
1.03926466
1.03926466
1.03926466
1.03926466
1.03926466
1.03926466
1.03926466
1.03926466
1.03926466
1.03926466
1.03926466
1.03926466
1.03926466
1.03926466
1.03926466
1.03926466
1.03926466
1.03926466
1.03926466
1.03926466
1.03926466
1.03926466
1.03926466
1.03926466
1.03926466
1.03926466
1.03926466
1.03926466
1.03926466
1.03926466
1.03926466
1.03926466
1.03926466
1.03926466
1.03926466
1.03926466
1.03926466
1.03926466
1.03926466
1.03926466
1.03926466
1.03926466
1.03926466
1.03926466
1.03926466
1.03926466
1.03926466
1.03926466
1.03926466
1.03926466
1.03926466
1.03926466
1.03926466
1.03926466
1.03926466
1.03926466
1.03926466
1.03926466
1.03926466
1.03926466
1.03926466
1.03926466
1.03926466
1.03926466
1.03926466
1.03926466
1.03926466
1.03926466
1.03926466
1.03926466
1.03926466
1.03926466
1.03926466
1.03926466
1.03926466
1.03926466
1.03926466
1.03926466
1.03926466
1.03926466
1.03926466
1.03926466
1.03926466
1.03926466
1.03926466
1.03926466
1.03926466
1.03926466
1.03926466
1.03926466
1.03926466
1.03926466
1.03926466
1.03926466
1.03926466
1.03926466
1.03926466
1.03926466
1.03926466
1.03926466
1.03926466
1.03926466
1.03926466
1.03926466
1.03926466
1.03926466
1.03926466
1.03926466
1.03926466
1.03926466
1.03926466
1.03926466
1.03926466
1.03926466
1.03926466
1.03926466
1.03926466
1.03926466
1.03926466
1.03926466
1.03926466
1.03926466
1.03926466
1.03926466
1.03926466
1.03926466
1.03926466
1.03926466
1.03926466
1.03926466
1.03926466
1.03926466
1.03926466
1.03926466
1.03926466
1.03926466
1.03926466
1.03926466
1.03926466
1.03926466
1.03926466
1.03926466
1.03926466
1.03926466
1.03926466
1.03926466
1.03926466
1.03926466
1.03926466
1.03926466
1.03926466
1.03926466
1.03926466
1.03926466
1.03926466
1.03926466
1.03926466
1.03926466
1.03926466
1.03926466
1.03926466
1.03926466
1.03926466
1.03926466
1.03926466
1.03926466
1.03926466
1.03926466
1.03926466
1.03926466
1.03926466
1.03926466
1.03926466
1.03926466
1.03926466
1.03926466
1.03926466
1.03926466
1.03926466
1.03926466
1.03926466
1.03926466
1.03926466
1.03926466
1.03926466
1.03926466
1.03926466
1.03926466
1.03926466
1.03926466
1.03926466
1.03926466
1.03926466
1.03926466
1.03926466
1.03926466
1.03926466
1.03926466
1.03926466
1.03926466
1.03926466
1.03926466
1.03926466
1.03926466
1.03926466
1.03926466
1.03926466
1.03926466
1.03926466
1.03926466
1.03926466
1.03926466
1.03926466
1.03926466
1.03926466
1.03926466
1.03926466
1.03926466
1.03926466
1.03926466
1.03926466
1.03926466
1.03926466
1.03926466
1.03926466
1.03926466
1.03926466
1.03926466
1.03926466
1.03926466
1.03926466
1.03926466
1.03926466
1.03926466
1.03926466
1.03926466
1.03926466
1.03926466
1.03926466
1.03926466
1.03926466
1.03926466
1.03926466
1.03926466
1.03926466
1.03926466
1.03926466
1.03926466
1.03926466
1.03926466
1.03926466
1.03926466
1.03926466
1.03926466
1.03926466
1.03926466
1.03926466
1.03926466
1.03926466
1.03926466
1.03926466
1.03926466
1.03926466
1.03926466
1.03926466
1.03926466
1.03926466
1.03926466
1.03926466
1.03926466
1.03926466
1.03926466
1.03926466
1.03926466
1.03926466
1.03926466
1.03926466
1.03926466
1.03926466
1.03926466
1.03926466
1.03926466
1.03926466
1.03926466
1.03926466
1.03926466
1.03926466
1.03926466
1.03926466
1.03926466
1.03926466
1.03926466
1.03926466
1.03926466
1.03926466
1.03926466
1.03926466
1.03926466
1.03926466
1.03926466
1.03926466
1.03926466
1.03926466
1.03926466
1.03926466
1.03926466
1.03926466
1.03926466
1.03926466
1.03926466
1.03926466
1.03926466
1.03926466
1.03926466
1.03926466
1.03926466
1.03926466
1.03926466
1.03926466
1.03926466
1.03926466
1.03926466
1.03926466
1.03926466
1.03926466
1.03926466
1.03926466
1.03926466
1.03926466
1.03926466
1.03926466
1.03926466
1.03926466
1.03926466
1.03926466
1.03926466
1.03926466
1.03926466
1.03926466
1.03926466
1.03926466
1.03926466
1.03926466
1.03926466
1.03926466
1.03926466
1.03926466
1.03926466
1.03926466
1.03926466
1.03926466
1.03926466
1.03926466
1.03926466
1.03926466
1.03926466
1.03926466
1.03926466
1.03926466
1.03926466
1.03926466
1.03926466
1.03926466
1.03926466
1.03926466
1.03926466
1.03926466
1.03926466
1.03926466
1.03926466
1.03926466
1.03926466
1.03926466
1.03926466
1.03926466
1.03926466
1.03926466
1.03926466
1.03926466
1.03926466
1.03926466
1.03926466
1.03926466
1.03926466
1.03926466
1.03926466
1.03926466
1.03926466
1.03926466
1.03926466
1.03926466
1.03926466
1.03926466
1.03926466
1.03926466
1.03926466
1.03926466
1.03926466
1.03926466
1.03926466
1.03926466
1.03926466
1.03926466
1.03926466
1.03926466
1.03926466
1.03926466
1.03926466
1.03926466
1.03926466
1.03926466
1.03926466
1.03926466
1.03926466
1.03926466
1.03926466
1.03926466
1.03926466
1.03926466
1.03926466
1.03926466
1.03926466
1.03926466
1.03926466
1.03926466
1.03926466
1.03926466
1.03926466
1.03926466
1.03926466
1.03926466
1.03926466
1.03926466
1.03926466
1.03926466
1.03926466
1.03926466
1.03926466
1.03926466
1.03926466
1.03926466
1.03926466
1.03926466
1.03926466
1.03926466
1.03926466
1.03926466
1.03926466
1.03926466
1.03926466
1.03926466
1.03926466
1.03926466
1.03926466
1.03926466
1.03926466
1.03926466
1.03926466
1.03926466
1.03926466
1.03926466
1.03926466
1.03926466
1.03926466
1.03926466
1.03926466
1.03926466
1.03926466
1.03926466
1.03926466
1.03926466
1.03926466
1.03926466
1.03926466
1.03926466
1.03926466
1.03926466
1.03926466
1.03926466
1.03926466
1.03926466
1.03926466
1.03926466
1.03926466
1.03926466
1.03926466
1.03926466
1.03926466
1.03926466
1.03926466
1.03926466
1.03926466
1.03926466
1.03926466
1.03926466
1.03926466
1.03926466
1.03926466
1.03926466
1.03926466
1.03926466
1.03926466
1.03926466
1.03926466
1.03926466
1.03926466
1.03926466
1.03926466
1.03926466
1.03926466
1.03926466
1.03926466
1.03926466
1.03926466
1.03926466
1.03926466
1.03926466
1.03926466
1.03926466
1.03926466
1.03926466
1.03926466
1.03926466
1.03926466
1.03926466
1.03926466
1.03926466
1.03926466
1.03926466
1.03926466
1.03926466
1.03926466
1.03926466
1.03926466
1.03926466
1.03926466
1.03926466
1.03926466
1.03926466
1.03926466
1.03926466
1.03926466
1.03926466
1.03926466
1.03926466
1.03926466
1.03926466
1.03926466
1.03926466
1.03926466
1.03926466
1.03926466
1.03926466
1.03926466
1.03926466
1.03926466
1.03926466
1.03926466
1.03926466
1.03926466
1.03926466
1.03926466
1.03926466
1.03926466
1.03926466
1.03926466
1.03926466
1.03926466
1.03926466
1.03926466
1.03926466
1.03926466
1.03926466
1.03926466
1.03926466
1.03926466
1.03926466
1.03926466
1.03926466
1.03926466
1.03926466
1.03926466
1.03926466
1.03926466
1.03926466
1.03926466
1.03926466
1.03926466
1.03926466
1.03926466
1.03926466
1.03926466
1.03926466
1.03926466
1.03926466
1.03926466
1.03926466
1.03926466
1.03926466
1.03926466
1.03926466
1.03926466
1.03926466
1.03926466
1.03926466
1.03926466
1.03926466
1.03926466
1.03926466
1.03926466
1.03926466
1.03926466
1.03926466
1.03926466
1.03926466
1.03926466
1.03926466
1.03926466
1.03926466
1.03926466
1.03926466
1.03926466
1.03926466
1.03926466
1.03926466
1.03926466
1.03926466
1.03926466
1.03926466
1.03926466
1.03926466
1.03926466
1.03926466
1.03926466
1.03926466
1.03926466
1.03926466
1.03926466
1.03926466
1.03926466
1.03926466
1.03926466
1.03926466
1.03926466
1.03926466
1.03926466
1.03926466
1.03926466
1.03926466
1.03926466
1.03926466
1.03926466
1.03926466
1.03926466
1.03926466
1.03926466
1.03926466
1.03926466
1.03926466
1.03926466
1.03926466
1.03926466
1.03926466
1.03926466
1.03926466
1.03926466
1.03926466
1.03926466
1.03926466
1.03926466
1.03926466
1.03926466
1.03926466
1.03926466
1.03926466
1.03926466
1.03926466
1.03926466
1.03926466
1.03926466
1.03926466
1.03926466
1.03926466
1.03926466
1.03926466
1.03926466
1.03926466
1.03926466
1.03926466
1.03926466
1.03926466
1.03926466
1.03926466
1.03926466
1.03926466
1.03926466
1.03926466
1.03926466
1.03926466
1.03926466
1.03926466
1.03926466
1.03926466
1.03926466
1.03926466
1.03926466
1.03926466
1.03926466
1.03926466
1.03926466
1.03926466
1.03926466
1.03926466
1.03926466
1.03926466
1.03926466
1.03926466
1.03926466
1.03926466
1.03926466
1.03926466
1.03926466
1.03926466
1.03926466
1.03926466
1.03926466
1.03926466
1.03926466
1.03926466
1.03926466
1.03926466
1.03926466
1.03926466
1.03926466
1.03926466
1.03926466
1.03926466
1.03926466
1.03926466
1.03926466
1.03926466
1.03926466
1.03926466
1.03926466
1.03926466
1.03926466
1.03926466
1.03926466
1.03926466
1.03926466
1.03926466
1.03926466
1.03926466
1.03926466
1.03926466
1.03926466
1.03926466
1.03926466
1.03926466
1.03926466
1.03926466
1.03926466
1.03926466
1.03926466
1.03926466
1.03926466
1.03926466
1.03926466
1.03926466
1.03926466
1.03926466
1.03926466
1.03926466
1.03926466
1.03926466
1.03926466
1.03926466
1.03926466
1.03926466
1.03926466
1.03926466
1.03926466
1.03926466
1.03926466
1.03926466
1.03926466
1.03926466
1.03926466
1.03926466
1.03926466
1.03926466
1.03926466
1.03926466
1.03926466
1.03926466
1.03926466
1.03926466
1.03926466
1.03926466
1.03926466
1.03926466
1.03926466
1.03926466
1.03926466
1.03926466
1.03926466
1.03926466
1.03926466
1.03926466
1.03926466
1.03926466
1.03926466
1.03926466
1.03926466
1.03926466
1.03926466
1.03926466
1.03926466
1.03926466
1.03926466
1.03926466
1.03926466
1.03926466
1.03926466
1.03926466
1.03926466
1.03926466
1.03926466
1.03926466
1.03926466
1.03926466
1.03926466
1.03926466
1.03926466
1.03926466
1.03926466
1.03926466
1.03926466
1.03926466
1.03926466
1.03926466
1.03926466
1.03926466
1.03926466
1.03926466
1.03926466
1.03926466
1.03926466
1.03926466
1.03926466
1.03926466
1.03926466
1.03926466
1.03926466
1.03926466
1.03926466
1.03926466
1.03926466
1.03926466
1.03926466
1.03926466
1.03926466
1.03926466
1.03926466
1.03926466
1.03926466
1.03926466
1.03926466
1.03926466
1.03926466
1.03926466
1.03926466
1.03926466
1.03926466
1.03926466
1.03926466
1.03926466
1.03926466
1.03926466
1.03926466
1.03926466
1.03926466
1.03926466
1.03926466
1.03926466
1.03926466
1.03926466
1.03926466
1.03926466
1.03926466
1.03926466
1.03926466
1.03926466
1.03926466
1.03926466
1.03926466
1.03926466
1.03926466
1.03926466
1.03926466
1.03926466
1.03926466
1.03926466
1.03926466
1.03926466
1.03926466
1.03926466
1.03926466
1.03926466
1.03926466
1.03926466
1.03926466
1.03926466
1.03926466
1.03926466
1.03926466
1.03926466
1.03926466
1.03926466
1.03926466
1.03926466
1.03926466
1.03926466
1.03926466
1.03926466
1.03926466
1.03926466
1.03926466
1.03926466
1.03926466
1.03926466
1.03926466
1.03926466
1.03926466
1.03926466
1.03926466
1.03926466
1.03926466
1.03926466
1.03926466
1.03926466
1.03926466
1.03926466
1.03926466
1.03926466
1.03926466
1.03926466
1.03926466
1.03926466
1.03926466
1.03926466
1.03926466
1.03926466
1.03926466
1.03926466
1.03926466
1.03926466
1.03926466
1.03926466
1.03926466
1.03926466
1.03926466
1.03926466
1.03926466
1.03926466
1.03926466
1.03926466
1.03926466
1.03926466
1.03926466
1.03926466
1.03926466
1.03926466
1.03926466
1.03926466
1.03926466
1.03926466
1.03926466
1.03926466
1.03926466
1.03926466
1.03926466
1.03926466
1.03926466
1.03926466
1.03926466
1.03926466
1.03926466
1.03926466
1.03926466
1.03926466
1.03926466
1.03926466
1.03926466
1.03926466
1.03926466
1.03926466
1.03926466
1.03926466
1.03926466
1.03926466
1.03926466
1.03926466
1.03926466
1.03926466
1.03926466
1.03926466
1.03926466
1.03926466
1.03926466
1.03926466
1.03926466
1.03926466
1.03926466
1.03926466
1.03926466
1.03926466
1.03926466
1.03926466
1.03926466
1.03926466
1.03926466
1.03926466
1.03926466
1.03926466
1.03926466
1.03926466
1.03926466
1.03926466
1.03926466
1.03926466
1.03926466
1.03926466
1.03926466
1.03926466
1.03926466
1.03926466
1.03926466
1.03926466
1.03926466
1.03926466
1.03926466
1.03926466
1.03926466
1.03926466
1.03926466
1.03926466
1.03926466
1.03926466
1.03926466
1.03926466
1.03926466
1.03926466
1.03926466
1.03926466
1.03926466
1.03926466
1.03926466
1.03926466
1.03926466
1.03926466
1.03926466
1.03926466
1.03926466
1.03926466
1.03926466
1.03926466
1.03926466
1.03926466
1.03926466
1.03926466
1.03926466
1.03926466
1.03926466
1.03926466
1.03926466
1.03926466
1.03926466
1.03926466
1.03926466
1.03926466
1.03926466
1.03926466
1.03926466
1.03926466
1.03926466
1.03926466
1.03926466
1.03926466
1.03926466
1.03926466
1.03926466
1.03926466
1.03926466
1.03926466
1.03926466
1.03926466
1.03926466
1.03926466
1.03926466
1.03926466
1.03926466
1.03926466
1.03926466
1.03926466
1.03926466
1.03926466
1.03926466
1.03926466
1.03926466
1.03926466
1.03926466
1.03926466
1.03926466
1.03926466
1.03926466
1.03926466
1.03926466
1.03926466
1.03926466
1.03926466
1.03926466
1.03926466
1.03926466
1.03926466
1.03926466
1.03926466
1.03926466
1.03926466
1.03926466
1.03926466
1.03926466
1.03926466
1.03926466
1.03926466
1.03926466
1.03926466
1.03926466
1.03926466
1.03926466
1.03926466
1.03926466
1.03926466
1.03926466
1.03926466
1.03926466
1.03926466
1.03926466
1.03926466
1.03926466
1.03926466
1.03926466
1.03926466
1.03926466
1.03926466
1.03926466
1.03926466
1.03926466
1.03926466
1.03926466
1.03926466
1.03926466
1.03926466
1.03926466
1.03926466
1.03926466
1.03926466
1.03926466
1.03926466
1.03926466
1.03926466
1.03926466
1.03926466
1.03926466
1.03926466
1.03926466
1.03926466
1.03926466
1.03926466
1.03926466
1.03926466
1.03926466
1.03926466
1.03926466
1.03926466
1.03926466
1.03926466
1.03926466
1.03926466
1.03926466
1.03926466
1.03926466
1.03926466
1.03926466
1.03926466
1.03926466
1.03926466
1.03926466
1.03926466
1.03926466
1.03926466
1.03926466
1.03926466
1.03926466
1.03926466
1.03926466
1.03926466
1.03926466
1.03926466
1.03926466
1.03926466
1.03926466
1.03926466
1.03926466
1.03926466
1.03926466
1.03926466
1.03926466
1.03926466
1.03926466
1.03926466
1.03926466
1.03926466
1.03926466
1.03926466
1.03926466
1.03926466
1.03926466
1.03926466
1.03926466
1.03926466
1.03926466
1.03926466
1.03926466
1.03926466
1.03926466
1.03926466
1.03926466
1.03926466
1.03926466
1.03926466
1.03926466
1.03926466
1.03926466
1.03926466
1.03926466
1.03926466
1.03926466
1.03926466
1.03926466
1.03926466
1.03926466
1.03926466
1.03926466
1.03926466
1.03926466
1.03926466
1.03926466
1.03926466
1.03926466
1.03926466
1.03926466
1.03926466
1.03926466
1.03926466
1.03926466
1.03926466
1.03926466
1.03926466
1.03926466
1.03926466
1.03926466
1.03926466
1.03926466
1.03926466
1.03926466
1.03926466
1.03926466
1.03926466
1.03926466
1.03926466
1.03926466
1.03926466
1.03926466
1.03926466
1.03926466
1.03926466
1.03926466
1.03926466
1.03926466
1.03926466
1.03926466
1.03926466
1.03926466
1.03926466
1.03926466
1.03926466
1.03926466
1.03926466
1.03926466
1.03926466
1.03926466
1.03926466
1.03926466
1.03926466
1.03926466
1.03926466
1.03926466
1.03926466
1.03926466
1.03926466
1.03926466
1.03926466
1.03926466
1.03926466
1.03926466
1.03926466
1.03926466
1.03926466
1.03926466
1.03926466
1.03926466
1.03926466
1.03926466
1.03926466
1.03926466
1.03926466
1.03926466
1.03926466
1.03926466
1.03926466
1.03926466
1.03926466
1.03926466
1.03926466
1.03926466
1.03926466
1.03926466
1.03926466
1.03926466
1.03926466
1.03926466
1.03926466
1.03926466
1.03926466
1.03926466
1.03926466
1.03926466
1.03926466
1.03926466
1.03926466
1.03926466
1.03926466
1.03926466
1.03926466
1.03926466
1.03926466
1.03926466
1.03926466
1.03926466
1.03926466
1.03926466
1.03926466
1.03926466
1.03926466
1.03926466
1.03926465
1.03926465
1.03926465
1.03926465
1.03926465
1.03926465
1.03926465
1.03926465
1.03926465
1.03926465
1.03926465
1.03926465
1.03926465
1.03926465
1.03926464
1.03926464
1.03926464
1.03926464
1.03926464
1.03926464
1.03926464
1.03926464
1.03926463
1.03926463
1.03926463
1.03926463
1.03926463
1.03926462
1.03926462
1.03926462
1.03926462
1.03926461
1.03926461
1.03926461
1.0392646
1.0392646
1.0392646
1.03926459
1.03926459
1.03926459
1.03926458
1.03926458
1.03926457
1.03926457
1.03926456
1.03926456
1.03926455
1.03926454
1.03926454
1.03926453
1.03926452
1.03926451
1.0392645
1.0392645
1.03926449
1.03926448
1.03926447
1.03926446
1.03926444
1.03926443
1.03926442
1.03926441
1.03926439
1.03926438
1.03926436
1.03926435
1.03926433
1.03926431
1.03926429
1.03926427
1.03926425
1.03926423
1.03926421
1.03926418
1.03926416
1.03926413
1.0392641
1.03926408
1.03926404
1.03926401
1.03926398
1.03926394
1.03926391
1.03926387
1.03926383
1.03926379
1.03926374
1.0392637
1.03926365
1.0392636
1.03926354
1.03926349
1.03926343
1.03926337
1.03926331
1.03926324
1.03926317
1.0392631
1.03926302
1.03926294
1.03926286
1.03926277
1.03926269
1.03926259
1.03926249
1.03926239
1.03926228
1.03926217
1.03926206
1.03926194
1.03926181
1.03926168
1.03926154
1.0392614
1.03926125
1.0392611
1.03926094
1.03926077
1.0392606
1.03926042
1.03926023
1.03926004
1.03925983
1.03925962
1.0392594
1.03925917
1.03925894
1.03925869
1.03925844
1.03925817
1.0392579
1.03925761
1.03925732
1.03925701
1.03925669
1.03925636
1.03925602
1.03925567
1.0392553
1.03925492
1.03925453
1.03925413
1.03925371
1.03925327
1.03925282
1.03925236
1.03925187
1.03925138
1.03925086
1.03925033
1.03924978
1.03924922
1.03924863
1.03924803
1.03924741
1.03924677
1.0392461
1.03924542
1.03924472
1.03924399
1.03924324
1.03924247
1.03924168
1.03924086
1.03924002
1.03923916
1.03923827
1.03923736
1.03923642
1.03923545
1.03923446
1.03923344
1.03923239
1.03923131
1.03923021
1.03922908
1.03922791
1.03922672
1.0392255
1.03922424
1.03922296
1.03922164
1.0392203
1.03921892
1.0392175
1.03921606
1.03921458
1.03921307
1.03921152
1.03920994
1.03920833
1.03920668
1.039205
1.03920328
1.03920152
1.03919973
1.03919791
1.03919605
1.03919415
1.03919222
1.03919025
1.03918825
1.03918621
1.03918413
1.03918202
1.03917987
1.03917769
1.03917547
1.03917322
1.03917093
1.03916861
1.03916625
1.03916386
1.03916143
1.03915898
1.03915648
1.03915396
1.03915141
1.03914882
1.0391462
1.03914355
1.03914088
1.03913817
1.03913544
1.03913268
1.03912989
1.03912708
1.03912425
1.03912139
1.0391185
1.0391156
1.03911268
1.03910974
1.03910678
1.0391038
1.03910081
1.0390978
1.03909478
1.03909175
1.0390887
1.03908565
1.0390826
1.03907953
1.03907646
1.03907339
1.03907032
1.03906725
1.03906418
1.03906111
1.03905805
1.039055
1.03905195
1.03904892
1.03904589
1.03904288
1.03903989
1.03903692
1.03903396
1.03903102
1.03902811
1.03902522
1.03902236
1.03901953
1.03901673
1.03901396
1.03901122
1.03900852
1.03900585
1.03900323
1.03900064
1.0389981
1.0389956
1.03899315
1.03899074
1.03898838
1.03898607
1.03898382
1.03898161
1.03897947
1.03897737
1.03897534
1.03897336
1.03897144
1.03896959
1.0389678
1.03896606
1.0389644
1.0389628
1.03896126
1.03895979
1.03895839
1.03895706
1.0389558
1.03895461
1.03895348
1.03895243
1.03895145
1.03895054
1.0389497
1.03894893
1.03894823
1.03894761
1.03894705
1.03894657
1.03894616
1.03894582
1.03894555
1.03894535
1.03894522
1.03894516
1.03894516
1.03894524
1.03894538
1.03894559
1.03894586
1.03894619
1.03894659
1.03894706
1.03894758
1.03894816
1.0389488
1.0389495
1.03895025
1.03895106
1.03895192
1.03895283
1.03895379
1.03895481
1.03895586
1.03895696
1.03895811
1.0389593
1.03896053
1.03896179
1.03896309
1.03896443
1.0389658
1.0389672
1.03896864
1.0389701
1.03897158
1.03897309
1.03897462
1.03897618
1.03897775
1.03897934
1.03898094
1.03898256
1.03898419
1.03898583
1.03898748
1.03898914
1.0389908
1.03899247
1.03899414
1.03899581
1.03899748
1.03899915
1.03900082
1.03900248
1.03900413
1.03900578
1.03900742
1.03900905
1.03901068
1.03901229
1.03901388
1.03901547
1.03901704
1.03901859
1.03902013
1.03902165
1.03902316
1.03902464
1.03902611
1.03902756
1.03902899
1.03903039
1.03903178
1.03903315
1.03903449
1.03903582
1.03903712
1.0390384
1.03903966
1.03904089
1.0390421
1.03904329
1.03904446
1.0390456
1.03904673
1.03904783
1.0390489
1.03904996
1.03905099
1.039052
1.03905299
1.03905396
1.03905491
1.03905584
1.03905675
1.03905763
1.0390585
1.03905935
1.03906018
1.03906099
1.03906179
1.03906256
1.03906332
1.03906406
1.03906479
1.0390655
1.0390662
1.03906688
1.03906754
1.0390682
1.03906884
1.03906946
1.03907008
1.03907068
1.03907127
1.03907185
1.03907242
1.03907298
1.03907353
1.03907407
1.0390746
1.03907512
1.03907564
1.03907615
1.03907665
1.03907714
1.03907763
1.03907811
1.03907859
1.03907906
1.03907953
1.03908
1.03908045
1.03908091
1.03908136
1.03908181
1.03908226
1.0390827
1.03908314
1.03908358
1.03908402
1.03908445
1.03908488
1.03908532
1.03908575
1.03908618
1.0390866
1.03908703
1.03908746
1.03908788
1.03908831
1.03908873
1.03908916
1.03908958
1.03909
1.03909043
1.03909085
1.03909127
1.03909169
1.03909211
1.03909253
1.03909295
1.03909336
1.03909378
1.0390942
1.03909461
1.03909502
1.03909543
1.03909584
1.03909625
1.03909666
1.03909706
1.03909746
1.03909786
1.03909825
1.03909865
1.03909904
1.03909942
1.03909981
1.03910019
1.03910056
1.03910093
1.0391013
1.03910166
1.03910202
1.03910238
1.03910273
1.03910307
1.03910341
1.03910374
1.03910407
1.0391044
1.03910471
1.03910502
1.03910533
1.03910563
1.03910592
1.03910621
1.03910649
1.03910676
1.03910703
1.03910729
1.03910755
1.0391078
1.03910804
1.03910828
1.03910851
1.03910873
1.03910895
1.03910916
1.03910937
1.03910957
1.03910976
1.03910995
1.03911013
1.03911031
1.03911048
1.03911065
1.03911082
1.03911098
1.03911113
1.03911128
1.03911143
1.03911157
1.03911171
1.03911184
1.03911198
1.03911211
1.03911224
1.03911236
1.03911249
1.03911261
1.03911273
1.03911285
1.03911297
1.03911309
1.03911321
1.03911333
1.03911345
1.03911357
1.03911369
1.03911381
1.03911394
1.03911406
1.03911419
1.03911432
1.03911445
1.03911459
1.03911473
1.03911487
1.03911502
1.03911516
1.03911532
1.03911547
1.03911563
1.0391158
1.03911597
1.03911614
1.03911632
1.0391165
1.03911669
1.03911688
1.03911708
1.03911728
1.03911749
1.0391177
1.03911791
1.03911813
1.03911835
1.03911858
1.03911881
1.03911905
1.03911929
1.03911953
1.03911977
1.03912002
1.03912027
1.03912052
1.03912078
1.03912104
1.03912129
1.03912155
1.03912181
1.03912207
1.03912233
1.03912259
1.03912285
1.03912311
1.03912336
1.03912362
1.03912387
1.03912412
1.03912436
1.03912461
1.03912485
1.03912509
1.03912532
1.03912555
1.03912577
1.03912599
1.03912621
1.03912642
1.03912662
1.03912682
1.03912702
1.03912721
1.0391274
1.03912758
1.03912775
1.03912792
1.03912809
1.03912825
1.0391284
1.03912855
1.0391287
1.03912884
1.03912898
1.03912911
1.03912924
1.03912937
1.03912949
1.03912962
1.03912973
1.03912985
1.03912996
1.03913008
1.03913019
1.03913029
1.0391304
1.03913051
1.03913061
1.03913072
1.03913082
1.03913092
1.03913103
1.03913113
1.03913123
1.03913134
1.03913144
1.03913154
1.03913165
1.03913175
1.03913186
1.03913196
1.03913207
1.03913218
1.03913229
1.0391324
1.03913251
1.03913262
1.03913273
1.03913284
1.03913295
1.03913306
1.03913318
1.03913329
1.03913341
1.03913352
1.03913364
1.03913375
1.03913387
1.03913399
1.0391341
1.03913422
1.03913434
1.03913445
1.03913456
1.03913468
1.03913479
1.0391349
1.03913501
1.03913512
1.03913523
1.03913533
1.03913543
1.03913553
1.03913563
1.03913572
1.03913581
1.03913589
1.03913597
1.03913604
1.03913612
1.03913618
1.03913624
1.0391363
1.03913635
1.0391364
1.03913644
1.03913648
1.03913652
1.03913655
1.03913658
1.03913661
1.03913664
1.03913666
1.03913669
1.03913672
1.03913675
1.03913678
1.03913682
1.03913687
1.03913692
1.03913698
1.03913705
1.03913712
1.03913721
1.0391373
1.0391374
1.03913765
1.03913777
1.03914288
1.03914301
1.03928749
1.03928757
1.04245165
1.0424637
0.886404914
0.886084124
0.430872468
0.402109729
0.315068501
0.306875663
0.280535881
0.277933682
0.268205129
0.267445328
0.264129786
0.263971164
0.263075452
0.263051148
0.262843654
0.262841132
0.262799078
0.262798947
0.262791412
0.262791391
0.26279016
0.262790144
0.262789951
0.262789938
0.262789901
0.26278989
0.262789877
0.262789869
0.26278986
0.262789853
0.262789847
0.262789842
0.262789837
0.262789833
0.26278983
0.262789827
0.262789824
0.262789822
0.26278982
0.262789818
0.262789816
0.262789815
0.262789813
0.262789812
0.262789811