/*--------------------------------*- C++ -*----------------------------------*\
| =========                 |                                                 |
| \\      /  F ield         | OpenFOAM: The Open Source CFD Toolbox           |
|  \\    /   O peration     | Version:  2206                                  |
|   \\  /    A nd           | Website:  www.openfoam.com                      |
|    \\/     M anipulation  |                                                 |
\*---------------------------------------------------------------------------*/
FoamFile
{
    version     2.0;
    format      ascii;
    arch        "LSB;label=32;scalar=64";
    class       volScalarField;
    location    "1.46e-05";
    object      sourcePV;
}
// * * * * * * * * * * * * * * * * * * * * * * * * * * * * * * * * * * * * * //

dimensions      [1 -3 -1 0 0 0 0];

internalField   nonuniform List<scalar> 
3183
(
0
0
0
0
0
0
0
0
0
0
0
0
0
0
0
0
0
0
0
0
0
0
0
0
0
0
0
0
0
0
0
0
0
0
0
0
0
0
0
0
0
0
0
0
0
0
0
0
0
0
0
0
0
0
0
0
0
0
0
0
0
0
0
0
0
0
0
0
0
0
0
0
0
0
0
0
0
0
0
0
0
0
0
0
0
0
0
0
0
0
0
0
0
0
0
0
0
0
0
0
0
0
0
0
0
0
0
0
0
0
0
0
0
0
0
0
0
0
0
0
0
0
0
0
0
0
0
0
0
0
0
0
0
0
0
0
0
0
0
0
0
0
0
0
0
0
0
0
0
0
0
0
0
0
0
0
0
0
0
0
0
0
0
0
0
0
0
0
0
0
0
0
0
0
0
0
0
0
0
0
0
0
0
0
0
0
0
0
0
0
0
0
0
0
0
0
0
0
0
0
0
0
0
0
0
0
0
0
0
0
0
0
0
0
0
0
0
0
0
0
0
0
0
0
0
0
0
0
0
0
0
0
0
0
0
0
0
0
0
0
0
0
0
0
0
0
0
0
0
0
0
0
0
0
0
0
0
0
0
0
0
0
0
0
0
0
0
0
0
0
0
0
0
0
0
0
0
0
0
0
0
0
0
0
0
0
0
0
0
0
0
0
0
0
0
0
0
0
0
0
0
0
0
0
0
0
0
0
0
0
0
0
0
0
0
0
0
0
0
0
0
0
0
0
0
0
0
0
0
0
0
0
0
0
0
0
0
0
0
0
0
0
0
0
0
0
0
0
0
0
0
0
0
0
0
0
0
0
0
0
0
0
0
0
0
0
0
0
0
0
0
0
0
0
0
0
0
0
0
0
0
0
0
0
0
0
0
0
0
0
0
0
0
0
0
0
0
0
0
0
0
0
0
0
0
0
0
0
0
0
0
0
0
0
0
0
0
0
0
0
0
0
0
0
0
0
0
0
0
0
0
0
0
0
0
0
0
0
0
0
0
0
0
0
0
0
0
0
0
0
0
0
0
0
0
0
0
0
0
0
0
0
0
0
0
0
0
0
0
0
0
0
0
0
0
0
0
0
0
0
0
0
0
0
0
0
0
0
0
0
0
0
0
0
0
0
0
0
0
0
0
0
0
0
0
0
0
0
0
0
0
0
0
0
0
0
0
0
0
0
0
0
0
0
0
0
0
0
0
0
0
0
0
0
0
0
0
0
0
0
0
0
0
0
0
0
0
0
0
0
0
0
0
0
0
0
0
0
0
0
0
0
0
0
0
0
0
0
0
0
0
0
0
0
0
0
0
0
0
0
0
0
0
0
0
0
0
0
0
0
0
0
0
0
0
0
0
0
0
0
0
0
0
0
0
0
0
0
0
0
0
0
0
0
0
0
0
0
0
0
0
0
0
0
0
0
0
0
0
0
0
0
0
0
0
0
0
0
0
0
0
0
0
0
0
0
0
0
0
0
0
0
0
0
0
0
0
0
0
0
0
0
0
0
0
0
0
0
0
0
0
0
0
0
0
0
0
0
0
0
0
0
0
0
0
0
0
0
0
0
0
0
0
0
0
0
0
0
0
0
0
0
0
0
0
0
0
0
0
0
0
0
0
0
0
0
0
0
0
0
0
0
0
0
0
0
0
0
0
0
0
0
0
0
0
0
0
0
0
0
0
0
0
0
0
0
0
0
0
0
0
0
0
0
0
0
0
0
0
0
0
0
0
0
0
0
0
0
0
0
0
0
0
0
0
0
0
0
0
0
0
0
0
0
0
0
0
0
0
0
0
0
0
0
0
0
0
0
0
0
0
0
0
0
0
0
0
0
0
0
0
0
0
0
0
0
0
0
0
0
0
0
0
0
0
0
0
0
0
0
0
0
0
0
0
0
0
0
0
0
0
0
0
0
0
0
0
0
0
0
0
0
0
0
0
0
0
0
0
0
0
0
0
0
0
0
0
0
0
0
0
0
0
0
0
0
0
0
0
0
0
0
0
0
0
0
0
0
0
0
0
0
0
0
0
0
0
0
0
0
0
0
0
0
0
0
0
0
0
0
0
0
0
0
0
0
0
0
0
0
0
0
0
0
0
0
0
0
0
0
0
0
0
0
0
0
0
0
0
0
0
0
0
0
0
0
0
0
0
0
0
0
0
0
0
0
0
0
0
0
0
0
0
0
0
0
0
0
0
0
0
0
0
0
0
0
0
0
0
0
0
0
0
0
0
0
0
0
0
0
0
0
0
0
0
0
0
0
0
0
0
0
0
0
0
0
0
0
0
0
0
0
0
0
0
0
0
0
0
0
0
0
0
0
0
0
0
0
0
0
0
0
0
0
0
0
0
0
0
0
0
0
0
0
0
0
0
0
0
0
0
0
0
0
0
0
0
0
0
0
0
0
0
0
0
0
0
0
0
0
0
0
0
0
0
0
0
0
0
0
0
0
0
0
0
0
0
0
0
0
0
0
0
0
0
0
0
0
0
0
0
0
0
0
0
0
0
0
0
0
0
0
0
0
0
0
0
0
0
0
0
0
0
0
0
0
0
0
0
0
0
0
0
0
0
0
0
0
0
0
0
0
0
0
0
0
0
0
0
0
0
0
0
0
0
0
0
0
0
0
0
0
0
0
0
0
0
0
0
0
0
0
0
0
0
0
0
0
0
0
0
0
0
0
0
0
0
0
0
0
0
0
0
0
0
0
0
0
0
0
0
0
0
0
0
0
0
0
0
0
0
0
0
0
0
0
0
0
0
0
0
0
0
0
0
0
0
0
0
0
0
0
0
0
0
0
0
0
0
0
0
0
0
0
0
0
0
0
0
0
0
0
0
0
0
0
0
0
0
0
0
0
0
0
0
0
0
0
0
0
0
0
0
0
0
0
0
0
0
0
0
0
0
0
0
0
0
0
0
0
0
0
0
0
0
0
0
0
0
0
0
0
0
0
0
0
0
0
0
0
0
0
0
0
0
0
0
0
0
0
0
0
0
0
0
0
0
0
0
0
0
0
0
0
0
0
0
0
0
0
0
0
0
0
0
0
0
0
0
0
0
0
0
0
0
0
0
0
0
0
0
0
0
0
0
0
0
0
0
0
0
0
0
0
0
0
0
0
0
0
0
0
0
0
0
0
0
0
0
0
0
0
0
0
0
0
0
0
0
0
0
0
0
0
0
0
0
0
0
0
0
0
0
0
0
0
0
0
0
0
0
0
0
0
0
0
0
0
0
0
0
0
0
0
0
0
0
0
0
0
0
0
0
0
0
0
0
0
0
0
0
0
0
0
0
0
0
0
0
0
0
0
0
0
0
0
0
0
0
0
0
0
0
0
0
0
0
0
0
0
0
0
0
0
0
0
0
0
0
0
0
0
0
0
0
0
0
0
0
0
0
0
0
0
0
0
0
0
0
0
0
0
0
0
0
0
0
0
0
0
0
0
0
0
0
0
0
0
0
0
0
0
0
0
0
0
0
0
0
0
0
0
0
0
0
0
0
0
0
0
0
0
0
0
0
0
0
0
0
0
0
0
0
0
0
0
0
0
0
0
0
0
0
0
0
0
0
0
0
0
0
0
0
0
0
0
0
0
0
0
0
0
0
0
0
0
0
0
0
0
0
0
0
0
0
0
0
0
0
0
0
0
0
0
0
0
0
0
0
0
0
0
0
0
0
0
0
0
0
0
0
0
0
0
0
0
0
0
0
0
0
0
0
0
0
0
0
0
0
0
0
0
0
0
0
0
0
0
0
0
0
0
0
0
0
0
0
0
0
0
0
0
0
0
0
0
0
0
0
0
0
0
0
0
0
0
0
0
0
0
0
0
0
0
0
0
0
0
0
0
0
0
0
0
0
0
0
0
0
0
0
0
0
0
0
0
0
0
0
0
0
0
0
0
0
0
0
0
0
0
0
0
0
0
0
0
0
0
0
0
0
0
0
0
0
0
0
0
0
0
0
0
0
0
0
0
0
0
0
0
0
0
0
0
0
0
0
0
0
0
0
0
0
0
0
0
0
0
0
0
0
0
0
0
0
0
0
0
0
0
0
0
0
0
0
0
0
0
0
0
0
0
0
0
0
0
0
0
0
0
0
0
0
0
0
0
0
0
0
0
0
0
0
0
0
0
0
0
0
0
0
0
0
0
0
0
0
0
0
0
0
0
0
0
0
0
0
0
0
0
0
0
0
0
0
0
0
0
0
0
0
0
0
0
0
0
0
0
0
0
0
0
0
0
0
0
0
0
0
0
0
0
0
0
0
0
0
0
0
0
0
0
0
0
0
0
0
0
0
0
0
0
0
0
0
0
0
0
0
0
0
0
0
0
0
0
0
0
0
0
0
0
0
0
0
0
0
0
0
0
0
0
0
0
0
0
0
0
0
0
0
0
0
0
0
0
0
0
0
0
0
0
0
0
0
0
0
0
0
0
0
0
0
0
0
0
0
0
0
0
0
0
0
0
0
0
0
0
0
0
0
0
0
0
0
0
0
0
0
0
0
0
0
0
0
0
0
0
0
0
0
0
0
0
0
0
0
0
0
0
0
0
0
0
0
0
0
0
0
0
0
0
0
0
0
0
0
0
0
0
0
0
0
0
0
0
0
0
0
0
0
0
0
0
0
0
0
0
0
0
0
0
0
0
0
0
0
0
0
0
0
0
0
0
0
0
0
0
0
0
0
0
0
0
0
0
0
0
0
0
0
0
0
0
0
0
0
0
0
0
0
0
0
0
0
0
0
0
0
0
0
0
0
0
0
0
0
0
0
0
0
0
0
0
0
0
0
0
0
0
0
0
0
0
0
0
0
0
0
0
0
0
0
0
0
0
0
0
0
0
0
0
0
0
0
0
0
0
0
0
0
0
0
0
0
0
0
0
0
0
0
0
0
0
0
0
0
0
0
0
0
0
0
0
0
0
0
0
0
0
0
0
0
0
0
0
0
0
0
0
0
0
0
0
0
0
0
0
0
0
0
0
0
0
0
0
0
0
0
0
0
0
0
0
0
0
0
0
0
0
0
0
0
0
0
0
0
0
0
0
0
0
0
0
0
0
0
0
0
0
0
0
0
0
0
0
0
0
0
0
0
0
0
0
0
0
0
0
0
0
0
0
0
0
0
0
0
0
0
0
0
0
0
0
0
0
0
0
0
0
0
0
0
0
0
0
0
0
0
0
0
0
0
0
0
0
0
0
0
0
0
0
0
0
0
0
0
0
0
0
0
0
0
0
0
0
0
0
0
0
0
0
0
0
0
0
0
0
0
0
0
0
0
0
0
0
0
0
0
0
0
0
0
0
0
0
0
0
0
0
0
0
0
0
0
0
0
0
0
0
0
0
0
1.12395348e-299
4.11435998e-300
7.05182775e-297
2.62820449e-297
4.37617316e-294
1.65978593e-294
2.68618813e-291
1.0363518e-291
1.63093314e-288
6.39779127e-289
9.79493103e-286
3.90534187e-286
5.81887195e-283
2.35729691e-283
3.41943333e-280
1.4068754e-280
1.98770606e-277
8.30408225e-278
1.14297482e-274
4.84734694e-275
6.50145388e-272
2.79708e-272
3.65826797e-269
1.59721582e-269
2.03625747e-266
9.01901326e-267
1.12119719e-263
5.03889393e-264
6.10692353e-261
2.78228196e-261
3.29042679e-258
1.51937481e-258
1.75375286e-255
8.20594629e-256
9.24628246e-253
4.3832192e-253
4.82218378e-250
2.31557049e-250
2.48766831e-247
1.20982174e-247
1.26942373e-244
6.25144393e-245
6.40735086e-242
3.19470417e-242
3.19889152e-239
1.6146071e-239
1.5796468e-236
8.07016269e-237
7.71523756e-234
3.98904604e-234
3.72696909e-231
1.9499255e-231
1.78060166e-228
9.42581404e-229
8.41334162e-226
4.50567679e-226
3.93139116e-223
2.12975054e-223
1.81670374e-220
9.95430525e-221
8.30166357e-218
4.60035582e-218
3.75120879e-215
2.10210123e-215
1.67603554e-212
9.49685424e-213
7.4042438e-210
4.24180588e-210
3.23401579e-207
1.87303677e-207
1.39651215e-204
8.17607021e-205
5.96162196e-202
3.52795204e-202
2.51579922e-199
1.50472131e-199
1.04942822e-196
6.34335464e-197
4.32679939e-194
2.6429211e-194
1.76314771e-191
1.08823575e-191
7.10048122e-189
4.4279751e-189
2.8257373e-186
1.78032386e-186
1.1111865e-183
7.07247167e-184
4.31735727e-181
2.77579162e-181
1.65724975e-178
1.07624057e-178
6.28431995e-176
4.12192806e-176
2.3539035e-173
1.55926502e-173
8.70837177e-171
5.82540386e-171
3.18170021e-168
2.14919054e-168
1.14791484e-165
7.829262e-166
4.0892186e-163
2.81589183e-163
1.43814041e-160
9.99793827e-161
4.99275736e-158
3.50390393e-158
1.71081674e-155
1.21195592e-155
5.7854041e-153
4.13673421e-153
1.93050957e-150
1.39317402e-150
6.35560058e-148
4.62879862e-148
2.06406456e-145
1.51698715e-145
6.61157426e-143
4.90319219e-143
2.08848505e-140
1.56274851e-140
6.50473579e-138
4.91065143e-138
1.99720871e-135
1.52108117e-135
6.04412007e-133
4.64353769e-133
1.80250034e-130
1.39683569e-130
5.29618735e-128
4.13955958e-128
1.53287306e-125
1.20832609e-125
4.36927034e-123
3.47328108e-123
1.22623062e-120
9.82927807e-121
3.38759843e-118
2.73794495e-118
9.20999381e-116
7.50481088e-116
2.46354404e-113
2.02372766e-113
6.481497e-111
5.36712152e-111
1.67679082e-108
1.39952839e-108
4.26421757e-106
3.58707557e-106
1.06565942e-103
9.033973e-104
2.61619864e-101
2.23485984e-101
6.30729654e-99
5.42876704e-99
1.49270833e-96
1.29440312e-96
3.46653877e-94
3.0282003e-94
7.89636935e-92
6.94810286e-92
1.7635183e-89
1.56287509e-89
3.85970067e-87
3.44474915e-87
8.27440417e-85
7.43624019e-85
1.73662062e-82
1.57139787e-82
3.56631946e-80
3.24875195e-80
7.16192311e-78
6.56735252e-78
1.40560734e-75
1.29728962e-75
2.69424107e-73
2.50246542e-73
5.0401182e-71
4.71059738e-71
9.19494909e-69
8.64632494e-69
1.63459969e-66
1.54625887e-66
2.82911317e-64
2.69184121e-64
4.76278388e-62
4.55749294e-62
7.79123334e-60
7.49674334e-60
1.23712668e-57
1.19677967e-57
1.90446558e-55
1.85197433e-55
2.83874986e-53
2.77442342e-53
4.09138398e-51
4.01801199e-51
5.69298374e-49
5.61654848e-49
7.63500423e-47
7.56462635e-47
9.85093841e-45
9.79728263e-45
1.22027995e-42
1.2174165e-42
1.44801384e-40
1.43548229e-40
1.64190162e-38
1.6424946e-38
1.77360814e-36
1.77164441e-36
1.81973277e-34
1.81152846e-34
1.76675404e-32
1.75100568e-32
1.61636127e-30
1.59715926e-30
1.38667602e-28
1.37199392e-28
1.10918946e-26
1.10042636e-26
8.21731794e-25
8.05638851e-25
5.59425656e-23
5.58154799e-23
3.46346457e-21
3.44843072e-21
1.92775529e-19
1.91644358e-19
9.49478801e-18
9.43182855e-18
4.05460126e-16
4.01691971e-16
1.46001395e-14
1.45802046e-14
4.25669197e-13
4.25498352e-13
9.4378429e-12
9.47262823e-12
1.10191953e-08
1.11134249e-08
0.120131014
0.479118152
8.26303928
9.42585752
7.94147286
6.96438083
2.09526471
1.71514249
0.323491497
0.285185832
0.0689084418
0.0630426374
0.0129455799
0.0123417043
0.00219238967
0.00216599379
0.000351338928
0.000350746093
5.7663886e-05
5.77772783e-05
1.4575087e-05
1.45715526e-05
8.68126797e-06
8.68386393e-06
7.93769561e-06
7.93808936e-06
7.84984967e-06
7.84983921e-06
7.84000542e-06
7.84001642e-06
7.83896174e-06
7.83898101e-06
7.83886595e-06
7.83888098e-06
7.83884372e-06
7.83887252e-06
7.83885158e-06
7.83884958e-06
7.83885545e-06
7.83883837e-06
7.83886701e-06
7.83884302e-06
7.83887169e-06
7.83884473e-06
7.83886211e-06
7.83885758e-06
7.83885651e-06
7.83886572e-06
7.83886197e-06
7.83885699e-06
7.83886407e-06
7.83885848e-06
7.83886363e-06
7.83885968e-06
7.83886473e-06
7.83886032e-06
7.83885466e-06
7.8388768e-06
7.8388493e-06
7.83886188e-06
7.83886253e-06
7.83886487e-06
7.83885927e-06
7.83885245e-06
7.83885596e-06
7.83885609e-06
7.83885571e-06
7.83886249e-06
7.83885468e-06
7.83885804e-06
7.83884962e-06
7.83885529e-06
7.83884574e-06
7.83886274e-06
7.83885055e-06
7.83886059e-06
7.83886201e-06
7.83886758e-06
7.83885561e-06
7.83886789e-06
7.8388536e-06
7.8388597e-06
7.8388583e-06
7.83886358e-06
7.83886e-06
7.83884749e-06
7.83887118e-06
7.83884795e-06
7.8388641e-06
7.83884058e-06
7.83887178e-06
7.83885151e-06
7.83886808e-06
7.83885546e-06
7.8388704e-06
7.83885246e-06
7.83886475e-06
7.83886417e-06
7.83886778e-06
7.83886497e-06
7.83885787e-06
7.83886158e-06
7.83886698e-06
7.83886183e-06
7.83886296e-06
7.83885893e-06
7.83886356e-06
7.83886137e-06
7.83886092e-06
7.83886181e-06
7.83885065e-06
7.8388634e-06
7.83885481e-06
7.83886111e-06
7.83885699e-06
7.83885473e-06
7.83884875e-06
7.83887125e-06
7.83884695e-06
7.83887457e-06
7.83885268e-06
7.83887118e-06
7.83884192e-06
7.83886225e-06
7.83886192e-06
7.83885746e-06
7.83885293e-06
7.83887162e-06
7.83885833e-06
7.83886897e-06
7.83886801e-06
7.83885583e-06
7.83887351e-06
7.8388655e-06
7.8388607e-06
7.83886842e-06
7.83886482e-06
7.83886394e-06
7.83886071e-06
7.83885825e-06
7.83885521e-06
7.83886673e-06
7.83884486e-06
7.83886878e-06
7.83885124e-06
7.83885849e-06
7.83885501e-06
7.83885665e-06
7.83887277e-06
7.83884801e-06
7.83886882e-06
7.83885295e-06
7.8388669e-06
7.83885285e-06
7.83887202e-06
7.83886135e-06
7.83886701e-06
7.838863e-06
7.83886334e-06
7.83885641e-06
7.8388872e-06
7.83884699e-06
7.83888699e-06
7.83884616e-06
7.83888559e-06
7.83885376e-06
7.83887168e-06
7.83886244e-06
7.83886169e-06
7.83885597e-06
7.83885114e-06
7.8388613e-06
7.83885102e-06
7.83886592e-06
7.83885689e-06
7.83886791e-06
7.83886756e-06
7.83887096e-06
7.83886776e-06
7.83887215e-06
7.83887036e-06
7.83887859e-06
7.83886474e-06
7.83887778e-06
7.83885991e-06
7.8388594e-06
7.83886708e-06
7.83885628e-06
7.83887203e-06
7.8388637e-06
7.83887001e-06
7.83885184e-06
7.83887059e-06
7.83886532e-06
7.83887403e-06
7.83885956e-06
7.83886118e-06
7.83885716e-06
7.83886955e-06
7.83885548e-06
7.83888072e-06
7.83884976e-06
7.83888267e-06
7.83885299e-06
7.83886953e-06
7.83886627e-06
7.83886287e-06
7.83886175e-06
7.83888289e-06
7.83886923e-06
7.83887377e-06
7.83886967e-06
7.83886776e-06
7.8388654e-06
7.83887453e-06
7.83886613e-06
7.83886492e-06
7.8388626e-06
7.83886305e-06
7.83887188e-06
7.83886295e-06
7.83886419e-06
7.83887138e-06
7.83886832e-06
7.83886661e-06
7.83886523e-06
7.83888452e-06
7.83885425e-06
7.83887595e-06
7.83887108e-06
7.83887061e-06
7.83886415e-06
7.83886885e-06
7.8388666e-06
7.83886366e-06
7.83888171e-06
7.83886714e-06
7.83887318e-06
7.83886722e-06
7.83887576e-06
7.83886919e-06
7.83888428e-06
7.83885136e-06
7.83889465e-06
7.83884818e-06
7.83888688e-06
7.83886162e-06
7.83885797e-06
7.83887534e-06
7.83884844e-06
7.83887861e-06
7.83886144e-06
7.83887146e-06
7.83886124e-06
7.83887349e-06
7.83886839e-06
7.8388694e-06
7.83886846e-06
7.83887291e-06
7.83887594e-06
7.83887322e-06
7.83886832e-06
7.83887856e-06
7.83886374e-06
7.83887035e-06
7.83886012e-06
7.83887221e-06
7.83886451e-06
7.83887447e-06
7.83885178e-06
7.83887843e-06
7.83885813e-06
7.83887162e-06
7.83886957e-06
7.83886582e-06
7.83888107e-06
7.8388667e-06
7.83887283e-06
7.83886837e-06
7.83886944e-06
7.83886838e-06
7.8388672e-06
7.83886503e-06
7.8388681e-06
7.83886725e-06
7.83886652e-06
7.83886394e-06
7.83887667e-06
7.83886745e-06
7.83887384e-06
7.83886957e-06
7.83886787e-06
7.83888048e-06
7.83885579e-06
7.8388598e-06
7.83887763e-06
7.83885983e-06
7.8388819e-06
7.83887641e-06
7.83887413e-06
7.83887355e-06
7.83886978e-06
7.83888129e-06
7.83887049e-06
7.83887219e-06
7.83887164e-06
7.83886637e-06
7.83886698e-06
7.83885979e-06
7.83887528e-06
7.83886364e-06
7.83888386e-06
7.8388561e-06
7.83888939e-06
7.83886604e-06
7.83887181e-06
7.83887106e-06
7.83887814e-06
7.83886967e-06
7.83885767e-06
7.83888752e-06
7.83885457e-06
7.83888766e-06
7.83885623e-06
7.83888187e-06
7.83886372e-06
7.83886778e-06
7.83887796e-06
7.83886483e-06
7.83887711e-06
7.83887162e-06
7.83887461e-06
7.83886776e-06
7.83887628e-06
7.83886189e-06
7.83887638e-06
7.83887019e-06
7.83887903e-06
7.83886115e-06
7.83887434e-06
7.83887418e-06
7.83888147e-06
7.8388755e-06
7.83888119e-06
7.83887491e-06
7.83887625e-06
7.83886644e-06
7.83887973e-06
7.83887624e-06
7.83886569e-06
7.83888361e-06
7.8388732e-06
7.83886851e-06
7.83887194e-06
7.83887305e-06
7.83886484e-06
7.83888129e-06
7.83886806e-06
7.83888281e-06
7.83887146e-06
7.83887124e-06
7.83887227e-06
7.8388724e-06
7.83887679e-06
7.83887907e-06
7.83887071e-06
7.83887602e-06
7.8388765e-06
7.83888464e-06
7.83887882e-06
7.83888469e-06
7.83887782e-06
7.83887937e-06
7.83887516e-06
7.83888435e-06
7.83887111e-06
7.83887846e-06
7.83887396e-06
7.83888009e-06
7.83887686e-06
7.8388761e-06
7.83887606e-06
7.83887498e-06
7.8388728e-06
7.8388767e-06
7.83887986e-06
7.83886696e-06
7.83888362e-06
7.83885793e-06
7.83888198e-06
7.83886523e-06
7.83888299e-06
7.83886732e-06
7.83887796e-06
7.83887055e-06
7.83887723e-06
7.83888047e-06
7.83887715e-06
7.83888054e-06
7.83887387e-06
7.83887277e-06
7.83887417e-06
7.83886746e-06
7.83888652e-06
7.83886151e-06
7.83888925e-06
7.83886435e-06
7.83888807e-06
7.83887062e-06
7.83887806e-06
7.83887806e-06
7.83888601e-06
7.83887676e-06
7.83888237e-06
7.83887791e-06
7.83887066e-06
7.83887878e-06
7.83888065e-06
7.83888055e-06
7.83887989e-06
7.83888164e-06
7.83888681e-06
7.83887123e-06
7.83889873e-06
7.83887465e-06
7.83888818e-06
7.83887667e-06
7.83889003e-06
7.8388771e-06
7.83889279e-06
7.83887205e-06
7.83889383e-06
7.83888453e-06
7.8388742e-06
7.83889054e-06
7.83887738e-06
7.83888504e-06
7.83888772e-06
7.83887789e-06
7.83888645e-06
7.83887711e-06
7.83888217e-06
7.83887496e-06
7.83888316e-06
7.83887494e-06
7.83888912e-06
7.83887922e-06
7.83888973e-06
7.83887686e-06
7.83888378e-06
7.83889024e-06
7.83887689e-06
7.83888929e-06
7.83887825e-06
7.83887557e-06
7.83888781e-06
7.8388734e-06
7.83888412e-06
7.83888655e-06
7.83887385e-06
7.83888769e-06
7.83887946e-06
7.83887407e-06
7.83889005e-06
7.83887128e-06
7.83889413e-06
7.83888249e-06
7.83888916e-06
7.83887703e-06
7.83888342e-06
7.83888069e-06
7.83887677e-06
7.83887935e-06
7.83887697e-06
7.8388802e-06
7.83888308e-06
7.8388779e-06
7.83889054e-06
7.83887118e-06
7.83888015e-06
7.83887781e-06
7.83888006e-06
7.83886987e-06
7.83888251e-06
7.83887607e-06
7.83887976e-06
7.83887872e-06
7.83887381e-06
7.83888775e-06
7.8388741e-06
7.8388877e-06
7.83887165e-06
7.83889647e-06
7.83887016e-06
7.83889527e-06
7.83885258e-06
7.83890676e-06
7.83885854e-06
7.83889707e-06
7.83886338e-06
7.83887927e-06
7.83887756e-06
7.83888396e-06
7.83888842e-06
7.83888994e-06
7.83887379e-06
7.83889252e-06
7.83887815e-06
7.83888198e-06
7.83888219e-06
7.83888426e-06
7.83887967e-06
7.83888502e-06
7.83888341e-06
7.83888714e-06
7.83888362e-06
7.83888401e-06
7.83888705e-06
7.8388832e-06
7.83888242e-06
7.83888703e-06
7.8388862e-06
7.8388863e-06
7.83888521e-06
7.83888669e-06
7.83888537e-06
7.83888714e-06
7.83888735e-06
7.83888795e-06
7.83888807e-06
7.83888866e-06
7.83888995e-06
7.83889066e-06
7.83889022e-06
7.83889172e-06
7.83889264e-06
7.83889298e-06
7.83889412e-06
7.83889543e-06
7.83889711e-06
7.83889808e-06
7.83889955e-06
7.83890171e-06
7.83890331e-06
7.83890578e-06
7.83890848e-06
7.83891135e-06
7.83891372e-06
7.83891696e-06
7.83891966e-06
7.838922e-06
7.83892421e-06
7.83892573e-06
7.83892678e-06
7.83892767e-06
7.83892796e-06
7.83892808e-06
7.83892786e-06
7.83892785e-06
7.8389283e-06
7.83892804e-06
7.83892817e-06
7.8389281e-06
7.83892805e-06
7.83892826e-06
7.83892824e-06
7.83892813e-06
7.83892839e-06
7.8389281e-06
7.83892819e-06
7.83892808e-06
7.83892813e-06
7.83892811e-06
7.83892812e-06
7.83892818e-06
7.83892806e-06
7.83892792e-06
7.83892835e-06
)
;

boundaryField
{
    closed
    {
        type            calculated;
        value           uniform 0;
    }
    open
    {
        type            calculated;
        value           uniform 0;
    }
    sides
    {
        type            empty;
    }
}


// ************************************************************************* //
