/*--------------------------------*- C++ -*----------------------------------*\
| =========                 |                                                 |
| \\      /  F ield         | OpenFOAM: The Open Source CFD Toolbox           |
|  \\    /   O peration     | Version:  2206                                  |
|   \\  /    A nd           | Website:  www.openfoam.com                      |
|    \\/     M anipulation  |                                                 |
\*---------------------------------------------------------------------------*/
FoamFile
{
    version     2.0;
    format      ascii;
    arch        "LSB;label=32;scalar=64";
    class       volVectorField;
    location    "1.46e-05";
    object      U;
}
// * * * * * * * * * * * * * * * * * * * * * * * * * * * * * * * * * * * * * //

dimensions      [0 1 -1 0 0 0 0];

internalField   nonuniform List<vector> 
3183
(
(4.28063592e-13 0 0)
(1.44156695e-13 0 0)
(-3.01469616e-13 0 0)
(-3.39185645e-13 0 0)
(-1.55358062e-13 0 0)
(-9.51583626e-18 0 0)
(-7.30435135e-19 0 0)
(-6.35938641e-23 0 0)
(3.36948244e-21 0 0)
(1.11206732e-18 0 0)
(8.56880778e-15 0 0)
(2.42965672e-13 0 0)
(6.40528868e-13 0 0)
(2.29149258e-13 0 0)
(1.53795789e-13 0 0)
(4.04437598e-14 0 0)
(-3.28970713e-13 0 0)
(-6.63667102e-13 0 0)
(-8.65012058e-13 0 0)
(-1.66906938e-13 0 0)
(3.60173809e-13 0 0)
(1.74802525e-16 0 0)
(9.98762876e-14 0 0)
(3.3162065e-13 0 0)
(4.12966397e-13 0 0)
(6.05896318e-13 0 0)
(7.7249794e-13 0 0)
(7.72218955e-13 0 0)
(1.50315333e-13 0 0)
(2.92097283e-13 0 0)
(4.11354172e-16 0 0)
(-1.83089824e-13 0 0)
(-6.90551034e-13 0 0)
(-8.64108454e-13 0 0)
(-9.4854845e-13 0 0)
(-9.27621608e-13 0 0)
(-7.82218912e-13 0 0)
(-7.55064106e-13 0 0)
(-8.55425333e-13 0 0)
(-9.74611866e-13 0 0)
(-7.34862571e-13 0 0)
(-2.33575211e-13 0 0)
(3.9020505e-13 0 0)
(2.45407938e-15 0 0)
(3.37723473e-13 0 0)
(7.78819363e-13 0 0)
(7.84878993e-13 0 0)
(1.14441781e-12 0 0)
(1.22683316e-12 0 0)
(1.72495796e-12 0 0)
(1.72927398e-12 0 0)
(2.02102733e-12 0 0)
(1.43448811e-12 0 0)
(1.68185219e-12 0 0)
(1.41352761e-12 0 0)
(8.81389305e-13 0 0)
(5.02272968e-13 0 0)
(2.16846233e-13 0 0)
(-3.92566229e-13 0 0)
(-5.58103706e-13 0 0)
(-9.10521406e-13 0 0)
(-1.52703216e-12 0 0)
(-1.66163452e-12 0 0)
(-2.1467945e-12 0 0)
(-2.36840454e-12 0 0)
(-2.55219041e-12 0 0)
(-3.24192048e-12 0 0)
(-3.12375114e-12 0 0)
(-3.43508154e-12 0 0)
(-4.19985332e-12 0 0)
(-4.20631974e-12 0 0)
(-4.34850497e-12 0 0)
(-4.21071814e-12 0 0)
(-4.47665099e-12 0 0)
(-5.4253196e-12 0 0)
(-5.02809314e-12 0 0)
(-4.92431705e-12 0 0)
(-4.89130981e-12 0 0)
(-5.1849006e-12 0 0)
(-5.29338013e-12 0 0)
(-5.80082097e-12 0 0)
(-5.07814454e-12 0 0)
(-5.17221844e-12 0 0)
(-6.40776987e-12 0 0)
(-5.06905256e-12 0 0)
(-5.15671965e-12 0 0)
(-5.77594096e-12 0 0)
(-5.65244483e-12 0 0)
(-5.4645787e-12 0 0)
(-5.34139412e-12 0 0)
(-6.87988642e-12 0 0)
(-6.25351117e-12 0 0)
(-4.99091944e-12 0 0)
(-6.34224726e-12 0 0)
(-6.39700652e-12 0 0)
(-6.00513161e-12 0 0)
(-6.17830409e-12 0 0)
(-6.23279289e-12 0 0)
(-6.66448555e-12 0 0)
(-6.72259048e-12 0 0)
(-6.13340683e-12 0 0)
(-6.3337647e-12 0 0)
(-7.06196638e-12 0 0)
(-7.0913318e-12 0 0)
(-5.92101563e-12 0 0)
(-6.99382013e-12 0 0)
(-6.76638797e-12 0 0)
(-6.73058343e-12 0 0)
(-7.13486222e-12 0 0)
(-7.08890249e-12 0 0)
(-6.43969623e-12 0 0)
(-6.2270948e-12 0 0)
(-6.6108099e-12 0 0)
(-6.94009505e-12 0 0)
(-7.30409525e-12 0 0)
(-8.35176025e-12 0 0)
(-7.08382581e-12 0 0)
(-7.45903441e-12 0 0)
(-7.9284381e-12 0 0)
(-9.60139675e-12 0 0)
(-9.15443251e-12 0 0)
(-7.9071172e-12 0 0)
(-7.59688633e-12 0 0)
(-8.80756754e-12 0 0)
(-8.27750894e-12 0 0)
(-9.01203884e-12 0 0)
(-8.09279353e-12 0 0)
(-9.63717972e-12 0 0)
(-8.36908214e-12 0 0)
(-8.46229762e-12 0 0)
(-7.82514882e-12 0 0)
(-8.38316833e-12 0 0)
(-8.62652362e-12 0 0)
(-9.34954904e-12 0 0)
(-8.54832921e-12 0 0)
(-8.86580781e-12 0 0)
(-1.02476243e-11 0 0)
(-8.84402577e-12 0 0)
(-9.55060799e-12 0 0)
(-8.84715785e-12 0 0)
(-9.02622171e-12 0 0)
(-9.57068278e-12 0 0)
(-9.13253735e-12 0 0)
(-9.90338637e-12 0 0)
(-8.95692184e-12 0 0)
(-1.04456619e-11 0 0)
(-8.6573813e-12 0 0)
(-1.01204479e-11 0 0)
(-9.46149765e-12 0 0)
(-9.53030089e-12 0 0)
(-9.17052321e-12 0 0)
(-1.03682711e-11 0 0)
(-1.02276281e-11 0 0)
(-9.25210868e-12 0 0)
(-1.06265817e-11 0 0)
(-9.0496445e-12 0 0)
(-1.06961383e-11 0 0)
(-1.10986137e-11 0 0)
(-9.67847749e-12 0 0)
(-9.88002277e-12 0 0)
(-1.01700166e-11 0 0)
(-9.90470039e-12 0 0)
(-1.02621954e-11 0 0)
(-1.01983962e-11 0 0)
(-1.15000994e-11 0 0)
(-1.16290897e-11 0 0)
(-1.09398048e-11 0 0)
(-1.15384437e-11 0 0)
(-1.1095535e-11 0 0)
(-1.2232697e-11 0 0)
(-1.16004342e-11 0 0)
(-1.07879208e-11 0 0)
(-1.13135504e-11 0 0)
(-1.12140855e-11 0 0)
(-1.19420942e-11 0 0)
(-1.0657381e-11 0 0)
(-1.13737571e-11 0 0)
(-1.08075492e-11 0 0)
(-1.0647289e-11 0 0)
(-1.12130403e-11 0 0)
(-1.07842982e-11 0 0)
(-1.16177986e-11 0 0)
(-1.04246495e-11 0 0)
(-1.04975203e-11 0 0)
(-1.12993606e-11 0 0)
(-1.20483652e-11 0 0)
(-1.13219016e-11 0 0)
(-1.22442581e-11 0 0)
(-1.22692644e-11 0 0)
(-1.16529239e-11 0 0)
(-1.19814876e-11 0 0)
(-1.21979575e-11 0 0)
(-1.19042824e-11 0 0)
(-1.21952136e-11 0 0)
(-1.36597139e-11 0 0)
(-1.19730346e-11 0 0)
(-1.24059041e-11 0 0)
(-1.23899462e-11 0 0)
(-1.29039765e-11 0 0)
(-1.41806852e-11 0 0)
(-1.22400139e-11 0 0)
(-1.21808389e-11 0 0)
(-1.27484683e-11 0 0)
(-1.35314761e-11 0 0)
(-1.44428366e-11 0 0)
(-1.35632901e-11 0 0)
(-1.41877433e-11 0 0)
(-1.31299713e-11 0 0)
(-1.46338763e-11 0 0)
(-1.37966882e-11 0 0)
(-1.34869664e-11 0 0)
(-1.41906248e-11 0 0)
(-1.32032596e-11 0 0)
(-1.53445142e-11 0 0)
(-1.41741096e-11 0 0)
(-1.44837822e-11 0 0)
(-1.51068285e-11 0 0)
(-1.43051978e-11 0 0)
(-1.3919953e-11 0 0)
(-1.51081075e-11 0 0)
(-1.54254729e-11 0 0)
(-1.51024694e-11 0 0)
(-1.52171788e-11 0 0)
(-1.47536934e-11 0 0)
(-1.49267626e-11 0 0)
(-1.42985135e-11 0 0)
(-1.47251733e-11 0 0)
(-1.64918412e-11 0 0)
(-1.5540712e-11 0 0)
(-1.48694044e-11 0 0)
(-1.54389526e-11 0 0)
(-1.59754299e-11 0 0)
(-1.52835516e-11 0 0)
(-1.58081065e-11 0 0)
(-1.62312845e-11 0 0)
(-1.45338264e-11 0 0)
(-1.44757566e-11 0 0)
(-1.4804146e-11 0 0)
(-1.55803484e-11 0 0)
(-1.55375195e-11 0 0)
(-1.47838687e-11 0 0)
(-1.52102595e-11 0 0)
(-1.49709636e-11 0 0)
(-1.48018104e-11 0 0)
(-1.58462871e-11 0 0)
(-1.63277381e-11 0 0)
(-1.47583562e-11 0 0)
(-1.55644531e-11 0 0)
(-1.57816563e-11 0 0)
(-1.63218918e-11 0 0)
(-1.54539047e-11 0 0)
(-1.66217817e-11 0 0)
(-1.59278201e-11 0 0)
(-1.65548026e-11 0 0)
(-1.69433064e-11 0 0)
(-1.58048534e-11 0 0)
(-1.54677128e-11 0 0)
(-1.49471531e-11 0 0)
(-1.558151e-11 0 0)
(-1.55381276e-11 0 0)
(-1.60505067e-11 0 0)
(-1.64653535e-11 0 0)
(-1.69751181e-11 0 0)
(-1.56339136e-11 0 0)
(-1.61270465e-11 0 0)
(-1.66709565e-11 0 0)
(-1.63781604e-11 0 0)
(-1.63134024e-11 0 0)
(-1.59741786e-11 0 0)
(-1.59341349e-11 0 0)
(-1.63711613e-11 0 0)
(-1.66849641e-11 0 0)
(-1.62943572e-11 0 0)
(-1.67114427e-11 0 0)
(-1.64270154e-11 0 0)
(-1.63868188e-11 0 0)
(-1.65212422e-11 0 0)
(-1.73632913e-11 0 0)
(-1.52157712e-11 0 0)
(-1.59894288e-11 0 0)
(-1.61341255e-11 0 0)
(-1.62333485e-11 0 0)
(-1.63729688e-11 0 0)
(-1.63033444e-11 0 0)
(-1.54771052e-11 0 0)
(-1.69293629e-11 0 0)
(-1.60380907e-11 0 0)
(-1.72500178e-11 0 0)
(-1.74675136e-11 0 0)
(-1.69481663e-11 0 0)
(-1.72416388e-11 0 0)
(-1.66591579e-11 0 0)
(-1.68573518e-11 0 0)
(-1.67511296e-11 0 0)
(-1.66965249e-11 0 0)
(-1.6478536e-11 0 0)
(-1.73109423e-11 0 0)
(-1.72679377e-11 0 0)
(-1.69510165e-11 0 0)
(-1.7325205e-11 0 0)
(-1.73929258e-11 0 0)
(-1.71596155e-11 0 0)
(-1.70652636e-11 0 0)
(-1.7773206e-11 0 0)
(-1.80274232e-11 0 0)
(-1.85490085e-11 0 0)
(-1.70073307e-11 0 0)
(-1.76187018e-11 0 0)
(-1.93998252e-11 0 0)
(-1.84730923e-11 0 0)
(-1.83038168e-11 0 0)
(-1.82642096e-11 0 0)
(-1.78418285e-11 0 0)
(-1.82694796e-11 0 0)
(-1.76642883e-11 0 0)
(-1.80818462e-11 0 0)
(-1.84571042e-11 0 0)
(-1.88444664e-11 0 0)
(-1.74881928e-11 0 0)
(-1.97284023e-11 0 0)
(-1.87869989e-11 0 0)
(-1.80110801e-11 0 0)
(-1.92744805e-11 0 0)
(-1.86761474e-11 0 0)
(-1.88831948e-11 0 0)
(-1.89453944e-11 0 0)
(-1.89282309e-11 0 0)
(-1.9014823e-11 0 0)
(-1.8645202e-11 0 0)
(-1.95362278e-11 0 0)
(-1.83649857e-11 0 0)
(-1.86580741e-11 0 0)
(-1.94774096e-11 0 0)
(-1.7590521e-11 0 0)
(-1.72216593e-11 0 0)
(-1.73458463e-11 0 0)
(-1.77366945e-11 0 0)
(-1.86128533e-11 0 0)
(-1.73550499e-11 0 0)
(-1.85503013e-11 0 0)
(-1.73285102e-11 0 0)
(-1.87518508e-11 0 0)
(-1.74035542e-11 0 0)
(-1.71808086e-11 0 0)
(-1.77178101e-11 0 0)
(-1.8052486e-11 0 0)
(-1.91519945e-11 0 0)
(-1.78970959e-11 0 0)
(-1.79524274e-11 0 0)
(-1.94111478e-11 0 0)
(-1.7829377e-11 0 0)
(-1.76667266e-11 0 0)
(-1.84205134e-11 0 0)
(-1.69710503e-11 0 0)
(-1.68942493e-11 0 0)
(-1.68332418e-11 0 0)
(-1.70434676e-11 0 0)
(-1.6731939e-11 0 0)
(-1.75989404e-11 0 0)
(-1.64824714e-11 0 0)
(-1.69070229e-11 0 0)
(-1.68224384e-11 0 0)
(-1.68586071e-11 0 0)
(-1.69721385e-11 0 0)
(-1.61585939e-11 0 0)
(-1.75465185e-11 0 0)
(-1.70995369e-11 0 0)
(-1.75660768e-11 0 0)
(-1.67969519e-11 0 0)
(-1.71045108e-11 0 0)
(-1.6605335e-11 0 0)
(-1.62011771e-11 0 0)
(-1.69706138e-11 0 0)
(-1.54315759e-11 0 0)
(-1.67557298e-11 0 0)
(-1.74918817e-11 0 0)
(-1.57556169e-11 0 0)
(-1.67078635e-11 0 0)
(-1.66704097e-11 0 0)
(-1.72688947e-11 0 0)
(-1.66445813e-11 0 0)
(-1.62522845e-11 0 0)
(-1.75909666e-11 0 0)
(-1.70533556e-11 0 0)
(-1.73969229e-11 0 0)
(-1.75581508e-11 0 0)
(-1.78688364e-11 0 0)
(-1.82915791e-11 0 0)
(-1.83283101e-11 0 0)
(-1.73422218e-11 0 0)
(-1.72732303e-11 0 0)
(-1.77773452e-11 0 0)
(-1.66920039e-11 0 0)
(-1.72054924e-11 0 0)
(-1.80638273e-11 0 0)
(-1.68241174e-11 0 0)
(-1.69050523e-11 0 0)
(-1.73993881e-11 0 0)
(-1.66994311e-11 0 0)
(-1.553492e-11 0 0)
(-1.63251218e-11 0 0)
(-1.64885649e-11 0 0)
(-1.63943991e-11 0 0)
(-1.71910264e-11 0 0)
(-1.63132717e-11 0 0)
(-1.6637667e-11 0 0)
(-1.59685316e-11 0 0)
(-1.63102208e-11 0 0)
(-1.61120637e-11 0 0)
(-1.52933635e-11 0 0)
(-1.55510562e-11 0 0)
(-1.45222634e-11 0 0)
(-1.53892034e-11 0 0)
(-1.53849075e-11 0 0)
(-1.57863966e-11 0 0)
(-1.44376268e-11 0 0)
(-1.44543501e-11 0 0)
(-1.4515414e-11 0 0)
(-1.53138996e-11 0 0)
(-1.48747008e-11 0 0)
(-1.4086714e-11 0 0)
(-1.30433206e-11 0 0)
(-1.38945385e-11 0 0)
(-1.44982783e-11 0 0)
(-1.44511291e-11 0 0)
(-1.44335318e-11 0 0)
(-1.38802091e-11 0 0)
(-1.39653824e-11 0 0)
(-1.37332284e-11 0 0)
(-1.36352567e-11 0 0)
(-1.29301749e-11 0 0)
(-1.41347781e-11 0 0)
(-1.38154961e-11 0 0)
(-1.28817196e-11 0 0)
(-1.27137298e-11 0 0)
(-1.23435923e-11 0 0)
(-1.24412867e-11 0 0)
(-1.2851823e-11 0 0)
(-1.16250809e-11 0 0)
(-1.16120831e-11 0 0)
(-1.2287465e-11 0 0)
(-1.28182116e-11 0 0)
(-1.25756096e-11 0 0)
(-1.17891728e-11 0 0)
(-1.1830037e-11 0 0)
(-1.21386523e-11 0 0)
(-1.1376941e-11 0 0)
(-1.26912095e-11 0 0)
(-1.16115873e-11 0 0)
(-1.06222991e-11 0 0)
(-1.13046156e-11 0 0)
(-1.13651389e-11 0 0)
(-1.12777199e-11 0 0)
(-1.08131359e-11 0 0)
(-1.07460027e-11 0 0)
(-1.07095057e-11 0 0)
(-1.12237455e-11 0 0)
(-1.02346793e-11 0 0)
(-1.024979e-11 0 0)
(-8.84309036e-12 0 0)
(-1.03440304e-11 0 0)
(-1.0423858e-11 0 0)
(-8.78057282e-12 0 0)
(-9.19005849e-12 0 0)
(-8.86897926e-12 0 0)
(-9.03130554e-12 0 0)
(-8.88152813e-12 0 0)
(-8.97232458e-12 0 0)
(-8.59506338e-12 0 0)
(-9.1911174e-12 0 0)
(-8.86857578e-12 0 0)
(-8.05611032e-12 0 0)
(-8.86868152e-12 0 0)
(-9.14422099e-12 0 0)
(-9.07192595e-12 0 0)
(-8.93992954e-12 0 0)
(-9.00228977e-12 0 0)
(-8.98218075e-12 0 0)
(-8.49898113e-12 0 0)
(-9.05924712e-12 0 0)
(-8.88679367e-12 0 0)
(-8.14429943e-12 0 0)
(-9.2232243e-12 0 0)
(-7.562642e-12 0 0)
(-7.87146283e-12 0 0)
(-6.94499472e-12 0 0)
(-8.25784548e-12 0 0)
(-8.14552664e-12 0 0)
(-7.6490312e-12 0 0)
(-7.5662643e-12 0 0)
(-8.31452755e-12 0 0)
(-7.7092332e-12 0 0)
(-7.45606467e-12 0 0)
(-7.66675884e-12 0 0)
(-8.16661094e-12 0 0)
(-7.37465802e-12 0 0)
(-7.9970356e-12 0 0)
(-7.42989719e-12 0 0)
(-7.33043374e-12 0 0)
(-6.97108918e-12 0 0)
(-8.26321936e-12 0 0)
(-7.16984996e-12 0 0)
(-6.79408388e-12 0 0)
(-8.19940787e-12 0 0)
(-6.91266145e-12 0 0)
(-6.92894498e-12 0 0)
(-7.2977801e-12 0 0)
(-6.85859945e-12 0 0)
(-7.117914e-12 0 0)
(-6.51604603e-12 0 0)
(-6.8276768e-12 0 0)
(-6.39359353e-12 0 0)
(-6.68793775e-12 0 0)
(-5.72762227e-12 0 0)
(-6.30839964e-12 0 0)
(-4.73218088e-12 0 0)
(-5.7751593e-12 0 0)
(-4.60359318e-12 0 0)
(-5.19507068e-12 0 0)
(-5.26467987e-12 0 0)
(-5.74529128e-12 0 0)
(-4.66852766e-12 0 0)
(-3.66186064e-12 0 0)
(-4.29575358e-12 0 0)
(-3.5681058e-12 0 0)
(-4.48498357e-12 0 0)
(-4.53431201e-12 0 0)
(-4.25140592e-12 0 0)
(-5.3962482e-12 0 0)
(-4.69055133e-12 0 0)
(-4.77090089e-12 0 0)
(-4.32387336e-12 0 0)
(-4.63258343e-12 0 0)
(-5.60079135e-12 0 0)
(-3.6095494e-12 0 0)
(-4.98444768e-12 0 0)
(-4.62783978e-12 0 0)
(-4.25530171e-12 0 0)
(-4.49129399e-12 0 0)
(-4.81458797e-12 0 0)
(-4.32100657e-12 0 0)
(-3.61071146e-12 0 0)
(-4.86629638e-12 0 0)
(-4.3897741e-12 0 0)
(-4.38967698e-12 0 0)
(-4.8104276e-12 0 0)
(-5.53035209e-12 0 0)
(-4.07081032e-12 0 0)
(-4.36426595e-12 0 0)
(-4.41531581e-12 0 0)
(-4.07735143e-12 0 0)
(-3.38374798e-12 0 0)
(-3.41670965e-12 0 0)
(-4.50111317e-12 0 0)
(-4.47138794e-12 0 0)
(-3.42527844e-12 0 0)
(-3.26473193e-12 0 0)
(-3.35758173e-12 0 0)
(-4.59269897e-12 0 0)
(-2.71072159e-12 0 0)
(-3.01104742e-12 0 0)
(-3.87307606e-12 0 0)
(-3.31847643e-12 0 0)
(-3.2854236e-12 0 0)
(-4.60454728e-12 0 0)
(-2.78021599e-12 0 0)
(-3.25038142e-12 0 0)
(-3.51030981e-12 0 0)
(-3.15752922e-12 0 0)
(-3.63385369e-12 0 0)
(-2.94461955e-12 0 0)
(-2.41354051e-12 0 0)
(-2.15617218e-12 0 0)
(-2.15368244e-12 0 0)
(-2.69536851e-12 0 0)
(-1.95200726e-12 0 0)
(-2.93453253e-12 0 0)
(-2.13917439e-12 0 0)
(-3.05706955e-12 0 0)
(-2.09708945e-12 0 0)
(-2.89282119e-12 0 0)
(-2.18917454e-12 0 0)
(-2.31903599e-12 0 0)
(-2.05272797e-12 0 0)
(-3.16218797e-12 0 0)
(-2.21378554e-12 0 0)
(-2.1382668e-12 0 0)
(-1.64952195e-12 0 0)
(-1.21534232e-12 0 0)
(-1.47122554e-12 0 0)
(-5.97706547e-13 0 0)
(-3.88828734e-13 0 0)
(-2.08668043e-12 0 0)
(-9.20865379e-13 0 0)
(-7.17305249e-13 0 0)
(-9.04232748e-13 0 0)
(-3.92332125e-13 0 0)
(2.7924352e-13 0 0)
(-1.05942551e-12 0 0)
(-2.49314661e-14 0 0)
(-1.06305737e-12 0 0)
(-1.77958017e-12 0 0)
(4.52342439e-13 0 0)
(-6.14947342e-13 0 0)
(3.93536925e-13 0 0)
(-2.21353483e-13 0 0)
(3.29699047e-13 0 0)
(2.20720005e-13 0 0)
(8.0314278e-14 0 0)
(-8.41833873e-13 0 0)
(7.48560062e-13 0 0)
(7.64753266e-13 0 0)
(-2.60159492e-13 0 0)
(-6.96584974e-14 0 0)
(5.68608974e-13 0 0)
(8.61005261e-13 0 0)
(7.06586196e-13 0 0)
(8.78766912e-13 0 0)
(1.03720133e-12 0 0)
(1.09220252e-12 0 0)
(1.6620096e-12 0 0)
(1.43755025e-13 0 0)
(7.07889728e-13 0 0)
(1.33524214e-12 0 0)
(3.19092106e-13 0 0)
(1.39818228e-12 0 0)
(4.43775282e-13 0 0)
(1.56181863e-12 0 0)
(1.36359235e-12 0 0)
(1.8654752e-12 0 0)
(1.16778825e-12 0 0)
(7.32368658e-13 0 0)
(2.19532934e-12 0 0)
(2.0259403e-12 0 0)
(1.92739805e-12 0 0)
(1.31240641e-12 0 0)
(2.38713939e-12 0 0)
(1.75836449e-12 0 0)
(1.23228247e-12 0 0)
(2.23919384e-12 0 0)
(1.7669953e-12 0 0)
(2.56956311e-12 0 0)
(2.23076074e-12 0 0)
(2.78207387e-12 0 0)
(2.39743513e-12 0 0)
(2.47813862e-12 0 0)
(2.56956623e-12 0 0)
(2.65140176e-12 0 0)
(2.78514226e-12 0 0)
(3.19503323e-12 0 0)
(2.24146046e-12 0 0)
(4.56715818e-12 0 0)
(3.42245259e-12 0 0)
(3.92545077e-12 0 0)
(5.25111892e-12 0 0)
(4.24162358e-12 0 0)
(3.64387723e-12 0 0)
(3.2245902e-12 0 0)
(3.43873472e-12 0 0)
(3.73784775e-12 0 0)
(3.60733101e-12 0 0)
(4.79166667e-12 0 0)
(3.50279141e-12 0 0)
(3.20982103e-12 0 0)
(4.89951691e-12 0 0)
(3.33892559e-12 0 0)
(4.48736932e-12 0 0)
(4.17672312e-12 0 0)
(5.12180301e-12 0 0)
(3.87277208e-12 0 0)
(4.23518982e-12 0 0)
(3.98470895e-12 0 0)
(4.18350749e-12 0 0)
(4.06449849e-12 0 0)
(4.52511204e-12 0 0)
(4.42591742e-12 0 0)
(4.7937516e-12 0 0)
(5.54046697e-12 0 0)
(4.79983481e-12 0 0)
(5.29038713e-12 0 0)
(5.36800574e-12 0 0)
(4.97923216e-12 0 0)
(4.66552114e-12 0 0)
(4.72916457e-12 0 0)
(4.66983309e-12 0 0)
(4.27042697e-12 0 0)
(5.09080215e-12 0 0)
(5.11340137e-12 0 0)
(5.07562257e-12 0 0)
(5.22827659e-12 0 0)
(5.8168925e-12 0 0)
(5.74714535e-12 0 0)
(5.78615212e-12 0 0)
(4.825501e-12 0 0)
(6.50387335e-12 0 0)
(6.03805236e-12 0 0)
(5.94523571e-12 0 0)
(5.80390518e-12 0 0)
(6.76386738e-12 0 0)
(7.16733428e-12 0 0)
(7.06165904e-12 0 0)
(6.27042103e-12 0 0)
(7.59003215e-12 0 0)
(8.22499353e-12 0 0)
(8.88990776e-12 0 0)
(7.92580654e-12 0 0)
(8.4741033e-12 0 0)
(7.74831703e-12 0 0)
(7.88258052e-12 0 0)
(7.19417685e-12 0 0)
(9.0832527e-12 0 0)
(7.77155921e-12 0 0)
(8.95109257e-12 0 0)
(8.72242158e-12 0 0)
(7.97332596e-12 0 0)
(8.43501062e-12 0 0)
(8.10937699e-12 0 0)
(8.81995415e-12 0 0)
(8.87853444e-12 0 0)
(8.74886386e-12 0 0)
(8.43089192e-12 0 0)
(8.71189414e-12 0 0)
(9.17755534e-12 0 0)
(9.1128619e-12 0 0)
(9.39457614e-12 0 0)
(8.95257929e-12 0 0)
(8.99277239e-12 0 0)
(9.25617479e-12 0 0)
(9.31362642e-12 0 0)
(9.3586014e-12 0 0)
(9.61117111e-12 0 0)
(9.03126619e-12 0 0)
(1.0070092e-11 0 0)
(8.77892816e-12 0 0)
(9.56711551e-12 0 0)
(1.07036938e-11 0 0)
(1.01095472e-11 0 0)
(1.05187881e-11 0 0)
(1.12358392e-11 0 0)
(1.08551706e-11 0 0)
(1.08266932e-11 0 0)
(9.44515974e-12 0 0)
(1.08962291e-11 0 0)
(9.93251325e-12 0 0)
(9.97473596e-12 0 0)
(8.94326074e-12 0 0)
(9.76144204e-12 0 0)
(9.65264847e-12 0 0)
(9.99500018e-12 0 0)
(1.00825854e-11 0 0)
(9.94668809e-12 0 0)
(9.02668158e-12 0 0)
(1.06618563e-11 0 0)
(8.8909188e-12 0 0)
(9.00265818e-12 0 0)
(9.46902191e-12 0 0)
(9.59604265e-12 0 0)
(9.0511608e-12 0 0)
(8.52924725e-12 0 0)
(9.37147595e-12 0 0)
(9.26214882e-12 0 0)
(9.03496793e-12 0 0)
(9.49568256e-12 0 0)
(1.01303677e-11 0 0)
(1.06002565e-11 0 0)
(1.09260913e-11 0 0)
(1.02714345e-11 0 0)
(1.07185744e-11 0 0)
(1.08313664e-11 0 0)
(1.09508826e-11 0 0)
(1.14348755e-11 0 0)
(1.04523114e-11 0 0)
(1.02148477e-11 0 0)
(1.09651589e-11 0 0)
(1.1430606e-11 0 0)
(1.21621847e-11 0 0)
(1.22374498e-11 0 0)
(1.19921851e-11 0 0)
(1.29770412e-11 0 0)
(1.10877366e-11 0 0)
(1.13880712e-11 0 0)
(1.19409244e-11 0 0)
(1.14370358e-11 0 0)
(1.21784764e-11 0 0)
(1.20668145e-11 0 0)
(1.24297305e-11 0 0)
(1.19977846e-11 0 0)
(1.17906702e-11 0 0)
(1.10715078e-11 0 0)
(1.11345317e-11 0 0)
(1.18350782e-11 0 0)
(1.26917152e-11 0 0)
(1.12191519e-11 0 0)
(1.12543805e-11 0 0)
(1.09028847e-11 0 0)
(1.1167334e-11 0 0)
(1.1203991e-11 0 0)
(9.85169305e-12 0 0)
(1.09772616e-11 0 0)
(1.0471102e-11 0 0)
(1.09530834e-11 0 0)
(1.17795407e-11 0 0)
(1.12070194e-11 0 0)
(1.05295397e-11 0 0)
(1.06057706e-11 0 0)
(1.07048959e-11 0 0)
(1.12647066e-11 0 0)
(1.03553245e-11 0 0)
(1.09987443e-11 0 0)
(1.04311616e-11 0 0)
(1.17119357e-11 0 0)
(1.01323698e-11 0 0)
(1.02472324e-11 0 0)
(1.02883156e-11 0 0)
(1.03481354e-11 0 0)
(9.50789304e-12 0 0)
(1.07055303e-11 0 0)
(1.08029022e-11 0 0)
(1.0071138e-11 0 0)
(1.06654057e-11 0 0)
(9.74160108e-12 0 0)
(1.00471481e-11 0 0)
(1.00625089e-11 0 0)
(1.02595058e-11 0 0)
(1.1072949e-11 0 0)
(9.4816069e-12 0 0)
(9.4784859e-12 0 0)
(1.06454367e-11 0 0)
(1.04658911e-11 0 0)
(1.07447802e-11 0 0)
(9.14711558e-12 0 0)
(1.04635199e-11 0 0)
(1.02609164e-11 0 0)
(1.03629384e-11 0 0)
(1.10534516e-11 0 0)
(1.08006658e-11 0 0)
(1.00238187e-11 0 0)
(1.0167615e-11 0 0)
(9.90863655e-12 0 0)
(1.09718232e-11 0 0)
(1.11398871e-11 0 0)
(1.01398889e-11 0 0)
(1.08875e-11 0 0)
(9.9735173e-12 0 0)
(9.78648782e-12 0 0)
(1.08212019e-11 0 0)
(9.90642153e-12 0 0)
(1.04651917e-11 0 0)
(9.44185118e-12 0 0)
(9.91745986e-12 0 0)
(9.67412027e-12 0 0)
(9.45189048e-12 0 0)
(8.55005749e-12 0 0)
(8.22032239e-12 0 0)
(8.86541726e-12 0 0)
(7.97057889e-12 0 0)
(8.3662247e-12 0 0)
(9.68895405e-12 0 0)
(8.9994269e-12 0 0)
(7.94368129e-12 0 0)
(9.17730418e-12 0 0)
(8.69561327e-12 0 0)
(9.53118763e-12 0 0)
(9.89619948e-12 0 0)
(9.08099525e-12 0 0)
(9.64051945e-12 0 0)
(9.51347559e-12 0 0)
(9.77397679e-12 0 0)
(9.02859871e-12 0 0)
(9.45856748e-12 0 0)
(9.09154977e-12 0 0)
(9.18947443e-12 0 0)
(9.56868454e-12 0 0)
(8.65175752e-12 0 0)
(1.01631129e-11 0 0)
(8.75149751e-12 0 0)
(1.00997796e-11 0 0)
(9.51525347e-12 0 0)
(9.74661813e-12 0 0)
(9.47500766e-12 0 0)
(9.13693952e-12 0 0)
(9.28441104e-12 0 0)
(8.8423554e-12 0 0)
(9.3916885e-12 0 0)
(9.16880347e-12 0 0)
(8.89446458e-12 0 0)
(8.69820532e-12 0 0)
(8.56261078e-12 0 0)
(8.57032373e-12 0 0)
(9.40471501e-12 0 0)
(8.49133625e-12 0 0)
(9.41894361e-12 0 0)
(9.62863007e-12 0 0)
(9.07506961e-12 0 0)
(9.39692694e-12 0 0)
(9.80569535e-12 0 0)
(9.64159843e-12 0 0)
(1.08482262e-11 0 0)
(9.85006423e-12 0 0)
(9.12094779e-12 0 0)
(9.97153456e-12 0 0)
(1.01556198e-11 0 0)
(9.54634109e-12 0 0)
(1.03033517e-11 0 0)
(1.0408231e-11 0 0)
(1.06015465e-11 0 0)
(9.10738305e-12 0 0)
(9.48858998e-12 0 0)
(9.7431095e-12 0 0)
(9.2485231e-12 0 0)
(8.93354791e-12 0 0)
(8.79850459e-12 0 0)
(8.93428594e-12 0 0)
(9.15910245e-12 0 0)
(8.59374018e-12 0 0)
(8.97223755e-12 0 0)
(9.1676873e-12 0 0)
(8.92719713e-12 0 0)
(8.54680378e-12 0 0)
(9.15029781e-12 0 0)
(9.67741132e-12 0 0)
(8.7100843e-12 0 0)
(9.27599894e-12 0 0)
(9.80780195e-12 0 0)
(9.39695261e-12 0 0)
(9.24643424e-12 0 0)
(9.46197463e-12 0 0)
(9.18622096e-12 0 0)
(9.35540964e-12 0 0)
(8.50557479e-12 0 0)
(9.86544301e-12 0 0)
(9.11800509e-12 0 0)
(1.00328609e-11 0 0)
(9.88201008e-12 0 0)
(9.5020997e-12 0 0)
(9.57956426e-12 0 0)
(8.83810394e-12 0 0)
(7.78935809e-12 0 0)
(8.12541658e-12 0 0)
(7.68476882e-12 0 0)
(8.86988515e-12 0 0)
(8.77086718e-12 0 0)
(8.24375303e-12 0 0)
(8.53076556e-12 0 0)
(8.90884701e-12 0 0)
(7.97131673e-12 0 0)
(8.71552432e-12 0 0)
(8.18395966e-12 0 0)
(8.32833251e-12 0 0)
(9.01262357e-12 0 0)
(7.8763122e-12 0 0)
(8.92253484e-12 0 0)
(8.53271794e-12 0 0)
(8.6639572e-12 0 0)
(7.90108422e-12 0 0)
(7.79830772e-12 0 0)
(7.22129643e-12 0 0)
(7.19913242e-12 0 0)
(7.77905454e-12 0 0)
(7.89386795e-12 0 0)
(7.55440283e-12 0 0)
(7.70985838e-12 0 0)
(9.63064406e-12 0 0)
(8.12053373e-12 0 0)
(8.95213284e-12 0 0)
(7.81008203e-12 0 0)
(9.41898352e-12 0 0)
(7.89845626e-12 0 0)
(9.13977913e-12 0 0)
(8.67199976e-12 0 0)
(8.76580352e-12 0 0)
(8.81861216e-12 0 0)
(9.70305456e-12 0 0)
(8.87818208e-12 0 0)
(9.19332758e-12 0 0)
(9.01548481e-12 0 0)
(8.47295655e-12 0 0)
(8.69440057e-12 0 0)
(8.59962069e-12 0 0)
(9.18874911e-12 0 0)
(8.51166432e-12 0 0)
(8.51604577e-12 0 0)
(8.05318695e-12 0 0)
(9.17742388e-12 0 0)
(7.96787862e-12 0 0)
(8.88024958e-12 0 0)
(8.20820355e-12 0 0)
(8.45141658e-12 0 0)
(9.70893199e-12 0 0)
(8.87646406e-12 0 0)
(8.03107776e-12 0 0)
(9.6258846e-12 0 0)
(8.18021136e-12 0 0)
(8.48856235e-12 0 0)
(8.65483142e-12 0 0)
(8.93537685e-12 0 0)
(8.25825123e-12 0 0)
(7.94396919e-12 0 0)
(8.29865469e-12 0 0)
(7.66931548e-12 0 0)
(8.93519103e-12 0 0)
(6.82130379e-12 0 0)
(7.78376216e-12 0 0)
(7.41751784e-12 0 0)
(8.75402554e-12 0 0)
(7.79001133e-12 0 0)
(7.53961222e-12 0 0)
(8.72298123e-12 0 0)
(7.18311506e-12 0 0)
(8.33129236e-12 0 0)
(6.92816163e-12 0 0)
(6.79333265e-12 0 0)
(7.17336351e-12 0 0)
(6.36587027e-12 0 0)
(7.64142931e-12 0 0)
(6.62700848e-12 0 0)
(6.61880182e-12 0 0)
(6.58543442e-12 0 0)
(6.61131624e-12 0 0)
(5.36099879e-12 0 0)
(5.91812794e-12 0 0)
(6.42287106e-12 0 0)
(5.29810017e-12 0 0)
(5.19888865e-12 0 0)
(5.74900113e-12 0 0)
(4.83160403e-12 0 0)
(5.77715006e-12 0 0)
(4.94704669e-12 0 0)
(5.10961232e-12 0 0)
(4.60882834e-12 0 0)
(4.55358248e-12 0 0)
(4.46787802e-12 0 0)
(3.76994676e-12 0 0)
(4.5246976e-12 0 0)
(4.06213115e-12 0 0)
(3.81168087e-12 0 0)
(3.74894134e-12 0 0)
(4.33805532e-12 0 0)
(3.24192919e-12 0 0)
(3.71715797e-12 0 0)
(3.545335e-12 0 0)
(4.21396373e-12 0 0)
(4.09191064e-12 0 0)
(3.16872109e-12 0 0)
(4.05136812e-12 0 0)
(4.54784384e-12 0 0)
(3.87698008e-12 0 0)
(4.16146469e-12 0 0)
(3.30333806e-12 0 0)
(4.3774234e-12 0 0)
(3.7900933e-12 0 0)
(3.09598689e-12 0 0)
(3.38636953e-12 0 0)
(3.74808067e-12 0 0)
(3.16963558e-12 0 0)
(3.51636705e-12 0 0)
(3.49254236e-12 0 0)
(3.57133737e-12 0 0)
(3.53220035e-12 0 0)
(3.56599828e-12 0 0)
(3.57058742e-12 0 0)
(2.83805409e-12 0 0)
(4.04113104e-12 0 0)
(3.75120932e-12 0 0)
(3.73179845e-12 0 0)
(3.02403025e-12 0 0)
(3.41656602e-12 0 0)
(3.52207263e-12 0 0)
(3.06984204e-12 0 0)
(2.70916595e-12 0 0)
(3.2258824e-12 0 0)
(4.38350376e-12 0 0)
(3.52531495e-12 0 0)
(4.11268031e-12 0 0)
(4.37138761e-12 0 0)
(4.08548499e-12 0 0)
(3.64126414e-12 0 0)
(4.19976466e-12 0 0)
(4.37476168e-12 0 0)
(3.27929395e-12 0 0)
(2.67796768e-12 0 0)
(4.79075147e-12 0 0)
(3.94484856e-12 0 0)
(3.32736146e-12 0 0)
(3.11822754e-12 0 0)
(2.80098791e-12 0 0)
(3.10781251e-12 0 0)
(3.45122999e-12 0 0)
(3.2510698e-12 0 0)
(3.6723031e-12 0 0)
(2.76265077e-12 0 0)
(2.97419318e-12 0 0)
(2.7106719e-12 0 0)
(2.01963718e-12 0 0)
(3.46091872e-12 0 0)
(1.90375217e-12 0 0)
(2.45605957e-12 0 0)
(3.26199797e-12 0 0)
(2.21541833e-12 0 0)
(2.70217589e-12 0 0)
(2.43528676e-12 0 0)
(2.60934477e-12 0 0)
(2.2537127e-12 0 0)
(2.44094724e-12 0 0)
(2.11317882e-12 0 0)
(2.10646024e-12 0 0)
(1.75878784e-12 0 0)
(1.88388943e-12 0 0)
(1.78139288e-12 0 0)
(1.39937816e-12 0 0)
(1.94165866e-12 0 0)
(1.16497811e-12 0 0)
(1.39463845e-12 0 0)
(1.53136204e-12 0 0)
(8.65286481e-13 0 0)
(1.21912894e-12 0 0)
(6.28577986e-13 0 0)
(5.07498943e-13 0 0)
(-3.64958176e-13 0 0)
(6.79747569e-13 0 0)
(1.77877441e-13 0 0)
(-6.91637359e-13 0 0)
(-4.76138406e-14 0 0)
(-1.36118332e-12 0 0)
(2.42519692e-13 0 0)
(-1.36014066e-12 0 0)
(-1.40304663e-12 0 0)
(-1.97085443e-12 0 0)
(-1.74193848e-12 0 0)
(-1.97342225e-12 0 0)
(-2.10360111e-12 0 0)
(-2.22753153e-12 0 0)
(-3.03365398e-12 0 0)
(-2.12145433e-12 0 0)
(-3.72304143e-12 0 0)
(-3.19690335e-12 0 0)
(-2.7378655e-12 0 0)
(-3.46732779e-12 0 0)
(-3.41742199e-12 0 0)
(-3.4793848e-12 0 0)
(-3.58266233e-12 0 0)
(-3.29438867e-12 0 0)
(-4.0761787e-12 0 0)
(-3.36672937e-12 0 0)
(-3.85065186e-12 0 0)
(-4.53867638e-12 0 0)
(-3.97879011e-12 0 0)
(-3.86363517e-12 0 0)
(-3.55691082e-12 0 0)
(-3.30222937e-12 0 0)
(-3.7548857e-12 0 0)
(-4.38266072e-12 0 0)
(-4.65508968e-12 0 0)
(-4.05852611e-12 0 0)
(-5.46240494e-12 0 0)
(-4.39651809e-12 0 0)
(-2.88896713e-12 0 0)
(-4.48455494e-12 0 0)
(-4.49094774e-12 0 0)
(-5.13436346e-12 0 0)
(-3.98070436e-12 0 0)
(-4.5081876e-12 0 0)
(-5.13257753e-12 0 0)
(-4.5684883e-12 0 0)
(-4.85060966e-12 0 0)
(-5.03539247e-12 0 0)
(-5.0069874e-12 0 0)
(-4.34360063e-12 0 0)
(-5.29970638e-12 0 0)
(-5.45049615e-12 0 0)
(-4.7150193e-12 0 0)
(-5.82156268e-12 0 0)
(-4.84210838e-12 0 0)
(-5.61054341e-12 0 0)
(-5.17824859e-12 0 0)
(-5.78564325e-12 0 0)
(-6.40005564e-12 0 0)
(-5.53853493e-12 0 0)
(-6.61410604e-12 0 0)
(-5.97707558e-12 0 0)
(-5.63246789e-12 0 0)
(-6.2324366e-12 0 0)
(-7.53922197e-12 0 0)
(-6.47134951e-12 0 0)
(-6.85326353e-12 0 0)
(-6.97510826e-12 0 0)
(-6.16471043e-12 0 0)
(-6.99809807e-12 0 0)
(-7.82922764e-12 0 0)
(-7.54899362e-12 0 0)
(-7.80860717e-12 0 0)
(-7.49335081e-12 0 0)
(-8.45032743e-12 0 0)
(-7.506562e-12 0 0)
(-6.92204626e-12 0 0)
(-8.61806451e-12 0 0)
(-8.97149347e-12 0 0)
(-9.50088818e-12 0 0)
(-8.94693096e-12 0 0)
(-9.7585457e-12 0 0)
(-8.99678664e-12 0 0)
(-9.91003847e-12 0 0)
(-1.00748011e-11 0 0)
(-1.07851798e-11 0 0)
(-1.00808914e-11 0 0)
(-9.81446759e-12 0 0)
(-9.56436929e-12 0 0)
(-8.45316964e-12 0 0)
(-9.38879304e-12 0 0)
(-1.01430836e-11 0 0)
(-9.05807609e-12 0 0)
(-9.57278648e-12 0 0)
(-8.66760862e-12 0 0)
(-1.01474002e-11 0 0)
(-1.0350616e-11 0 0)
(-9.52414145e-12 0 0)
(-1.00789787e-11 0 0)
(-9.97755967e-12 0 0)
(-1.01797721e-11 0 0)
(-1.06986602e-11 0 0)
(-1.00827141e-11 0 0)
(-1.05733535e-11 0 0)
(-1.07842393e-11 0 0)
(-9.99949859e-12 0 0)
(-9.59767877e-12 0 0)
(-9.87523934e-12 0 0)
(-1.08728675e-11 0 0)
(-1.03012257e-11 0 0)
(-1.01373357e-11 0 0)
(-9.29560086e-12 0 0)
(-9.54052899e-12 0 0)
(-9.2638227e-12 0 0)
(-1.01642547e-11 0 0)
(-1.00648617e-11 0 0)
(-1.1195872e-11 0 0)
(-1.02479575e-11 0 0)
(-1.03628059e-11 0 0)
(-1.13552148e-11 0 0)
(-1.06066063e-11 0 0)
(-9.8228021e-12 0 0)
(-9.62817129e-12 0 0)
(-1.0184127e-11 0 0)
(-9.53017908e-12 0 0)
(-1.05475985e-11 0 0)
(-9.9090821e-12 0 0)
(-9.78116602e-12 0 0)
(-1.01869649e-11 0 0)
(-1.09772422e-11 0 0)
(-1.09249839e-11 0 0)
(-1.01877244e-11 0 0)
(-8.57838407e-12 0 0)
(-9.54222011e-12 0 0)
(-9.28923095e-12 0 0)
(-1.01373935e-11 0 0)
(-9.24610193e-12 0 0)
(-8.37627069e-12 0 0)
(-9.10108296e-12 0 0)
(-9.55572568e-12 0 0)
(-9.42901645e-12 0 0)
(-8.77027046e-12 0 0)
(-9.64827681e-12 0 0)
(-9.34054612e-12 0 0)
(-1.00015081e-11 0 0)
(-1.00115791e-11 0 0)
(-9.72398443e-12 0 0)
(-9.66471716e-12 0 0)
(-9.01085885e-12 0 0)
(-1.00184538e-11 0 0)
(-1.00372333e-11 0 0)
(-1.02258834e-11 0 0)
(-1.03726777e-11 0 0)
(-9.7547435e-12 0 0)
(-1.06839075e-11 0 0)
(-1.04293738e-11 0 0)
(-1.0139741e-11 0 0)
(-9.87587336e-12 0 0)
(-1.08303161e-11 0 0)
(-9.48953704e-12 0 0)
(-9.76194844e-12 0 0)
(-9.60346781e-12 0 0)
(-1.01375958e-11 0 0)
(-1.03438608e-11 0 0)
(-1.05923614e-11 0 0)
(-1.1568213e-11 0 0)
(-1.06220608e-11 0 0)
(-1.13578365e-11 0 0)
(-1.16840295e-11 0 0)
(-1.13562473e-11 0 0)
(-1.15843405e-11 0 0)
(-1.1572292e-11 0 0)
(-1.071805e-11 0 0)
(-1.10495913e-11 0 0)
(-1.03129617e-11 0 0)
(-1.09787836e-11 0 0)
(-1.06057613e-11 0 0)
(-1.01083017e-11 0 0)
(-1.14450313e-11 0 0)
(-1.0277703e-11 0 0)
(-1.16639706e-11 0 0)
(-1.04917945e-11 0 0)
(-1.17038076e-11 0 0)
(-1.22167536e-11 0 0)
(-1.07049071e-11 0 0)
(-1.069499e-11 0 0)
(-1.14419269e-11 0 0)
(-1.06687628e-11 0 0)
(-1.03246413e-11 0 0)
(-1.01474823e-11 0 0)
(-1.02561794e-11 0 0)
(-1.01836692e-11 0 0)
(-1.07276272e-11 0 0)
(-1.12005584e-11 0 0)
(-1.10288694e-11 0 0)
(-1.23636073e-11 0 0)
(-1.1959363e-11 0 0)
(-1.17374065e-11 0 0)
(-1.10461233e-11 0 0)
(-1.1688507e-11 0 0)
(-1.2405732e-11 0 0)
(-1.0733724e-11 0 0)
(-1.12153237e-11 0 0)
(-1.17278738e-11 0 0)
(-1.16160147e-11 0 0)
(-1.14482103e-11 0 0)
(-1.17017956e-11 0 0)
(-1.14653188e-11 0 0)
(-1.07137656e-11 0 0)
(-1.19458784e-11 0 0)
(-1.13197733e-11 0 0)
(-1.12452756e-11 0 0)
(-1.04623381e-11 0 0)
(-1.08780578e-11 0 0)
(-1.03409208e-11 0 0)
(-9.85943744e-12 0 0)
(-1.11091831e-11 0 0)
(-9.41304417e-12 0 0)
(-1.0729803e-11 0 0)
(-1.00936564e-11 0 0)
(-1.04871942e-11 0 0)
(-1.05056848e-11 0 0)
(-1.01468255e-11 0 0)
(-1.05772247e-11 0 0)
(-1.03860877e-11 0 0)
(-9.86252237e-12 0 0)
(-1.06578204e-11 0 0)
(-1.0695006e-11 0 0)
(-1.02689242e-11 0 0)
(-1.03971401e-11 0 0)
(-1.02173877e-11 0 0)
(-9.67002609e-12 0 0)
(-9.77391148e-12 0 0)
(-1.03986587e-11 0 0)
(-1.0340323e-11 0 0)
(-1.04225454e-11 0 0)