/*--------------------------------*- C++ -*----------------------------------*\
| =========                 |                                                 |
| \\      /  F ield         | OpenFOAM: The Open Source CFD Toolbox           |
|  \\    /   O peration     | Version:  2206                                  |
|   \\  /    A nd           | Website:  www.openfoam.com                      |
|    \\/     M anipulation  |                                                 |
\*---------------------------------------------------------------------------*/
FoamFile
{
    version     2.0;
    format      ascii;
    arch        "LSB;label=32;scalar=64";
    class       surfaceScalarField;
    location    "1.1e-05";
    object      phi;
}
// * * * * * * * * * * * * * * * * * * * * * * * * * * * * * * * * * * * * * //

dimensions      [1 0 -1 0 0 0 0];

oriented        oriented;

internalField   nonuniform List<scalar> 
3182
(
3.91869363e-18
-2.89647222e-18
-5.49628666e-20
-1.50764946e-18
-2.43588107e-21
-1.80374444e-23
-1.31190937e-24
-1.53898709e-29
1.12521703e-24
2.47262378e-23
1.55452897e-21
2.07421953e-18
3.54731377e-18
-1.43087306e-18
1.98855357e-18
-7.79048383e-19
-1.78382618e-18
-4.5705969e-18
-3.52103416e-18
4.54308088e-18
4.39403012e-20
4.97339446e-22
4.51092062e-21
1.81989025e-18
3.00459065e-18
1.85836727e-18
3.39037576e-18
1.3326406e-18
2.40198844e-18
1.63764332e-19
-2.35827454e-18
-1.68340846e-18
-8.48820279e-18
-5.8768445e-18
-3.20002609e-18
-1.38060017e-18
-1.2546179e-18
-1.45661826e-18
-6.05135588e-19
-4.80741714e-19
-3.03130973e-18
-3.81412689e-18
-2.49773923e-18
-1.52943671e-18
-9.66776743e-19
-5.44363564e-19
-4.38768276e-19
-7.24763007e-21
4.31268553e-19
1.52771634e-18
2.60466004e-18
2.9551344e-18
4.88592043e-18
6.94353238e-18
8.68284712e-18
1.0218002e-17
1.2593003e-17
1.43341397e-17
1.58509946e-17
1.62838295e-17
1.58581313e-17
1.49700151e-17
1.42921297e-17
1.27986479e-17
1.19889174e-17
1.11126085e-17
9.80336498e-18
8.28341671e-18
7.85818272e-18
6.9453944e-18
5.66488744e-18
4.04192494e-18
1.82259581e-18
8.41391511e-19
-1.33297549e-18
-2.2000439e-18
-3.12912206e-18
-3.48417503e-18
-5.57675288e-18
-5.88926362e-18
-6.82222847e-18
-7.29363299e-18
-7.17961393e-18
-8.17890489e-18
-8.45788383e-18
-1.00038718e-17
-8.70414426e-18
-1.14487844e-17
-1.19092693e-17
-1.39875002e-17
-1.63412503e-17
-1.72170323e-17
-1.92053792e-17
-1.91140946e-17
-2.1363983e-17
-2.18038358e-17
-2.41801064e-17
-2.37968283e-17
-2.32479463e-17
-2.41909933e-17
-2.57637805e-17
-2.85982736e-17
-2.71030339e-17
-2.71458245e-17
-2.64443501e-17
-2.92477964e-17
-3.09630492e-17
-3.11613563e-17
-2.89928671e-17
-3.03724638e-17
-2.94257317e-17
-2.92707641e-17
-2.84244249e-17
-2.87879285e-17
-2.97108118e-17
-2.97960343e-17
-3.02986022e-17
-3.27536752e-17
-2.92353776e-17
-2.87949786e-17
-3.37908844e-17
-2.96681796e-17
-3.24073226e-17
-3.02982135e-17
-3.15408457e-17
-3.41522561e-17
-3.44356043e-17
-3.58787286e-17
-3.7454024e-17
-3.97125348e-17
-3.73072583e-17
-4.03135592e-17
-3.80462254e-17
-3.78912579e-17
-3.67956599e-17
-3.73428824e-17
-3.61813486e-17
-3.94216532e-17
-3.46910621e-17
-3.74765412e-17
-4.06356524e-17
-4.35807172e-17
-4.26255643e-17
-4.08656402e-17
-4.11847499e-17
-4.24884021e-17
-4.17753986e-17
-4.43959951e-17
-4.32238158e-17
-4.58601235e-17
-4.7790477e-17
-4.69072267e-17
-4.65652762e-17
-4.47511687e-17
-4.65339283e-17
-4.75363959e-17
-4.55130886e-17
-4.75538967e-17
-4.71083237e-17
-4.67620797e-17
-5.09931328e-17
-5.2485541e-17
-5.06314041e-17
-5.45628242e-17
-5.41960415e-17
-5.20356747e-17
-5.34898861e-17
-5.55608692e-17
-5.24769039e-17
-4.97793831e-17
-5.442534e-17
-5.4182373e-17
-5.50813792e-17
-5.44611184e-17
-5.37363961e-17
-5.33479847e-17
-5.44227063e-17
-5.50483026e-17
-5.39136391e-17
-5.22118833e-17
-5.51972268e-17
-5.50737551e-17
-5.48790238e-17
-5.38878696e-17
-5.55278391e-17
-5.51717474e-17
-5.51645497e-17
-5.43659283e-17
-5.19155184e-17
-5.02738269e-17
-5.20703451e-17
-5.26248609e-17
-5.50187939e-17
-5.20785429e-17
-5.51883506e-17
-5.27157421e-17
-5.1168954e-17
-5.22931006e-17
-5.22450247e-17
-5.25999285e-17
-5.25061065e-17
-5.24212777e-17
-5.52460069e-17
-5.77249029e-17
-5.89795476e-17
-6.07432388e-17
-5.90669283e-17
-5.81337847e-17
-5.86315189e-17
-5.83470195e-17
-5.65995342e-17
-5.66958649e-17
-5.71214187e-17
-5.68314989e-17
-5.93631078e-17
-5.78234054e-17
-5.79526023e-17
-5.55087337e-17
-5.23386906e-17
-5.36269826e-17
-5.24818605e-17
-5.52748774e-17
-5.32447808e-17
-5.70641649e-17
-5.63441478e-17
-5.74325352e-17
-5.63753721e-17
-5.8948074e-17
-5.71890985e-17
-5.85101809e-17
-6.02043341e-17
-6.01548687e-17
-6.11476387e-17
-6.19847897e-17
-6.73382984e-17
-6.63231737e-17
-6.7106184e-17
-6.71560083e-17
-6.63778073e-17
-6.62915519e-17
-7.13948706e-17
-7.04163401e-17
-7.49085072e-17
-7.29493433e-17
-7.22566834e-17
-7.44450436e-17
-7.22141869e-17
-7.67738788e-17
-7.87910507e-17
-8.44631799e-17
-8.45977279e-17
-8.4608265e-17
-8.4118524e-17
-8.35027356e-17
-8.45918178e-17
-8.35697457e-17
-8.17559786e-17
-7.89313898e-17
-8.32835117e-17
-8.71505665e-17
-8.75636717e-17
-8.62724224e-17
-8.75754565e-17
-8.68776006e-17
-8.4035863e-17
-8.772582e-17
-8.91979117e-17
-9.08432578e-17
-8.86791812e-17
-9.12719637e-17
-8.99881626e-17
-9.31074259e-17
-9.01215264e-17
-9.33729206e-17
-9.37541566e-17
-9.11436047e-17
-9.36767674e-17
-9.54337076e-17
-9.07738137e-17
-9.3302965e-17
-9.40058469e-17
-9.42102479e-17
-9.42945024e-17
-9.34022773e-17
-9.54106675e-17
-9.60315897e-17
-9.41349663e-17
-9.49630567e-17
-9.76421541e-17
-9.4271475e-17
-9.48232499e-17
-9.58476911e-17
-9.26093244e-17
-8.94720354e-17
-8.8357945e-17
-8.93978029e-17
-8.89737683e-17
-8.95331818e-17
-9.10087941e-17
-8.97583578e-17
-9.03673214e-17
-9.37158123e-17
-9.19954611e-17
-9.1747606e-17
-9.32914807e-17
-9.48272933e-17
-9.57528666e-17
-9.72794392e-17
-9.913791e-17
-9.74241492e-17
-9.70282919e-17
-1.00833438e-16
-1.00132612e-16
-9.87061901e-17
-9.83629873e-17
-9.91814958e-17
-1.00252525e-16
-9.83922412e-17
-1.0034186e-16
-1.00816015e-16
-1.00178179e-16
-1.02749332e-16
-1.02556496e-16
-1.01959748e-16
-1.02883184e-16
-1.01919663e-16
-1.01226728e-16
-9.99929448e-17
-1.02319038e-16
-1.02779052e-16
-1.00121214e-16
-9.93157899e-17
-1.00029329e-16
-9.81187028e-17
-9.75949846e-17
-9.56405781e-17
-9.91121746e-17
-1.0021437e-16
-1.00056182e-16
-1.02078927e-16
-1.00132327e-16
-1.00092895e-16
-9.94541125e-17
-9.63584077e-17
-9.56483153e-17
-9.70789566e-17
-1.0046239e-16
-1.0056062e-16
-9.89408598e-17
-9.74907872e-17
-9.84741634e-17
-9.8560786e-17
-9.81471641e-17
-9.65354065e-17
-9.6890999e-17
-9.49924974e-17
-9.71846546e-17
-9.65536926e-17
-1.00218514e-16
-9.97563547e-17
-9.66683408e-17
-9.72040545e-17
-9.84135281e-17
-9.55855183e-17
-9.31890401e-17
-9.42755403e-17
-9.28312909e-17
-8.73176899e-17
-8.891781e-17
-9.1584722e-17
-8.61989248e-17
-8.85546562e-17
-9.04300017e-17
-8.98218677e-17
-9.22009321e-17
-9.11256348e-17
-9.15382513e-17
-9.00252951e-17
-8.69379235e-17
-8.75284078e-17
-8.7520391e-17
-8.76343328e-17
-8.94665832e-17
-9.16801293e-17
-8.72968991e-17
-8.94782203e-17
-9.04782765e-17
-8.83326247e-17
-8.37408044e-17
-8.42748716e-17
-7.90058141e-17
-8.33177659e-17
-7.99852462e-17
-7.88119409e-17
-7.96152222e-17
-8.0384721e-17
-7.59337533e-17
-7.5829136e-17
-7.69677548e-17
-7.3326354e-17
-7.31569756e-17
-7.22289891e-17
-7.68986407e-17
-7.86055075e-17
-7.54242628e-17
-7.63610313e-17
-7.73084578e-17
-7.64492136e-17
-7.462625e-17
-7.20528323e-17
-7.10473834e-17
-6.73469345e-17
-6.78372264e-17
-6.40934233e-17
-6.35693654e-17
-6.63726925e-17
-6.57390203e-17
-6.45888751e-17
-6.51215591e-17
-6.36471017e-17
-6.58680234e-17
-6.34456211e-17
-6.35000077e-17
-6.49215886e-17
-6.68661965e-17
-6.80502602e-17
-6.58771513e-17
-6.32144604e-17
-6.3051102e-17
-6.19056848e-17
-6.29607527e-17
-6.40629432e-17
-6.1739913e-17
-6.08775312e-17
-6.12840257e-17
-5.61159699e-17
-5.84923185e-17
-5.46776925e-17
-5.16729924e-17
-5.15359257e-17
-5.56114703e-17
-5.35142282e-17
-5.37933537e-17
-5.37678573e-17
-5.36578439e-17
-5.27937538e-17
-5.26481156e-17
-5.2713699e-17
-5.50178762e-17
-5.02404677e-17
-4.9499818e-17
-5.10405519e-17
-5.36972533e-17
-5.53601662e-17
-5.33477676e-17
-4.95006944e-17
-4.7401318e-17
-5.10019626e-17
-4.91836015e-17
-4.75232459e-17
-4.76001632e-17
-4.80281802e-17
-4.55706461e-17
-4.69933167e-17
-4.30720479e-17
-4.33433304e-17
-4.13738974e-17
-4.09141383e-17
-4.01385822e-17
-4.00509347e-17
-4.12957418e-17
-4.01797379e-17
-3.86615586e-17
-3.54511057e-17
-3.08219441e-17
-3.19757188e-17
-3.24250729e-17
-3.51135587e-17
-3.71800333e-17
-3.76137479e-17
-3.37229551e-17
-3.2971208e-17
-3.53854423e-17
-3.34073875e-17
-3.35455911e-17
-3.5450803e-17
-3.31019092e-17
-3.33673852e-17
-3.27964859e-17
-3.6506528e-17
-3.69072938e-17
-3.58325925e-17
-3.22324957e-17
-3.7627012e-17
-3.59627821e-17
-3.91946171e-17
-3.72186919e-17
-3.54962522e-17
-3.68844423e-17
-3.71916047e-17
-3.7020956e-17
-3.60250564e-17
-3.88436562e-17
-4.00014805e-17
-3.45857708e-17
-3.7492413e-17
-3.97464855e-17
-3.63742453e-17
-3.69295044e-17
-3.58335392e-17
-3.48589339e-17
-3.41633375e-17
-3.23248919e-17
-3.02710339e-17
-2.91316971e-17
-2.97478406e-17
-2.97956071e-17
-3.18660939e-17
-2.96239163e-17
-2.89527177e-17
-2.89042509e-17
-2.64038658e-17
-2.5721979e-17
-2.70279248e-17
-2.70891012e-17
-2.61207458e-17
-2.92056662e-17
-2.62932819e-17
-2.85251567e-17
-2.78340073e-17
-2.39887296e-17
-2.67750962e-17
-2.25124982e-17
-2.1217796e-17
-1.48058239e-17
-1.4460049e-17
-1.49862059e-17
-1.52088982e-17
-1.63995834e-17
-1.6119938e-17
-1.64934452e-17
-1.28310358e-17
-1.25672355e-17
-1.33496962e-17
-1.27811083e-17
-1.24926792e-17
-9.14334285e-18
-1.34201916e-17
-1.12428418e-17
-1.36693783e-17
-1.10544839e-17
-9.79020328e-18
-6.0690234e-18
-4.1341069e-18
-7.98504812e-18
-4.30311793e-18
-6.34430229e-18
-6.49341805e-18
-1.02185281e-17
-1.14193868e-17
-1.11473298e-17
-7.54030948e-18
-9.03616876e-18
-5.91741109e-18
-6.03576099e-18
-6.46806184e-18
-4.62830968e-18
-6.27977516e-19
-1.35319216e-19
1.95982139e-18
1.73211999e-18
1.5314647e-18
3.98803846e-18
8.20511759e-18
5.07979358e-18
5.81004322e-18
8.21598888e-18
4.57896234e-18
6.71332279e-18
6.64730111e-18
5.89443621e-18
7.81819012e-18
9.21791889e-18
7.3386766e-18
1.0786143e-17
7.31181855e-18
1.03616591e-17
1.11162821e-17
1.21878956e-17
1.66019137e-17
1.77483564e-17
1.49925726e-17
1.66771342e-17
2.00411072e-17
1.76574391e-17
1.60516815e-17
1.83803454e-17
1.93307215e-17
2.4176025e-17
2.46214282e-17
2.49943109e-17
2.44828584e-17
2.18232945e-17
2.16867963e-17
2.04467268e-17
2.1417718e-17
2.02277507e-17
1.79028621e-17
1.69158038e-17
1.6228119e-17
1.63176596e-17
1.7784589e-17
1.5551315e-17
1.78190871e-17
1.82314143e-17
1.55363045e-17
1.79583263e-17
1.35378067e-17
1.67790315e-17
1.67520931e-17
1.88199003e-17
1.91039419e-17
1.94454035e-17
1.85420773e-17
1.38298124e-17
1.77653131e-17
2.06386596e-17
2.25530365e-17
2.20398935e-17
2.20569692e-17
2.29416525e-17
2.80710231e-17
2.66902424e-17
2.78905588e-17
2.77754766e-17
3.12931818e-17
2.87434734e-17
2.82642308e-17
2.87938662e-17
2.49041399e-17
2.85456475e-17
2.69038129e-17
2.48820523e-17
2.89841584e-17
2.57557107e-17
2.49139822e-17
2.40198719e-17
2.52639402e-17
2.70332323e-17
2.65261835e-17
2.67793511e-17
2.95536793e-17
3.01995159e-17
2.8163467e-17
2.80166732e-17
3.1359416e-17
2.76021686e-17
2.78311551e-17
2.85286426e-17
3.04237393e-17
2.93306861e-17
3.00679637e-17
2.71840748e-17
3.08082558e-17
3.19173529e-17
3.17207773e-17
3.39809394e-17
3.01650032e-17
3.32734679e-17
3.03281499e-17
3.30122274e-17
3.37789176e-17
3.11173945e-17
3.0285209e-17
3.04914458e-17
3.27214436e-17
3.33329256e-17
3.1675048e-17
3.48638694e-17
3.49920538e-17
3.59485261e-17
3.46057193e-17
4.0326958e-17
3.97587759e-17
4.23018508e-17
4.13408588e-17
4.22370005e-17
4.29924529e-17
4.50419384e-17
4.38985316e-17
4.44691598e-17
4.41975323e-17
4.11557553e-17
4.18324936e-17
4.18270695e-17
4.2863199e-17
4.16634183e-17
4.37343222e-17
4.54035725e-17
4.77235862e-17
4.56915095e-17
4.70211594e-17
4.65046575e-17
4.9200697e-17
4.81429005e-17
4.84042679e-17
4.94552079e-17
4.52426737e-17
4.53352468e-17
4.70044097e-17
4.43021908e-17
4.38349076e-17
4.62562291e-17
4.70038463e-17
4.60668772e-17
4.47406914e-17
4.45064765e-17
4.72102074e-17
4.46799677e-17
4.41709542e-17
4.09654948e-17
4.10575096e-17
3.97967791e-17
3.67302065e-17
4.00189059e-17
4.13310667e-17
4.09688308e-17
3.82355742e-17
3.95975517e-17
3.84677171e-17
3.90729662e-17
4.07009818e-17
3.77016217e-17
4.30867952e-17
4.43368988e-17
4.32135202e-17
4.40768781e-17
4.84362956e-17
4.83655759e-17
4.85458609e-17
4.63033913e-17
4.51687563e-17
4.29528735e-17
4.40782702e-17
4.4156697e-17
4.30337105e-17
4.49311817e-17
4.43865406e-17
4.18291268e-17
4.230615e-17
4.8065265e-17
4.49281344e-17
4.55841676e-17
4.4684113e-17
4.21189854e-17
4.08056604e-17
4.19599786e-17
3.93989645e-17
3.84759149e-17
3.77779235e-17
4.01707622e-17
4.14087752e-17
4.57698562e-17
4.31732515e-17
4.37837078e-17
4.41778911e-17
4.27166631e-17
4.02196122e-17
4.14277143e-17
4.21116833e-17
3.71410562e-17
3.96046457e-17
3.95559806e-17
3.7945384e-17
4.07607122e-17
4.00057031e-17
4.28625486e-17
4.19888848e-17
4.16255778e-17
4.45469388e-17
4.68806695e-17
4.47621366e-17
4.53060218e-17
4.1297622e-17
4.29616595e-17
4.2332629e-17
4.27281707e-17
4.72680005e-17
4.72683316e-17
4.68888826e-17
4.64951244e-17
4.54841057e-17
4.26013241e-17
4.53287809e-17
4.77579816e-17
4.36757284e-17
4.24211348e-17
4.30117181e-17
4.06651893e-17
4.44094246e-17
4.35133679e-17
4.31701226e-17
4.50136518e-17
4.34712851e-17
4.5620964e-17
4.47889776e-17
4.43386328e-17
4.34264828e-17
4.66703939e-17
4.30787679e-17
3.74954758e-17
4.10718967e-17
3.85389774e-17
4.0430312e-17
3.92437171e-17
3.6151146e-17
3.75061979e-17
3.40197983e-17
3.68318279e-17
3.84005899e-17
4.15636982e-17
4.33997972e-17
4.56839897e-17
4.9287553e-17
4.66445177e-17
4.67328858e-17
4.60580437e-17
4.32213686e-17
4.45667005e-17
4.63570017e-17
4.46627405e-17
4.34362449e-17
4.48914783e-17
4.49472768e-17
4.42648958e-17
4.41786656e-17
4.20243844e-17
4.33683073e-17
4.75674161e-17
4.68503116e-17
4.99197931e-17
4.99621155e-17
5.04557799e-17
5.37714834e-17
5.44270293e-17
5.22941932e-17
5.14018555e-17
5.18737269e-17
5.05887434e-17
4.62764788e-17
5.06467353e-17
4.58515544e-17
5.02375262e-17
4.73387034e-17
4.8573562e-17
4.74295621e-17
4.96499691e-17
5.30333503e-17
5.45798447e-17
5.62670837e-17
5.84852516e-17
5.81023866e-17
5.65279045e-17
5.41946381e-17
5.51792074e-17
5.73893866e-17
5.6497309e-17
5.74638946e-17
5.4915322e-17
5.45115761e-17
5.63335231e-17
5.48240825e-17
5.6499076e-17
5.61948082e-17
5.71016726e-17
5.63289699e-17
5.78741115e-17
5.50737717e-17
5.78137086e-17
5.77487357e-17
5.6437976e-17
5.50675007e-17
5.49664895e-17
5.28979264e-17
5.22316705e-17
5.17119347e-17
5.29365121e-17
5.04585773e-17
5.27556674e-17
5.55778329e-17
5.44572857e-17
5.18148955e-17
5.0434326e-17
5.24620872e-17
5.04206654e-17
5.1805481e-17
5.11283075e-17
5.07205636e-17
5.04678819e-17
5.19465443e-17
5.03722229e-17
5.53766635e-17
5.22560026e-17
5.10041351e-17
5.05129803e-17
5.2446852e-17
5.30891581e-17
5.48953681e-17
5.43966015e-17
5.42725873e-17
5.20839764e-17
5.2213875e-17
4.95386257e-17
5.10655689e-17
5.02740806e-17
5.2369428e-17
5.20914389e-17
5.3282335e-17
5.53462827e-17
5.88205682e-17
5.78295777e-17
5.89807552e-17
5.87673364e-17
6.06201556e-17
5.82833961e-17
5.74292105e-17
5.68735328e-17
5.49902525e-17
5.47327466e-17
5.34208184e-17
5.16486149e-17
5.04280597e-17
4.86369356e-17
5.11719407e-17
4.87199189e-17
5.03783827e-17
5.2708959e-17
5.0430405e-17
5.10876208e-17
5.20378269e-17
5.16754911e-17
5.25997722e-17
5.56412473e-17
5.32943387e-17
5.28825373e-17
5.61947259e-17
5.425259e-17
5.64717001e-17
5.44120008e-17
5.24399963e-17
5.63970684e-17
5.95448551e-17
5.8259885e-17
6.06354203e-17
5.8423315e-17
5.93664048e-17
5.85653597e-17
5.76637512e-17
5.95096003e-17
6.06933077e-17
5.80911911e-17
6.03451059e-17
5.6960469e-17
5.42195927e-17
5.3139118e-17
5.41395633e-17
5.6991165e-17
5.53134009e-17
5.71239695e-17
5.44095221e-17
5.09730673e-17
5.249105e-17
5.33440856e-17
5.4864456e-17
5.25637358e-17
5.34300815e-17
4.865703e-17
5.13104223e-17
5.11375174e-17
4.94691449e-17
5.06237783e-17
5.09503724e-17
5.24606486e-17
5.17386246e-17
5.47185912e-17
5.483345e-17
5.79712467e-17
5.58196105e-17
5.48220131e-17
5.83996763e-17
5.88914365e-17
5.86005692e-17
5.60512954e-17
5.35029309e-17
5.27920668e-17
5.05620908e-17
5.21867874e-17
5.3023619e-17
4.85028568e-17
5.07625804e-17
4.98426975e-17
5.24858352e-17
4.92866321e-17
4.80297556e-17
4.82791649e-17
4.90611161e-17
4.64520129e-17
4.65686336e-17
4.59443173e-17
4.54443054e-17
4.29588667e-17
3.96533553e-17
4.22327624e-17
4.16533818e-17
4.4573312e-17
4.1266869e-17
4.38539638e-17
4.2833344e-17
3.98062033e-17
3.90213454e-17
3.82119756e-17
4.03068536e-17
4.08975209e-17
3.88103221e-17
3.84619789e-17
3.77574512e-17
3.80380733e-17
3.37912543e-17
3.71315929e-17
3.60844511e-17
3.3814449e-17
3.42810309e-17
3.50920093e-17
3.18171872e-17
2.73517259e-17
2.66679095e-17
2.68362905e-17
2.37449928e-17
2.11639929e-17
1.84269398e-17
1.72803947e-17
1.73190825e-17
1.38595638e-17
1.66906907e-17
1.46234679e-17
1.80641171e-17
1.84429909e-17
1.76498926e-17
1.67861999e-17
1.24925988e-17
1.3665313e-17
1.16790039e-17
8.98862029e-18
1.18942416e-17
1.03706383e-17
9.54747944e-18
1.05250723e-17
7.33244314e-18
7.63049944e-18
1.05571453e-17
9.14773576e-18
9.02417117e-18
8.88065152e-18
1.14992072e-17
1.20499316e-17
8.95627828e-18
7.63623452e-18
9.56672635e-18
1.13500041e-17
1.54515633e-17
1.38255271e-17
1.37739071e-17
1.3913231e-17
1.48485112e-17
1.27257536e-17
1.37750709e-17
1.26967311e-17
1.27131973e-17
1.30096755e-17
1.01529924e-17
1.22457737e-17
1.21515622e-17
1.33586558e-17
9.55834581e-18
7.05220976e-18
6.55233959e-18
5.7664025e-18
7.35669098e-18
9.72633385e-18
7.71709703e-18
9.20260472e-18
7.91594392e-18
6.85847208e-18
5.52519082e-18
3.73039731e-18
2.2924073e-18
2.42396809e-18
2.2117193e-18
1.2577565e-18
9.06140193e-19
-1.22631861e-18
-6.89580888e-19
-4.94245654e-19
-2.60049497e-18
-1.08752472e-21
-4.52928645e-18
-6.80685069e-18
-8.17781444e-18
-9.83468351e-18
-1.27120376e-17
-1.23841914e-17
-1.32310901e-17
-1.46128087e-17
-1.62879288e-17
-1.92615042e-17
-1.81749508e-17
-1.93404605e-17
-1.89733125e-17
-2.22955604e-17
-2.11059747e-17
-2.32655681e-17
-2.27803335e-17
-2.49602412e-17
-2.53019166e-17
-2.24281706e-17
-2.52092846e-17
-2.55280209e-17
-2.62608266e-17
-2.5576192e-17
-2.71821051e-17
-2.50540185e-17
-2.75589226e-17
-2.9821235e-17
-2.85153415e-17
-2.8339261e-17
-2.66649856e-17
-2.68669766e-17
-2.71925035e-17
-2.88678576e-17
-3.01563668e-17
-3.12444872e-17
-2.94126177e-17
-2.72499343e-17
-3.12230558e-17
-3.09886868e-17
-3.34642556e-17
-3.21059118e-17
-3.26097382e-17
-3.35735565e-17
-3.51066608e-17
-3.46124266e-17
-3.25314217e-17
-3.25723945e-17
-3.04786891e-17
-3.33816822e-17
-3.25206772e-17
-2.80875382e-17
-2.70364189e-17
-2.82223706e-17
-2.76990302e-17
-2.65727178e-17
-2.36547284e-17
-2.71703562e-17
-2.32752096e-17
-2.56361889e-17
-2.27252425e-17
-2.40124598e-17
-2.05169332e-17
-2.09767602e-17
-2.291451e-17
-2.43283323e-17
-2.72290499e-17
-3.08537843e-17
-2.87246218e-17
-3.00434744e-17
-2.87621715e-17
-3.05395241e-17
-3.316371e-17
-3.06526993e-17
-3.10121913e-17
-3.21043809e-17
-3.3619186e-17
-3.77432364e-17
-3.70205959e-17
-3.89782163e-17
-3.45407568e-17
-3.85114418e-17
-3.98126516e-17
-3.8083717e-17
-3.67289009e-17
-3.72707653e-17
-3.58888574e-17
-3.71870937e-17
-3.48945783e-17
-3.80260512e-17
-3.61127365e-17
-3.74027618e-17
-3.59326117e-17
-3.80705004e-17
-3.66526448e-17
-3.81384352e-17
-3.87952888e-17
-3.85090271e-17
-3.36632104e-17
-3.52793781e-17
-3.52983737e-17
-3.68127427e-17
-3.79934091e-17
-3.83086792e-17
-3.95876518e-17
-3.9080135e-17
-4.00204616e-17
-3.91643384e-17
-3.98945699e-17
-3.99664859e-17
-4.14556415e-17
-4.20077771e-17
-3.98057028e-17
-3.80059819e-17
-4.28586802e-17
-4.13822344e-17
-4.25977162e-17
-4.03033719e-17
-3.93660303e-17
-3.88055356e-17
-4.06872373e-17
-4.21682329e-17
-3.8442565e-17
-3.93215926e-17
-3.93867737e-17
-3.78568112e-17
-3.79413242e-17
-4.00214658e-17
-4.1558891e-17
-4.12658472e-17
-4.42552996e-17
-4.36994999e-17
-4.08053151e-17
-3.98325868e-17
-3.81686411e-17
-4.02763839e-17
-3.81495496e-17
-3.77033427e-17
-3.77478866e-17
-3.73847838e-17
-3.71046428e-17
-3.86511955e-17
-3.56846252e-17
-3.79039731e-17
-3.79333427e-17
-3.81917327e-17
-3.77607749e-17
-4.24400161e-17
-4.20969299e-17
-4.29345639e-17
-4.100049e-17
-4.58719505e-17
-4.54221051e-17
-4.65582668e-17
-4.5492097e-17
-4.52660464e-17
-4.4287872e-17
-4.29513216e-17
-4.53969513e-17
-4.4764719e-17
-4.62178211e-17
-4.90565194e-17
-4.7880809e-17
-4.5410477e-17
-4.68806746e-17
-5.01334239e-17
-4.68941484e-17
-4.55800586e-17
-4.31443345e-17
-4.42641985e-17
-4.35716687e-17
-4.72385089e-17
-4.77175532e-17
-5.14461841e-17
-5.09422798e-17
-5.19680477e-17
-5.29517575e-17
-5.43733217e-17
-5.76414784e-17
-5.79717095e-17
-5.61686841e-17
-5.48181789e-17
-5.74721894e-17
-5.61987093e-17
-5.7976245e-17
-5.53387975e-17
-5.3330717e-17
-5.39242207e-17
-5.32603019e-17
-5.48810923e-17
-5.59408899e-17
-5.79452279e-17
-5.9238984e-17
-5.80450334e-17
-6.32401316e-17
-6.20641791e-17
-6.15817469e-17
-6.20462556e-17
-6.09567936e-17
-6.0278022e-17
-5.69067398e-17
-5.72024312e-17
-5.73584721e-17
-5.65691045e-17
-5.72856318e-17
-6.09244406e-17
-5.77392096e-17
-6.08080615e-17
-6.02971513e-17
-6.0689261e-17
-5.9999265e-17
-5.84954662e-17
-6.13585e-17
-6.17003901e-17
-6.03268484e-17
-6.18200002e-17
-6.139616e-17
-5.95285697e-17
-5.86647609e-17
-5.75783132e-17
-5.69875665e-17
-5.95306396e-17
-5.6226418e-17
-5.80965741e-17
-5.57951955e-17
-5.66414905e-17
-6.02891737e-17
-5.97521705e-17
-5.79081362e-17
-5.73887182e-17
-5.65721624e-17
-5.27535959e-17
-5.13858183e-17
-5.16945029e-17
-5.1228901e-17
-5.36510091e-17
-5.47879151e-17
-5.20667037e-17
-5.57012754e-17
-5.16834784e-17
-5.20499236e-17
-5.16364812e-17
-5.35772708e-17
-5.64205345e-17
-5.45393431e-17
-5.38504221e-17
-5.51671313e-17
-5.63377358e-17
-5.46161128e-17
-5.52845496e-17
-5.36713157e-17
-5.42481641e-17
-4.9186246e-17
-5.13444571e-17
-4.98393041e-17
-4.88343775e-17
-4.95910583e-17
-4.83571411e-17
-4.84020299e-17
-4.8210939e-17
-4.49490343e-17
-4.37281582e-17
-4.55280038e-17
-4.63770748e-17
-4.73557904e-17
-4.94676893e-17
-5.08487241e-17
-4.80380193e-17
-4.70287921e-17
-4.74700728e-17
-4.89195546e-17
-4.64346609e-17
-4.62794403e-17
-4.94714297e-17
-4.7613059e-17
-4.86656029e-17
-5.13055844e-17
-5.05900352e-17
-5.38828686e-17
-5.53760644e-17
-5.48792226e-17
-5.74183097e-17
-5.46130363e-17
-5.39203389e-17
-5.34566068e-17
-4.97515747e-17
-5.20707783e-17
-5.09961474e-17
-4.88875988e-17
-4.65310512e-17
-4.80591148e-17
-5.08101936e-17
-4.8485625e-17
-4.78115209e-17
-4.53734773e-17
-4.49362781e-17
-4.5418949e-17
-4.56430582e-17
-4.97272188e-17
-5.04363086e-17
-5.26422364e-17
-5.26152258e-17
-5.08259655e-17
-4.78162168e-17
-5.12445639e-17
-4.95390692e-17
-5.13238154e-17
-5.46806545e-17
-5.46942639e-17
-5.35471822e-17
-5.04082073e-17
-5.17965492e-17
-5.43650891e-17
-5.77246304e-17
-5.64830597e-17
-5.17364914e-17
-5.04870606e-17
-5.0110514e-17
-5.14227924e-17
-5.13969283e-17
-5.35936942e-17
-5.30286228e-17
-5.19113199e-17
-5.7195929e-17
-5.50862812e-17
-5.62443664e-17
-5.4500192e-17
-5.52589778e-17
-5.59121487e-17
-5.93155144e-17
-5.38632768e-17
-5.54681151e-17
-5.6808945e-17
-5.68718929e-17
-5.88197212e-17
-5.72971155e-17
-5.9390151e-17
-5.50942244e-17
-5.68694895e-17
-5.30085684e-17
-5.28157213e-17
-5.25317606e-17
-5.13498761e-17
-5.0789137e-17
-4.90497255e-17
-5.16894549e-17
-5.30147649e-17
-5.18866092e-17
-5.47600499e-17
-5.2706606e-17
-5.5554307e-17
-5.80254297e-17
-5.82190287e-17
-5.71941185e-17
-5.75220338e-17
-5.76749309e-17
-5.73222254e-17
-5.78053225e-17
-6.17864009e-17
-5.71915226e-17
-5.52219998e-17
-5.68830231e-17
-5.72537512e-17
-5.47998025e-17
-5.56506072e-17
-5.54167682e-17
-5.44499059e-17
-4.91963665e-17
-4.8622707e-17
-5.20531626e-17
-5.36673455e-17
-4.99297596e-17
-5.28982434e-17
-5.39681989e-17
-5.25051038e-17
-5.45653315e-17
-5.47947615e-17
-5.6705943e-17
-5.49452709e-17
-5.32703962e-17
-5.36054879e-17
-5.63858823e-17
-5.1636911e-17
-4.95943841e-17
-5.0096472e-17
-4.81969461e-17
-4.79792654e-17
-4.7845924e-17
-5.07323341e-17
-4.99264878e-17
-5.03728044e-17
-4.786972e-17
-5.05211545e-17
-4.95490768e-17
-4.86768497e-17
-4.95996833e-17
-4.69546613e-17
-4.39784333e-17
-4.25614628e-17
-4.30941826e-17
-4.52283337e-17
-4.15547883e-17
-3.95128732e-17
-3.95538717e-17
-3.98034251e-17
-3.97180579e-17
-3.91645779e-17
-3.40206578e-17
-3.39990682e-17
-3.54330704e-17
-3.57314946e-17
-3.43093725e-17
-3.20478946e-17
-3.48455616e-17
-3.58199538e-17
-3.65628863e-17
-3.46061845e-17
-3.85910476e-17
-3.62094125e-17
-3.40503707e-17
-3.28541783e-17
-3.44826918e-17
-3.48590346e-17
-3.37482741e-17
-3.41529933e-17
-3.09176657e-17
-3.00808188e-17
-3.09492169e-17
-3.0976122e-17
-2.7966007e-17
-2.8457151e-17
-2.67066397e-17
-2.6960593e-17
-2.50191522e-17
-2.65237639e-17
-2.23432636e-17
-2.12212773e-17
-2.27093636e-17
-2.17721021e-17
-2.14542474e-17
-1.95748064e-17
-1.8567497e-17
-2.00104631e-17
-1.82659024e-17
-1.75875991e-17
-1.81300975e-17
-1.95188588e-17
-2.0977805e-17
-1.96006363e-17
-2.02248014e-17
-2.04115137e-17
-2.28050291e-17
-2.31441568e-17
-2.52158131e-17
-2.54566307e-17
-2.06856228e-17
-2.00985742e-17
-1.81170745e-17
-1.7505831e-17
-1.92116129e-17
-1.90241632e-17
-1.69085818e-17
-1.74925965e-17
-1.89150649e-17
-1.85610108e-17
-2.11150852e-17
-2.36942994e-17
-2.6568033e-17
-2.79444304e-17
-2.54335408e-17
-2.42900363e-17
-2.36624895e-17
-2.12341216e-17
-1.76993647e-17
-1.57530969e-17
-1.33894746e-17
-1.86653339e-17
-1.91059622e-17
-1.73073121e-17
-2.03762094e-17
-1.88240933e-17
-1.91136466e-17
-1.72544106e-17
-1.7624143e-17
-1.28149378e-17
-1.50833659e-17
-1.08750103e-17
-8.92551411e-18
-8.64012579e-18
-6.20111703e-18
-7.69783714e-18
-8.02200174e-18
-7.22077032e-18
-3.17680097e-18
-5.43339564e-18
-9.24803016e-18
-3.75225814e-18
-6.89202635e-18
-9.3569343e-18
-7.1622979e-18
-8.38927578e-18
-8.70862892e-18
-1.06758657e-17
-9.05051959e-18
-7.00367977e-18
-7.22268879e-18
-8.54606871e-18
-8.65510655e-18
-5.38764072e-18
-5.74548259e-18
-4.77416689e-18
-5.26488025e-18
-7.77181469e-18
-7.18824799e-18
-5.84124385e-18
-7.68920882e-18
-8.79346832e-18
-7.91798781e-18
-8.99597636e-18
-1.11540678e-17
-1.14871788e-17
-1.01360964e-17
-8.69362316e-18
-5.61135307e-18
-4.47514231e-18
-5.16885724e-18
-3.13017437e-18
-2.02350714e-18
-1.4005117e-18
3.32701508e-19
-1.35429475e-19
1.50874167e-19
8.38080941e-20
2.30301411e-19
-8.58540079e-19
3.62836772e-18
3.94914708e-18
4.01228812e-18
4.77937916e-18
6.5832297e-18
4.55229254e-18
7.72039157e-18
7.28939036e-18
8.28571571e-18
9.52973259e-18
6.58337719e-18
8.91572998e-18
1.05759131e-17
8.96907161e-18
1.2695019e-17
1.0382749e-17
1.26527971e-17
1.43313961e-17
1.37270462e-17
1.43237826e-17
1.17633953e-17
1.49327193e-17
1.09515484e-17
1.41456652e-17
1.20813399e-17
1.38774073e-17
1.45027847e-17
1.60938812e-17
1.65658648e-17
1.36425992e-17
1.62313313e-17
1.61784983e-17
1.56820944e-17
1.53551988e-17
1.60165668e-17
1.80427314e-17
2.01086709e-17
1.80160483e-17
1.85868456e-17
1.95049302e-17
1.75825216e-17
1.82321491e-17
1.83792029e-17
1.78687918e-17
1.72826652e-17
1.88241412e-17
2.03501008e-17
1.87747316e-17
2.2423648e-17
2.46818626e-17
2.47380894e-17
2.49783803e-17
2.59168372e-17
2.68161442e-17
2.72480153e-17
3.04658908e-17
2.75108306e-17
2.98100024e-17
3.26653204e-17
3.20745565e-17
3.43669941e-17
3.45416274e-17
3.43630796e-17
3.60640394e-17
3.94871844e-17
4.01576565e-17
3.93104905e-17
4.12095389e-17
4.11106156e-17
4.53621118e-17
4.47988173e-17
4.38062335e-17
4.51488706e-17
4.38280473e-17
4.57100707e-17
4.85008437e-17
4.64726579e-17
4.55299594e-17
4.88920563e-17
4.66618178e-17
4.60774472e-17
4.38372474e-17
4.55442769e-17
4.44259471e-17
4.7081197e-17
4.63387311e-17
4.98046674e-17
4.74911044e-17
4.94580994e-17
5.06533464e-17
5.2312382e-17
4.98182802e-17
5.35748537e-17
5.62930904e-17
5.5973379e-17
5.67608917e-17
5.79663537e-17
5.97844689e-17
5.89478515e-17
5.89245064e-17
6.1139237e-17
6.00473952e-17
5.97856314e-17
6.251951e-17
6.10955672e-17
6.30695496e-17
6.09447021e-17
6.20429554e-17
6.37203706e-17
6.71120445e-17
6.92866771e-17
6.73861642e-17
6.70239944e-17
6.95007075e-17
6.98773193e-17
6.79003522e-17
6.93206908e-17
6.84992413e-17
7.00170297e-17
6.6975141e-17
6.82784621e-17
6.60812478e-17
6.53446134e-17
6.63890647e-17
6.74354474e-17
6.70056566e-17
6.86907083e-17
6.55176733e-17
6.73503212e-17
6.53500398e-17
6.10959867e-17
6.33157563e-17
6.43587863e-17
6.97704439e-17
6.83410812e-17
6.87196708e-17
7.07257144e-17
7.01539802e-17
6.96217729e-17
7.10641553e-17
7.21987692e-17
7.40188665e-17
7.4904516e-17
7.37436004e-17
7.6238636e-17
7.60369239e-17
7.45629909e-17
7.32693215e-17
7.51879808e-17
7.60835182e-17
7.39235173e-17
7.57649494e-17
7.60637844e-17
7.40816954e-17
7.60602158e-17
7.10861316e-17
7.56939507e-17
7.8663349e-17
8.0705563e-17
8.09603175e-17
8.41964759e-17
8.55815996e-17
8.61962211e-17
8.58194456e-17
8.64274224e-17
8.85111642e-17
8.92720909e-17
8.72188878e-17
8.72123404e-17
8.95335764e-17
9.03354871e-17
9.04640752e-17
9.00954377e-17
8.99623362e-17
8.91645947e-17
9.25727966e-17
9.19405336e-17
9.62623675e-17
9.52280777e-17
9.57219216e-17
9.99216011e-17
1.02153522e-16
9.97453866e-17
1.00802966e-16
9.99471921e-17
1.01160215e-16
9.66302141e-17
9.68192533e-17
9.9358608e-17
9.94877261e-17
1.01687137e-16
1.01727127e-16
1.01813456e-16
1.04235823e-16
1.04398624e-16
1.04389024e-16
1.06122492e-16
1.06278948e-16
1.04424245e-16
1.04896348e-16
1.0740464e-16
1.0792733e-16
1.09048994e-16
1.12014174e-16
1.11163408e-16
1.11588789e-16
1.12958567e-16
1.14217646e-16
1.13155946e-16
1.16420601e-16
1.19118681e-16
1.21861216e-16
1.23441045e-16
1.21918789e-16
1.27696246e-16
1.29267506e-16
1.32669831e-16
1.38060617e-16
1.40434614e-16
1.40653782e-16
1.49608715e-16
1.47917691e-16
1.54822143e-16
1.59570298e-16
1.65360593e-16
1.69840923e-16
1.79197813e-16
1.8652307e-16
1.88267357e-16
1.94241795e-16
2.0495289e-16
2.14591699e-16
2.23188943e-16
2.32910367e-16
2.47288106e-16
2.61170735e-16
2.74744092e-16
2.91209559e-16
3.10076403e-16
3.28070213e-16
3.44439675e-16