/*--------------------------------*- C++ -*----------------------------------*\
| =========                 |                                                 |
| \\      /  F ield         | OpenFOAM: The Open Source CFD Toolbox           |
|  \\    /   O peration     | Version:  2206                                  |
|   \\  /    A nd           | Website:  www.openfoam.com                      |
|    \\/     M anipulation  |                                                 |
\*---------------------------------------------------------------------------*/
FoamFile
{
    version     2.0;
    format      ascii;
    arch        "LSB;label=32;scalar=64";
    class       volScalarField;
    location    "1.1e-05";
    object      PVsourcePV;
}
// * * * * * * * * * * * * * * * * * * * * * * * * * * * * * * * * * * * * * //

dimensions      [1 -3 -1 0 0 0 0];

internalField   nonuniform List<scalar> 
3183
(
0
0
0
0
0
0
0
0
0
0
0
0
0
0
0
0
0
0
0
0
0
0
0
0
0
0
0
0
0
0
0
0
0
0
0
0
0
0
0
0
0
0
0
0
0
0
0
0
0
0
0
0
0
0
0
0
0
0
0
0
0
0
0
0
0
0
0
0
0
0
0
0
0
0
0
0
0
0
0
0
0
0
0
0
0
0
0
0
0
0
0
0
0
0
0
0
0
0
0
0
0
0
0
0
0
0
0
0
0
0
0
0
0
0
0
0
0
0
0
0
0
0
0
0
0
0
0
0
0
0
0
0
0
0
0
0
0
0
0
0
0
0
0
0
0
0
0
0
0
0
0
0
0
0
0
0
0
0
0
0
0
0
0
0
0
0
0
0
0
0
0
0
0
0
0
0
0
0
0
0
0
0
0
0
0
0
0
0
0
0
0
0
0
0
0
0
0
0
0
0
0
0
0
0
0
0
0
0
0
0
0
0
0
0
0
0
0
0
0
0
0
0
0
0
0
0
0
0
0
0
0
0
0
0
0
0
0
0
0
0
0
0
0
0
0
0
0
0
0
0
0
0
0
0
0
0
0
0
0
0
0
0
0
0
0
0
0
0
0
0
0
0
0
0
0
0
0
0
0
0
0
0
0
0
0
0
0
0
0
0
0
0
0
0
0
0
0
0
0
0
0
0
0
0
0
0
0
0
0
0
0
0
0
0
0
0
0
0
0
0
0
0
0
0
0
0
0
0
0
0
0
0
0
0
0
0
0
0
0
0
0
0
0
0
0
0
0
0
0
0
0
0
0
0
0
0
0
0
0
0
0
0
0
0
0
0
0
0
0
0
0
0
0
0
0
0
0
0
0
0
0
0
0
0
0
0
0
0
0
0
0
0
0
0
0
0
0
0
0
0
0
0
0
0
0
0
0
0
0
0
0
0
0
0
0
0
0
0
0
0
0
0
0
0
0
0
0
0
0
0
0
0
0
0
0
0
0
0
0
0
0
0
0
0
0
0
0
0
0
0
0
0
0
0
0
0
0
0
0
0
0
0
0
0
0
0
0
0
0
0
0
0
0
0
0
0
0
0
0
0
0
0
0
0
0
0
0
0
0
0
0
0
0
0
0
0
0
0
0
0
0
0
0
0
0
0
0
0
0
0
0
0
0
0
0
0
0
0
0
0
0
0
0
0
0
0
0
0
0
0
0
0
0
0
0
0
0
0
0
0
0
0
0
0
0
0
0
0
0
0
0
0
0
0
0
0
0
0
0
0
0
0
0
0
0
0
0
0
0
0
0
0
0
0
0
0
0
0
0
0
0
0
0
0
0
0
0
0
0
0
0
0
0
0
0
0
0
0
0
0
0
0
0
0
0
0
0
0
0
0
0
0
0
0
0
0
0
0
0
0
0
0
0
0
0
0
0
0
0
0
0
0
0
0
0
0
0
0
0
0
0
0
0
0
0
0
0
0
0
0
0
0
0
0
0
0
0
0
0
0
0
0
0
0
0
0
0
0
0
0
0
0
0
0
0
0
0
0
0
0
0
0
0
0
0
0
0
0
0
0
0
0
0
0
0
0
0
0
0
0
0
0
0
0
0
0
0
0
0
0
0
0
0
0
0
0
0
0
0
0
0
0
0
0
0
0
0
0
0
0
0
0
0
0
0
0
0
0
0
0
0
0
0
0
0
0
0
0
0
0
0
0
0
0
0
0
0
0
0
0
0
0
0
0
0
0
0
0
0
0
0
0
0
0
0
0
0
0
0
0
0
0
0
0
0
0
0
0
0
0
0
0
0
0
0
0
0
0
0
0
0
0
0
0
0
0
0
0
0
0
0
0
0
0
0
0
0
0
0
0
0
0
0
0
0
0
0
0
0
0
0
0
0
0
0
0
0
0
0
0
0
0
0
0
0
0
0
0
0
0
0
0
0
0
0
0
0
0
0
0
0
0
0
0
0
0
0
0
0
0
0
0
0
0
0
0
0
0
0
0
0
0
0
0
0
0
0
0
0
0
0
0
0
0
0
0
0
0
0
0
0
0
0
0
0
0
0
0
0
0
0
0
0
0
0
0
0
0
0
0
0
0
0
0
0
0
0
0
0
0
0
0
0
0
0
0
0
0
0
0
0
0
0
0
0
0
0
0
0
0
0
0
0
0
0
0
0
0
0
0
0
0
0
0
0
0
0
0
0
0
0
0
0
0
0
0
0
0
0
0
0
0
0
0
0
0
0
0
0
0
0
0
0
0
0
0
0
0
0
0
0
0
0
0
0
0
0
0
0
0
0
0
0
0
0
0
0
0
0
0
0
0
0
0
0
0
0
0
0
0
0
0
0
0
0
0
0
0
0
0
0
0
0
0
0
0
0
0
0
0
0
0
0
0
0
0
0
0
0
0
0
0
0
0
0
0
0
0
0
0
0
0
0
0
0
0
0
0
0
0
0
0
0
0
0
0
0
0
0
0
0
0
0
0
0
0
0
0
0
0
0
0
0
0
0
0
0
0
0
0
0
0
0
0
0
0
0
0
0
0
0
0
0
0
0
0
0
0
0
0
0
0
0
0
0
0
0
0
0
0
0
0
0
0
0
0
0
0
0
0
0
0
0
0
0
0
0
0
0
0
0
0
0
0
0
0
0
0
0
0
0
0
0
0
0
0
0
0
0
0
0
0
0
0
0
0
0
0
0
0
0
0
0
0
0
0
0
0
0
0
0
0
0
0
0
0
0
0
0
0
0
0
0
0
0
0
0
0
0
0
0
0
0
0
0
0
0
0
0
0
0
0
0
0
0
0
0
0
0
0
0
0
0
0
0
0
0
0
0
0
0
0
0
0
0
0
0
0
0
0
0
0
0
0
0
0
0
0
0
0
0
0
0
0
0
0
0
0
0
0
0
0
0
0
0
0
0
0
0
0
0
0
0
0
0
0
0
0
0
0
0
0
0
0
0
0
0
0
0
0
0
0
0
0
0
0
0
0
0
0
0
0
0
0
0
0
0
0
0
0
0
0
0
0
0
0
0
0
0
0
0
0
0
0
0
0
0
0
0
0
0
0
0
0
0
0
0
0
0
0
0
0
0
0
0
0
0
0
0
0
0
0
0
0
0
0
0
0
0
0
0
0
0
0
0
0
0
0
0
0
0
0
0
0
0
0
0
0
0
0
0
0
0
0
0
0
0
0
0
0
0
0
0
0
0
0
0
0
0
0
0
0
0
0
0
0
0
0
0
0
0
0
0
0
0
0
0
0
0
0
0
0
0
0
0
0
0
0
0
0
0
0
0
0
0
0
0
0
0
0
0
0
0
0
0
0
0
0
0
0
0
0
0
0
0
0
0
0
0
0
0
0
0
0
0
0
0
0
0
0
0
0
0
0
0
0
0
0
0
0
0
0
0
0
0
0
0
0
0
0
0
0
0
0
0
0
0
0
0
0
0
0
0
0
0
0
0
0
0
0
0
0
0
0
0
0
0
0
0
0
0
0
0
0
0
0
0
0
0
0
0
0
0
0
0
0
0
0
0
0
0
0
0
0
0
0
0
0
0
0
0
0
0
0
0
0
0
0
0
0
0
0
0
0
0
0
0
0
0
0
0
0
0
0
0
0
0
0
0
0
0
0
0
0
0
0
0
0
0
0
0
0
0
0
0
0
0
0
0
0
0
0
0
0
0
0
0
0
0
0
0
0
0
0
0
0
0
0
0
0
0
0
0
0
0
0
0
0
0
0
0
0
0
0
0
0
0
0
0
0
0
0
0
0
0
0
0
0
0
0
0
0
0
0
0
0
0
0
0
0
0
0
0
0
0
0
0
0
0
0
0
0
0
0
0
0
0
0
0
0
0
0
0
0
0
0
0
0
0
0
0
0
0
0
0
0
0
0
0
0
0
0
0
0
0
0
0
0
0
0
0
0
0
0
0
0
0
0
0
0
0
0
0
0
0
0
0
0
0
0
0
0
0
0
0
0
0
0
0
0
0
0
0
0
0
0
0
0
0
0
0
0
0
0
0
0
0
0
0
0
0
0
0
0
0
0
0
0
0
0
0
0
0
0
0
0
0
0
0
0
0
0
0
0
0
0
0
0
0
0
0
0
0
0
0
0
0
0
0
0
0
0
0
0
0
0
0
0
0
0
0
0
0
0
0
0
0
0
0
0
0
0
0
0
0
0
0
0
0
0
0
0
0
0
0
0
0
0
0
0
0
0
0
0
0
0
0
0
0
0
0
0
0
0
0
0
0
0
0
0
0
0
0
0
0
0
0
0
0
0
0
0
0
0
0
0
0
0
0
0
0
0
0
0
0
0
0
0
0
0
0
0
0
0
0
0
0
0
0
0
0
0
0
0
0
0
0
0
0
0
0
0
0
0
0
0
0
0
0
0
0
0
0
0
0
0
0
0
0
0
0
0
0
0
0
0
0
0
0
0
0
0
0
0
0
0
0
0
0
0
0
0
0
0
0
0
0
0
0
0
0
0
0
0
0
0
0
0
0
0
0
0
0
0
0
0
0
0
0
0
0
0
0
0
0
0
0
0
0
0
0
0
0
0
0
0
0
0
0
0
0
0
0
0
0
0
0
0
0
0
0
0
0
0
0
0
0
0
0
0
0
0
0
0
0
0
0
0
0
0
0
0
0
0
0
0
0
0
0
0
0
0
0
0
0
0
0
0
0
0
0
0
0
0
0
0
0
0
0
0
0
0
0
0
0
0
0
0
0
0
0
0
0
0
0
0
0
0
0
0
0
0
0
0
0
0
0
0
0
0
0
0
0
0
0
0
0
0
0
0
0
0
0
0
0
0
0
0
0
0
0
0
0
0
0
0
0
0
0
0
0
0
0
0
0
0
0
0
0
0
0
0
0
0
0
0
0
0
0
0
0
0
0
0
0
0
0
0
0
0
0
0
0
0
0
0
0
0
0
0
0
0
0
0
0
0
0
0
0
0
0
0
0
0
0
0
0
0
0
0
0
0
0
0
0
0
0
0
0
0
0
0
0
0
0
0
0
0
0
0
0
0
0
0
0
0
0
0
0
0
0
0
0
0
0
0
0
0
0
0
0
0
0
0
0
0
0
0
0
0
0
0
0
0
0
0
0
0
0
0
0
0
0
0
0
0
0
0
0
0
0
0
0
0
0
0
0
0
0
0
0
0
0
0
0
0
0
0
0
0
0
0
0
0
0
0
0
0
0
0
0
0
0
0
0
0
0
0
0
0
0
0
0
0
0
0
0
0
0
0
0
0
0
0
0
0
0
0
0
0
0
0
0
0
0
0
0
0
0
0
0
0
0
0
0
0
0
0
0
0
0
0
0
0
0
0
0
0
0
0
0
0
0
0
0
0
0
0
0
0
0
0
0
0
0
2.87564808e-300
0
2.61306909e-297
1.33008173e-298
2.33368297e-294
1.56748212e-295
2.048815e-291
1.69719053e-292
1.76857164e-288
1.72628997e-289
1.50136378e-285
1.68620446e-286
1.25363874e-282
1.58468458e-283
1.02981112e-279
1.44673913e-280
8.32363194e-277
1.27815047e-277
6.62072821e-274
1.10055728e-274
5.18322408e-271
9.25366318e-272
3.99443786e-268
7.60898105e-269
3.03060602e-265
6.12573547e-266
2.26399132e-262
4.83301594e-263
1.66548845e-259
3.73975069e-260
1.20663832e-256
2.83995662e-257
8.61043826e-254
2.11768748e-254
6.05239387e-251
1.55129662e-251
4.19103422e-248
1.11682269e-248
2.8591893e-245
7.90461174e-246
1.92187531e-242
5.50193072e-243
1.27291211e-239
3.76706494e-240
8.30788227e-237
2.53773269e-237
5.34350543e-234
1.68241406e-234
3.38710813e-231
1.09785064e-231
2.11601744e-228
7.05256315e-229
1.30291159e-225
4.4607302e-226
7.90736902e-223
2.77827242e-223
4.73024874e-220
1.70412598e-220
2.78921608e-217
1.02950557e-217
1.62119634e-214
6.12621875e-215
9.28861976e-212
3.59107695e-212
5.24606306e-209
2.07373017e-209
2.92068697e-206
1.17977072e-206
1.60289819e-203
6.61270536e-204
8.67150176e-201
3.65183677e-201
4.62429967e-198
1.98703194e-198
2.43082954e-195
1.06528725e-195
1.25953805e-192
5.62730724e-193
6.43287998e-190
2.92891524e-190
3.23835018e-187
1.5020426e-187
1.60675961e-184
7.58963279e-185
7.85722026e-182
3.77844397e-182
3.78667195e-179
1.85330312e-179
1.79843422e-176
8.9558256e-177
8.41694473e-174
4.2635551e-174
3.88159151e-171
1.99950973e-171
1.76372324e-168
9.23710288e-169
7.89556974e-166
4.20320693e-166
3.48203714e-163
1.88376825e-163
1.51266195e-160
8.31460597e-161
6.47243548e-158
3.61398148e-158
2.72751267e-155
1.54674764e-155
1.13185763e-152
6.51775684e-153
4.62479434e-150
2.70379888e-150
1.86043703e-147
1.10407091e-147
7.36719873e-145
4.4372209e-145
2.87140225e-142
1.75492258e-142
1.10135068e-139
6.82928288e-140
4.15651151e-137
2.61454297e-137
1.54323456e-134
9.84575587e-135
5.63583243e-132
3.64636022e-132
2.02407476e-129
1.32784476e-129
7.14746244e-127
4.75365236e-127
2.48109663e-124
1.67266891e-124
8.46459886e-122
5.78361982e-122
2.83752023e-119
1.9646979e-119
9.34403869e-117
6.55528068e-117
3.02190239e-114
2.14769776e-114
9.595264e-112
6.90751197e-112
2.99045823e-109
2.18026823e-109
9.14511359e-107
6.75155298e-107
2.74327514e-104
2.05050381e-104
8.06916211e-102
6.10561959e-102
2.32652214e-99
1.78176789e-99
6.57259349e-97
5.09395233e-97
1.81860295e-94
1.42613476e-94
4.92629014e-92
3.90819659e-92
1.30581101e-89
1.04784802e-89
3.38534551e-87
2.74731765e-87
8.57941718e-85
7.04005949e-85
2.12421712e-82
1.76219173e-82
5.13527379e-80
4.30600732e-80
1.21135256e-77
1.02649735e-77
2.78623735e-75
2.38560504e-75
6.24427737e-73
5.4009547e-73
1.36242948e-70
1.19020717e-70
2.89159557e-68
2.55079678e-68
5.96411866e-66
5.31154781e-66
1.19426275e-63
1.07353168e-63
2.31910368e-61
2.10366049e-61
4.36200651e-59
3.99189488e-59
7.93650726e-57
7.32575683e-57
1.39484526e-54
1.29827986e-54
2.36423399e-52
2.21838286e-52
3.85803035e-50
3.64833976e-50
6.04939814e-48
5.76368356e-48
9.09483803e-46
8.72791154e-46
1.30787743e-43
1.26378258e-43
1.79411138e-41
1.74501401e-41
2.34048565e-39
2.29055897e-39
2.89342371e-37
2.84807631e-37
3.37608689e-35
3.34056809e-35
3.70062434e-33
3.67769294e-33
3.78973977e-31
3.77650751e-31
3.60235011e-29
3.58829914e-29
3.15355694e-27
3.12443291e-27
2.51819605e-25
2.47132617e-25
1.81231331e-23
1.81065768e-23
1.15707536e-21
1.150977e-21
6.42622268e-20
6.37484783e-20
3.01799228e-18
3.00538267e-18
1.15056245e-16
1.13907664e-16
3.33953885e-15
3.35482096e-15
2.69569722e-11
2.82034798e-11
0.0145213226
0.0595167487
0.70944467
0.760942889
0.441161398
0.369229498
0.0724466132
0.0589532614
0.011110304
0.0100350854
0.00184943878
0.00175332906
0.000273421327
0.000269882163
3.78349564e-05
3.77677576e-05
5.29114658e-06
5.31271238e-06
1.20726229e-06
1.20730442e-06
7.31440504e-07
7.31380457e-07
6.80360195e-07
6.80368293e-07
6.75277791e-07
6.75278581e-07
6.74803563e-07
6.74804448e-07
6.7476043e-07
6.74762674e-07
6.74757893e-07
6.74759493e-07
6.74757146e-07
6.74759744e-07
6.74755834e-07
6.74759041e-07
6.74757801e-07
6.74757337e-07
6.74758302e-07
6.7475654e-07
6.74758189e-07
6.74757112e-07
6.74758965e-07
6.74757325e-07
6.74758307e-07
6.74758213e-07
6.74758658e-07
6.7475768e-07
6.74758524e-07
6.74757817e-07
6.74758928e-07
6.74757144e-07
6.74758547e-07
6.74757753e-07
6.74758233e-07
6.74758177e-07
6.74757629e-07
6.74758455e-07
6.74757589e-07
6.74757984e-07
6.74758859e-07
6.74758092e-07
6.74757976e-07
6.74758223e-07
6.74757629e-07
6.74757776e-07
6.74758594e-07
6.74757911e-07
6.74758321e-07
6.74756799e-07
6.74757532e-07
6.74758156e-07
6.7475718e-07
6.74758768e-07
6.7475682e-07
6.7475859e-07
6.74758123e-07
6.74758733e-07
6.74758029e-07
6.74758638e-07
6.74757204e-07
6.74758993e-07
6.74757579e-07
6.74758213e-07
6.74758544e-07
6.74757167e-07
6.74758932e-07
6.74756599e-07
6.74759022e-07
6.74757049e-07
6.74758668e-07
6.7475746e-07
6.74758256e-07
6.74758945e-07
6.74757999e-07
6.74758673e-07
6.74758483e-07
6.74757996e-07
6.74759273e-07
6.74758167e-07
6.74758067e-07
6.74758918e-07
6.7475843e-07
6.74758437e-07
6.74758598e-07
6.7475819e-07
6.74758015e-07
6.74758345e-07
6.74758163e-07
6.74758698e-07
6.74758191e-07
6.74757763e-07
6.74757614e-07
6.74758164e-07
6.74757791e-07
6.74758058e-07
6.74757622e-07
6.7475882e-07
6.74757786e-07
6.74759047e-07
6.74757774e-07
6.74758927e-07
6.7475757e-07
6.74758912e-07
6.74757779e-07
6.74759103e-07
6.74757616e-07
6.7475908e-07
6.74757528e-07
6.74759734e-07
6.74757825e-07
6.74758992e-07
6.74758823e-07
6.747592e-07
6.74758674e-07
6.74758271e-07
6.74759844e-07
6.74757575e-07
6.74758986e-07
6.74757561e-07
6.74757935e-07
6.747585e-07
6.74757185e-07
6.74758006e-07
6.74757892e-07
6.7475822e-07
6.74757892e-07
6.74757737e-07
6.74758753e-07
6.74757859e-07
6.74759507e-07
6.74756786e-07
6.74759529e-07
6.74757809e-07
6.74758655e-07
6.7475838e-07
6.74757966e-07
6.74758212e-07
6.74758803e-07
6.7475816e-07
6.74760068e-07
6.74757757e-07
6.74759516e-07
6.74758248e-07
6.74759497e-07
6.74758228e-07
6.74758826e-07
6.74757548e-07
6.747583e-07
6.74757909e-07
6.74758357e-07
6.74758137e-07
6.74757751e-07
6.74758377e-07
6.74758225e-07
6.74758878e-07
6.7475883e-07
6.74759231e-07
6.74758988e-07
6.74759259e-07
6.74760044e-07
6.74759141e-07
6.74759889e-07
6.74758775e-07
6.74758883e-07
6.74758062e-07
6.74758507e-07
6.74758034e-07
6.74759149e-07
6.74758745e-07
6.74758956e-07
6.74757883e-07
6.74760053e-07
6.74758275e-07
6.74759682e-07
6.74758195e-07
6.74758556e-07
6.747583e-07
6.74758961e-07
6.74757396e-07
6.7475941e-07
6.74758418e-07
6.74759576e-07
6.7475764e-07
6.7475878e-07
6.74758451e-07
6.74759036e-07
6.74758197e-07
6.74759976e-07
6.74759474e-07
6.74759899e-07
6.74758333e-07
6.74759567e-07
6.7475897e-07
6.74759015e-07
6.74758849e-07
6.74759009e-07
6.74758843e-07
6.74758567e-07
6.74758941e-07
6.7475892e-07
6.74759287e-07
6.74758212e-07
6.7475814e-07
6.74759057e-07
6.7475838e-07
6.74758825e-07
6.74758954e-07
6.74759007e-07
6.7475981e-07
6.74758626e-07
6.74759112e-07
6.74759503e-07
6.74758667e-07
6.74759197e-07
6.7475887e-07
6.74758893e-07
6.74759711e-07
6.74758809e-07
6.74759967e-07
6.74758487e-07
6.74760115e-07
6.74758663e-07
6.7475983e-07
6.74758047e-07
6.74760148e-07
6.74758192e-07
6.74759606e-07
6.74758424e-07
6.7475841e-07
6.74759707e-07
6.74759297e-07
6.74759375e-07
6.74759412e-07
6.74758217e-07
6.74759923e-07
6.7475858e-07
6.74759757e-07
6.74759345e-07
6.74758571e-07
6.7476022e-07
6.7475863e-07
6.74760573e-07
6.74758145e-07
6.74760694e-07
6.7475806e-07
6.74759496e-07
6.74758288e-07
6.74759209e-07
6.74758052e-07
6.74759946e-07
6.74758198e-07
6.74758942e-07
6.74759445e-07
6.74758489e-07
6.74759535e-07
6.74759322e-07
6.74759899e-07
6.74758989e-07
6.74759124e-07
6.74759709e-07
6.74759204e-07
6.74758995e-07
6.74759789e-07
6.74759208e-07
6.7475842e-07
6.74759281e-07
6.74758512e-07
6.74759134e-07
6.74759872e-07
6.74758841e-07
6.74759238e-07
6.74759324e-07
6.74759233e-07
6.74759098e-07
6.74758793e-07
6.74759172e-07
6.74759503e-07
6.74759776e-07
6.74759093e-07
6.7475923e-07
6.74759711e-07
6.74759287e-07
6.74759532e-07
6.74759239e-07
6.7475958e-07
6.74758975e-07
6.74759512e-07
6.74758935e-07
6.74759439e-07
6.74759539e-07
6.74759582e-07
6.74758572e-07
6.74759522e-07
6.74759148e-07
6.74758869e-07
6.74759599e-07
6.74758753e-07
6.74759869e-07
6.74758736e-07
6.74759512e-07
6.74759082e-07
6.74759819e-07
6.74758919e-07
6.74759891e-07
6.74759182e-07
6.7475899e-07
6.74759699e-07
6.74759158e-07
6.74760326e-07
6.74758452e-07
6.74760207e-07
6.74759203e-07
6.74759158e-07
6.7475935e-07
6.74759509e-07
6.74758998e-07
6.7475945e-07
6.74758792e-07
6.74759384e-07
6.74759491e-07
6.74760028e-07
6.74758828e-07
6.74759493e-07
6.74759998e-07
6.74759448e-07
6.7475956e-07
6.74759248e-07
6.74759687e-07
6.74758832e-07
6.74760423e-07
6.74759907e-07
6.74758903e-07
6.74759284e-07
6.74760045e-07
6.74758342e-07
6.74760655e-07
6.74759405e-07
6.74759421e-07
6.74759875e-07
6.74760241e-07
6.74758859e-07
6.74759722e-07
6.74759831e-07
6.74760267e-07
6.74760215e-07
6.74759373e-07
6.74760293e-07
6.74759939e-07
6.74760226e-07
6.74760301e-07
6.74760459e-07
6.74759974e-07
6.74760347e-07
6.74759294e-07
6.74759875e-07
6.74758849e-07
6.74759977e-07
6.74759653e-07
6.74760576e-07
6.74760122e-07
6.74759446e-07
6.74760237e-07
6.74759266e-07
6.74760424e-07
6.74759327e-07
6.74759525e-07
6.74759643e-07
6.7475932e-07
6.74760102e-07
6.74759064e-07
6.74760245e-07
6.74759025e-07
6.74759891e-07
6.74760487e-07
6.74759954e-07
6.74760592e-07
6.74759714e-07
6.74760204e-07
6.74759691e-07
6.7475966e-07
6.74759838e-07
6.74759226e-07
6.74760922e-07
6.74759178e-07
6.74760283e-07
6.74759084e-07
6.74760286e-07
6.74760618e-07
6.74759885e-07
6.74760459e-07
6.74760479e-07
6.74759645e-07
6.74760517e-07
6.74760246e-07
6.74759831e-07
6.7476046e-07
6.74760001e-07
6.74759629e-07
6.74759908e-07
6.74759845e-07
6.7476071e-07
6.74759322e-07
6.74760772e-07
6.7476046e-07
6.74760486e-07
6.74760319e-07
6.74760574e-07
6.74759514e-07
6.74760692e-07
6.74759818e-07
6.74760164e-07
6.74760714e-07
6.74760719e-07
6.74760452e-07
6.74760085e-07
6.74759932e-07
6.74760779e-07
6.74760036e-07
6.74760861e-07
6.7476005e-07
6.74760572e-07
6.74759767e-07
6.74760616e-07
6.74760072e-07
6.74761069e-07
6.74760462e-07
6.74760966e-07
6.74759617e-07
6.7476047e-07
6.7476042e-07
6.74760025e-07
6.74760445e-07
6.74760409e-07
6.74760523e-07
6.74760799e-07
6.74759695e-07
6.74761061e-07
6.74760456e-07
6.74759428e-07
6.7476075e-07
6.74760577e-07
6.74759638e-07
6.74761193e-07
6.74759359e-07
6.74761316e-07
6.74760443e-07
6.74760463e-07
6.7476059e-07
6.74760465e-07
6.74760936e-07
6.74759729e-07
6.74760389e-07
6.74760731e-07
6.74759573e-07
6.74761174e-07
6.74759434e-07
6.74761251e-07
6.74759721e-07
6.74760545e-07
6.74759466e-07
6.74761031e-07
6.74759453e-07
6.74760146e-07
6.74760162e-07
6.7476017e-07
6.74759985e-07
6.7475979e-07
6.7476173e-07
6.74759562e-07
6.7476128e-07
6.74760003e-07
6.74760751e-07
6.74760352e-07
6.74761951e-07
6.74759002e-07
6.7476181e-07
6.74759011e-07
6.74761668e-07
6.74759295e-07
6.74761093e-07
6.74760083e-07
6.74760976e-07
6.74760825e-07
6.74761207e-07
6.74760443e-07
6.74761145e-07
6.74760721e-07
6.74760575e-07
6.74760547e-07
6.74760796e-07
6.74760296e-07
6.74760916e-07
6.74760744e-07
6.7476104e-07
6.74760984e-07
6.74760719e-07
6.74760948e-07
6.74760817e-07
6.74760708e-07
6.74761033e-07
6.74761081e-07
6.74761066e-07
6.7476111e-07
6.74761086e-07
6.7476112e-07
6.74761257e-07
6.74761327e-07
6.74761344e-07
6.74761468e-07
6.74761531e-07
6.74761669e-07
6.74761768e-07
6.74761811e-07
6.7476197e-07
6.74762087e-07
6.74762143e-07
6.74762271e-07
6.74762399e-07
6.74762552e-07
6.74762623e-07
6.74762706e-07
6.74762833e-07
6.74762873e-07
6.7476294e-07
6.74763001e-07
6.74763045e-07
6.74763018e-07
6.74763086e-07
6.74763077e-07
6.74763083e-07
6.74763083e-07
6.74763084e-07
6.74763092e-07
6.74763101e-07
6.74763092e-07
6.74763093e-07
6.74763074e-07
6.74763066e-07
6.74763094e-07
6.74763086e-07
6.74763088e-07
6.74763087e-07
6.74763088e-07
6.74763099e-07
6.7476309e-07
6.74763089e-07
6.74763107e-07
6.7476308e-07
6.74763087e-07
6.74763084e-07
6.74763095e-07
6.74763089e-07
6.74763086e-07
6.7476309e-07
6.7476308e-07
6.74763072e-07
6.74763104e-07
)
;

boundaryField
{
    closed
    {
        type            calculated;
        value           uniform 0;
    }
    open
    {
        type            calculated;
        value           uniform 0;
    }
    sides
    {
        type            empty;
    }
}


// ************************************************************************* //
