/*--------------------------------*- C++ -*----------------------------------*\
| =========                 |                                                 |
| \\      /  F ield         | OpenFOAM: The Open Source CFD Toolbox           |
|  \\    /   O peration     | Version:  2206                                  |
|   \\  /    A nd           | Website:  www.openfoam.com                      |
|    \\/     M anipulation  |                                                 |
\*---------------------------------------------------------------------------*/
FoamFile
{
    version     2.0;
    format      ascii;
    arch        "LSB;label=32;scalar=64";
    class       volScalarField;
    location    "1.1e-05";
    object      sourcePV;
}
// * * * * * * * * * * * * * * * * * * * * * * * * * * * * * * * * * * * * * //

dimensions      [1 -3 -1 0 0 0 0];

internalField   nonuniform List<scalar> 
3183
(
0
0
0
0
0
0
0
0
0
0
0
0
0
0
0
0
0
0
0
0
0
0
0
0
0
0
0
0
0
0
0
0
0
0
0
0
0
0
0
0
0
0
0
0
0
0
0
0
0
0
0
0
0
0
0
0
0
0
0
0
0
0
0
0
0
0
0
0
0
0
0
0
0
0
0
0
0
0
0
0
0
0
0
0
0
0
0
0
0
0
0
0
0
0
0
0
0
0
0
0
0
0
0
0
0
0
0
0
0
0
0
0
0
0
0
0
0
0
0
0
0
0
0
0
0
0
0
0
0
0
0
0
0
0
0
0
0
0
0
0
0
0
0
0
0
0
0
0
0
0
0
0
0
0
0
0
0
0
0
0
0
0
0
0
0
0
0
0
0
0
0
0
0
0
0
0
0
0
0
0
0
0
0
0
0
0
0
0
0
0
0
0
0
0
0
0
0
0
0
0
0
0
0
0
0
0
0
0
0
0
0
0
0
0
0
0
0
0
0
0
0
0
0
0
0
0
0
0
0
0
0
0
0
0
0
0
0
0
0
0
0
0
0
0
0
0
0
0
0
0
0
0
0
0
0
0
0
0
0
0
0
0
0
0
0
0
0
0
0
0
0
0
0
0
0
0
0
0
0
0
0
0
0
0
0
0
0
0
0
0
0
0
0
0
0
0
0
0
0
0
0
0
0
0
0
0
0
0
0
0
0
0
0
0
0
0
0
0
0
0
0
0
0
0
0
0
0
0
0
0
0
0
0
0
0
0
0
0
0
0
0
0
0
0
0
0
0
0
0
0
0
0
0
0
0
0
0
0
0
0
0
0
0
0
0
0
0
0
0
0
0
0
0
0
0
0
0
0
0
0
0
0
0
0
0
0
0
0
0
0
0
0
0
0
0
0
0
0
0
0
0
0
0
0
0
0
0
0
0
0
0
0
0
0
0
0
0
0
0
0
0
0
0
0
0
0
0
0
0
0
0
0
0
0
0
0
0
0
0
0
0
0
0
0
0
0
0
0
0
0
0
0
0
0
0
0
0
0
0
0
0
0
0
0
0
0
0
0
0
0
0
0
0
0
0
0
0
0
0
0
0
0
0
0
0
0
0
0
0
0
0
0
0
0
0
0
0
0
0
0
0
0
0
0
0
0
0
0
0
0
0
0
0
0
0
0
0
0
0
0
0
0
0
0
0
0
0
0
0
0
0
0
0
0
0
0
0
0
0
0
0
0
0
0
0
0
0
0
0
0
0
0
0
0
0
0
0
0
0
0
0
0
0
0
0
0
0
0
0
0
0
0
0
0
0
0
0
0
0
0
0
0
0
0
0
0
0
0
0
0
0
0
0
0
0
0
0
0
0
0
0
0
0
0
0
0
0
0
0
0
0
0
0
0
0
0
0
0
0
0
0
0
0
0
0
0
0
0
0
0
0
0
0
0
0
0
0
0
0
0
0
0
0
0
0
0
0
0
0
0
0
0
0
0
0
0
0
0
0
0
0
0
0
0
0
0
0
0
0
0
0
0
0
0
0
0
0
0
0
0
0
0
0
0
0
0
0
0
0
0
0
0
0
0
0
0
0
0
0
0
0
0
0
0
0
0
0
0
0
0
0
0
0
0
0
0
0
0
0
0
0
0
0
0
0
0
0
0
0
0
0
0
0
0
0
0
0
0
0
0
0
0
0
0
0
0
0
0
0
0
0
0
0
0
0
0
0
0
0
0
0
0
0
0
0
0
0
0
0
0
0
0
0
0
0
0
0
0
0
0
0
0
0
0
0
0
0
0
0
0
0
0
0
0
0
0
0
0
0
0
0
0
0
0
0
0
0
0
0
0
0
0
0
0
0
0
0
0
0
0
0
0
0
0
0
0
0
0
0
0
0
0
0
0
0
0
0
0
0
0
0
0
0
0
0
0
0
0
0
0
0
0
0
0
0
0
0
0
0
0
0
0
0
0
0
0
0
0
0
0
0
0
0
0
0
0
0
0
0
0
0
0
0
0
0
0
0
0
0
0
0
0
0
0
0
0
0
0
0
0
0
0
0
0
0
0
0
0
0
0
0
0
0
0
0
0
0
0
0
0
0
0
0
0
0
0
0
0
0
0
0
0
0
0
0
0
0
0
0
0
0
0
0
0
0
0
0
0
0
0
0
0
0
0
0
0
0
0
0
0
0
0
0
0
0
0
0
0
0
0
0
0
0
0
0
0
0
0
0
0
0
0
0
0
0
0
0
0
0
0
0
0
0
0
0
0
0
0
0
0
0
0
0
0
0
0
0
0
0
0
0
0
0
0
0
0
0
0
0
0
0
0
0
0
0
0
0
0
0
0
0
0
0
0
0
0
0
0
0
0
0
0
0
0
0
0
0
0
0
0
0
0
0
0
0
0
0
0
0
0
0
0
0
0
0
0
0
0
0
0
0
0
0
0
0
0
0
0
0
0
0
0
0
0
0
0
0
0
0
0
0
0
0
0
0
0
0
0
0
0
0
0
0
0
0
0
0
0
0
0
0
0
0
0
0
0
0
0
0
0
0
0
0
0
0
0
0
0
0
0
0
0
0
0
0
0
0
0
0
0
0
0
0
0
0
0
0
0
0
0
0
0
0
0
0
0
0
0
0
0
0
0
0
0
0
0
0
0
0
0
0
0
0
0
0
0
0
0
0
0
0
0
0
0
0
0
0
0
0
0
0
0
0
0
0
0
0
0
0
0
0
0
0
0
0
0
0
0
0
0
0
0
0
0
0
0
0
0
0
0
0
0
0
0
0
0
0
0
0
0
0
0
0
0
0
0
0
0
0
0
0
0
0
0
0
0
0
0
0
0
0
0
0
0
0
0
0
0
0
0
0
0
0
0
0
0
0
0
0
0
0
0
0
0
0
0
0
0
0
0
0
0
0
0
0
0
0
0
0
0
0
0
0
0
0
0
0
0
0
0
0
0
0
0
0
0
0
0
0
0
0
0
0
0
0
0
0
0
0
0
0
0
0
0
0
0
0
0
0
0
0
0
0
0
0
0
0
0
0
0
0
0
0
0
0
0
0
0
0
0
0
0
0
0
0
0
0
0
0
0
0
0
0
0
0
0
0
0
0
0
0
0
0
0
0
0
0
0
0
0
0
0
0
0
0
0
0
0
0
0
0
0
0
0
0
0
0
0
0
0
0
0
0
0
0
0
0
0
0
0
0
0
0
0
0
0
0
0
0
0
0
0
0
0
0
0
0
0
0
0
0
0
0
0
0
0
0
0
0
0
0
0
0
0
0
0
0
0
0
0
0
0
0
0
0
0
0
0
0
0
0
0
0
0
0
0
0
0
0
0
0
0
0
0
0
0
0
0
0
0
0
0
0
0
0
0
0
0
0
0
0
0
0
0
0
0
0
0
0
0
0
0
0
0
0
0
0
0
0
0
0
0
0
0
0
0
0
0
0
0
0
0
0
0
0
0
0
0
0
0
0
0
0
0
0
0
0
0
0
0
0
0
0
0
0
0
0
0
0
0
0
0
0
0
0
0
0
0
0
0
0
0
0
0
0
0
0
0
0
0
0
0
0
0
0
0
0
0
0
0
0
0
0
0
0
0
0
0
0
0
0
0
0
0
0
0
0
0
0
0
0
0
0
0
0
0
0
0
0
0
0
0
0
0
0
0
0
0
0
0
0
0
0
0
0
0
0
0
0
0
0
0
0
0
0
0
0
0
0
0
0
0
0
0
0
0
0
0
0
0
0
0
0
0
0
0
0
0
0
0
0
0
0
0
0
0
0
0
0
0
0
0
0
0
0
0
0
0
0
0
0
0
0
0
0
0
0
0
0
0
0
0
0
0
0
0
0
0
0
0
0
0
0
0
0
0
0
0
0
0
0
0
0
0
0
0
0
0
0
0
0
0
0
0
0
0
0
0
0
0
0
0
0
0
0
0
0
0
0
0
0
0
0
0
0
0
0
0
0
0
0
0
0
0
0
0
0
0
0
0
0
0
0
0
0
0
0
0
0
0
0
0
0
0
0
0
0
0
0
0
0
0
0
0
0
0
0
0
0
0
0
0
0
0
0
0
0
0
0
0
0
0
0
0
0
0
0
0
0
0
0
0
0
0
0
0
0
0
0
0
0
0
0
0
0
0
0
0
0
0
0
0
0
0
0
0
0
0
0
0
0
0
0
0
0
0
0
0
0
0
0
0
0
0
0
0
0
0
0
0
0
0
0
0
0
0
0
0
0
0
0
0
0
0
0
0
0
0
0
0
0
0
0
0
0
0
0
0
0
0
0
0
0
0
0
0
0
0
0
0
0
0
0
0
0
0
0
0
0
0
0
0
0
0
0
0
0
0
0
0
0
0
0
0
0
0
0
0
0
0
0
0
0
0
0
0
0
0
0
0
0
0
0
0
0
0
0
0
0
0
0
0
0
0
0
0
0
0
0
0
0
0
0
0
0
0
0
0
0
0
0
0
0
0
0
0
0
0
0
0
0
0
0
0
0
0
0
0
0
0
0
0
0
0
0
0
0
0
0
0
0
0
0
0
0
0
0
0
0
0
0
0
0
0
0
0
0
0
0
0
0
0
0
0
0
0
0
0
0
0
0
0
0
0
0
0
0
0
0
0
0
0
0
0
0
0
0
0
0
0
0
0
0
0
0
0
0
0
0
0
0
0
0
0
0
0
0
0
0
0
0
0
0
0
0
0
0
0
0
0
0
0
0
0
0
0
0
0
0
0
0
0
0
0
0
0
0
0
0
0
0
0
0
0
0
0
0
0
0
0
0
0
0
0
0
0
0
0
0
0
0
0
0
0
0
0
0
0
0
0
0
0
0
0
0
0
0
0
0
0
0
0
0
0
0
0
0
0
0
0
0
0
0
0
0
0
0
0
0
0
0
0
0
0
0
0
0
0
0
0
0
0
0
0
0
0
0
0
0
0
0
0
0
0
0
0
0
0
0
0
0
0
0
0
0
0
0
0
0
0
0
0
0
0
0
0
0
0
0
0
0
0
0
0
0
0
0
0
0
0
0
0
0
0
0
0
0
0
0
0
0
0
0
0
0
0
0
0
0
0
0
0
0
0
0
0
0
0
0
0
0
0
0
0
0
0
0
0
0
0
0
0
0
0
0
0
0
0
0
0
0
0
0
0
0
0
0
0
0
0
0
0
0
0
0
0
0
0
0
0
0
0
0
0
0
0
0
0
0
0
0
0
0
0
0
0
0
0
0
0
0
0
0
0
0
0
0
0
0
0
0
0
0
0
0
0
0
0
0
0
0
0
0
0
0
0
0
0
0
0
0
0
0
0
0
0
0
0
0
0
0
0
0
0
0
0
0
0
0
0
0
0
0
0
0
0
0
0
0
0
0
0
0
5.42895477e-300
0
5.02059259e-297
1.71268665e-298
4.56215606e-294
2.32218906e-295
4.07437597e-291
2.73666627e-292
3.57702512e-288
2.96312412e-289
3.08774838e-285
3.01392883e-286
2.62123031e-282
2.94394355e-283
2.18872727e-279
2.76670004e-280
1.79794674e-276
2.52586115e-277
1.4532225e-273
2.2315223e-274
1.15591262e-270
1.92146243e-271
9.04938843e-268
1.61559661e-268
6.97388714e-265
1.32845164e-265
5.29113359e-262
1.06949186e-262
3.95270136e-259
8.43796021e-260
2.90777549e-256
6.52922893e-257
2.10666927e-253
4.95827889e-254
1.503296e-250
3.69726956e-251
1.05668715e-247
2.70840802e-248
7.31712463e-245
1.9498602e-245
4.99185722e-242
1.38006578e-242
3.35540117e-239
9.60581819e-240
2.22237665e-236
6.57691686e-237
1.45047277e-233
4.43062628e-234
9.32922356e-231
2.9373259e-231
5.91355045e-228
1.91673691e-228
3.69435383e-225
1.23130666e-225
2.27475271e-222
7.78798671e-223
1.38054718e-219
4.85058449e-220
8.258539e-217
2.97523273e-217
4.86969101e-214
1.79741327e-214
2.83044591e-211
1.06957624e-211
1.62169968e-208
6.26965952e-209
9.15909897e-206
3.6205245e-206
5.09922598e-203
2.05976113e-203
2.79849918e-200
1.15451191e-200
1.51395707e-197
6.37574006e-198
8.07356257e-195
3.4691581e-195
4.24398412e-192
1.8598845e-192
2.19902688e-189
9.824713e-190
1.12311621e-186
5.1135917e-187
5.65383403e-184
2.62241546e-184
2.80524084e-181
1.32507362e-181
1.37179171e-178
6.59678351e-179
6.61114873e-176
3.23568103e-176
3.13988545e-173
1.56359716e-173
1.46951397e-170
7.4437388e-171
6.77686875e-168
3.49094308e-168
3.07928356e-165
1.61270535e-165
1.37848714e-162
7.33837696e-163
6.07928696e-160
3.28887008e-160
2.64095578e-157
1.45164666e-157
1.1300222e-154
6.30964852e-155
4.76196305e-152
2.70046597e-152
1.97610969e-149
1.13793485e-149
8.07442621e-147
4.72056116e-147
3.24813612e-144
1.92759688e-144
1.28623887e-141
7.74694183e-142
5.01317981e-139
3.06391848e-139
1.92284762e-136
1.19232417e-136
7.25685144e-134
4.5647293e-134
2.69433247e-131
1.71897004e-131
9.83959712e-129
6.36617856e-129
3.53383115e-126
2.31828353e-126
1.24787512e-123
8.29939937e-124
4.33174542e-121
2.92031185e-121
1.47783391e-118
1.00976191e-118
4.9540252e-116
3.43016512e-116
1.63137527e-113
1.14448614e-113
5.27593792e-111
3.74966449e-111
1.67523668e-108
1.20598218e-108
5.22103958e-106
3.80652925e-106
1.59664494e-103
1.17875331e-103
4.78948274e-101
3.57997361e-101
1.40879462e-98
1.06597983e-98
4.06187389e-96
3.1107877e-96
1.14750878e-93
8.89352891e-94
3.17509801e-91
2.489888e-91
8.60080759e-89
6.82331855e-89
2.27981482e-86
1.82943736e-86
5.9104731e-84
4.79654056e-84
1.49788003e-81
1.22912365e-81
3.70866965e-79
3.0766097e-79
8.96567203e-77
7.5178561e-77
2.11489985e-74
1.79216122e-74
4.86449044e-72
4.16502669e-72
1.09018809e-69
9.42952421e-70
2.37866498e-67
2.07798213e-67
5.04843532e-65
4.45343487e-65
1.04127519e-62
9.27342877e-63
2.08506275e-60
1.87427845e-60
4.048922e-58
3.67277984e-58
7.61562506e-56
6.96944734e-56
1.38563442e-53
1.27900353e-53
2.43525966e-51
2.26666619e-51
4.12771498e-49
3.87307357e-49
6.73573334e-47
6.36963463e-47
1.05616413e-44
1.00628124e-44
1.58786733e-42
1.52380565e-42
2.28342258e-40
2.20643739e-40
3.1323382e-38
3.04661911e-38
4.08625277e-36
3.99908581e-36
5.05162707e-34
4.97245507e-34
5.89430847e-32
5.83229622e-32
6.46091826e-30
6.42088233e-30
6.61650485e-28
6.59340264e-28
6.28934132e-26
6.26480974e-26
5.50579355e-24
5.45494592e-24
4.39651727e-22
4.31468718e-22
3.16411694e-20
3.16122637e-20
2.02013731e-18
2.0094902e-18
1.12195391e-16
1.11298438e-16
5.26911127e-15
5.24709616e-15
2.00876643e-13
1.98871335e-13
5.83049927e-12
5.8571803e-12
4.65742233e-09
4.82213973e-09
0.310918905
1.14065374
9.85034455
10.2442309
5.38963509
4.47743518
0.855314698
0.695144828
0.130491971
0.117863388
0.0217218966
0.0205930754
0.00321136537
0.00316979743
0.000444372612
0.000443583354
6.21413067e-05
6.23946e-05
1.41755512e-05
1.4176046e-05
8.58696207e-06
8.5862568e-06
7.98701715e-06
7.98711226e-06
7.92732365e-06
7.92733292e-06
7.92175378e-06
7.92176417e-06
7.92124718e-06
7.92127354e-06
7.92121739e-06
7.92123617e-06
7.92120861e-06
7.92123912e-06
7.9211932e-06
7.92123087e-06
7.92121631e-06
7.92121085e-06
7.92122218e-06
7.92120149e-06
7.92122086e-06
7.92120821e-06
7.92122997e-06
7.92121071e-06
7.92122225e-06
7.92122115e-06
7.92122637e-06
7.92121488e-06
7.92122479e-06
7.92121649e-06
7.92122953e-06
7.92120858e-06
7.92122506e-06
7.92121573e-06
7.92122138e-06
7.92122072e-06
7.92121428e-06
7.92122398e-06
7.92121381e-06
7.92121846e-06
7.92122873e-06
7.92121972e-06
7.92121836e-06
7.92122126e-06
7.92121428e-06
7.92121601e-06
7.92122561e-06
7.9212176e-06
7.92122241e-06
7.92120453e-06
7.92121314e-06
7.92122047e-06
7.92120901e-06
7.92122766e-06
7.92120478e-06
7.92122557e-06
7.92122009e-06
7.92122725e-06
7.92121898e-06
7.92122613e-06
7.92120929e-06
7.92123031e-06
7.92121369e-06
7.92122115e-06
7.92122503e-06
7.92120885e-06
7.92122959e-06
7.92120219e-06
7.92123065e-06
7.92120747e-06
7.92122648e-06
7.9212123e-06
7.92122164e-06
7.92122973e-06
7.92121862e-06
7.92122655e-06
7.92122431e-06
7.92121859e-06
7.92123359e-06
7.92122061e-06
7.92121943e-06
7.92122942e-06
7.92122369e-06
7.92122377e-06
7.92122566e-06
7.92122087e-06
7.92121882e-06
7.92122269e-06
7.92122055e-06
7.92122683e-06
7.92122088e-06
7.92121585e-06
7.9212141e-06
7.92122056e-06
7.92121618e-06
7.92121932e-06
7.9212142e-06
7.92122827e-06
7.92121613e-06
7.92123093e-06
7.92121599e-06
7.92122952e-06
7.92121358e-06
7.92122935e-06
7.92121604e-06
7.92123159e-06
7.92121413e-06
7.92123132e-06
7.9212131e-06
7.921239e-06
7.92121658e-06
7.92123029e-06
7.9212283e-06
7.92123273e-06
7.92122656e-06
7.92122182e-06
7.92124029e-06
7.92121365e-06
7.92123022e-06
7.92121349e-06
7.92121787e-06
7.92122451e-06
7.92120906e-06
7.92121871e-06
7.92121737e-06
7.92122122e-06
7.92121736e-06
7.92121555e-06
7.92122748e-06
7.92121698e-06
7.92123633e-06
7.92120438e-06
7.9212366e-06
7.9212164e-06
7.92122633e-06
7.9212231e-06
7.92121824e-06
7.92122112e-06
7.92122807e-06
7.92122052e-06
7.92124293e-06
7.92121579e-06
7.92123645e-06
7.92122155e-06
7.92123622e-06
7.92122131e-06
7.92122834e-06
7.92121333e-06
7.92122216e-06
7.92121757e-06
7.92122283e-06
7.92122024e-06
7.92121571e-06
7.92122306e-06
7.92122128e-06
7.92122895e-06
7.92122839e-06
7.92123309e-06
7.92123024e-06
7.92123343e-06
7.92124265e-06
7.92123204e-06
7.92124082e-06
7.92122774e-06
7.92122901e-06
7.92121937e-06
7.9212246e-06
7.92121904e-06
7.92123213e-06
7.92122739e-06
7.92122987e-06
7.92121727e-06
7.92124275e-06
7.92122187e-06
7.9212384e-06
7.92122093e-06
7.92122517e-06
7.92122216e-06
7.92122993e-06
7.92121154e-06
7.9212352e-06
7.92122355e-06
7.92123715e-06
7.92121441e-06
7.9212278e-06
7.92122393e-06
7.9212308e-06
7.92122095e-06
7.92124185e-06
7.92123595e-06
7.92124094e-06
7.92122255e-06
7.92123704e-06
7.92123003e-06
7.92123056e-06
7.92122861e-06
7.92123049e-06
7.92122854e-06
7.9212253e-06
7.92122969e-06
7.92122945e-06
7.92123376e-06
7.92122112e-06
7.92122029e-06
7.92123106e-06
7.9212231e-06
7.92122833e-06
7.92122984e-06
7.92123047e-06
7.92123989e-06
7.921226e-06
7.9212317e-06
7.92123629e-06
7.92122647e-06
7.9212327e-06
7.92122886e-06
7.92122913e-06
7.92123874e-06
7.92122814e-06
7.92124174e-06
7.92122435e-06
7.92124348e-06
7.92122643e-06
7.92124014e-06
7.92121919e-06
7.92124386e-06
7.92122089e-06
7.9212375e-06
7.92122362e-06
7.92122345e-06
7.92123868e-06
7.92123388e-06
7.92123479e-06
7.92123522e-06
7.92122119e-06
7.92124123e-06
7.92122546e-06
7.92123928e-06
7.92123444e-06
7.92122535e-06
7.92124471e-06
7.92122604e-06
7.92124886e-06
7.92122034e-06
7.92125028e-06
7.92121934e-06
7.92123621e-06
7.92122202e-06
7.92123284e-06
7.92121925e-06
7.92124149e-06
7.92122097e-06
7.9212297e-06
7.92123561e-06
7.92122439e-06
7.92123667e-06
7.92123416e-06
7.92124094e-06
7.92123025e-06
7.92123184e-06
7.92123872e-06
7.92123277e-06
7.92123033e-06
7.92123965e-06
7.92123283e-06
7.92122357e-06
7.92123369e-06
7.92122465e-06
7.92123196e-06
7.92124062e-06
7.92122852e-06
7.92123318e-06
7.92123419e-06
7.92123312e-06
7.92123154e-06
7.92122796e-06
7.9212324e-06
7.92123629e-06
7.9212395e-06
7.92123147e-06
7.92123308e-06
7.92123874e-06
7.92123375e-06
7.92123663e-06
7.92123319e-06
7.9212372e-06
7.92123009e-06
7.9212364e-06
7.92122962e-06
7.92123554e-06
7.92123671e-06
7.92123722e-06
7.92122536e-06
7.92123651e-06
7.92123212e-06
7.92122884e-06
7.92123742e-06
7.92122748e-06
7.92124059e-06
7.92122728e-06
7.9212364e-06
7.92123134e-06
7.92124001e-06
7.92122943e-06
7.92124084e-06
7.92123252e-06
7.92123026e-06
7.92123859e-06
7.92123223e-06
7.92124596e-06
7.92122394e-06
7.92124456e-06
7.92123276e-06
7.92123224e-06
7.92123449e-06
7.92123636e-06
7.92123036e-06
7.92123567e-06
7.92122794e-06
7.92123489e-06
7.92123615e-06
7.92124245e-06
7.92122836e-06
7.92123617e-06
7.92124211e-06
7.92123564e-06
7.92123696e-06
7.92123329e-06
7.92123845e-06
7.92122841e-06
7.92124709e-06
7.92124104e-06
7.92122925e-06
7.92123372e-06
7.92124266e-06
7.92122266e-06
7.92124983e-06
7.92123514e-06
7.92123533e-06
7.92124066e-06
7.92124495e-06
7.92122873e-06
7.92123886e-06
7.92124015e-06
7.92124526e-06
7.92124466e-06
7.92123477e-06
7.92124557e-06
7.92124142e-06
7.92124478e-06
7.92124566e-06
7.92124752e-06
7.92124182e-06
7.9212462e-06
7.92123383e-06
7.92124066e-06
7.92122861e-06
7.92124186e-06
7.92123805e-06
7.92124889e-06
7.92124357e-06
7.92123562e-06
7.92124491e-06
7.92123351e-06
7.9212471e-06
7.92123423e-06
7.92123654e-06
7.92123793e-06
7.92123414e-06
7.92124332e-06
7.92123113e-06
7.92124501e-06
7.92123068e-06
7.92124084e-06
7.92124785e-06
7.92124159e-06
7.92124908e-06
7.92123877e-06
7.92124452e-06
7.9212385e-06
7.92123813e-06
7.92124023e-06
7.92123304e-06
7.92125296e-06
7.92123248e-06
7.92124545e-06
7.92123137e-06
7.92124548e-06
7.92124938e-06
7.92124078e-06
7.92124752e-06
7.92124775e-06
7.92123796e-06
7.9212482e-06
7.92124502e-06
7.92124015e-06
7.92124753e-06
7.92124214e-06
7.92123777e-06
7.92124105e-06
7.9212403e-06
7.92125047e-06
7.92123416e-06
7.92125119e-06
7.92124753e-06
7.92124783e-06
7.92124588e-06
7.92124887e-06
7.92123642e-06
7.92125026e-06
7.92123999e-06
7.92124405e-06
7.92125051e-06
7.92125057e-06
7.92124744e-06
7.92124312e-06
7.92124133e-06
7.92125128e-06
7.92124255e-06
7.92125224e-06
7.92124272e-06
7.92124885e-06
7.92123939e-06
7.92124936e-06
7.92124297e-06
7.92125469e-06
7.92124755e-06
7.92125347e-06
7.92123763e-06
7.92124764e-06
7.92124706e-06
7.92124242e-06
7.92124736e-06
7.92124693e-06
7.92124827e-06
7.92125151e-06
7.92123855e-06
7.92125459e-06
7.92124749e-06
7.92123541e-06
7.92125094e-06
7.9212489e-06
7.92123788e-06
7.92125614e-06
7.9212346e-06
7.92125759e-06
7.92124734e-06
7.92124757e-06
7.92124905e-06
7.92124759e-06
7.92125312e-06
7.92123895e-06
7.9212467e-06
7.92125072e-06
7.92123712e-06
7.92125592e-06
7.92123548e-06
7.92125682e-06
7.92123885e-06
7.92124853e-06
7.92123586e-06
7.92125423e-06
7.92123571e-06
7.92124384e-06
7.92124403e-06
7.92124413e-06
7.92124196e-06
7.92123966e-06
7.92126245e-06
7.92123699e-06
7.92125717e-06
7.92124216e-06
7.92125095e-06
7.92124627e-06
7.92126505e-06
7.9212304e-06
7.92126338e-06
7.92123051e-06
7.92126172e-06
7.92123384e-06
7.92125496e-06
7.9212431e-06
7.9212536e-06
7.92125182e-06
7.92125631e-06
7.92124733e-06
7.92125558e-06
7.9212506e-06
7.92124888e-06
7.92124856e-06
7.92125148e-06
7.92124561e-06
7.92125289e-06
7.92125086e-06
7.92125435e-06
7.92125368e-06
7.92125057e-06
7.92125327e-06
7.92125172e-06
7.92125044e-06
7.92125426e-06
7.92125483e-06
7.92125465e-06
7.92125516e-06
7.92125489e-06
7.92125528e-06
7.92125689e-06
7.92125772e-06
7.92125792e-06
7.92125937e-06
7.92126011e-06
7.92126173e-06
7.9212629e-06
7.92126339e-06
7.92126527e-06
7.92126664e-06
7.9212673e-06
7.92126881e-06
7.92127031e-06
7.9212721e-06
7.92127294e-06
7.92127391e-06
7.9212754e-06
7.92127587e-06
7.92127666e-06
7.92127737e-06
7.92127789e-06
7.92127757e-06
7.92127837e-06
7.92127826e-06
7.92127834e-06
7.92127834e-06
7.92127835e-06
7.92127844e-06
7.92127855e-06
7.92127844e-06
7.92127845e-06
7.92127823e-06
7.92127814e-06
7.92127846e-06
7.92127837e-06
7.9212784e-06
7.92127839e-06
7.9212784e-06
7.92127853e-06
7.92127842e-06
7.92127841e-06
7.92127862e-06
7.92127831e-06
7.92127839e-06
7.92127835e-06
7.92127848e-06
7.92127841e-06
7.92127838e-06
7.92127842e-06
7.92127831e-06
7.92127821e-06
7.92127858e-06
)
;

boundaryField
{
    closed
    {
        type            calculated;
        value           uniform 0;
    }
    open
    {
        type            calculated;
        value           uniform 0;
    }
    sides
    {
        type            empty;
    }
}


// ************************************************************************* //
