/*--------------------------------*- C++ -*----------------------------------*\
| =========                 |                                                 |
| \\      /  F ield         | OpenFOAM: The Open Source CFD Toolbox           |
|  \\    /   O peration     | Version:  2206                                  |
|   \\  /    A nd           | Website:  www.openfoam.com                      |
|    \\/     M anipulation  |                                                 |
\*---------------------------------------------------------------------------*/
FoamFile
{
    version     2.0;
    format      ascii;
    arch        "LSB;label=32;scalar=64";
    class       volScalarField;
    location    "6e-06";
    object      p;
}
// * * * * * * * * * * * * * * * * * * * * * * * * * * * * * * * * * * * * * //

dimensions      [1 -1 -2 0 0 0 0];

internalField   nonuniform List<scalar> 
3183
(
101325
101325
101325
101325
101325
101325
101325
101325
101325
101325
101325
101325
101325
101325
101325
101325
101325
101325
101325
101325
101325
101325
101325
101325
101325
101325
101325
101325
101325
101325
101325
101325
101325
101325
101325
101325
101325
101325
101325
101325
101325
101325
101325
101325
101325
101325
101325
101325
101325
101325
101325
101325
101325
101325
101325
101325
101325
101325
101325
101325
101325
101325
101325
101325
101325
101325
101325
101325
101325
101325
101325
101325
101325
101325
101325
101325
101325
101325
101325
101325
101325
101325
101325
101325
101325
101325
101325
101325
101325
101325
101325
101325
101325
101325
101325
101325
101325
101325
101325
101325
101325
101325
101325
101325
101325
101325
101325
101325
101325
101325
101325
101325
101325
101325
101325
101325
101325
101325
101325
101325
101325
101325
101325
101325
101325
101325
101325
101325
101325
101325
101325
101325
101325
101325
101325
101325
101325
101325
101325
101325
101325
101325
101325
101325
101325
101325
101325
101325
101325
101325
101325
101325
101325
101325
101325
101325
101325
101325
101325
101325
101325
101325
101325
101325
101325
101325
101325
101325
101325
101325
101325
101325
101325
101325
101325
101325
101325
101325
101325
101325
101325
101325
101325
101325
101325
101325
101325
101325
101325
101325
101325
101325
101325
101325
101325
101325
101325
101325
101325
101325
101325
101325
101325
101325
101325
101325
101325
101325
101325
101325
101325
101325
101325
101325
101325
101325
101325
101325
101325
101325
101325
101325
101325
101325
101325
101325
101325
101325
101325
101325
101325
101325
101325
101325
101325
101325
101325
101325
101325
101325
101325
101325
101325
101325
101325
101325
101325
101325
101325
101325
101325
101325
101325
101325
101325
101325
101325
101325
101325
101325
101325
101325
101325
101325
101325
101325
101325
101325
101325
101325
101325
101325
101325
101325
101325
101325
101325
101325
101325
101325
101325
101325
101325
101325
101325
101325
101325
101325
101325
101325
101325
101325
101325
101325
101325
101325
101325
101325
101325
101325
101325
101325
101325
101325
101325
101325
101325
101325
101325
101325
101325
101325
101325
101325
101325
101325
101325
101325
101325
101325
101325
101325
101325
101325
101325
101325
101325
101325
101325
101325
101325
101325
101325
101325
101325
101325
101325
101325
101325
101325
101325
101325
101325
101325
101325
101325
101325
101325
101325
101325
101325
101325
101325
101325
101325
101325
101325
101325
101325
101325
101325
101325
101325
101325
101325
101325
101325
101325
101325
101325
101325
101325
101325
101325
101325
101325
101325
101325
101325
101325
101325
101325
101325
101325
101325
101325
101325
101325
101325
101325
101325
101325
101325
101325
101325
101325
101325
101325
101325
101325
101325
101325
101325
101325
101325
101325
101325
101325
101325
101325
101325
101325
101325
101325
101325
101325
101325
101325
101325
101325
101325
101325
101325
101325
101325
101325
101325
101325
101325
101325
101325
101325
101325
101325
101325
101325
101325
101325
101325
101325
101325
101325
101325
101325
101325
101325
101325
101325
101325
101325
101325
101325
101325
101325
101325
101325
101325
101325
101325
101325
101325
101325
101325
101325
101325
101325
101325
101325
101325
101325
101325
101325
101325
101325
101325
101325
101325
101325
101325
101325
101325
101325
101325
101325
101325
101325
101325
101325
101325
101325
101325
101325
101325
101325
101325
101325
101325
101325
101325
101325
101325
101325
101325
101325
101325
101325
101325
101325
101325
101325
101325
101325
101325
101325
101325
101325
101325
101325
101325
101325
101325
101325
101325
101325
101325
101325
101325
101325
101325
101325
101325
101325
101325
101325
101325
101325
101325
101325
101325
101325
101325
101325
101325
101325
101325
101325
101325
101325
101325
101325
101325
101325
101325
101325
101325
101325
101325
101325
101325
101325
101325
101325
101325
101325
101325
101325
101325
101325
101325
101325
101325
101325
101325
101325
101325
101325
101325
101325
101325
101325
101325
101325
101325
101325
101325
101325
101325
101325
101325
101325
101325
101325
101325
101325
101325
101325
101325
101325
101325
101325
101325
101325
101325
101325
101325
101325
101325
101325
101325
101325
101325
101325
101325
101325
101325
101325
101325
101325
101325
101325
101325
101325
101325
101325
101325
101325
101325
101325
101325
101325
101325
101325
101325
101325
101325
101325
101325
101325
101325
101325
101325
101325
101325
101325
101325
101325
101325
101325
101325
101325
101325
101325
101325
101325
101325
101325
101325
101325
101325
101325
101325
101325
101325
101325
101325
101325
101325
101325
101325
101325
101325
101325
101325
101325
101325
101325
101325
101325
101325
101325
101325
101325
101325
101325
101325
101325
101325
101325
101325
101325
101325
101325
101325
101325
101325
101325
101325
101325
101325
101325
101325
101325
101325
101325
101325
101325
101325
101325
101325
101325
101325
101325
101325
101325
101325
101325
101325
101325
101325
101325
101325
101325
101325
101325
101325
101325
101325
101325
101325
101325
101325
101325
101325
101325
101325
101325
101325
101325
101325
101325
101325
101325
101325
101325
101325
101325
101325
101325
101325
101325
101325
101325
101325
101325
101325
101325
101325
101325
101325
101325
101325
101325
101325
101325
101325
101325
101325
101325
101325
101325
101325
101325
101325
101325
101325
101325
101325
101325
101325
101325
101325
101325
101325
101325
101325
101325
101325
101325
101325
101325
101325
101325
101325
101325
101325
101325
101325
101325
101325
101325
101325
101325
101325
101325
101325
101325
101325
101325
101325
101325
101325
101325
101325
101325
101325
101325
101325
101325
101325
101325
101325
101325
101325
101325
101325
101325
101325
101325
101325
101325
101325
101325
101325
101325
101325
101325
101325
101325
101325
101325
101325
101325
101325
101325
101325
101325
101325
101325
101325
101325
101325
101325
101325
101325
101325
101325
101325
101325
101325
101325
101325
101325
101325
101325
101325
101325
101325
101325
101325
101325
101325
101325
101325
101325
101325
101325
101325
101325
101325
101325
101325
101325
101325
101325
101325
101325
101325
101325
101325
101325
101325
101325
101325
101325
101325
101325
101325
101325
101325
101325
101325
101325
101325
101325
101325
101325
101325
101325
101325
101325
101325
101325
101325
101325
101325
101325
101325
101325
101325
101325
101325
101325
101325
101325
101325
101325
101325
101325
101325
101325
101325
101325
101325
101325
101325
101325
101325
101325
101325
101325
101325
101325
101325
101325
101325
101325
101325
101325
101325
101325
101325
101325
101325
101325
101325
101325
101325
101325
101325
101325
101325
101325
101325
101325
101325
101325
101325
101325
101325
101325
101325
101325
101325
101325
101325
101325
101325
101325
101325
101325
101325
101325
101325
101325
101325
101325
101325
101325
101325
101325
101325
101325
101325
101325
101325
101325
101325
101325
101325
101325
101325
101325
101325
101325
101325
101325
101325
101325
101325
101325
101325
101325
101325
101325
101325
101325
101325
101325
101325
101325
101325
101325
101325
101325
101325
101325
101325
101325
101325
101325
101325
101325
101325
101325
101325
101325
101325
101325
101325
101325
101325
101325
101325
101325
101325
101325
101325
101325
101325
101325
101325
101325
101325
101325
101325
101325
101325
101325
101325
101325
101325
101325
101325
101325
101325
101325
101325
101325
101325
101325
101325
101325
101325
101325
101325
101325
101325
101325
101325
101325
101325
101325
101325
101325
101325
101325
101325
101325
101325
101325
101325
101325
101325
101325
101325
101325
101325
101325
101325
101325
101325
101325
101325
101325
101325
101325
101325
101325
101325
101325
101325
101325
101325
101325
101325
101325
101325
101325
101325
101325
101325
101325
101325
101325
101325
101325
101325
101325
101325
101325
101325
101325
101325
101325
101325
101325
101325
101325
101325
101325
101325
101325
101325
101325
101325
101325
101325
101325
101325
101325
101325
101325
101325
101325
101325
101325
101325
101325
101325
101325
101325
101325
101325
101325
101325
101325
101325
101325
101325
101325
101325
101325
101325
101325
101325
101325
101325
101325
101325
101325
101325
101325
101325
101325
101325
101325
101325
101325
101325
101325
101325
101325
101325
101325
101325
101325
101325
101325
101325
101325
101325
101325
101325
101325
101325
101325
101325
101325
101325
101325
101325
101325
101325
101325
101325
101325
101325
101325
101325
101325
101325
101325
101325
101325
101325
101325
101325
101325
101325
101325
101325
101325
101325
101325
101325
101325
101325
101325
101325
101325
101325
101325
101325
101325
101325
101325
101325
101325
101325
101325
101325
101325
101325
101325
101325
101325
101325
101325
101325
101325
101325
101325
101325
101325
101325
101325
101325
101325
101325
101325
101325
101325
101325
101325
101325
101325
101325
101325
101325
101325
101325
101325
101325
101325
101325
101325
101325
101325
101325
101325
101325
101325
101325
101325
101325
101325
101325
101325
101325
101325
101325
101325
101325
101325
101325
101325
101325
101325
101325
101325
101325
101325
101325
101325
101325
101325
101325
101325
101325
101325
101325
101325
101325
101325
101325
101325
101325
101325
101325
101325
101325
101325
101325
101325
101325
101325
101325
101325
101325
101325
101325
101325
101325
101325
101325
101325
101325
101325
101325
101325
101325
101325
101325
101325
101325
101325
101325
101325
101325
101325
101325
101325
101325
101325
101325
101325
101325
101325
101325
101325
101325
101325
101325
101325
101325
101325
101325
101325
101325
101325
101325
101325
101325
101325
101325
101325
101325
101325
101325
101325
101325
101325
101325
101325
101325
101325
101325
101325
101325
101325
101325
101325
101325
101325
101325
101325
101325
101325
101325
101325
101325
101325
101325
101325
101325
101325
101325
101325
101325
101325
101325
101325
101325
101325
101325
101325
101325
101325
101325
101325
101325
101325
101325
101325
101325
101325
101325
101325
101325
101325
101325
101325
101325
101325
101325
101325
101325
101325
101325
101325
101325
101325
101325
101325
101325
101325
101325
101325
101325
101325
101325
101325
101325
101325
101325
101325
101325
101325
101325
101325
101325
101325
101325
101325
101325
101325
101325
101325
101325
101325
101325
101325
101325
101325
101325
101325
101325
101325
101325
101325
101325
101325
101325
101325
101325
101325
101325
101325
101325
101325
101325
101325
101325
101325
101325
101325
101325
101325
101325
101325
101325
101325
101325
101325
101325
101325
101325
101325
101325
101325
101325
101325
101325
101325
101325
101325
101325
101325
101325
101325
101325
101325
101325
101325
101325
101325
101325
101325
101325
101325
101325
101325
101325
101325
101325
101325
101325
101325
101325
101325
101325
101325
101325
101325
101325
101325
101325
101325
101325
101325
101325
101325
101325
101325
101325
101325
101325
101325
101325
101325
101325
101325
101325
101325
101325
101325
101325
101325
101325
101325
101325
101325
101325
101325
101325
101325
101325
101325
101325
101325
101325
101325
101325
101325
101325
101325
101325
101325
101325
101325
101325
101325
101325
101325
101325
101325
101325
101325
101325
101325
101325
101325
101325
101325
101325
101325
101325
101325
101325
101325
101325
101325
101325
101325
101325
101325
101325
101325
101325
101325
101325
101325
101325
101325
101325
101325
101325
101325
101325
101325
101325
101325
101325
101325
101325
101325
101325
101325
101325
101325
101325
101325
101325
101325
101325
101325
101325
101325
101325
101325
101325
101325
101325
101325
101325
101325
101325
101325
101325
101325
101325
101325
101325
101325
101325
101325
101325
101325
101325
101325
101325
101325
101325
101325
101325
101325
101325
101325
101325
101325
101325
101325
101325
101325
101325
101325
101325
101325
101325
101325
101325
101325
101325
101325
101325
101325
101325
101325
101325
101325
101325
101325
101325
101325
101325
101325
101325
101325
101325
101325
101325
101325
101325
101325
101325
101325
101325
101325
101325
101325
101325
101325
101325
101325
101325
101325
101325
101325
101325
101325
101325
101325
101325
101325
101325
101325
101325
101325
101325
101325
101325
101325
101325
101325
101325
101325
101325
101325
101325
101325
101325
101325
101325
101325
101325
101325
101325
101325
101325
101325
101325
101325
101325
101325
101325
101325
101325
101325
101325
101325
101325
101325
101325
101325
101325
101325
101325
101325
101325
101325
101325
101325
101325
101325
101325
101325
101325
101325
101325
101325
101325
101325
101325
101325
101325
101325
101325
101325
101325
101325
101325
101325
101325
101325
101325
101325
101325
101325
101325
101325
101325
101325
101325
101325
101325
101325
101325
101325
101325
101325
101325
101325
101325
101325
101325
101325
101325
101325
101325
101325
101325
101325
101325
101325
101325
101325
101325
101325
101325
101325
101325
101325
101325
101325
101325
101325
101325
101325
101325
101325
101325
101325
101325
101325
101325
101325
101325
101325
101325
101325
101325
101325
101325
101325
101325
101325
101325
101325
101325
101325
101325
101325
101325
101325
101325
101325
101325
101325
101325
101325
101325
101325
101325
101325
101325
101325
101325
101325
101325
101325
101325
101325
101325
101325
101325
101325
101325
101325
101325
101325
101325
101325
101325
101325
101325
101325
101325
101325
101325
101325
101325
101325
101325
101325
101325
101325
101325
101325
101325
101325
101325
101325
101325
101325
101325
101325
101325
101325
101325
101325
101325
101325
101325
101325
101325
101325
101325
101325
101325
101325
101325
101325
101325
101325
101325
101325
101325
101325
101325
101325
101325
101325
101325
101325
101325
101325
101325
101325
101325
101325
101325
101325
101325
101325
101325
101325
101325
101325
101325
101325
101325
101325
101325
101325
101325
101325
101325
101325
101325
101325
101325
101325
101325
101325
101325
101325
101325
101325
101325
101325
101325
101325
101325
101325
101325
101325
101325
101325
101325
101325
101325
101325
101325
101325
101325
101325
101325
101325
101325
101325
101325
101325
101325
101325
101325
101325
101325
101325
101325
101325
101325
101325
101325
101325
101325
101325
101325
101325
101325
101325
101325
101325
101325
101325
101325
101325
101325
101325
101325
101325
101325
101325
101325
101325
101325
101325
101325
101325
101325
101325
101325
101325
101325
101325
101325
101325
101325
101325
101325
101325
101325
101325
101325
101325
101325
101325
101325
101325
101325
101325
101325
101325
101325
101325
101325
101325
101325
101325
101325
101325
101325
101325
101325
101325
101325
101325
101325
101325
101325
101325
101325
101325
101325
101325
101325
101325
101325
101325
101325
101325
101325
101325
101325
101325
101325
101325
101325
101325
101325
101325
101325
101325
101325
101325
101325
101325
101325
101325
101325
101325
101325
101325
101325
101325
101325
101325
101325
101325
101325
101325
101325
101325
101325
101325
101325
101325
101325
101325
101325
101325
101325
101325
101325
101325
101325
101325
101325
101325
101325
101325
101325
101325
101325
101325
101325
101325
101325
101325
101325
101325
101325
101325
101325
101325
101325
101325
101325
101325
101325
101325
101325
101325
101325
101325
101325
101325
101325
101325
101325
101325
101325
101325
101325
101325
101325
101325
101325
101325
101325
101325
101325
101325
101325
101325
101325
101325
101325
101325
101325
101325
101325
101325
101325
101325
101325
101325
101325
101325
101325
101325
101325
101325
101325
101325
101325
101325
101324.999
101324.999
101324.999
101324.999
101324.999
101324.999
101324.999
101324.999
101324.999
101324.999
101324.999
101324.999
101324.999
101324.998
101324.998
101324.998
101324.998
101324.998
101324.998
101324.997
101324.997
101324.997
101324.997
101324.996
101324.996
101324.996
101324.995
101324.995
101324.995
101324.994
101324.994
101324.993
101324.993
101324.992
101324.991
101324.991
101324.99
101324.989
101324.988
101324.987
101324.986
101324.985
101324.984
101324.983
101324.982
101324.98
101324.979
101324.977
101324.975
101324.973
101324.971
101324.969
101324.966
101324.964
101324.961
101324.958
101324.955
101324.952
101324.948
101324.944
101324.94
101324.936
101324.931
101324.926
101324.921
101324.915
101324.909
101324.902
101324.895
101324.888
101324.879
101324.871
101324.862
101324.852
101324.842
101324.831
101324.819
101324.807
101324.793
101324.779
101324.764
101324.748
101324.731
101324.713
101324.694
101324.674
101324.652
101324.629
101324.605
101324.579
101324.552
101324.523
101324.492
101324.46
101324.426
101324.389
101324.351
101324.311
101324.268
101324.223
101324.175
101324.125
101324.072
101324.016
101323.957
101323.895
101323.83
101323.761
101323.689
101323.613
101323.533
101323.449
101323.361
101323.269
101323.172
101323.07
101322.963
101322.852
101322.735
101322.612
101322.484
101322.35
101322.21
101322.064
101321.912
101321.753
101321.586
101321.413
101321.233
101321.045
101320.85
101320.647
101320.435
101320.216
101319.987
101319.751
101319.505
101319.251
101318.987
101318.714
101318.432
101318.139
101317.837
101317.525
101317.203
101316.871
101316.529
101316.176
101315.813
101315.439
101315.055
101314.66
101314.255
101313.839
101313.413
101312.976
101312.529
101312.072
101311.604
101311.127
101310.64
101310.143
101309.636
101309.121
101308.597
101308.064
101307.523
101306.974
101306.418
101305.855
101305.285
101304.71
101304.128
101303.542
101302.951
101302.357
101301.759
101301.159
101300.557
101299.954
101299.35
101298.747
101298.145
101297.545
101296.948
101296.354
101295.765
101295.181
101294.603
101294.032
101293.47
101292.916
101292.372
101291.838
101291.316
101290.807
101290.31
101289.828
101289.361
101288.909
101288.474
101288.057
101287.657
101287.276
101286.915
101286.574
101286.254
101285.955
101285.677
101285.422
101285.19
101284.981
101284.795
101284.633
101284.495
101284.381
101284.291
101284.225
101284.183
101284.166
101284.172
101284.203
101284.256
101284.333
101284.433
101284.555
101284.699
101284.865
101285.051
101285.258
101285.484
101285.729
101285.992
101286.272
101286.568
101286.88
101287.207
101287.548
101287.901
101288.266
101288.642
101289.028
101289.423
101289.826
101290.236
101290.652
101291.073
101291.497
101291.925
101292.355
101292.786
101293.217
101293.648
101294.077
101294.504
101294.928
101295.347
101295.762
101296.172
101296.575
101296.972
101297.361
101297.742
101298.115
101298.479
101298.833
101299.178
101299.512
101299.835
101300.147
101300.448
101300.737
101301.014
101301.28
101301.533
101301.775
101302.004
101302.22
101302.425
101302.617
101302.797
101302.965
101303.122
101303.267
101303.401
101303.524
101303.636
101303.738
101303.831
101303.915
101303.989
101304.056
101304.115
101304.168
101304.214
101304.255
101304.291
101304.323
101304.352
101304.378
101304.403
101304.427
101304.452
101304.477
101304.504
101304.533
101304.565
101304.601
101304.642
101304.688
101304.74
101304.798
101304.862
101304.934
101305.013
101305.099
101305.193
101305.294
101305.402
101305.518
101305.641
101305.769
101305.904
101306.043
101306.187
101306.334
101306.483
101306.634
101306.785
101306.934
101307.082
101307.226
101307.365
101307.497
101307.622
101307.738
101307.844
101307.938
101308.02
101308.089
101308.142
101308.18
101308.202
101308.206
101308.193
101308.162
101308.112
101308.043
101307.956
101307.85
101307.724
101307.58
101307.417
101307.235
101307.036
101306.818
101306.584
101306.334
101306.069
101305.792
101305.506
101305.215
101304.924
101304.641
101304.377
101304.145
101303.965
101303.859
101303.861
101304.011
101304.361
101304.976
101305.943
101307.365
101309.374
101312.12
101315.843
101320.965
101327.577
101320.767
101317.328
101315.085
101312.707
101310.626
101308.604
101306.941
101305.515
101304.392
101303.52
101302.881
101302.432
101302.143
101301.983
101301.928
101301.954
101302.045
101302.185
101302.362
101302.565
101302.787
101303.021
101303.262
101303.505
101303.747
101303.985
101304.217
101304.443
101304.661
101304.87
101305.07
101305.261
101305.443
101305.615
101305.779
101305.934
101306.081
101306.22
101306.351
101306.475
101306.592
101306.702
101306.807
101306.905
101306.998
101307.085
101307.166
101307.243
101307.315
101307.382
101307.445
101307.502
101307.556
101307.605
101307.649
101307.689
101307.725
101307.757
101307.784
101307.807
101307.826
101307.841
101307.851
101307.857
101307.859
101307.857
101307.851
101307.841
101307.826
101307.808
101307.786
101307.76
101307.731
101307.698
101307.661
101307.621
101307.578
101307.531
101307.482
101307.429
101307.374
101307.316
101307.256
101307.194
101307.129
101307.062
101306.994
101306.924
101306.853
101306.78
101306.706
101306.631
101306.556
101306.479
101306.403
101306.326
101306.249
101306.172
101306.095
101306.018
101305.942
101305.867
101305.792
101305.718
101305.645
101305.573
101305.503
101305.433
101305.365
101305.299
101305.234
101305.17
101305.109
101305.049
101304.99
101304.934
101304.879
101304.827
101304.776
101304.727
101304.68
101304.635
101304.591
101304.55
101304.51
101304.473
101304.437
101304.403
101304.37
101304.34
101304.311
101304.283
101304.257
101304.233
101304.21
101304.188
101304.167
101304.148
101304.129
101304.112
101304.095
101304.079
101304.065
101304.05
101304.036
101304.023
101304.01
101303.997
101303.984
101303.972
101303.959
101303.947
101303.934
101303.92
101303.907
101303.892
101303.878
101303.862
101303.846
101303.829
101303.81
101303.791
101303.771
101303.749
101303.726
101303.702
101303.676
101303.649
101303.62
101303.59
101303.558
101303.524
101303.488
101303.45
101303.41
101303.368
101303.324
101303.277
101303.227
101303.174
101303.119
101303.061
101303.002
101302.941
101302.877
101302.811
101302.742
101302.671
101302.597
101302.521
101302.441
101302.359
101302.273
101302.185
101302.094
101302
101301.903
101301.804
101301.701
101301.595
101301.486
101301.375
101301.26
101301.142
101301.022
101300.898
101300.772
101300.642
101300.509
101300.374
101300.235
101300.094
101299.95
101299.802
101299.652
101299.499
101299.343
101299.185
101299.023
101298.859
101298.692
101298.522
101298.349
101298.174
101297.996
101297.816
101297.633
101297.447
101297.26
101297.069
101296.877
101296.682
101296.485
101296.285
101296.084
101295.88
101295.675
101295.467
101295.258
101295.047
101294.834
101294.62
101294.404
101294.187
101293.968
101293.748
101293.527
101293.305
101293.081
101292.857
101292.632
101292.407
101292.181
101291.954
101291.727
101291.499
101291.272
101291.044
101290.817
101290.59
101290.363
101290.136
101289.91
101289.685
101289.461
101289.237
101289.015
101288.794
101288.574
101288.355
101288.139
101287.924
101287.71
101287.499
101287.29
101287.083
101286.879
101286.677
101286.478
101286.282
101286.088
101285.898
101285.711
101285.527
101285.347
101285.17
101284.997
101284.828
101284.663
101284.501
101284.344
101284.192
101284.044
101283.9
101283.761
101283.627
101283.498
101283.373
101283.254
101283.14
101283.031
101282.928
101282.83
101282.738
101282.651
101282.57
101282.495
101282.426
101282.362
101282.305
101282.253
101282.208
101282.169
101282.136
101282.11
101282.089
101282.076
101282.068
101282.067
101282.072
101282.084
101282.102
101282.127
101282.158
101282.196
101282.24
101282.291
101282.348
101282.412
101282.482
101282.558
101282.641
101282.731
101282.827
101282.929
101283.037
101283.152
101283.272
101283.399
101283.532
101283.672
101283.817
101283.968
101284.124
101284.287
101284.455
101284.629
101284.809
101284.994
101285.184
101285.38
101285.58
101285.786
101285.997
101286.213
101286.434
101286.659
101286.889
101287.124
101287.363
101287.606
101287.853
101288.105
101288.36
101288.619
101288.882
101289.149
101289.419
101289.693
101289.969
101290.249
101290.532
101290.818
101291.107
101291.398
101291.692
101291.988
101292.286
101292.587
101292.89
101293.195
101293.501
101293.809
101294.119
101294.43
101294.743
101295.057
101295.372
101295.688
101296.004
101296.322
101296.64
101296.959
101297.278
101297.598
101297.917
101298.237
101298.557
101298.877
101299.197
101299.516
101299.835
101300.154
101300.472
101300.789
101301.105
101301.421
101301.736
101302.05
101302.362
101302.674
101302.984
101303.293
101303.6
101303.907
101304.211
101304.514
101304.815
101305.115
101305.412
101305.708
101306.002
101306.294
101306.584
101306.871
101307.157
101307.44
101307.722
101308.001
101308.277
101308.551
101308.823
101309.093
101309.36
101309.624
101309.886
101310.145
101310.402
101310.656
101310.907
101311.156
101311.402
101311.646
101311.886
101312.124
101312.36
101312.592
101312.822
101313.048
101313.272
101313.494
101313.712
101313.928
101314.141
101314.351
101314.558
101314.762
101314.964
101315.163
101315.359
101315.552
101315.742
101315.93
101316.115
101316.297
101316.476
101316.653
101316.827
101316.998
101317.166
101317.332
101317.495
101317.656
101317.814
101317.969
101318.122
101318.272
101318.419
101318.564
101318.707
101318.847
101318.984
101319.12
101319.252
101319.383
101319.511
101319.636
101319.76
101319.881
101320
101320.116
101320.231
101320.343
101320.453
101320.561
101320.667
101320.771
101320.873
101320.973
101321.071
101321.168
101321.265
101321.367
101321.474
101321.585
101321.7
101321.821
101321.945
101322.074
101322.207
101322.344
101322.484
101322.627
101322.772
101322.92
101323.068
101323.216
101323.364
101323.51
101323.654
101323.794
101323.93
101324.06
101324.183
101324.299
101324.406
101324.504
101324.593
101324.671
101324.739
101324.798
101324.847
101324.887
101324.918
101324.943
101324.962
101324.975
101324.984
101324.991
101324.995
101324.997
101324.999
101324.999
101325
101325
101325
101325
101325
101325
101325
101325
101325
101325
101325
101325
101325
101325
101325
101325
101325
101325
101325
101325
101325
101325
101325
101325
101325
101325
101325
101325
101325
101325
101325
101325
101325
101325
101325
)
;

boundaryField
{
    closed
    {
        type            zeroGradient;
    }
    open
    {
        type            waveTransmissive;
        gamma           1.25;
        fieldInf        101325;
        lInf            1;
        value           uniform 101325;
    }
    sides
    {
        type            empty;
    }
}


// ************************************************************************* //
