/*--------------------------------*- C++ -*----------------------------------*\
| =========                 |                                                 |
| \\      /  F ield         | OpenFOAM: The Open Source CFD Toolbox           |
|  \\    /   O peration     | Version:  2206                                  |
|   \\  /    A nd           | Website:  www.openfoam.com                      |
|    \\/     M anipulation  |                                                 |
\*---------------------------------------------------------------------------*/
FoamFile
{
    version     2.0;
    format      ascii;
    arch        "LSB;label=32;scalar=64";
    class       surfaceScalarField;
    location    "6e-06";
    object      phi;
}
// * * * * * * * * * * * * * * * * * * * * * * * * * * * * * * * * * * * * * //

dimensions      [1 0 -1 0 0 0 0];

oriented        oriented;

internalField   nonuniform List<scalar> 
3182
(
2.02514139e-18
-1.73144941e-18
4.00150579e-19
-8.24896453e-19
-3.8615689e-22
-5.37197353e-24
-3.91728302e-25
-9.67550696e-30
1.62124799e-28
3.00317366e-24
4.10142093e-23
6.67129358e-21
3.3173873e-18
-1.23594391e-18
-1.31942302e-18
-2.16894623e-19
1.51728471e-18
-2.54515243e-18
-3.67969272e-18
4.43109264e-18
1.37074052e-20
1.58034166e-22
5.02404413e-23
7.35145418e-22
1.43807358e-18
1.8455773e-18
3.4104306e-18
-2.95725646e-20
-2.27364785e-18
-1.7338013e-18
-2.96635219e-18
-2.26883063e-19
-1.24622222e-18
-1.88466242e-18
3.24083077e-19
4.8046635e-19
-4.88017691e-19
-8.0775274e-19
1.03305722e-19
-4.00251492e-19
-2.49150306e-18
-3.11376828e-18
-3.26872213e-19
-5.42784775e-19
2.22271502e-19
1.61834756e-18
1.29888324e-18
2.13263664e-19
-3.25177331e-19
-1.51648536e-18
-9.79455549e-19
-1.28609753e-18
-1.05516051e-19
1.08168067e-18
1.73648883e-18
2.27510179e-19
6.56049401e-19
1.08657301e-18
1.74136275e-18
2.38866919e-18
3.04492868e-18
4.12216943e-18
3.68460992e-18
4.12593088e-18
4.58749234e-18
4.79417081e-18
5.00350833e-18
3.463856e-18
3.49017521e-18
3.4560867e-18
4.33123958e-18
4.40187593e-18
5.21296897e-18
5.19906532e-18
6.51063529e-18
6.53077472e-18
8.23906039e-18
8.74364378e-18
1.00922576e-17
1.01813671e-17
1.2310448e-17
1.29907404e-17
1.47084644e-17
1.47169116e-17
1.45165296e-17
1.4718041e-17
1.67286467e-17
1.57302656e-17
1.56198824e-17
1.46277329e-17
1.56961758e-17
1.67926414e-17
1.69910874e-17
1.62544617e-17
1.7418815e-17
1.60100757e-17
1.76800797e-17
1.72141132e-17
1.46997871e-17
1.41281813e-17
1.51679502e-17
1.58877393e-17
1.91621868e-17
1.76309626e-17
1.55769926e-17
1.82562802e-17
1.90328339e-17
1.5399696e-17
1.22001509e-17
1.18703948e-17
9.28343664e-18
1.01837691e-17
1.25368098e-17
9.80098875e-18
1.0274192e-17
8.19831773e-18
6.83641373e-18
6.83865493e-18
7.7032218e-18
5.84921446e-18
2.47691475e-18
3.64776474e-18
5.3325648e-18
3.32088939e-18
4.80066536e-18
8.93231702e-18
5.94173132e-18
5.34732187e-18
5.20734219e-18
6.99415275e-18
6.25331433e-18
6.86218967e-18
5.58550732e-18
6.4856985e-18
6.42276209e-18
5.84565893e-18
9.00596871e-18
8.89209525e-18
9.74374156e-18
9.21451826e-18
1.00430598e-17
8.89431578e-18
6.72089902e-18
5.55287152e-18
6.82212964e-18
5.42414647e-18
4.73634162e-18
3.74159758e-18
1.62997789e-18
-3.25072874e-19
-2.07706862e-18
-3.22610594e-18
-3.20914749e-18
-3.24480335e-18
-2.63710432e-18
-5.46164342e-18
-7.89152414e-18
-6.30887522e-18
-6.67492381e-18
-7.6463298e-18
-7.24482827e-18
-8.52939598e-18
-6.66898173e-18
-1.01372599e-17
-9.17486464e-18
-9.95624904e-18
-8.86018601e-18
-9.71016547e-18
-1.00781441e-17
-8.89237789e-18
-7.92014951e-18
-5.01627531e-18
-8.05258089e-18
-9.90864695e-18
-9.67064577e-18
-7.30071407e-18
-7.48561796e-18
-1.13096979e-17
-1.01352566e-17
-9.19081584e-18
-5.51240359e-18
-6.64228176e-18
-4.76922169e-18
-5.12446369e-18
-8.01503344e-18
-8.17503134e-18
-9.5302305e-18
-8.77895437e-18
-9.5991446e-18
-9.55068077e-18
-1.0358026e-17
-1.42859008e-17
-1.40781321e-17
-1.34933412e-17
-1.55464316e-17
-1.50381979e-17
-1.55701016e-17
-1.55735457e-17
-1.64773464e-17
-1.62679382e-17
-1.59877483e-17
-2.02991066e-17
-2.05617274e-17
-2.32014707e-17
-2.05995068e-17
-2.06266597e-17
-2.13909634e-17
-2.10555533e-17
-2.37975147e-17
-2.13852629e-17
-2.5462776e-17
-2.3013405e-17
-2.50525571e-17
-2.52644772e-17
-2.6147766e-17
-2.65206468e-17
-2.8162817e-17
-2.75062526e-17
-2.87409659e-17
-2.77392138e-17
-3.27959137e-17
-3.26310202e-17
-3.27243006e-17
-3.04775878e-17
-3.13726765e-17
-3.27546849e-17
-3.27466575e-17
-3.38136781e-17
-3.49589462e-17
-3.62126393e-17
-3.40574092e-17
-3.10469698e-17
-3.43318783e-17
-3.50685801e-17
-3.43222133e-17
-3.38321822e-17
-3.46255097e-17
-3.49844474e-17
-3.30698041e-17
-3.09852202e-17
-2.90831162e-17
-2.89245781e-17
-3.08574457e-17
-3.37912468e-17
-3.24882721e-17
-3.24136073e-17
-3.17774348e-17
-3.48865333e-17
-3.43488781e-17
-3.29268598e-17
-3.54491463e-17
-3.53451608e-17
-3.82001212e-17
-3.76421734e-17
-4.10224092e-17
-4.12034717e-17
-4.31529759e-17
-4.18105252e-17
-4.49748577e-17
-4.46944331e-17
-4.33518948e-17
-4.39133826e-17
-4.30588751e-17
-4.24122178e-17
-4.49278738e-17
-4.14028736e-17
-4.46498905e-17
-4.26917461e-17
-4.44114887e-17
-4.33179161e-17
-4.29539356e-17
-4.55704638e-17
-4.3783956e-17
-4.43957883e-17
-4.63473722e-17
-4.75067948e-17
-4.54513347e-17
-4.6627777e-17
-4.62629081e-17
-4.36489305e-17
-4.28438015e-17
-4.28902912e-17
-4.38230332e-17
-4.71968683e-17
-4.62397197e-17
-4.48815868e-17
-5.01354245e-17
-4.99798551e-17
-5.07686467e-17
-5.2829584e-17
-5.26904685e-17
-5.34574863e-17
-5.53879918e-17
-5.47221373e-17
-5.40192836e-17
-5.3564374e-17
-5.77788313e-17
-5.6899593e-17
-6.04484181e-17
-5.97423532e-17
-5.87139909e-17
-5.92409057e-17
-5.87496213e-17
-5.51928802e-17
-5.64654981e-17
-5.3942029e-17
-5.69243683e-17
-5.45904288e-17
-5.75617987e-17
-5.96339979e-17
-5.96411572e-17
-5.69926339e-17
-5.83827948e-17
-6.1959085e-17
-6.15792366e-17
-6.01912658e-17
-5.95557458e-17
-6.00156679e-17
-5.9052112e-17
-6.25513196e-17
-6.1051274e-17
-6.27823338e-17
-6.39080354e-17
-6.32196903e-17
-6.25231577e-17
-6.35378862e-17
-6.25182151e-17
-6.24101976e-17
-6.4692169e-17
-6.62545699e-17
-6.64035332e-17
-6.73410453e-17
-6.22916949e-17
-6.37380191e-17
-6.1299972e-17
-5.903095e-17
-6.09589146e-17
-5.73878908e-17
-5.8900825e-17
-5.56931746e-17
-5.50647758e-17
-5.67619566e-17
-5.6365866e-17
-5.4912985e-17
-5.41272871e-17
-5.39950458e-17
-5.63478275e-17
-5.38999429e-17
-5.43821386e-17
-5.44401606e-17
-5.39961899e-17
-5.59737892e-17
-5.42463284e-17
-5.45918629e-17
-5.23707768e-17
-5.06538364e-17
-4.92567486e-17
-5.34645118e-17
-5.32990467e-17
-5.463757e-17
-5.37480213e-17
-5.27554062e-17
-5.1389969e-17
-5.24611757e-17
-5.3649977e-17
-5.08208585e-17
-5.05093582e-17
-4.69716724e-17
-4.77902785e-17
-4.83932204e-17
-4.72844709e-17
-4.49206446e-17
-4.52719323e-17
-4.6142109e-17
-4.96743117e-17
-5.23867304e-17
-5.0594386e-17
-5.04814422e-17
-4.91552992e-17
-4.63429989e-17
-5.08453808e-17
-4.9367089e-17
-4.5259271e-17
-4.75158787e-17
-4.55845995e-17
-4.59717301e-17
-4.55029631e-17
-4.50288997e-17
-4.57906807e-17
-4.29124386e-17
-4.59897812e-17
-4.62256917e-17
-4.73949707e-17
-5.01255326e-17
-4.67883668e-17
-4.65823159e-17
-5.20577282e-17
-4.82508243e-17
-5.04617491e-17
-4.99668826e-17
-4.633279e-17
-4.4556346e-17
-4.63415823e-17
-4.56106615e-17
-3.81604627e-17
-3.54111583e-17
-3.58571345e-17
-3.29234975e-17
-3.62805568e-17
-3.41414383e-17
-3.74101099e-17
-3.56362957e-17
-3.40368404e-17
-3.79239813e-17
-3.56297688e-17
-3.37391817e-17
-3.18876121e-17
-3.09960546e-17
-2.70175353e-17
-2.56313076e-17
-2.56284762e-17
-2.43286735e-17
-2.51034044e-17
-2.5441643e-17
-2.54140527e-17
-2.52845018e-17
-2.66082099e-17
-2.2320603e-17
-1.94493828e-17
-1.98168463e-17
-1.68110583e-17
-2.0470304e-17
-1.87622949e-17
-1.73621451e-17
-1.80037757e-17
-1.86360294e-17
-1.38303683e-17
-1.52099462e-17
-1.57308491e-17
-1.45360634e-17
-1.47971563e-17
-1.52434932e-17
-1.77000131e-17
-1.81097256e-17
-2.01969097e-17
-2.08616999e-17
-1.88922104e-17
-1.85705896e-17
-1.5347587e-17
-1.56559609e-17
-1.38308295e-17
-1.39996455e-17
-1.6035284e-17
-1.64070885e-17
-1.53454835e-17
-1.2233244e-17
-1.06075964e-17
-1.26854304e-17
-1.17884643e-17
-1.41810699e-17
-1.33966893e-17
-1.45854702e-17
-1.12233846e-17
-1.1168916e-17
-1.00285936e-17
-9.69066844e-18
-5.26789985e-18
-7.44884101e-18
-8.57306374e-18
-8.32399676e-18
-6.58734138e-18
-8.87034435e-18
-7.29796151e-18
-5.17629757e-18
-5.26725052e-18
-4.77720108e-18
-5.83064098e-18
-7.58966478e-18
-7.00637743e-18
-8.52999301e-18
-6.7466227e-18
-9.7458251e-18
-9.40615355e-18
-9.09061304e-18
-8.1433901e-18
-9.96431408e-18
-1.07689819e-17
-1.0225698e-17
-8.0934932e-18
-4.88435056e-18
-4.55053173e-18
-7.42926902e-18
-8.54025815e-18
-4.8857057e-18
-9.22707697e-18
-8.08325762e-18
-6.29897076e-18
-4.20589497e-18
-4.97517361e-18
-4.09840196e-18
-2.26384176e-19
-5.85797293e-19
-1.81536824e-18
-4.15609303e-18
-1.58487289e-18
1.88050311e-18
1.45801107e-18
2.63329161e-18
2.46967977e-18
4.69754002e-18
5.02229014e-18
3.72470777e-18
3.23616392e-18
1.58292704e-18
2.85612539e-18
4.56120092e-18
4.23226978e-18
2.78605325e-18
4.63567397e-18
4.63467389e-18
6.5011144e-18
6.86511737e-18
5.88369414e-18
5.24695372e-18
4.1018309e-18
4.00084686e-18
2.1880256e-18
2.64763967e-18
3.56631806e-18
2.82027625e-18
4.87304451e-18
5.16843312e-18
3.36065685e-18
4.53370355e-18
7.00722995e-18
5.72336084e-18
3.28349197e-18
2.92924607e-18
6.49580352e-18
7.11200998e-18
9.00520858e-18
1.04689191e-17
1.05472857e-17
1.09098145e-17
1.06979556e-17
8.62531627e-18
8.22787906e-18
8.97401834e-18
1.10060006e-17
7.92033652e-18
1.08592326e-17
1.12020186e-17
1.35150665e-17
1.06976441e-17
1.2366625e-17
1.29662872e-17
1.32039752e-17
1.17449948e-17
1.28482225e-17
1.08827462e-17
8.95480364e-18
1.22431482e-17
1.26387466e-17
1.16338602e-17
1.01364125e-17
1.25204396e-17
1.21853023e-17
1.23673531e-17
1.04644335e-17
1.1499453e-17
1.20100446e-17
1.12756624e-17
1.28375966e-17
1.3976393e-17
1.19970911e-17
1.12382047e-17
1.1296435e-17
9.5020782e-18
1.21481106e-17
1.67594334e-17
1.59061343e-17
1.5632325e-17
1.32338214e-17
1.19898941e-17
1.31134958e-17
1.2987862e-17
1.41651994e-17
1.4847646e-17
1.13737655e-17
1.49113892e-17
1.41618799e-17
1.41233125e-17
1.09975053e-17
1.12535381e-17
1.32774175e-17
1.59455685e-17
1.87045802e-17
1.77791825e-17
2.11718458e-17
2.23051334e-17
1.8065657e-17
2.14468409e-17
2.08814553e-17
2.268803e-17
2.03234384e-17
1.91892866e-17
2.20373404e-17
2.37174239e-17
2.35663939e-17
2.33514479e-17
2.437644e-17
2.18244948e-17
2.32893208e-17
2.33832763e-17
2.39881109e-17
2.29295638e-17
2.50555097e-17
2.47967742e-17
2.38973598e-17
2.44860922e-17
2.21321124e-17
2.16889484e-17
1.9181939e-17
2.00354252e-17
2.08639035e-17
1.97144724e-17
1.83567076e-17
1.83023052e-17
1.82850335e-17
1.61148996e-17
1.87919713e-17
1.97120619e-17
2.21751886e-17
1.94415488e-17
1.94936481e-17
2.05172373e-17
1.60675859e-17
1.72716098e-17
1.44372337e-17
1.39094867e-17
1.61027498e-17
1.70933598e-17
1.74534363e-17
1.80301946e-17
1.56115403e-17
1.15702544e-17
1.15260244e-17
9.43804207e-18
1.17530885e-17
1.23634285e-17
1.18233694e-17
8.47080542e-18
9.75829491e-18
1.00975914e-17
8.78480049e-18
8.30079564e-18
7.47458776e-18
7.87461754e-18
3.84052433e-18
4.35018824e-18
3.50670654e-18
6.31779738e-18
3.85122647e-18
2.86795732e-18
6.15945067e-18
7.96664281e-18
7.61611765e-18
5.80490433e-18
6.39772696e-18
6.93001364e-18
6.24199211e-18
6.31781962e-18
3.82108397e-18
5.42665957e-18
6.80379648e-18
5.7335985e-18
5.5718414e-18
8.17047087e-18
9.04967696e-18
5.43445097e-18
9.37796843e-18
9.44655552e-18
1.08363582e-17
1.17056933e-17
1.07656757e-17
1.02353855e-17
1.02753005e-17
1.09744598e-17
1.1274285e-17
1.34770465e-17
1.39512008e-17
1.39703441e-17
1.2808717e-17
1.53816492e-17
1.579076e-17
1.47066969e-17
1.88799745e-17
1.82024322e-17
1.83525287e-17
1.96528642e-17
1.91117113e-17
1.93515544e-17
1.88165978e-17
1.71664652e-17
1.70940328e-17
1.40835239e-17
1.31569942e-17
1.36174656e-17
1.26285148e-17
1.41250761e-17
1.62699445e-17
1.48478485e-17
1.64724832e-17
1.37247662e-17
9.5593774e-18
1.09545666e-17
1.14968732e-17
1.56209942e-17
1.7571978e-17
1.76610555e-17
1.79971028e-17
1.6146686e-17
1.88871472e-17
1.93891298e-17
1.8655957e-17
1.55515761e-17
1.85083443e-17
1.87669927e-17
1.6144995e-17
1.80692485e-17
1.88964428e-17
1.71587786e-17
1.87775168e-17
2.02332014e-17
1.72716521e-17
1.638211e-17
1.41026818e-17
1.64579932e-17
1.60849789e-17
1.50341562e-17
1.31237919e-17
1.33472719e-17
1.45406355e-17
1.49963699e-17
1.79530229e-17
1.90657912e-17
1.99455415e-17
2.0247358e-17
2.06436413e-17
1.84738984e-17
2.07370677e-17
1.87771168e-17
2.12562105e-17
2.04909782e-17
2.25714937e-17
2.44132511e-17
2.08756786e-17
2.00441181e-17
1.99303123e-17
1.84948883e-17
1.88737621e-17
1.82990195e-17
1.60498172e-17
1.64416262e-17
1.36379236e-17
1.58280477e-17
1.30151387e-17
1.79725266e-17
1.63934124e-17
1.67409996e-17
1.68871002e-17
1.76787163e-17
1.65017134e-17
1.69769091e-17
1.64683546e-17
1.75629653e-17
1.62324309e-17
1.76010701e-17
1.4090246e-17
1.66697944e-17
1.72637932e-17
1.55571028e-17
1.58936637e-17
1.49920169e-17
1.34323544e-17
1.37214558e-17
1.23738645e-17
1.4810863e-17
1.460316e-17
1.81735928e-17
1.93091928e-17
1.87798555e-17
1.7115696e-17
1.3724899e-17
1.41566193e-17
1.64756972e-17
1.95240657e-17
1.97991642e-17
1.86763546e-17
1.55315747e-17
1.33555237e-17
1.74731152e-17
1.5987714e-17
1.61865266e-17
1.76030697e-17
1.87715019e-17
1.67791256e-17
1.35611416e-17
1.23182622e-17
1.10543802e-17
1.21930491e-17
1.22171794e-17
9.33456174e-18
9.98353196e-18
1.20325987e-17
6.68298197e-18
9.0302427e-18
1.07130321e-17
1.42321998e-17
1.60541076e-17
1.43343508e-17
1.3574247e-17
1.5123268e-17
1.14435411e-17
1.18768821e-17
1.40019287e-17
1.23901112e-17
1.21406768e-17
1.14290494e-17
1.15584215e-17
1.02816912e-17
1.10714931e-17
1.04771113e-17
1.0171186e-17
1.0908454e-17
1.29816004e-17
1.29145538e-17
1.2939453e-17
1.50022225e-17
1.38671757e-17
1.2427427e-17
1.16680592e-17
1.07143869e-17
1.16020727e-17
1.00910594e-17
7.93413957e-18
1.3755335e-17
1.23892287e-17
1.39756628e-17
1.46660806e-17
1.39446153e-17
1.04516704e-17
1.16835801e-17
1.13214952e-17
1.04407673e-17
1.56774518e-17
1.39057725e-17
1.25296145e-17
1.23571487e-17
1.11641528e-17
1.60217438e-17
1.46938929e-17
1.50694357e-17
1.71728073e-17
1.43622065e-17
1.66044955e-17
1.52199521e-17
1.82274013e-17
1.87342266e-17
1.79331406e-17
1.51050511e-17
1.34970848e-17
1.5527822e-17
1.33747567e-17
1.48005883e-17
1.49688551e-17
1.44750593e-17
1.64390256e-17
1.75547559e-17
1.34789906e-17
1.75283154e-17
1.47051986e-17
1.37515299e-17
9.08236097e-18
9.44854415e-18
1.02279824e-17
1.40947049e-17
1.09793046e-17
9.92791136e-18
1.14483527e-17
1.27464871e-17
1.45734799e-17
1.29612414e-17
1.52331269e-17
1.06919503e-17
1.20680395e-17
1.36642584e-17
1.4114798e-17
1.44588671e-17
1.9427009e-17
1.42629991e-17
1.95220537e-17
2.01468444e-17
2.07694142e-17
1.87624288e-17
2.02318105e-17
1.78859122e-17
1.96119986e-17
2.03694227e-17
2.17423174e-17
1.92663683e-17
1.80450351e-17
1.71474418e-17
1.42772357e-17
1.63950364e-17
2.07220492e-17
1.87707623e-17
2.14387298e-17
2.05041528e-17
2.10398384e-17
2.07692717e-17
2.09327706e-17
2.39358932e-17
2.43681835e-17
2.33975711e-17
2.30716546e-17
2.3731902e-17
2.13910061e-17
2.43957761e-17
2.69928701e-17
2.4770807e-17
2.78636964e-17
3.00188543e-17
2.98877286e-17
3.01564693e-17
2.92248367e-17
3.33980398e-17
3.02325128e-17
3.25108903e-17
2.94686417e-17
2.87959614e-17
2.91733691e-17
2.82943238e-17
2.53718805e-17
2.66455326e-17
2.67253291e-17
2.60770707e-17
2.59950304e-17
2.66063921e-17
3.09049057e-17
2.93636324e-17
2.94965398e-17
3.15683873e-17
3.04993245e-17
3.16890125e-17
3.19489731e-17
2.74175969e-17
2.94207464e-17
3.12504032e-17
2.94763296e-17
3.10078299e-17
3.18708279e-17
3.3365354e-17
3.21034908e-17
3.24734349e-17
3.33952541e-17
3.28327911e-17
3.43129097e-17
3.25961663e-17
3.03162869e-17
3.09492793e-17
3.36110774e-17
3.15816804e-17
3.18611242e-17
3.41619561e-17
3.18087226e-17
3.07342432e-17
2.80854609e-17
3.11604811e-17
2.99461208e-17
2.71839851e-17
2.75830383e-17
3.13945419e-17
3.31153395e-17
3.41666803e-17
3.36105344e-17
3.06468875e-17
3.17924275e-17
3.30714904e-17
3.23192684e-17
3.2566611e-17
3.49674548e-17
3.52432115e-17
3.43562671e-17
3.42161686e-17
3.12564254e-17
3.07925579e-17
3.19832953e-17
3.16675478e-17
3.35327166e-17
3.34730791e-17
3.24517972e-17
3.15265183e-17
3.18381437e-17
3.23818776e-17
3.0571992e-17
3.17454697e-17
3.06883373e-17
3.17857704e-17
3.1630011e-17
3.2420975e-17
3.30065362e-17
2.73160582e-17
2.66609666e-17
2.6087759e-17
2.62301542e-17
2.55707561e-17
2.27578595e-17
2.0549973e-17
2.0185277e-17
1.98510247e-17
2.23715245e-17
1.95812346e-17
1.89674882e-17
1.89109146e-17
1.6277571e-17
1.90759254e-17
1.9631502e-17
1.99452334e-17
1.93264696e-17
1.84248151e-17
1.61822702e-17
1.76051788e-17
1.90810334e-17
1.77633319e-17
1.57401056e-17
1.65135437e-17
1.72245229e-17
1.67442822e-17
1.45901836e-17
1.40734031e-17
1.69645587e-17
2.04242339e-17
2.16324425e-17
2.34147724e-17
2.69495395e-17
2.36107405e-17
2.64994968e-17
2.71936092e-17
2.43512024e-17
2.16708103e-17
2.65687383e-17
2.07469501e-17
2.1447825e-17
1.92137042e-17
2.0945003e-17
2.13748568e-17
1.88947191e-17
2.21239344e-17
2.42382082e-17
2.36772452e-17
2.6076803e-17
2.50222365e-17
2.74368323e-17
2.71868135e-17
2.5058189e-17
2.5740808e-17
2.30008779e-17
2.54690269e-17
2.51078908e-17
2.33147457e-17
2.32306854e-17
2.54462362e-17
2.58956524e-17
2.56997599e-17
2.7011296e-17
2.6989704e-17
2.80816719e-17
2.78204379e-17
2.57936324e-17
2.30165314e-17
2.37451949e-17
2.2273222e-17
1.76987212e-17
1.92799773e-17
2.1606578e-17
1.95865187e-17
1.75628941e-17
1.38822917e-17
1.22275835e-17
1.12883786e-17
9.40965238e-18
6.29805509e-18
6.63511478e-18
8.47034581e-18
8.87054632e-18
9.65628161e-18
1.37066737e-17
9.82478163e-18
8.21970345e-18
9.10266754e-18
6.80645084e-18
3.38573892e-18
5.09577545e-18
4.32965451e-18
3.65238006e-18
2.11171511e-18
2.03422845e-18
-4.74266392e-18
-1.12609366e-18
-5.68251634e-18
-7.75881805e-18
-4.8787395e-18
-6.40977666e-18
-9.19387996e-18
-1.07618181e-17
-9.86458145e-18
-1.06249817e-17
-1.36941278e-17
-1.20306984e-17
-1.28472201e-17
-1.34516507e-17
-1.36077372e-17
-1.40111723e-17
-1.72936497e-17
-1.72558248e-17
-1.4873275e-17
-1.52202789e-17
-1.40226612e-17
-1.45005536e-17
-1.70253648e-17
-2.07823521e-17
-2.21722526e-17
-2.19953214e-17
-2.4449205e-17
-2.38818631e-17
-2.1281603e-17
-2.06039471e-17
-2.00074448e-17
-2.277012e-17
-2.0959809e-17
-2.30152302e-17
-2.2410359e-17
-2.44345549e-17
-2.39248621e-17
-2.01231298e-17
-2.0329819e-17
-2.04778037e-17
-2.18399863e-17
-2.21433148e-17
-1.98675443e-17
-2.03558912e-17
-2.2732721e-17
-2.1540539e-17
-2.43729418e-17
-2.19340655e-17
-2.49116455e-17
-2.52810887e-17
-2.87748824e-17
-2.92233777e-17
-2.97078068e-17
-2.90732541e-17
-3.28829938e-17
-3.25615085e-17
-2.97036754e-17
-2.83811452e-17
-2.85221042e-17
-2.83013018e-17
-2.75311187e-17
-3.11902555e-17
-3.07031808e-17
-3.37240763e-17
-3.24813608e-17
-3.4098263e-17
-3.54624805e-17
-3.50160089e-17
-3.67183499e-17
-3.50327131e-17
-3.6401469e-17
-3.53292626e-17
-3.79946214e-17
-3.67884057e-17
-3.43130372e-17
-3.43848347e-17
-4.01417789e-17
-3.75501119e-17
-3.92158436e-17
-3.91321118e-17
-3.80867496e-17
-3.44512598e-17
-3.59980128e-17
-3.95140681e-17
-3.67215605e-17
-3.82184519e-17
-3.81743371e-17
-3.56090966e-17
-3.65739812e-17
-3.59769707e-17
-4.07342838e-17
-3.74876097e-17
-4.0263946e-17
-4.34593267e-17
-4.14639748e-17
-3.98439285e-17
-3.75387609e-17
-3.72852762e-17
-3.5877859e-17
-3.59007338e-17
-3.97696148e-17
-3.84885254e-17
-3.84404655e-17
-3.76948771e-17
-3.83808455e-17
-3.99699983e-17
-3.84251291e-17
-3.70255589e-17
-3.72698335e-17
-3.60622079e-17
-3.48858883e-17
-3.71592383e-17
-3.72237824e-17
-3.47989078e-17
-3.45649318e-17
-3.68649682e-17
-3.66314921e-17
-3.5676888e-17
-3.49426883e-17
-3.3776642e-17
-3.37305904e-17
-3.04122337e-17
-3.02522186e-17
-3.13542775e-17
-3.12954831e-17
-3.37620074e-17
-2.85498197e-17
-2.57800236e-17
-2.59700934e-17
-2.82144992e-17
-2.78262791e-17
-2.66625523e-17
-2.63180373e-17
-2.80662113e-17
-2.63117304e-17
-2.95310273e-17
-2.97180598e-17
-2.82406242e-17
-2.88507713e-17
-2.876156e-17
-2.73803637e-17
-2.82364561e-17
-2.8663506e-17
-2.60206178e-17
-2.45912225e-17
-2.42785592e-17
-2.31849493e-17
-2.14699677e-17
-2.03507307e-17
-2.31449504e-17
-2.48770064e-17
-2.50534386e-17
-2.52665501e-17
-2.24470393e-17
-2.30887189e-17
-2.17306729e-17
-2.31675256e-17
-2.0726995e-17
-2.4185052e-17
-2.13018491e-17
-2.19621311e-17
-2.16429201e-17
-1.96238905e-17
-2.03627049e-17
-1.60847529e-17
-1.51198925e-17
-1.98083062e-17
-1.70546975e-17
-1.73201264e-17
-1.61638448e-17
-1.62026302e-17
-1.66576674e-17
-1.71242561e-17
-1.67970953e-17
-1.62187823e-17
-1.68989734e-17
-1.18892803e-17
-1.140453e-17
-1.00036683e-17
-1.4538531e-17
-1.59583101e-17
-1.56529978e-17
-1.68122553e-17
-1.96321834e-17
-1.79383731e-17
-1.68869919e-17
-1.63448013e-17
-1.93795772e-17
-1.75011831e-17
-1.64291455e-17
-1.72079798e-17
-1.74614251e-17
-1.78344187e-17
-1.9221451e-17
-1.78690708e-17
-1.62623639e-17
-1.45108908e-17
-1.65775019e-17
-1.63056738e-17
-1.28581474e-17
-1.55971568e-17
-1.73013621e-17
-1.82521809e-17
-2.19051994e-17
-2.3230489e-17
-2.05588405e-17
-1.94709302e-17
-1.82670599e-17
-1.72191773e-17
-1.8668581e-17
-1.61378466e-17
-1.57522418e-17
-1.39552679e-17
-1.54367417e-17
-1.52268658e-17
-1.0709454e-17
-9.88360079e-18
-8.18351216e-18
-9.83703711e-18
-9.74866775e-18
-1.37417667e-17
-1.17248117e-17
-1.47746928e-17
-1.69802471e-17
-1.34686169e-17
-1.3074553e-17
-1.17983115e-17
-1.18893028e-17
-1.00949121e-17
-1.0138617e-17
-1.21546819e-17
-8.93039488e-18
-8.85554504e-18
-1.03751058e-17
-1.22513525e-17
-1.37775684e-17
-1.25872668e-17
-1.32681132e-17
-1.10232788e-17
-1.17755545e-17
-1.02620242e-17
-1.08609854e-17
-1.29868644e-17
-1.16730573e-17
-1.33049876e-17
-9.50557181e-18
-8.85205273e-18
-7.50361774e-18
-1.00379583e-17
-4.54532631e-18
-7.19560189e-18
-5.66125488e-18
-4.52948446e-18
-6.51495168e-18
-7.69323832e-18
-9.44807899e-18
-8.63973826e-18
-9.04689808e-18
-8.03993807e-18
-1.10573684e-17
-1.07766491e-17
-1.13987582e-17
-1.17053228e-17
-1.27202812e-17
-1.47197557e-17
-1.20999321e-17
-8.73650591e-18
-6.25603617e-18
-3.86412968e-18
-3.9546468e-18
-4.1168844e-18
-2.35323158e-18
-2.6373858e-18
-6.69598661e-19
-2.08902719e-18
-1.85033893e-18
-4.02432596e-18
-4.66808852e-18
-4.37174833e-18
-2.32957463e-18
-3.96030729e-18
-4.69299241e-18
-6.33068669e-18
-5.4424016e-18
-4.0560389e-18
-6.05844671e-18
-8.61009607e-18
-4.26910227e-18
-4.25151665e-18
-6.69102344e-18
-8.14379077e-18
-8.15435589e-18
-8.53881399e-18
-8.75217036e-18
-5.92749403e-18
-3.59028483e-18
-4.65364186e-18
-3.77714906e-18
-4.53354985e-18
-3.97218667e-18
-8.67963754e-18
-9.52833956e-18
-1.06688095e-17
-1.17763547e-17
-1.48357029e-17
-1.37635835e-17
-1.50653341e-17
-1.25813112e-17
-1.49568484e-17
-1.32677933e-17
-1.40165962e-17
-1.06332043e-17
-1.0304759e-17
-9.62894138e-18
-1.18209951e-17
-1.03107907e-17
-1.24885817e-17
-1.37091866e-17
-1.68297143e-17
-1.3203969e-17
-1.55188866e-17
-1.13880749e-17
-1.17873084e-17
-1.33209304e-17
-1.32055212e-17
-1.15600544e-17
-1.46610692e-17
-9.66019095e-18
-1.07567561e-17
-9.44720364e-18
-1.18280597e-17
-1.33735443e-17
-1.59309926e-17
-1.53761684e-17
-1.61016282e-17
-1.41836217e-17
-1.11697825e-17
-1.195498e-17
-1.16327533e-17
-1.24678102e-17
-1.3566562e-17
-1.02358523e-17
-7.88407048e-18
-1.13228076e-17
-9.58011806e-18
-1.15110087e-17
-1.14039759e-17
-8.71210725e-18
-1.38394003e-17
-1.45277232e-17
-1.3421471e-17
-1.13936759e-17
-1.28570615e-17
-1.1447916e-17
-6.99056471e-18
-5.43053112e-18
-8.79308396e-18
-6.63159468e-18
-1.00944564e-17
-1.16309137e-17
-1.24614785e-17
-1.236564e-17
-1.19675232e-17
-1.21270758e-17
-1.50692515e-17
-1.54932045e-17
-1.76906043e-17
-1.69384299e-17
-1.77510813e-17
-1.71937358e-17
-1.67272987e-17
-1.67332854e-17
-2.04524284e-17
-2.16691218e-17
-2.04175621e-17
-1.97491996e-17
-1.65931857e-17
-1.95189118e-17
-2.28193751e-17
-2.3908134e-17
-2.31145816e-17
-2.36716192e-17
-2.21747249e-17
-2.17122302e-17
-1.78594444e-17
-2.06368671e-17
-1.91932793e-17
-2.10051681e-17
-2.13809818e-17
-1.85230665e-17
-2.15321535e-17
-1.90667104e-17
-2.12226614e-17
-2.26237712e-17
-2.54445912e-17
-2.39038488e-17
-2.15919053e-17
-2.04360062e-17
-2.27237624e-17
-2.27885763e-17
-2.40361378e-17
-2.52180051e-17
-2.53078386e-17
-2.48677601e-17
-2.52500165e-17
-2.3578906e-17
-2.50491564e-17
-2.35520787e-17
-2.26274778e-17
-2.20644637e-17
-2.47886239e-17
-2.51021654e-17
-2.46486045e-17
-2.07578999e-17
-2.27889339e-17
-2.15607163e-17
-2.21590947e-17
-2.16289217e-17
-2.40613075e-17
-2.3049617e-17
-2.51142547e-17
-2.64839165e-17
-2.24907877e-17
-2.23915435e-17
-1.95406573e-17
-1.89260471e-17
-1.77919292e-17
-2.18922351e-17
-1.94845424e-17
-2.03488236e-17
-1.84197327e-17
-2.08840781e-17
-1.78523809e-17
-2.19339583e-17
-2.04343788e-17
-1.92570646e-17
-1.6703368e-17
-1.56451865e-17
-1.70416814e-17
-1.68006545e-17
-1.39989498e-17
-1.38978271e-17
-1.32276913e-17
-1.3278826e-17
-1.46969655e-17
-1.57935549e-17
-1.54898211e-17
-1.56781565e-17
-2.09887111e-17
-1.70061835e-17
-1.66934435e-17
-2.12448594e-17
-1.94940413e-17
-2.02708478e-17
-1.98586781e-17
-1.68712328e-17
-1.72467037e-17
-1.91553132e-17
-1.55596605e-17
-1.814478e-17
-1.81963445e-17
-1.67098542e-17
-1.33418585e-17
-1.46251773e-17
-1.79484912e-17
-1.43940912e-17
-1.59507343e-17
-2.02777095e-17
-2.09384165e-17
-2.19450267e-17
-2.22161142e-17
-2.17415095e-17
-2.30601558e-17
-2.21155276e-17
-2.77192557e-17
-2.54773638e-17
-2.43711707e-17
-2.76434178e-17
-2.64001845e-17
-2.69407159e-17
-2.86985462e-17
-2.44369059e-17
-2.61426052e-17
-2.48942474e-17
-2.20657363e-17
-1.98422452e-17
-2.3132031e-17
-1.90237811e-17
-1.8294367e-17
-1.8119973e-17
-1.88440045e-17
-1.77538415e-17
-1.66534693e-17
-1.66170351e-17
-1.84120256e-17
-1.6964971e-17
-1.97871494e-17
-1.90907552e-17
-2.30151712e-17
-2.30827934e-17
-1.95173621e-17
-2.16482436e-17
-1.97558748e-17
-2.10967171e-17
-1.99652314e-17
-2.07493833e-17
-1.73639533e-17
-1.86972277e-17
-2.04023143e-17
-2.00348384e-17
-1.80776148e-17
-1.7870559e-17
-1.69143101e-17
-1.73514792e-17
-1.65023103e-17
-1.65518765e-17
-1.72179972e-17
-1.38310869e-17
-1.55140245e-17
-1.81495489e-17
-1.64511529e-17
-1.5063475e-17
-1.23499133e-17
-9.94226776e-18
-1.04338023e-17
-1.33143081e-17
-1.28529263e-17
-1.38373598e-17
-1.43489779e-17
-1.2647435e-17
-1.314864e-17
-1.25262123e-17
-1.20784521e-17
-1.03377615e-17
-8.0720851e-18
-6.82320287e-18
-6.37516132e-18
-6.99008326e-18
-4.08023861e-18
-4.64197386e-18
-3.4175166e-18
-4.64468261e-18
-6.06939136e-18
-8.05837245e-18
-8.33721332e-18
-9.99839607e-18
-9.89148164e-18
-5.13454005e-18
-5.24529841e-18
-4.72400123e-18
-2.70244483e-18
-3.40455294e-18
-4.43541647e-18
-1.56616204e-18
1.59043361e-18
2.01533641e-18
6.33899856e-19
8.66976552e-19
-1.81738227e-18
3.57907646e-19
-5.3620933e-19
-4.07175038e-18
1.39578594e-18
-2.34296542e-18
-1.96476107e-19
-3.30339798e-18
-2.45346633e-18
-2.7560428e-18
-3.86886805e-18
-5.32027635e-18
-7.81234767e-18
-7.31176982e-18
-4.65575366e-18
-3.97254115e-18
-3.06093703e-19
-1.15421083e-18
-1.62353813e-19
8.61619402e-19
-5.26318995e-20
-1.30200778e-18
2.83473259e-19
6.04668957e-19
-1.59620878e-18
8.16816198e-19
4.35699321e-18
2.72076259e-18
4.58485475e-18
3.88275511e-18
2.30674815e-19
6.1265174e-19
-1.32326417e-19
2.10601575e-18
3.02194512e-18
5.88089594e-18
7.30067542e-18
5.32916402e-18
8.53209203e-18
1.06556718e-17
9.80619425e-18
9.18636837e-18
9.92329208e-18
1.05196508e-17
9.64900641e-18
8.8864798e-18
6.95160521e-18
5.81408832e-18
7.99673485e-18
8.53335725e-18
7.43231082e-18
8.92225742e-18
7.69939129e-18
7.68616689e-18
8.80937084e-18
6.21369834e-18
5.23690785e-18
5.20936463e-18
5.830665e-18
6.62712763e-18
7.1757906e-18
7.90385545e-18
4.58507075e-18
6.78719503e-18
7.29239573e-18
7.95447259e-18
9.27529755e-18
8.03945906e-18
9.73503536e-18
1.08904323e-17
1.35404607e-17
1.28500468e-17
1.26863242e-17
1.0486218e-17
1.16783701e-17
1.07544661e-17
1.11456125e-17
1.82651135e-17
1.73515546e-17
1.59079771e-17
1.70045123e-17
1.49470605e-17
1.88121035e-17
2.04851365e-17
1.74843408e-17
1.64262002e-17
1.85716049e-17
1.92383522e-17
1.86273594e-17
1.95459227e-17
1.74324062e-17
2.00285311e-17
2.00068908e-17
2.31278787e-17
2.13170544e-17
1.99918398e-17
2.00914145e-17
2.26658861e-17
2.13216557e-17
2.46235839e-17
2.85632771e-17
2.68294753e-17
2.59974742e-17
2.46940657e-17
2.52203184e-17
2.72133969e-17
2.89065101e-17
2.79652516e-17
2.89462896e-17
2.68754678e-17
2.6907057e-17
2.57708411e-17
2.9644563e-17
2.93947564e-17
3.02384931e-17
2.89259029e-17
2.82358445e-17
3.14071736e-17
3.01277775e-17
2.89036728e-17
2.92072899e-17
3.075145e-17
2.9953184e-17
3.22267431e-17
3.2985512e-17
3.58353637e-17
3.37891865e-17
3.45834511e-17
3.52991067e-17
3.44850467e-17
3.80716386e-17
3.64589383e-17
3.61991865e-17
3.7812215e-17
3.72327045e-17
3.57981844e-17
4.00087166e-17
3.7733722e-17
3.63850615e-17
4.04915181e-17
4.28953793e-17
4.36874898e-17
4.68513146e-17
4.65457086e-17
4.57257741e-17
4.53809517e-17
4.65974261e-17
4.61777425e-17
4.63759426e-17
4.60178467e-17
4.83319582e-17
5.06312704e-17
5.48974324e-17
5.29840613e-17
5.2340023e-17
5.44800671e-17
5.34924183e-17
5.5725553e-17
5.46543869e-17
5.40332076e-17
5.54939653e-17
5.71313467e-17
5.77988734e-17
5.59319004e-17
5.54658616e-17
5.62561032e-17
5.27510422e-17
5.50030058e-17
5.6662188e-17
5.93691851e-17
5.97898414e-17
6.19874031e-17
5.90168906e-17
6.06150634e-17
6.16295805e-17
6.41400803e-17
6.23853741e-17
6.43652763e-17
6.42671722e-17
6.47301027e-17
6.26750495e-17
6.08899595e-17
6.24117955e-17
6.34846761e-17
6.30716014e-17
6.17451014e-17
6.19731924e-17
6.45764923e-17
6.42998489e-17
6.66561925e-17
6.49072836e-17
6.6304984e-17
6.85706259e-17
6.65237202e-17
6.79170971e-17
6.95827969e-17
6.97274698e-17
6.8050028e-17
6.78110305e-17
6.82209289e-17
6.46877916e-17
6.54514977e-17
6.25774345e-17
6.23974732e-17
6.17151276e-17
6.20465399e-17
6.1459463e-17
6.4549645e-17
6.48549357e-17
6.36120361e-17
6.66700909e-17
6.99836773e-17
6.75796922e-17
6.68927047e-17
7.07322944e-17
6.71947134e-17
6.69154851e-17
6.88271989e-17
6.75651095e-17
6.65203087e-17
6.9937686e-17
6.69198879e-17