/*--------------------------------*- C++ -*----------------------------------*\
| =========                 |                                                 |
| \\      /  F ield         | OpenFOAM: The Open Source CFD Toolbox           |
|  \\    /   O peration     | Version:  2206                                  |
|   \\  /    A nd           | Website:  www.openfoam.com                      |
|    \\/     M anipulation  |                                                 |
\*---------------------------------------------------------------------------*/
FoamFile
{
    version     2.0;
    format      ascii;
    arch        "LSB;label=32;scalar=64";
    class       volScalarField;
    location    "6e-06";
    object      PVsourcePV;
}
// * * * * * * * * * * * * * * * * * * * * * * * * * * * * * * * * * * * * * //

dimensions      [1 -3 -1 0 0 0 0];

internalField   nonuniform List<scalar> 
3183
(
0
0
0
0
0
0
0
0
0
0
0
0
0
0
0
0
0
0
0
0
0
0
0
0
0
0
0
0
0
0
0
0
0
0
0
0
0
0
0
0
0
0
0
0
0
0
0
0
0
0
0
0
0
0
0
0
0
0
0
0
0
0
0
0
0
0
0
0
0
0
0
0
0
0
0
0
0
0
0
0
0
0
0
0
0
0
0
0
0
0
0
0
0
0
0
0
0
0
0
0
0
0
0
0
0
0
0
0
0
0
0
0
0
0
0
0
0
0
0
0
0
0
0
0
0
0
0
0
0
0
0
0
0
0
0
0
0
0
0
0
0
0
0
0
0
0
0
0
0
0
0
0
0
0
0
0
0
0
0
0
0
0
0
0
0
0
0
0
0
0
0
0
0
0
0
0
0
0
0
0
0
0
0
0
0
0
0
0
0
0
0
0
0
0
0
0
0
0
0
0
0
0
0
0
0
0
0
0
0
0
0
0
0
0
0
0
0
0
0
0
0
0
0
0
0
0
0
0
0
0
0
0
0
0
0
0
0
0
0
0
0
0
0
0
0
0
0
0
0
0
0
0
0
0
0
0
0
0
0
0
0
0
0
0
0
0
0
0
0
0
0
0
0
0
0
0
0
0
0
0
0
0
0
0
0
0
0
0
0
0
0
0
0
0
0
0
0
0
0
0
0
0
0
0
0
0
0
0
0
0
0
0
0
0
0
0
0
0
0
0
0
0
0
0
0
0
0
0
0
0
0
0
0
0
0
0
0
0
0
0
0
0
0
0
0
0
0
0
0
0
0
0
0
0
0
0
0
0
0
0
0
0
0
0
0
0
0
0
0
0
0
0
0
0
0
0
0
0
0
0
0
0
0
0
0
0
0
0
0
0
0
0
0
0
0
0
0
0
0
0
0
0
0
0
0
0
0
0
0
0
0
0
0
0
0
0
0
0
0
0
0
0
0
0
0
0
0
0
0
0
0
0
0
0
0
0
0
0
0
0
0
0
0
0
0
0
0
0
0
0
0
0
0
0
0
0
0
0
0
0
0
0
0
0
0
0
0
0
0
0
0
0
0
0
0
0
0
0
0
0
0
0
0
0
0
0
0
0
0
0
0
0
0
0
0
0
0
0
0
0
0
0
0
0
0
0
0
0
0
0
0
0
0
0
0
0
0
0
0
0
0
0
0
0
0
0
0
0
0
0
0
0
0
0
0
0
0
0
0
0
0
0
0
0
0
0
0
0
0
0
0
0
0
0
0
0
0
0
0
0
0
0
0
0
0
0
0
0
0
0
0
0
0
0
0
0
0
0
0
0
0
0
0
0
0
0
0
0
0
0
0
0
0
0
0
0
0
0
0
0
0
0
0
0
0
0
0
0
0
0
0
0
0
0
0
0
0
0
0
0
0
0
0
0
0
0
0
0
0
0
0
0
0
0
0
0
0
0
0
0
0
0
0
0
0
0
0
0
0
0
0
0
0
0
0
0
0
0
0
0
0
0
0
0
0
0
0
0
0
0
0
0
0
0
0
0
0
0
0
0
0
0
0
0
0
0
0
0
0
0
0
0
0
0
0
0
0
0
0
0
0
0
0
0
0
0
0
0
0
0
0
0
0
0
0
0
0
0
0
0
0
0
0
0
0
0
0
0
0
0
0
0
0
0
0
0
0
0
0
0
0
0
0
0
0
0
0
0
0
0
0
0
0
0
0
0
0
0
0
0
0
0
0
0
0
0
0
0
0
0
0
0
0
0
0
0
0
0
0
0
0
0
0
0
0
0
0
0
0
0
0
0
0
0
0
0
0
0
0
0
0
0
0
0
0
0
0
0
0
0
0
0
0
0
0
0
0
0
0
0
0
0
0
0
0
0
0
0
0
0
0
0
0
0
0
0
0
0
0
0
0
0
0
0
0
0
0
0
0
0
0
0
0
0
0
0
0
0
0
0
0
0
0
0
0
0
0
0
0
0
0
0
0
0
0
0
0
0
0
0
0
0
0
0
0
0
0
0
0
0
0
0
0
0
0
0
0
0
0
0
0
0
0
0
0
0
0
0
0
0
0
0
0
0
0
0
0
0
0
0
0
0
0
0
0
0
0
0
0
0
0
0
0
0
0
0
0
0
0
0
0
0
0
0
0
0
0
0
0
0
0
0
0
0
0
0
0
0
0
0
0
0
0
0
0
0
0
0
0
0
0
0
0
0
0
0
0
0
0
0
0
0
0
0
0
0
0
0
0
0
0
0
0
0
0
0
0
0
0
0
0
0
0
0
0
0
0
0
0
0
0
0
0
0
0
0
0
0
0
0
0
0
0
0
0
0
0
0
0
0
0
0
0
0
0
0
0
0
0
0
0
0
0
0
0
0
0
0
0
0
0
0
0
0
0
0
0
0
0
0
0
0
0
0
0
0
0
0
0
0
0
0
0
0
0
0
0
0
0
0
0
0
0
0
0
0
0
0
0
0
0
0
0
0
0
0
0
0
0
0
0
0
0
0
0
0
0
0
0
0
0
0
0
0
0
0
0
0
0
0
0
0
0
0
0
0
0
0
0
0
0
0
0
0
0
0
0
0
0
0
0
0
0
0
0
0
0
0
0
0
0
0
0
0
0
0
0
0
0
0
0
0
0
0
0
0
0
0
0
0
0
0
0
0
0
0
0
0
0
0
0
0
0
0
0
0
0
0
0
0
0
0
0
0
0
0
0
0
0
0
0
0
0
0
0
0
0
0
0
0
0
0
0
0
0
0
0
0
0
0
0
0
0
0
0
0
0
0
0
0
0
0
0
0
0
0
0
0
0
0
0
0
0
0
0
0
0
0
0
0
0
0
0
0
0
0
0
0
0
0
0
0
0
0
0
0
0
0
0
0
0
0
0
0
0
0
0
0
0
0
0
0
0
0
0
0
0
0
0
0
0
0
0
0
0
0
0
0
0
0
0
0
0
0
0
0
0
0
0
0
0
0
0
0
0
0
0
0
0
0
0
0
0
0
0
0
0
0
0
0
0
0
0
0
0
0
0
0
0
0
0
0
0
0
0
0
0
0
0
0
0
0
0
0
0
0
0
0
0
0
0
0
0
0
0
0
0
0
0
0
0
0
0
0
0
0
0
0
0
0
0
0
0
0
0
0
0
0
0
0
0
0
0
0
0
0
0
0
0
0
0
0
0
0
0
0
0
0
0
0
0
0
0
0
0
0
0
0
0
0
0
0
0
0
0
0
0
0
0
0
0
0
0
0
0
0
0
0
0
0
0
0
0
0
0
0
0
0
0
0
0
0
0
0
0
0
0
0
0
0
0
0
0
0
0
0
0
0
0
0
0
0
0
0
0
0
0
0
0
0
0
0
0
0
0
0
0
0
0
0
0
0
0
0
0
0
0
0
0
0
0
0
0
0
0
0
0
0
0
0
0
0
0
0
0
0
0
0
0
0
0
0
0
0
0
0
0
0
0
0
0
0
0
0
0
0
0
0
0
0
0
0
0
0
0
0
0
0
0
0
0
0
0
0
0
0
0
0
0
0
0
0
0
0
0
0
0
0
0
0
0
0
0
0
0
0
0
0
0
0
0
0
0
0
0
0
0
0
0
0
0
0
0
0
0
0
0
0
0
0
0
0
0
0
0
0
0
0
0
0
0
0
0
0
0
0
0
0
0
0
0
0
0
0
0
0
0
0
0
0
0
0
0
0
0
0
0
0
0
0
0
0
0
0
0
0
0
0
0
0
0
0
0
0
0
0
0
0
0
0
0
0
0
0
0
0
0
0
0
0
0
0
0
0
0
0
0
0
0
0
0
0
0
0
0
0
0
0
0
0
0
0
0
0
0
0
0
0
0
0
0
0
0
0
0
0
0
0
0
0
0
0
0
0
0
0
0
0
0
0
0
0
0
0
0
0
0
0
0
0
0
0
0
0
0
0
0
0
0
0
0
0
0
0
0
0
0
0
0
0
0
0
0
0
0
0
0
0
0
0
0
0
0
0
0
0
0
0
0
0
0
0
0
0
0
0
0
0
0
0
0
0
0
0
0
0
0
0
0
0
0
0
0
0
0
0
0
0
0
0
0
0
0
0
0
0
0
0
0
0
0
0
0
0
0
0
0
0
0
0
0
0
0
0
0
0
0
0
0
0
0
0
0
0
0
0
0
0
0
0
0
0
0
0
0
0
0
0
0
0
0
0
0
0
0
0
0
0
0
0
0
0
0
0
0
0
0
0
0
0
0
0
0
0
0
0
0
0
0
0
0
0
0
0
0
0
0
0
0
0
0
0
0
0
0
0
0
0
0
0
0
0
0
0
0
0
0
0
0
0
0
0
0
0
0
0
0
0
0
0
0
0
0
0
0
0
0
0
0
0
0
0
0
0
0
0
0
0
0
0
0
0
0
0
0
0
0
0
0
0
0
0
0
0
0
0
0
0
0
0
0
0
0
0
0
0
0
0
0
0
0
0
0
0
0
0
0
0
0
0
0
0
0
0
0
0
0
0
0
0
0
0
0
0
0
0
0
0
0
0
0
0
0
0
0
0
0
0
0
0
0
0
0
0
0
0
0
0
0
0
0
0
0
0
0
0
0
0
0
0
0
0
0
0
0
0
0
0
0
0
0
0
0
0
0
0
0
0
0
0
0
0
0
0
0
0
0
0
0
0
0
0
0
0
0
0
0
0
0
0
0
0
0
0
0
0
0
0
0
0
0
0
0
0
0
0
0
0
0
0
0
0
0
0
0
0
0
0
0
0
0
0
0
0
0
0
0
0
0
0
0
0
0
0
0
0
0
0
0
0
0
0
0
0
0
0
0
0
0
0
0
0
0
0
0
0
0
0
0
0
0
0
0
0
0
0
0
0
0
0
0
0
0
0
0
0
0
0
0
0
0
0
0
0
0
0
0
0
0
0
0
0
0
0
0
0
0
0
0
0
0
0
0
0
0
0
0
0
0
0
0
0
0
0
0
0
0
0
0
0
0
0
0
0
0
0
0
0
0
0
0
0
0
0
0
0
0
0
0
0
0
0
0
0
0
0
0
0
0
0
0
0
0
0
0
0
0
0
0
0
0
0
0
0
0
0
0
0
0
0
0
0
0
0
0
0
0
0
0
0
0
0
0
0
0
0
0
0
0
0
0
0
0
0
0
0
0
0
0
0
0
0
0
0
0
0
0
0
0
0
0
0
0
0
0
0
0
0
0
0
0
0
0
0
0
0
0
0
0
0
0
0
0
0
0
0
0
0
0
0
0
0
0
0
0
0
0
0
0
0
0
0
0
0
0
0
0
0
0
0
0
0
0
0
0
0
0
0
0
0
0
0
0
0
0
0
0
0
0
0
0
0
0
0
0
0
0
0
0
0
0
0
0
0
0
0
0
0
0
0
0
0
0
0
0
0
0
0
0
0
0
0
0
0
0
0
0
0
0
0
0
0
0
0
0
0
0
0
0
0
0
0
0
2.0998409e-297
0
1.98013035e-290
0
9.62463915e-284
0
2.41305061e-277
0
3.12494077e-271
0
2.09591832e-265
0
7.31792035e-260
0
1.17549858e-255
0
9.91652852e-252
0
5.78565211e-248
0
2.61561808e-244
0
9.74610973e-241
0
3.11039334e-237
0
8.72645188e-234
0
2.19290882e-230
0
5.00551078e-227
0
1.04912979e-223
0
2.03657481e-220
0
3.68714843e-217
0
6.2617639e-214
0
1.00231954e-210
0
1.51839888e-207
0
2.1844711e-204
0
2.99357768e-201
0
3.91788056e-198
0
4.9081669e-195
0
5.89748818e-192
0
6.80872573e-189
0
7.56485858e-186
0
8.09996134e-183
0
8.36871367e-180
0
8.35253331e-177
0
8.0612428e-174
0
7.5302035e-171
0
6.81380847e-168
0
5.97687555e-165
3.41409046e-167
5.08569914e-162
1.72440346e-163
4.20031469e-159
2.53572144e-160
3.36902543e-156
2.87400962e-157
2.6256138e-153
2.85935416e-154
1.98908076e-150
2.61208816e-151
1.46534421e-147
2.2377641e-148
1.05013306e-144
1.81893009e-145
7.32319433e-142
1.41288498e-142
4.97079432e-139
1.0537666e-139
3.28489664e-136
7.57116103e-137
2.1138537e-133
5.25290457e-134
1.3248223e-130
3.5255741e-131
8.08775623e-128
2.29214902e-128
4.80984276e-125
1.44508434e-125
2.78674696e-122
8.84166537e-123
1.57306402e-119
5.25339181e-120
8.65133059e-117
3.03264514e-117
4.63553215e-114
1.7015275e-114
2.41978088e-111
9.28128028e-112
1.23049173e-108
4.92273931e-109
6.09481729e-106
2.53910895e-106
2.94009563e-103
1.27364165e-103
1.38104022e-100
6.21288403e-101
6.31547449e-98
2.94701628e-98
2.81096741e-95
1.35910829e-95
1.21740503e-92
6.09288841e-93
5.12868589e-90
2.65449668e-90
2.100937e-87
1.12356913e-87
8.36528448e-85
4.6187153e-85
3.23603492e-82
1.84317695e-82
1.21560381e-79
7.13727425e-80
4.43174172e-77
2.68031163e-77
1.56707898e-74
9.75584471e-75
5.37084566e-72
3.43937151e-72
1.78278458e-69
1.1735508e-69
5.72654675e-67
3.87230868e-67
1.77835318e-64
1.23446476e-64
5.33363602e-62
3.79819627e-62
1.54314757e-59
1.12658425e-59
4.30141893e-57
3.21718865e-57
1.15348635e-54
8.83259254e-55
2.97105561e-52
2.32752414e-52
7.33703897e-50
5.8762625e-50
1.73362392e-47
1.41844372e-47
3.91025526e-45
3.26593579e-45
8.39692679e-43
7.1535734e-43
1.71150007e-40
1.48599921e-40
3.29944172e-38
2.91703421e-38
5.99123465e-36
5.38860216e-36
1.01972491e-33
9.32130633e-34
1.61734067e-31
1.50098603e-31
2.37349517e-29
2.23387852e-29
3.19472366e-27
3.0456202e-27
3.90056375e-25
3.76156731e-25
4.25834105e-23
4.14816281e-23
4.07782809e-21
4.00648618e-21
3.33443412e-19
3.29856481e-19
2.23713949e-17
2.22910319e-17
1.15438902e-15
1.1158748e-15
3.3720892e-12
3.64576232e-12
0.100844265
0.256133767
0.693883199
0.616390704
0.107607862
0.0884498464
0.010464147
0.00966485654
0.00119495341
0.00117002778
0.000122234558
0.000122767448
1.19529372e-05
1.19713397e-05
1.62153263e-06
1.62372165e-06
7.55779937e-07
7.55887627e-07
6.89568134e-07
6.89603497e-07
6.84936114e-07
6.84942563e-07
6.84639465e-07
6.84640014e-07
6.84621276e-07
6.84621902e-07
6.84619834e-07
6.8462076e-07
6.84619395e-07
6.84620611e-07
6.84619509e-07
6.84620056e-07
6.84619696e-07
6.84621265e-07
6.84618668e-07
6.84620589e-07
6.84619927e-07
6.84619605e-07
6.8462006e-07
6.84619789e-07
6.84620543e-07
6.84619463e-07
6.84620831e-07
6.84619043e-07
6.8462065e-07
6.84619438e-07
6.84620716e-07
6.84619765e-07
6.84620797e-07
6.84619302e-07
6.84620358e-07
6.84619966e-07
6.84620183e-07
6.84620186e-07
6.84620118e-07
6.84619872e-07
6.84619541e-07
6.84620291e-07
6.84620375e-07
6.84619213e-07
6.84620019e-07
6.84620225e-07
6.84620022e-07
6.84619329e-07
6.84620151e-07
6.84619254e-07
6.84620582e-07
6.84619426e-07
6.84620066e-07
6.8461889e-07
6.84620928e-07
6.84618385e-07
6.84620545e-07
6.8461992e-07
6.846192e-07
6.84620944e-07
6.8461941e-07
6.84620227e-07
6.84620571e-07
6.84620357e-07
6.84620244e-07
6.84619987e-07
6.8462036e-07
6.84620161e-07
6.846204e-07
6.84619898e-07
6.84620115e-07
6.84620275e-07
6.8462001e-07
6.84619982e-07
6.84620394e-07
6.84620349e-07
6.84619704e-07
6.8462134e-07
6.84620252e-07
6.84620401e-07
6.84619976e-07
6.84620692e-07
6.84620777e-07
6.84619843e-07
6.84620871e-07
6.84620172e-07
6.84620867e-07
6.84620237e-07
6.84620016e-07
6.84619925e-07
6.84619896e-07
6.84621374e-07
6.84619641e-07
6.84619605e-07
6.84620774e-07
6.84618949e-07
6.84620738e-07
6.84619447e-07
6.84620191e-07
6.84620214e-07
6.84620376e-07
6.8462025e-07
6.84620089e-07
6.84620748e-07
6.8462025e-07
6.84620271e-07
6.84619943e-07
6.84620476e-07
6.8462041e-07
6.84619625e-07
6.8462038e-07
6.84619731e-07
6.84620931e-07
6.84620174e-07
6.84620377e-07
6.84619973e-07
6.84621298e-07
6.84621477e-07
6.84620159e-07
6.84621109e-07
6.84620389e-07
6.84619825e-07
6.84620937e-07
6.84619779e-07
6.84621072e-07
6.84619989e-07
6.84620355e-07
6.84620177e-07
6.8462032e-07
6.84620929e-07
6.84619955e-07
6.84620877e-07
6.84620188e-07
6.84621311e-07
6.84620036e-07
6.84620871e-07
6.84620817e-07
6.84620467e-07
6.84620696e-07
6.84621056e-07
6.84620804e-07
6.84621177e-07
6.84619937e-07
6.84621008e-07
6.84620782e-07
6.84620485e-07
6.84620818e-07
6.84620235e-07
6.84621916e-07
6.84620557e-07
6.84621404e-07
6.84620417e-07
6.8462086e-07
6.84620298e-07
6.84620834e-07
6.84620011e-07
6.84620227e-07
6.84620601e-07
6.84619941e-07
6.84620923e-07
6.84620999e-07
6.84620839e-07
6.84620436e-07
6.84621752e-07
6.84621354e-07
6.84621737e-07
6.84620952e-07
6.84621587e-07
6.84620474e-07
6.84621464e-07
6.84620993e-07
6.84620615e-07
6.84621579e-07
6.84620665e-07
6.84620937e-07
6.84621475e-07
6.84620953e-07
6.84621628e-07
6.84621385e-07
6.84620457e-07
6.84621651e-07
6.84620559e-07
6.84621731e-07
6.84620111e-07
6.8462158e-07
6.84620595e-07
6.84620931e-07
6.84620926e-07
6.84620879e-07
6.84620779e-07
6.8462108e-07
6.84621311e-07
6.84621782e-07
6.84620753e-07
6.84622103e-07
6.84619874e-07
6.84622256e-07
6.84620911e-07
6.84621179e-07
6.84620936e-07
6.84620918e-07
6.84621277e-07
6.84621117e-07
6.84621589e-07
6.84620593e-07
6.84622367e-07
6.84620585e-07
6.84621104e-07
6.84621562e-07
6.84620646e-07
6.8462169e-07
6.84620896e-07
6.84621594e-07
6.84621023e-07
6.84621809e-07
6.84621009e-07
6.84622238e-07
6.84621447e-07
6.8462186e-07
6.84621123e-07
6.84621467e-07
6.84622124e-07
6.84620917e-07
6.84622336e-07
6.8462157e-07
6.84621344e-07
6.84621365e-07
6.84621171e-07
6.84621557e-07
6.84621745e-07
6.84621083e-07
6.84621181e-07
6.84621137e-07
6.84621036e-07
6.84621229e-07
6.84622311e-07
6.84621003e-07
6.84621857e-07
6.84620952e-07
6.84621748e-07
6.84621853e-07
6.84621596e-07
6.84622446e-07
6.84620716e-07
6.84622684e-07
6.84622087e-07
6.84622482e-07
6.84621302e-07
6.8462271e-07
6.84621412e-07
6.84621686e-07
6.84621174e-07
6.84621337e-07
6.84621345e-07
6.846221e-07
6.84621683e-07
6.84621939e-07
6.84623061e-07
6.84620985e-07
6.84622819e-07
6.84621465e-07
6.84622013e-07
6.84621729e-07
6.84621508e-07
6.84622413e-07
6.84620614e-07
6.84622332e-07
6.84621801e-07
6.84622705e-07
6.84621454e-07
6.84621684e-07
6.84621485e-07
6.8462178e-07
6.84622032e-07
6.84621604e-07
6.84621715e-07
6.84621633e-07
6.84621701e-07
6.84622012e-07
6.84621286e-07
6.84621908e-07
6.84622557e-07
6.84622876e-07
6.84621901e-07
6.84622478e-07
6.84621884e-07
6.84622036e-07
6.84622712e-07
6.8462188e-07
6.84622251e-07
6.84623049e-07
6.8462155e-07
6.84623181e-07
6.84622284e-07
6.8462255e-07
6.84622615e-07
6.84621539e-07
6.84623448e-07
6.846215e-07
6.8462311e-07
6.84623063e-07
6.84621397e-07
6.8462238e-07
6.84622361e-07
6.84622823e-07
6.84622824e-07
6.84622332e-07
6.84621803e-07
6.8462247e-07
6.84622641e-07
6.84622747e-07
6.84622677e-07
6.84622232e-07
6.84622492e-07
6.84622827e-07
6.84622859e-07
6.84621694e-07
6.84622089e-07
6.84622723e-07
6.8462165e-07
6.84623332e-07
6.84621556e-07
6.84623392e-07
6.84621893e-07
6.84622899e-07
6.84623002e-07
6.84622252e-07
6.84623331e-07
6.84622315e-07
6.84623308e-07
6.84622465e-07
6.84623153e-07
6.84622736e-07
6.84622786e-07
6.8462284e-07
6.84623342e-07
6.84622261e-07
6.84622205e-07
6.84623666e-07
6.84622369e-07
6.84623702e-07
6.84622145e-07
6.84623269e-07
6.84622974e-07
6.84622523e-07
6.84622463e-07
6.84623583e-07
6.84622434e-07
6.84622844e-07
6.84623431e-07
6.84623317e-07
6.84623898e-07
6.84622574e-07
6.84623532e-07
6.84623354e-07
6.84623574e-07
6.84623248e-07
6.8462367e-07
6.84622568e-07
6.84623477e-07
6.8462301e-07
6.84622659e-07
6.84623559e-07
6.84622609e-07
6.84623697e-07
6.84622664e-07
6.84623282e-07
6.84622991e-07
6.84623183e-07
6.84622279e-07
6.84623328e-07
6.84622907e-07
6.84622665e-07
6.84623245e-07
6.84623056e-07
6.84623315e-07
6.84623035e-07
6.84623336e-07
6.84622488e-07
6.84624118e-07
6.84623505e-07
6.84623472e-07
6.84623187e-07
6.84622847e-07
6.84623022e-07
6.84623411e-07
6.84622963e-07
6.84624226e-07
6.84622724e-07
6.84624121e-07
6.84621854e-07
6.84624184e-07
6.84623287e-07
6.84623637e-07
6.84623901e-07
6.84623766e-07
6.84623145e-07
6.84623018e-07
6.84623623e-07
6.84622864e-07
6.84623638e-07
6.84623464e-07
6.84622772e-07
6.84623435e-07
6.84623551e-07
6.84623083e-07
6.84623306e-07
6.84623527e-07
6.84624097e-07
6.84623176e-07
6.84623264e-07
6.84624193e-07
6.84622718e-07
6.84624674e-07
6.84623299e-07
6.84624235e-07
6.84623502e-07
6.846239e-07
6.84623785e-07
6.84624061e-07
6.84623413e-07
6.84624652e-07
6.84623531e-07
6.84623746e-07
6.84623474e-07
6.84623414e-07
6.84623232e-07
6.84622957e-07
6.84624114e-07
6.84623531e-07
6.84623725e-07
6.8462404e-07
6.84623671e-07
6.84624297e-07
6.84622963e-07
6.84623541e-07
6.84623828e-07
6.84622965e-07
6.84624097e-07
6.84623651e-07
6.84623528e-07
6.84623358e-07
6.84623765e-07
6.84623507e-07
6.8462323e-07
6.84623756e-07
6.8462363e-07
6.84623179e-07
6.84623067e-07
6.84623478e-07
6.84624388e-07
6.84623006e-07
6.84624184e-07
6.8462363e-07
6.84623739e-07
6.84623432e-07
6.84623275e-07
6.84624257e-07
6.84622727e-07
6.84624238e-07
6.84623544e-07
6.84623779e-07
6.84622916e-07
6.8462353e-07
6.84623072e-07
6.84623481e-07
6.84623428e-07
6.84623369e-07
6.84623378e-07
6.84623265e-07
6.84623996e-07
6.84623351e-07
6.84623786e-07
6.84623211e-07
6.84623377e-07
6.8462448e-07
6.84623352e-07
6.84623686e-07
6.84624349e-07
6.84622806e-07
6.84624036e-07
6.84622984e-07
6.84624407e-07
6.8462282e-07
6.84624481e-07
6.84622436e-07
6.84623804e-07
6.8462339e-07
6.84623266e-07
6.84624189e-07
6.84623805e-07
6.8462367e-07
6.84623518e-07
6.84623266e-07
6.84623905e-07
6.8462335e-07
6.84623678e-07
6.84623569e-07
6.84623835e-07
6.84623713e-07
6.84623488e-07
6.84623548e-07
6.84623591e-07
6.84623429e-07
6.8462357e-07
6.84623603e-07
6.84623598e-07
6.84623529e-07
6.84623525e-07
6.84623483e-07
6.84623551e-07
6.84623567e-07
6.84623541e-07
6.84623588e-07
6.84623541e-07
6.8462356e-07
6.84623563e-07
6.84623544e-07
6.84623585e-07
6.84623569e-07
6.84623534e-07
6.8462354e-07
6.84623566e-07
6.84623563e-07
6.84623564e-07
6.8462356e-07
6.84623561e-07
6.84623562e-07
6.8462356e-07
6.84623559e-07
6.84623565e-07
6.84623541e-07
6.84623566e-07
6.84623549e-07
6.84623553e-07
6.84623556e-07
6.84623558e-07
6.84623554e-07
6.84623569e-07
6.84623554e-07
6.84623559e-07
6.84623546e-07
6.84623547e-07
6.84623564e-07
6.84623559e-07
6.84623562e-07
6.8462356e-07
6.84623543e-07
6.8462356e-07
6.8462356e-07
6.84623557e-07
6.84623566e-07
6.84623551e-07
6.84623571e-07
6.84623554e-07
6.84623566e-07
6.84623553e-07
6.84623554e-07
6.84623568e-07
6.8462355e-07
6.84623551e-07
6.84623563e-07
)
;

boundaryField
{
    closed
    {
        type            calculated;
        value           uniform 0;
    }
    open
    {
        type            calculated;
        value           uniform 0;
    }
    sides
    {
        type            empty;
    }
}


// ************************************************************************* //
