/*--------------------------------*- C++ -*----------------------------------*\
| =========                 |                                                 |
| \\      /  F ield         | OpenFOAM: The Open Source CFD Toolbox           |
|  \\    /   O peration     | Version:  2206                                  |
|   \\  /    A nd           | Website:  www.openfoam.com                      |
|    \\/     M anipulation  |                                                 |
\*---------------------------------------------------------------------------*/
FoamFile
{
    version     2.0;
    format      ascii;
    arch        "LSB;label=32;scalar=64";
    class       volScalarField;
    location    "6e-06";
    object      sourcePV;
}
// * * * * * * * * * * * * * * * * * * * * * * * * * * * * * * * * * * * * * //

dimensions      [1 -3 -1 0 0 0 0];

internalField   nonuniform List<scalar> 
3183
(
0
0
0
0
0
0
0
0
0
0
0
0
0
0
0
0
0
0
0
0
0
0
0
0
0
0
0
0
0
0
0
0
0
0
0
0
0
0
0
0
0
0
0
0
0
0
0
0
0
0
0
0
0
0
0
0
0
0
0
0
0
0
0
0
0
0
0
0
0
0
0
0
0
0
0
0
0
0
0
0
0
0
0
0
0
0
0
0
0
0
0
0
0
0
0
0
0
0
0
0
0
0
0
0
0
0
0
0
0
0
0
0
0
0
0
0
0
0
0
0
0
0
0
0
0
0
0
0
0
0
0
0
0
0
0
0
0
0
0
0
0
0
0
0
0
0
0
0
0
0
0
0
0
0
0
0
0
0
0
0
0
0
0
0
0
0
0
0
0
0
0
0
0
0
0
0
0
0
0
0
0
0
0
0
0
0
0
0
0
0
0
0
0
0
0
0
0
0
0
0
0
0
0
0
0
0
0
0
0
0
0
0
0
0
0
0
0
0
0
0
0
0
0
0
0
0
0
0
0
0
0
0
0
0
0
0
0
0
0
0
0
0
0
0
0
0
0
0
0
0
0
0
0
0
0
0
0
0
0
0
0
0
0
0
0
0
0
0
0
0
0
0
0
0
0
0
0
0
0
0
0
0
0
0
0
0
0
0
0
0
0
0
0
0
0
0
0
0
0
0
0
0
0
0
0
0
0
0
0
0
0
0
0
0
0
0
0
0
0
0
0
0
0
0
0
0
0
0
0
0
0
0
0
0
0
0
0
0
0
0
0
0
0
0
0
0
0
0
0
0
0
0
0
0
0
0
0
0
0
0
0
0
0
0
0
0
0
0
0
0
0
0
0
0
0
0
0
0
0
0
0
0
0
0
0
0
0
0
0
0
0
0
0
0
0
0
0
0
0
0
0
0
0
0
0
0
0
0
0
0
0
0
0
0
0
0
0
0
0
0
0
0
0
0
0
0
0
0
0
0
0
0
0
0
0
0
0
0
0
0
0
0
0
0
0
0
0
0
0
0
0
0
0
0
0
0
0
0
0
0
0
0
0
0
0
0
0
0
0
0
0
0
0
0
0
0
0
0
0
0
0
0
0
0
0
0
0
0
0
0
0
0
0
0
0
0
0
0
0
0
0
0
0
0
0
0
0
0
0
0
0
0
0
0
0
0
0
0
0
0
0
0
0
0
0
0
0
0
0
0
0
0
0
0
0
0
0
0
0
0
0
0
0
0
0
0
0
0
0
0
0
0
0
0
0
0
0
0
0
0
0
0
0
0
0
0
0
0
0
0
0
0
0
0
0
0
0
0
0
0
0
0
0
0
0
0
0
0
0
0
0
0
0
0
0
0
0
0
0
0
0
0
0
0
0
0
0
0
0
0
0
0
0
0
0
0
0
0
0
0
0
0
0
0
0
0
0
0
0
0
0
0
0
0
0
0
0
0
0
0
0
0
0
0
0
0
0
0
0
0
0
0
0
0
0
0
0
0
0
0
0
0
0
0
0
0
0
0
0
0
0
0
0
0
0
0
0
0
0
0
0
0
0
0
0
0
0
0
0
0
0
0
0
0
0
0
0
0
0
0
0
0
0
0
0
0
0
0
0
0
0
0
0
0
0
0
0
0
0
0
0
0
0
0
0
0
0
0
0
0
0
0
0
0
0
0
0
0
0
0
0
0
0
0
0
0
0
0
0
0
0
0
0
0
0
0
0
0
0
0
0
0
0
0
0
0
0
0
0
0
0
0
0
0
0
0
0
0
0
0
0
0
0
0
0
0
0
0
0
0
0
0
0
0
0
0
0
0
0
0
0
0
0
0
0
0
0
0
0
0
0
0
0
0
0
0
0
0
0
0
0
0
0
0
0
0
0
0
0
0
0
0
0
0
0
0
0
0
0
0
0
0
0
0
0
0
0
0
0
0
0
0
0
0
0
0
0
0
0
0
0
0
0
0
0
0
0
0
0
0
0
0
0
0
0
0
0
0
0
0
0
0
0
0
0
0
0
0
0
0
0
0
0
0
0
0
0
0
0
0
0
0
0
0
0
0
0
0
0
0
0
0
0
0
0
0
0
0
0
0
0
0
0
0
0
0
0
0
0
0
0
0
0
0
0
0
0
0
0
0
0
0
0
0
0
0
0
0
0
0
0
0
0
0
0
0
0
0
0
0
0
0
0
0
0
0
0
0
0
0
0
0
0
0
0
0
0
0
0
0
0
0
0
0
0
0
0
0
0
0
0
0
0
0
0
0
0
0
0
0
0
0
0
0
0
0
0
0
0
0
0
0
0
0
0
0
0
0
0
0
0
0
0
0
0
0
0
0
0
0
0
0
0
0
0
0
0
0
0
0
0
0
0
0
0
0
0
0
0
0
0
0
0
0
0
0
0
0
0
0
0
0
0
0
0
0
0
0
0
0
0
0
0
0
0
0
0
0
0
0
0
0
0
0
0
0
0
0
0
0
0
0
0
0
0
0
0
0
0
0
0
0
0
0
0
0
0
0
0
0
0
0
0
0
0
0
0
0
0
0
0
0
0
0
0
0
0
0
0
0
0
0
0
0
0
0
0
0
0
0
0
0
0
0
0
0
0
0
0
0
0
0
0
0
0
0
0
0
0
0
0
0
0
0
0
0
0
0
0
0
0
0
0
0
0
0
0
0
0
0
0
0
0
0
0
0
0
0
0
0
0
0
0
0
0
0
0
0
0
0
0
0
0
0
0
0
0
0
0
0
0
0
0
0
0
0
0
0
0
0
0
0
0
0
0
0
0
0
0
0
0
0
0
0
0
0
0
0
0
0
0
0
0
0
0
0
0
0
0
0
0
0
0
0
0
0
0
0
0
0
0
0
0
0
0
0
0
0
0
0
0
0
0
0
0
0
0
0
0
0
0
0
0
0
0
0
0
0
0
0
0
0
0
0
0
0
0
0
0
0
0
0
0
0
0
0
0
0
0
0
0
0
0
0
0
0
0
0
0
0
0
0
0
0
0
0
0
0
0
0
0
0
0
0
0
0
0
0
0
0
0
0
0
0
0
0
0
0
0
0
0
0
0
0
0
0
0
0
0
0
0
0
0
0
0
0
0
0
0
0
0
0
0
0
0
0
0
0
0
0
0
0
0
0
0
0
0
0
0
0
0
0
0
0
0
0
0
0
0
0
0
0
0
0
0
0
0
0
0
0
0
0
0
0
0
0
0
0
0
0
0
0
0
0
0
0
0
0
0
0
0
0
0
0
0
0
0
0
0
0
0
0
0
0
0
0
0
0
0
0
0
0
0
0
0
0
0
0
0
0
0
0
0
0
0
0
0
0
0
0
0
0
0
0
0
0
0
0
0
0
0
0
0
0
0
0
0
0
0
0
0
0
0
0
0
0
0
0
0
0
0
0
0
0
0
0
0
0
0
0
0
0
0
0
0
0
0
0
0
0
0
0
0
0
0
0
0
0
0
0
0
0
0
0
0
0
0
0
0
0
0
0
0
0
0
0
0
0
0
0
0
0
0
0
0
0
0
0
0
0
0
0
0
0
0
0
0
0
0
0
0
0
0
0
0
0
0
0
0
0
0
0
0
0
0
0
0
0
0
0
0
0
0
0
0
0
0
0
0
0
0
0
0
0
0
0
0
0
0
0
0
0
0
0
0
0
0
0
0
0
0
0
0
0
0
0
0
0
0
0
0
0
0
0
0
0
0
0
0
0
0
0
0
0
0
0
0
0
0
0
0
0
0
0
0
0
0
0
0
0
0
0
0
0
0
0
0
0
0
0
0
0
0
0
0
0
0
0
0
0
0
0
0
0
0
0
0
0
0
0
0
0
0
0
0
0
0
0
0
0
0
0
0
0
0
0
0
0
0
0
0
0
0
0
0
0
0
0
0
0
0
0
0
0
0
0
0
0
0
0
0
0
0
0
0
0
0
0
0
0
0
0
0
0
0
0
0
0
0
0
0
0
0
0
0
0
0
0
0
0
0
0
0
0
0
0
0
0
0
0
0
0
0
0
0
0
0
0
0
0
0
0
0
0
0
0
0
0
0
0
0
0
0
0
0
0
0
0
0
0
0
0
0
0
0
0
0
0
0
0
0
0
0
0
0
0
0
0
0
0
0
0
0
0
0
0
0
0
0
0
0
0
0
0
0
0
0
0
0
0
0
0
0
0
0
0
0
0
0
0
0
0
0
0
0
0
0
0
0
0
0
0
0
0
0
0
0
0
0
0
0
0
0
0
0
0
0
0
0
0
0
0
0
0
0
0
0
0
0
0
0
0
0
0
0
0
0
0
0
0
0
0
0
0
0
0
0
0
0
0
0
0
0
0
0
0
0
0
0
0
0
0
0
0
0
0
0
0
0
0
0
0
0
0
0
0
0
0
0
0
0
0
0
0
0
0
0
0
0
0
0
0
0
0
0
0
0
0
0
0
0
0
0
0
0
0
0
0
0
0
0
0
0
0
0
0
0
0
0
0
0
0
0
0
0
0
0
0
0
0
0
0
0
0
0
0
0
0
0
0
0
0
0
0
0
0
0
0
0
0
0
0
0
0
0
0
0
0
0
0
0
0
0
0
0
0
0
0
0
0
0
0
0
0
0
0
0
0
0
0
0
0
0
0
0
0
0
0
0
0
0
0
0
0
0
0
0
0
0
0
0
0
0
0
0
0
0
0
0
0
0
0
0
0
0
0
0
0
0
0
0
0
0
0
0
0
0
0
0
0
0
0
0
0
0
0
0
0
0
0
0
0
0
0
0
0
0
0
0
0
0
0
0
0
0
0
0
0
0
0
0
0
0
0
0
0
0
0
0
0
0
0
0
0
0
0
0
0
0
0
0
0
0
0
0
0
0
0
0
0
0
0
0
0
0
0
0
0
0
0
0
0
0
0
0
0
0
0
0
0
0
0
0
0
0
0
0
0
0
0
0
0
0
0
0
0
0
0
0
0
0
0
0
0
0
0
0
0
0
0
0
0
0
0
0
0
0
0
0
0
0
0
0
0
0
0
0
0
0
0
0
0
0
0
0
0
0
0
0
0
0
0
0
0
0
0
0
0
0
0
0
0
0
0
0
0
0
0
0
0
0
0
0
0
0
0
0
0
0
0
0
0
0
0
0
0
0
0
0
0
0
0
0
0
0
0
0
0
0
0
0
0
0
0
0
0
0
0
0
0
0
0
0
0
0
0
0
0
0
0
0
0
0
0
0
0
0
0
0
0
0
0
0
0
0
0
0
0
0
0
0
0
0
0
0
0
0
0
0
0
0
0
0
0
0
0
0
0
0
0
0
0
0
0
0
0
0
0
0
0
0
0
0
0
0
0
0
0
0
0
0
0
0
0
0
0
0
0
0
0
0
0
0
0
0
0
0
0
0
0
0
0
0
0
0
0
0
0
0
0
0
0
0
0
0
0
0
0
0
0
0
0
0
0
0
0
0
0
0
0
0
0
0
3.66611122e-294
0
3.45710862e-287
0
1.68036529e-280
0
4.2129439e-274
0
5.45583259e-268
0
3.65926279e-262
0
1.27763536e-256
0
2.05230241e-252
0
1.73132624e-248
0
1.01011672e-244
0
4.56660635e-241
0
1.70157283e-237
0
5.43043423e-234
0
1.52355081e-230
0
3.82859846e-227
0
8.73911886e-224
0
1.83167519e-220
0
3.55565497e-217
0
6.43739068e-214
0
1.09324106e-210
0
1.74994921e-207
0
2.65097187e-204
0
3.81386703e-201
0
5.22648583e-198
0
6.84022578e-195
0
8.56916623e-192
0
1.02964218e-188
0
1.1887351e-185
0
1.3207483e-182
0
1.41417186e-179
0
1.46109332e-176
0
1.45826839e-173
0
1.40741199e-170
0
1.31469787e-167
0
1.18962249e-164
0
1.04350241e-161
5.96065888e-164
8.87911968e-159
3.01063516e-160
7.3333274e-156
4.42711484e-157
5.88197987e-153
5.01773202e-154
4.58405787e-150
4.99214505e-151
3.47273515e-147
4.56044346e-148
2.55834375e-144
3.90691126e-145
1.8334268e-141
3.17566918e-142
1.27855615e-138
2.4667552e-139
8.67850742e-136
1.83977061e-136
5.73509946e-133
1.32184864e-133
3.69057616e-130
9.17104356e-131
2.31300661e-127
6.15529813e-128
1.41204097e-124
4.00186187e-125
8.39750216e-122
2.52297206e-122
4.86538018e-119
1.54366593e-119
2.74641172e-116
9.17189423e-117
1.51043539e-113
5.29469369e-114
8.09317336e-111
2.97069604e-111
4.22469427e-108
1.62041828e-108
2.14831492e-105
8.59460819e-106
1.06409386e-102
4.43302909e-103
5.13311154e-100
2.22365034e-100
2.41115745e-97
1.08470712e-97
1.10261839e-94
5.1451943e-95
4.90766665e-92
2.3728665e-92
2.12546685e-89
1.06375709e-89
8.95417023e-87
4.63448447e-87
3.6680249e-84
1.9616388e-84
1.46049462e-81
8.06381283e-82
5.64979181e-79
3.21800174e-79
2.12232211e-76
1.24609637e-76
7.73737574e-74
4.67955478e-74
2.73596243e-71
1.70327246e-71
9.37695686e-69
6.00479706e-69
3.11256274e-66
2.04890178e-66
9.99797522e-64
6.76066186e-64
3.10482596e-61
2.15525142e-61
9.31199257e-59
6.63126904e-59
2.69418061e-56
1.9669029e-56
7.50984524e-54
5.61688811e-54
2.01387126e-51
1.54208191e-51
5.18716457e-49
4.06362327e-49
1.28097328e-46
1.02593639e-46
3.02673317e-44
2.4764602e-44
6.82691278e-42
5.70199573e-42
1.46601904e-39
1.24894204e-39
2.98810715e-37
2.59440531e-37
5.76049371e-35
5.09284862e-35
1.04600937e-32
9.40795792e-33
1.78033723e-30
1.62740642e-30
2.8237143e-28
2.62057079e-28
4.14388408e-26
3.90012744e-26
5.5776665e-24
5.31734685e-24
6.80999237e-22
6.56731856e-22
7.4346356e-20
7.24227545e-20
7.1194781e-18
6.9949223e-18
5.82158692e-16
5.75896272e-16
3.90582077e-14
3.89179019e-14
2.01544723e-12
1.94820527e-12
9.24409609e-10
9.80068047e-10
1.84055752
4.21904486
8.81458566
7.706254
1.27358107
1.04527756
0.122902772
0.113515001
0.0140348803
0.0137421255
0.00143565698
0.00144191585
0.000140384909
0.000140601049
1.90412106e-05
1.90669209e-05
8.87283189e-06
8.87409673e-06
8.0951656e-06
8.09558094e-06
8.04076192e-06
8.04083766e-06
8.03727774e-06
8.03728418e-06
8.03706411e-06
8.03707146e-06
8.03704717e-06
8.03705804e-06
8.03704202e-06
8.03705629e-06
8.03704335e-06
8.03704978e-06
8.03704554e-06
8.03706398e-06
8.03703347e-06
8.03705604e-06
8.03704826e-06
8.03704448e-06
8.03704982e-06
8.03704664e-06
8.0370555e-06
8.03704281e-06
8.03705888e-06
8.03703788e-06
8.03705675e-06
8.03704251e-06
8.03705753e-06
8.03704636e-06
8.03705847e-06
8.03704093e-06
8.03705333e-06
8.03704872e-06
8.03705127e-06
8.0370513e-06
8.0370505e-06
8.03704762e-06
8.03704373e-06
8.03705253e-06
8.03705352e-06
8.03703988e-06
8.03704935e-06
8.03705176e-06
8.03704938e-06
8.03704123e-06
8.03705089e-06
8.03704035e-06
8.03705595e-06
8.03704238e-06
8.0370499e-06
8.03703609e-06
8.03706002e-06
8.03703015e-06
8.03705552e-06
8.03704818e-06
8.03703972e-06
8.03706021e-06
8.03704219e-06
8.03705178e-06
8.03705583e-06
8.03705331e-06
8.03705198e-06
8.03704896e-06
8.03705335e-06
8.03705101e-06
8.03705381e-06
8.03704792e-06
8.03705047e-06
8.03705235e-06
8.03704924e-06
8.03704891e-06
8.03705375e-06
8.03705322e-06
8.03704564e-06
8.03706486e-06
8.03705208e-06
8.03705383e-06
8.03704884e-06
8.03705725e-06
8.03705824e-06
8.03704727e-06
8.03705935e-06
8.03705114e-06
8.0370593e-06
8.03705191e-06
8.0370493e-06
8.03704823e-06
8.03704789e-06
8.03706525e-06
8.03704491e-06
8.03704448e-06
8.03705821e-06
8.03703677e-06
8.03705779e-06
8.03704262e-06
8.03705136e-06
8.03705163e-06
8.03705354e-06
8.03705206e-06
8.03705016e-06
8.0370579e-06
8.03705206e-06
8.0370523e-06
8.03704845e-06
8.03705471e-06
8.03705393e-06
8.03704472e-06
8.03705358e-06
8.03704596e-06
8.03706005e-06
8.03705117e-06
8.03705355e-06
8.03704881e-06
8.03706436e-06
8.03706647e-06
8.03705099e-06
8.03706215e-06
8.03705369e-06
8.03704707e-06
8.03706013e-06
8.03704653e-06
8.03706171e-06
8.037049e-06
8.03705329e-06
8.0370512e-06
8.03705287e-06
8.03706003e-06
8.03704859e-06
8.03705942e-06
8.03705133e-06
8.03706452e-06
8.03704955e-06
8.03705934e-06
8.03705872e-06
8.03705461e-06
8.03705729e-06
8.03706153e-06
8.03705856e-06
8.03706294e-06
8.03704838e-06
8.03706096e-06
8.03705831e-06
8.03705482e-06
8.03705873e-06
8.03705188e-06
8.03707162e-06
8.03705566e-06
8.03706561e-06
8.03705402e-06
8.03705922e-06
8.03705262e-06
8.03705891e-06
8.03704925e-06
8.03705178e-06
8.03705618e-06
8.03704842e-06
8.03705996e-06
8.03706086e-06
8.03705897e-06
8.03705424e-06
8.0370697e-06
8.03706502e-06
8.03706952e-06
8.0370603e-06
8.03706776e-06
8.03705468e-06
8.03706631e-06
8.03706078e-06
8.03705635e-06
8.03706767e-06
8.03705693e-06
8.03706013e-06
8.03706644e-06
8.03706032e-06
8.03706824e-06
8.03706539e-06
8.03705448e-06
8.03706852e-06
8.03705568e-06
8.03706945e-06
8.03705043e-06
8.03706768e-06
8.03705611e-06
8.03706005e-06
8.03705999e-06
8.03705944e-06
8.03705826e-06
8.0370618e-06
8.03706451e-06
8.03707005e-06
8.03705797e-06
8.03707382e-06
8.03704764e-06
8.03707562e-06
8.03705982e-06
8.03706297e-06
8.03706012e-06
8.0370599e-06
8.03706412e-06
8.03706223e-06
8.03706778e-06
8.03705608e-06
8.03707692e-06
8.03705599e-06
8.03706209e-06
8.03706747e-06
8.03705671e-06
8.03706897e-06
8.03705964e-06
8.03706784e-06
8.03706113e-06
8.03707037e-06
8.03706097e-06
8.0370754e-06
8.03706611e-06
8.03707096e-06
8.03706231e-06
8.03706634e-06
8.03707407e-06
8.03705989e-06
8.03707655e-06
8.03706756e-06
8.0370649e-06
8.03706515e-06
8.03706287e-06
8.0370674e-06
8.03706962e-06
8.03706184e-06
8.03706299e-06
8.03706248e-06
8.03706128e-06
8.03706356e-06
8.03707626e-06
8.0370609e-06
8.03707093e-06
8.0370603e-06
8.03706965e-06
8.03707088e-06
8.03706786e-06
8.03707785e-06
8.03705753e-06
8.03708064e-06
8.03707363e-06
8.03707827e-06
8.03706442e-06
8.03708095e-06
8.03706571e-06
8.03706892e-06
8.03706291e-06
8.03706482e-06
8.03706491e-06
8.03707379e-06
8.03706889e-06
8.03707189e-06
8.03708507e-06
8.03706069e-06
8.03708223e-06
8.03706632e-06
8.03707276e-06
8.03706943e-06
8.03706683e-06
8.03707746e-06
8.03705634e-06
8.03707651e-06
8.03707027e-06
8.03708089e-06
8.0370662e-06
8.0370689e-06
8.03706656e-06
8.03707003e-06
8.03707298e-06
8.03706795e-06
8.03706926e-06
8.0370683e-06
8.0370691e-06
8.03707275e-06
8.03706423e-06
8.03707152e-06
8.03707915e-06
8.0370829e-06
8.03707145e-06
8.03707823e-06
8.03707125e-06
8.03707304e-06
8.03708097e-06
8.03707119e-06
8.03707556e-06
8.03708493e-06
8.03706733e-06
8.03708648e-06
8.03707595e-06
8.03707907e-06
8.03707984e-06
8.03706719e-06
8.03708961e-06
8.03706674e-06
8.03708564e-06
8.03708509e-06
8.03706553e-06
8.03707707e-06
8.03707685e-06
8.03708227e-06
8.03708228e-06
8.03707651e-06
8.03707029e-06
8.03707813e-06
8.03708013e-06
8.03708138e-06
8.03708056e-06
8.03707534e-06
8.03707839e-06
8.03708233e-06
8.0370827e-06
8.03706901e-06
8.03707365e-06
8.0370811e-06
8.03706849e-06
8.03708826e-06
8.03706739e-06
8.03708896e-06
8.03707135e-06
8.03708317e-06
8.03708438e-06
8.03707557e-06
8.03708825e-06
8.03707631e-06
8.03708797e-06
8.03707807e-06
8.03708615e-06
8.03708126e-06
8.03708184e-06
8.03708247e-06
8.03708837e-06
8.03707567e-06
8.03707502e-06
8.03709218e-06
8.03707695e-06
8.0370926e-06
8.03707431e-06
8.03708752e-06
8.03708405e-06
8.03707876e-06
8.03707805e-06
8.0370912e-06
8.03707771e-06
8.03708252e-06
8.03708942e-06
8.03708808e-06
8.0370949e-06
8.03707935e-06
8.0370906e-06
8.03708851e-06
8.0370911e-06
8.03708727e-06
8.03709223e-06
8.03707929e-06
8.03708995e-06
8.03708448e-06
8.03708035e-06
8.03709092e-06
8.03707976e-06
8.03709255e-06
8.03708041e-06
8.03708766e-06
8.03708424e-06
8.03708651e-06
8.03707589e-06
8.0370882e-06
8.03708326e-06
8.03708042e-06
8.03708723e-06
8.03708502e-06
8.03708806e-06
8.03708476e-06
8.0370883e-06
8.03707834e-06
8.03709748e-06
8.03709029e-06
8.0370899e-06
8.03708655e-06
8.03708256e-06
8.03708461e-06
8.03708918e-06
8.03708393e-06
8.03709875e-06
8.03708112e-06
8.03709752e-06
8.0370709e-06
8.03709827e-06
8.03708773e-06
8.03709184e-06
8.03709494e-06
8.03709335e-06
8.03708605e-06
8.03708457e-06
8.03709167e-06
8.03708276e-06
8.03709185e-06
8.0370898e-06
8.03708168e-06
8.03708946e-06
8.03709083e-06
8.03708533e-06
8.03708795e-06
8.03709054e-06
8.03709724e-06
8.03708642e-06
8.03708745e-06
8.03709836e-06
8.03708104e-06
8.03710402e-06
8.03708787e-06
8.03709886e-06
8.03709025e-06
8.03709493e-06
8.03709357e-06
8.03709681e-06
8.0370892e-06
8.03710376e-06
8.03709059e-06
8.03709312e-06
8.03708992e-06
8.03708922e-06
8.03708708e-06
8.03708385e-06
8.03709744e-06
8.03709059e-06
8.03709287e-06
8.03709657e-06
8.03709224e-06
8.03709959e-06
8.03708391e-06
8.0370907e-06
8.03709408e-06
8.03708395e-06
8.03709724e-06
8.03709201e-06
8.03709056e-06
8.03708855e-06
8.03709334e-06
8.03709031e-06
8.03708706e-06
8.03709323e-06
8.03709175e-06
8.03708646e-06
8.03708514e-06
8.03708997e-06
8.03710066e-06
8.03708442e-06
8.03709826e-06
8.03709175e-06
8.03709303e-06
8.03708943e-06
8.03708758e-06
8.03709912e-06
8.03708115e-06
8.03709889e-06
8.03709075e-06
8.0370935e-06
8.03708336e-06
8.03709058e-06
8.0370852e-06
8.03709e-06
8.03708938e-06
8.03708869e-06
8.0370888e-06
8.03708746e-06
8.03709605e-06
8.03708848e-06
8.03709358e-06
8.03708684e-06
8.03708879e-06
8.03710174e-06
8.03708849e-06
8.03709241e-06
8.03710019e-06
8.03708207e-06
8.03709652e-06
8.03708417e-06
8.03710088e-06
8.03708224e-06
8.03710175e-06
8.03707773e-06
8.0370938e-06
8.03708893e-06
8.03708747e-06
8.03709832e-06
8.03709381e-06
8.03709223e-06
8.03709044e-06
8.03708748e-06
8.03709498e-06
8.03708847e-06
8.03709231e-06
8.03709103e-06
8.03709417e-06
8.03709273e-06
8.03709009e-06
8.03709079e-06
8.0370913e-06
8.03708939e-06
8.03709105e-06
8.03709143e-06
8.03709138e-06
8.03709057e-06
8.03709052e-06
8.03709003e-06
8.03709083e-06
8.03709101e-06
8.0370907e-06
8.03709127e-06
8.0370907e-06
8.03709094e-06
8.03709097e-06
8.03709075e-06
8.03709122e-06
8.03709103e-06
8.03709063e-06
8.03709069e-06
8.037091e-06
8.03709097e-06
8.03709098e-06
8.03709093e-06
8.03709095e-06
8.03709096e-06
8.03709094e-06
8.03709092e-06
8.03709099e-06
8.0370907e-06
8.037091e-06
8.0370908e-06
8.03709085e-06
8.03709088e-06
8.0370909e-06
8.03709086e-06
8.03709103e-06
8.03709086e-06
8.03709092e-06
8.03709077e-06
8.03709078e-06
8.03709098e-06
8.03709092e-06
8.03709096e-06
8.03709094e-06
8.03709074e-06
8.03709094e-06
8.03709093e-06
8.03709089e-06
8.037091e-06
8.03709083e-06
8.03709106e-06
8.03709086e-06
8.037091e-06
8.03709085e-06
8.03709086e-06
8.03709102e-06
8.03709081e-06
8.03709082e-06
8.03709097e-06
)
;

boundaryField
{
    closed
    {
        type            calculated;
        value           uniform 0;
    }
    open
    {
        type            calculated;
        value           uniform 0;
    }
    sides
    {
        type            empty;
    }
}


// ************************************************************************* //
