/*--------------------------------*- C++ -*----------------------------------*\
| =========                 |                                                 |
| \\      /  F ield         | OpenFOAM: The Open Source CFD Toolbox           |
|  \\    /   O peration     | Version:  2206                                  |
|   \\  /    A nd           | Website:  www.openfoam.com                      |
|    \\/     M anipulation  |                                                 |
\*---------------------------------------------------------------------------*/
FoamFile
{
    version     2.0;
    format      ascii;
    arch        "LSB;label=32;scalar=64";
    class       volVectorField;
    location    "6e-06";
    object      U;
}
// * * * * * * * * * * * * * * * * * * * * * * * * * * * * * * * * * * * * * //

dimensions      [0 1 -1 0 0 0 0];

internalField   nonuniform List<vector> 
3183
(
(1.33564367e-13 0 0)
(-7.20686568e-15 0 0)
(-8.34284532e-14 0 0)
(-5.98567156e-14 0 0)
(-6.29837045e-14 0 0)
(-1.56707745e-18 0 0)
(-1.2376412e-19 0 0)
(-4.7496218e-24 0 0)
(1.60851262e-24 0 0)
(4.7151486e-23 0 0)
(9.01697618e-19 0 0)
(1.14581454e-17 0 0)
(2.42981312e-13 0 0)
(1.29501294e-13 0 0)
(-1.32766359e-13 0 0)
(-1.43374747e-13 0 0)
(1.23762902e-13 0 0)
(-6.51708021e-14 0 0)
(-5.56831288e-13 0 0)
(2.70217056e-14 0 0)
(3.27229858e-13 0 0)
(4.44365249e-17 0 0)
(5.22244949e-18 0 0)
(1.01223003e-17 0 0)
(1.27973992e-13 0 0)
(2.57081077e-13 0 0)
(4.44159648e-13 0 0)
(2.37131547e-13 0 0)
(-2.49364574e-13 0 0)
(-1.80168342e-13 0 0)
(-4.02464058e-13 0 0)
(-1.4967707e-13 0 0)
(-7.88556987e-14 0 0)
(-2.29732956e-13 0 0)
(-5.80974101e-14 0 0)
(9.13984615e-14 0 0)
(-9.62896928e-14 0 0)
(-1.68927626e-13 0 0)
(2.33001803e-14 0 0)
(-8.75643172e-14 0 0)
(-3.54430404e-13 0 0)
(-4.55731647e-13 0 0)
(-2.96917834e-14 0 0)
(-1.6816148e-13 0 0)
(3.18970617e-14 0 0)
(1.3579306e-13 0 0)
(4.09663964e-13 0 0)
(5.62748973e-14 0 0)
(-9.81823521e-14 0 0)
(-1.86793977e-13 0 0)
(-1.31794654e-13 0 0)
(-1.15060514e-13 0 0)
(-9.58737272e-14 0 0)
(-2.51960826e-14 0 0)
(4.26592577e-13 0 0)
(2.53768146e-15 0 0)
(1.47322613e-13 0 0)
(1.56446927e-13 0 0)
(3.61039996e-13 0 0)
(3.79609001e-13 0 0)
(4.75431366e-13 0 0)
(5.35930051e-13 0 0)
(6.44298322e-13 0 0)
(4.26346184e-13 0 0)
(7.14355777e-13 0 0)
(8.43914297e-13 0 0)
(7.91435728e-13 0 0)
(5.74102869e-13 0 0)
(8.08042909e-13 0 0)
(2.47014759e-13 0 0)
(6.59098163e-13 0 0)
(1.07570736e-12 0 0)
(6.21474491e-13 0 0)
(9.64847527e-13 0 0)
(8.95304481e-13 0 0)
(7.21736479e-13 0 0)
(8.41878905e-13 0 0)
(1.61019873e-12 0 0)
(1.66031035e-12 0 0)
(1.71040271e-12 0 0)
(1.71287163e-12 0 0)
(2.32249517e-12 0 0)
(2.14598427e-12 0 0)
(1.76924758e-12 0 0)
(2.46951743e-12 0 0)
(2.16087732e-12 0 0)
(2.62192582e-12 0 0)
(2.25918149e-12 0 0)
(2.48958787e-12 0 0)
(2.59170906e-12 0 0)
(2.13109873e-12 0 0)
(2.28943263e-12 0 0)
(2.94126115e-12 0 0)
(2.02640714e-12 0 0)
(2.48036765e-12 0 0)
(3.34268083e-12 0 0)
(1.51092144e-12 0 0)
(2.71912634e-12 0 0)
(2.16349217e-12 0 0)
(1.87746107e-12 0 0)
(2.96431161e-12 0 0)
(2.64999246e-12 0 0)
(3.24935846e-12 0 0)
(2.26217671e-12 0 0)
(2.15525948e-12 0 0)
(2.94723e-12 0 0)
(2.65910894e-12 0 0)
(2.8188983e-12 0 0)
(1.93102808e-12 0 0)
(2.08830252e-12 0 0)
(1.88601783e-12 0 0)
(1.41163394e-12 0 0)
(1.55719745e-12 0 0)
(2.21578143e-12 0 0)
(1.66287875e-12 0 0)
(1.49059502e-12 0 0)
(6.4243912e-13 0 0)
(1.47023984e-12 0 0)
(1.30285306e-12 0 0)
(7.64473043e-13 0 0)
(7.02948684e-13 0 0)
(1.49569097e-13 0 0)
(1.01356451e-12 0 0)
(6.25331259e-13 0 0)
(2.5371993e-13 0 0)
(1.02738842e-12 0 0)
(1.78239513e-12 0 0)
(7.11883903e-13 0 0)
(6.93340012e-13 0 0)
(4.62130372e-13 0 0)
(7.54362222e-13 0 0)
(1.46628191e-12 0 0)
(7.57622182e-13 0 0)
(9.27487448e-13 0 0)
(1.21287111e-12 0 0)
(9.1182784e-13 0 0)
(2.05235729e-12 0 0)
(9.11567485e-13 0 0)
(8.40471277e-13 0 0)
(1.44989239e-12 0 0)
(1.49695581e-12 0 0)
(1.58557318e-12 0 0)
(1.16667202e-12 0 0)
(9.11069316e-13 0 0)
(9.23699677e-13 0 0)
(1.19604223e-12 0 0)
(5.79156983e-13 0 0)
(5.38939777e-13 0 0)
(5.59160985e-13 0 0)
(-2.13150236e-13 0 0)
(-2.45316673e-13 0 0)
(-3.56565701e-14 0 0)
(-2.07105935e-13 0 0)
(-4.4722414e-13 0 0)
(-1.05748619e-12 0 0)
(-5.67487088e-13 0 0)
(-9.879981e-13 0 0)
(-7.10997171e-13 0 0)
(-4.16065971e-13 0 0)
(-1.53034649e-12 0 0)
(-1.94794122e-12 0 0)
(-7.4018735e-13 0 0)
(-1.31642793e-12 0 0)
(-2.01981347e-12 0 0)
(-1.10114661e-12 0 0)
(-1.04789942e-12 0 0)
(-1.14978846e-12 0 0)
(-1.80460353e-12 0 0)
(-1.19265471e-12 0 0)
(-1.91308349e-12 0 0)
(-1.58066794e-12 0 0)
(-5.95914944e-13 0 0)
(-8.3106027e-13 0 0)
(-1.46836131e-12 0 0)
(-1.70328135e-12 0 0)
(-6.35033596e-13 0 0)
(-1.54315314e-12 0 0)
(-1.68718921e-12 0 0)
(-1.53370636e-12 0 0)
(-1.7739769e-12 0 0)
(-3.5383143e-13 0 0)
(-1.71576606e-12 0 0)
(-7.47460738e-13 0 0)
(-6.31859187e-13 0 0)
(-1.14712676e-12 0 0)
(-1.39055125e-12 0 0)
(-9.04345855e-13 0 0)
(-1.05430539e-12 0 0)
(-1.96731154e-12 0 0)
(-1.76085753e-12 0 0)
(-1.22506556e-12 0 0)
(-1.60878488e-12 0 0)
(-2.70369642e-12 0 0)
(-2.13251012e-12 0 0)
(-2.63478926e-12 0 0)
(-1.56559898e-12 0 0)
(-2.98017557e-12 0 0)
(-1.78329248e-12 0 0)
(-2.29647856e-12 0 0)
(-2.77250163e-12 0 0)
(-2.63173957e-12 0 0)
(-2.95684368e-12 0 0)
(-3.22024667e-12 0 0)
(-2.98368305e-12 0 0)
(-3.5973518e-12 0 0)
(-3.26175348e-12 0 0)
(-3.58689934e-12 0 0)
(-2.92588222e-12 0 0)
(-3.53371357e-12 0 0)
(-2.88473175e-12 0 0)
(-3.65579338e-12 0 0)
(-4.13137575e-12 0 0)
(-3.48113448e-12 0 0)
(-4.23859316e-12 0 0)
(-4.0158747e-12 0 0)
(-4.30038964e-12 0 0)
(-3.85853258e-12 0 0)
(-5.19699503e-12 0 0)
(-3.15412637e-12 0 0)
(-4.15396946e-12 0 0)
(-5.26808102e-12 0 0)
(-5.54601099e-12 0 0)
(-5.47679213e-12 0 0)
(-4.19994419e-12 0 0)
(-5.05811592e-12 0 0)
(-4.12331246e-12 0 0)
(-5.28395627e-12 0 0)
(-5.25483336e-12 0 0)
(-6.0007106e-12 0 0)
(-5.01945421e-12 0 0)
(-5.54096004e-12 0 0)
(-4.74095355e-12 0 0)
(-4.69379594e-12 0 0)
(-6.05533241e-12 0 0)
(-4.94108316e-12 0 0)
(-5.0225352e-12 0 0)
(-5.39489362e-12 0 0)
(-5.22984925e-12 0 0)
(-4.90551201e-12 0 0)
(-5.01573e-12 0 0)
(-5.08147786e-12 0 0)
(-4.84698664e-12 0 0)
(-4.29192403e-12 0 0)
(-5.00278358e-12 0 0)
(-4.7842293e-12 0 0)
(-5.66631879e-12 0 0)
(-5.05644723e-12 0 0)
(-4.57036433e-12 0 0)
(-5.54804869e-12 0 0)
(-5.34748178e-12 0 0)
(-5.02739182e-12 0 0)
(-5.03487356e-12 0 0)
(-5.06562754e-12 0 0)
(-6.43707047e-12 0 0)
(-6.53989829e-12 0 0)
(-6.19647864e-12 0 0)
(-6.5114445e-12 0 0)
(-6.3243849e-12 0 0)
(-6.50015562e-12 0 0)
(-7.15086115e-12 0 0)
(-6.3754001e-12 0 0)
(-7.45357106e-12 0 0)
(-6.83996416e-12 0 0)
(-5.94411047e-12 0 0)
(-7.18673525e-12 0 0)
(-6.63444267e-12 0 0)
(-6.99241854e-12 0 0)
(-6.73007523e-12 0 0)
(-6.69611017e-12 0 0)
(-6.95136504e-12 0 0)
(-5.11106622e-12 0 0)
(-6.93227214e-12 0 0)
(-6.93994006e-12 0 0)
(-6.37501154e-12 0 0)
(-7.61331505e-12 0 0)
(-6.63087231e-12 0 0)
(-7.73300814e-12 0 0)
(-7.44152341e-12 0 0)
(-7.21125922e-12 0 0)
(-5.93252036e-12 0 0)
(-7.00238991e-12 0 0)
(-7.06569899e-12 0 0)
(-6.67488768e-12 0 0)
(-5.98438001e-12 0 0)
(-6.64745365e-12 0 0)
(-7.60554376e-12 0 0)
(-7.18882458e-12 0 0)
(-8.14043257e-12 0 0)
(-8.06785184e-12 0 0)
(-8.00052226e-12 0 0)
(-8.14461912e-12 0 0)
(-7.91218639e-12 0 0)
(-8.13946181e-12 0 0)
(-8.3619261e-12 0 0)
(-7.81944761e-12 0 0)
(-8.3065205e-12 0 0)
(-8.78069767e-12 0 0)
(-9.01774422e-12 0 0)
(-8.42548173e-12 0 0)
(-9.99165814e-12 0 0)
(-8.69031312e-12 0 0)
(-8.92803667e-12 0 0)
(-8.90159239e-12 0 0)
(-9.25673137e-12 0 0)
(-8.58884343e-12 0 0)
(-1.0102204e-11 0 0)
(-7.17884343e-12 0 0)
(-8.82761047e-12 0 0)
(-9.16270952e-12 0 0)
(-8.08986971e-12 0 0)
(-9.98309106e-12 0 0)
(-8.98984484e-12 0 0)
(-8.37795553e-12 0 0)
(-8.36364166e-12 0 0)
(-8.96888446e-12 0 0)
(-1.01688036e-11 0 0)
(-1.00617647e-11 0 0)
(-8.67844826e-12 0 0)
(-8.38989022e-12 0 0)
(-1.04709489e-11 0 0)
(-9.45792351e-12 0 0)
(-1.00678501e-11 0 0)
(-1.01625226e-11 0 0)
(-8.60888927e-12 0 0)
(-9.9386358e-12 0 0)
(-8.98873792e-12 0 0)
(-1.02874842e-11 0 0)
(-9.30374881e-12 0 0)
(-1.02027859e-11 0 0)
(-1.02219398e-11 0 0)
(-9.42048494e-12 0 0)
(-1.11240528e-11 0 0)
(-1.00370195e-11 0 0)
(-9.16661405e-12 0 0)
(-8.5995935e-12 0 0)
(-9.7923904e-12 0 0)
(-8.15310293e-12 0 0)
(-1.04549143e-11 0 0)
(-9.2501885e-12 0 0)
(-8.53047773e-12 0 0)
(-8.43956433e-12 0 0)
(-8.92273577e-12 0 0)
(-8.41675819e-12 0 0)
(-8.1783098e-12 0 0)
(-7.90189594e-12 0 0)
(-8.50299887e-12 0 0)
(-8.7949483e-12 0 0)
(-8.08103138e-12 0 0)
(-8.43914559e-12 0 0)
(-8.65973541e-12 0 0)
(-8.40582199e-12 0 0)
(-7.85364057e-12 0 0)
(-9.40631501e-12 0 0)
(-8.56453017e-12 0 0)
(-6.86816737e-12 0 0)
(-7.56093479e-12 0 0)
(-8.29761977e-12 0 0)
(-8.52216639e-12 0 0)
(-8.57374627e-12 0 0)
(-7.84215483e-12 0 0)
(-8.4742714e-12 0 0)
(-8.17708299e-12 0 0)
(-8.30757704e-12 0 0)
(-8.31269088e-12 0 0)
(-7.7212762e-12 0 0)
(-8.07011927e-12 0 0)
(-7.28438949e-12 0 0)
(-7.75937777e-12 0 0)
(-7.27631951e-12 0 0)
(-7.48859704e-12 0 0)
(-7.11984131e-12 0 0)
(-7.8664196e-12 0 0)
(-6.53598018e-12 0 0)
(-7.05008806e-12 0 0)
(-7.62443558e-12 0 0)
(-8.20065162e-12 0 0)
(-8.18097674e-12 0 0)
(-6.70975588e-12 0 0)
(-8.43794507e-12 0 0)
(-7.24224806e-12 0 0)
(-7.9457832e-12 0 0)
(-7.34579861e-12 0 0)
(-7.41447102e-12 0 0)
(-7.27309718e-12 0 0)
(-6.68546217e-12 0 0)
(-7.26911012e-12 0 0)
(-7.99231338e-12 0 0)
(-6.5197386e-12 0 0)
(-7.08325985e-12 0 0)
(-6.05836148e-12 0 0)
(-6.16068541e-12 0 0)
(-8.18150002e-12 0 0)
(-6.77563315e-12 0 0)
(-8.43664941e-12 0 0)
(-7.2365745e-12 0 0)
(-6.74287902e-12 0 0)
(-8.1825038e-12 0 0)
(-7.94885441e-12 0 0)
(-7.5715658e-12 0 0)
(-7.51016528e-12 0 0)
(-6.32707842e-12 0 0)
(-7.45354865e-12 0 0)
(-7.0585067e-12 0 0)
(-7.61679139e-12 0 0)
(-6.1344966e-12 0 0)
(-5.66227942e-12 0 0)
(-4.86028733e-12 0 0)
(-5.81582765e-12 0 0)
(-5.73383998e-12 0 0)
(-5.54796032e-12 0 0)
(-5.88538136e-12 0 0)
(-4.96698993e-12 0 0)
(-4.39108029e-12 0 0)
(-5.96852646e-12 0 0)
(-6.20512478e-12 0 0)
(-5.0337853e-12 0 0)
(-4.99282983e-12 0 0)
(-4.67131543e-12 0 0)
(-4.63083153e-12 0 0)
(-4.33109993e-12 0 0)
(-4.2158531e-12 0 0)
(-3.00427664e-12 0 0)
(-4.18626069e-12 0 0)
(-3.43007032e-12 0 0)
(-4.7037337e-12 0 0)
(-3.86866825e-12 0 0)
(-3.17533258e-12 0 0)
(-4.16287403e-12 0 0)
(-3.3451218e-12 0 0)
(-2.32777937e-12 0 0)
(-2.60035839e-12 0 0)
(-3.29963898e-12 0 0)
(-3.38952449e-12 0 0)
(-2.95981287e-12 0 0)
(-2.70599553e-12 0 0)
(-2.79038244e-12 0 0)
(-2.41509707e-12 0 0)
(-1.90518764e-12 0 0)
(-2.32571488e-12 0 0)
(-2.82116234e-12 0 0)
(-2.00183577e-12 0 0)
(-2.6965614e-12 0 0)
(-2.91267858e-12 0 0)
(-2.06769756e-12 0 0)
(-2.36079707e-12 0 0)
(-3.31836514e-12 0 0)
(-3.74848201e-12 0 0)
(-2.57623139e-12 0 0)
(-3.28060245e-12 0 0)
(-1.80364758e-12 0 0)
(-2.41619009e-12 0 0)
(-1.6952333e-12 0 0)
(-2.45067023e-12 0 0)
(-3.0443232e-12 0 0)
(-2.52909694e-12 0 0)
(-1.43693472e-12 0 0)
(-1.84151801e-12 0 0)
(-1.8591346e-12 0 0)
(-2.20912667e-12 0 0)
(-1.4917479e-12 0 0)
(-2.27652652e-12 0 0)
(-2.34846974e-12 0 0)
(-1.91887253e-12 0 0)
(-1.19568011e-12 0 0)
(-1.88981579e-12 0 0)
(-1.17654284e-12 0 0)
(-1.12571714e-12 0 0)
(-1.10373809e-12 0 0)
(-1.20090296e-12 0 0)
(-2.14388338e-12 0 0)
(-7.05904394e-13 0 0)
(-4.61239869e-13 0 0)
(-1.44508119e-12 0 0)
(-1.6036281e-12 0 0)
(-6.48591792e-13 0 0)
(-6.78560535e-13 0 0)
(-8.61249644e-13 0 0)
(-9.3793527e-13 0 0)
(-1.52898616e-12 0 0)
(-1.49317497e-12 0 0)
(-8.30589208e-13 0 0)
(-8.2102841e-13 0 0)
(-1.88666667e-12 0 0)
(-1.3093971e-12 0 0)
(-1.18098878e-12 0 0)
(-1.18829304e-12 0 0)
(-2.2005548e-12 0 0)
(-1.07547652e-12 0 0)
(-1.08538566e-12 0 0)
(-1.44621144e-12 0 0)
(-7.36882378e-13 0 0)
(-7.09612056e-13 0 0)
(-1.61446319e-12 0 0)
(-4.64071415e-13 0 0)
(-6.77430036e-13 0 0)
(-1.65895668e-12 0 0)
(-1.02712079e-12 0 0)
(-5.55941927e-13 0 0)
(-5.23741588e-13 0 0)
(-1.23441347e-12 0 0)
(-8.04310104e-13 0 0)
(8.72352184e-13 0 0)
(-8.18994283e-14 0 0)
(-8.61313421e-13 0 0)
(-2.97791705e-13 0 0)
(-7.57367685e-13 0 0)
(9.05279406e-13 0 0)
(5.3693763e-13 0 0)
(2.89386027e-13 0 0)
(5.54355273e-13 0 0)
(9.29749543e-13 0 0)
(3.56113443e-13 0 0)
(3.27022393e-13 0 0)
(6.26317606e-13 0 0)
(-2.05380097e-13 0 0)
(9.47720316e-13 0 0)
(5.82941158e-13 0 0)
(4.35371238e-15 0 0)
(7.493792e-13 0 0)
(1.05997824e-12 0 0)
(7.53915254e-13 0 0)
(1.56295238e-12 0 0)
(4.40124407e-13 0 0)
(7.17104665e-13 0 0)
(1.37159372e-12 0 0)
(9.50548736e-13 0 0)
(5.40278634e-13 0 0)
(6.20491407e-13 0 0)
(6.50918007e-13 0 0)
(-3.68030335e-13 0 0)
(7.25674694e-13 0 0)
(7.60679107e-13 0 0)
(1.25913747e-12 0 0)
(6.69994217e-13 0 0)
(5.13426712e-13 0 0)
(5.9647341e-13 0 0)
(9.83690882e-13 0 0)
(7.89255732e-13 0 0)
(6.76286053e-13 0 0)
(1.4079923e-12 0 0)
(6.34456402e-13 0 0)
(1.29133905e-12 0 0)
(1.61030874e-12 0 0)
(1.88231264e-12 0 0)
(1.79665003e-12 0 0)
(1.48353647e-12 0 0)
(1.00758346e-12 0 0)
(1.07399664e-12 0 0)
(2.02243378e-12 0 0)
(1.68072279e-12 0 0)
(1.28592688e-12 0 0)
(1.39363493e-12 0 0)
(1.52933331e-12 0 0)
(2.22835366e-12 0 0)
(1.77233444e-12 0 0)
(1.88538588e-12 0 0)
(2.84956745e-12 0 0)
(1.66260789e-12 0 0)
(2.01900095e-12 0 0)
(1.28635088e-12 0 0)
(2.14120918e-12 0 0)
(9.87712038e-13 0 0)
(2.09356392e-12 0 0)
(1.80990619e-12 0 0)
(1.77088494e-12 0 0)
(1.29010405e-12 0 0)
(1.91614825e-12 0 0)
(2.4101935e-12 0 0)
(1.62278607e-12 0 0)
(1.81818936e-12 0 0)
(1.50248825e-12 0 0)
(1.67472892e-12 0 0)
(1.57096244e-12 0 0)
(2.42540949e-12 0 0)
(2.05568895e-12 0 0)
(1.92381516e-12 0 0)
(1.62624244e-12 0 0)
(1.0195543e-12 0 0)
(2.84047524e-12 0 0)
(2.35014789e-12 0 0)
(1.94735045e-12 0 0)
(1.66088223e-12 0 0)
(2.74353092e-12 0 0)
(1.66549715e-12 0 0)
(2.2621742e-12 0 0)
(1.84799693e-12 0 0)
(2.44083986e-12 0 0)
(2.1851935e-12 0 0)
(1.480011e-12 0 0)
(2.57894596e-12 0 0)
(2.21173299e-12 0 0)
(1.77771043e-12 0 0)
(2.14000061e-12 0 0)
(1.73436045e-12 0 0)
(2.36291468e-12 0 0)
(2.50241902e-12 0 0)
(2.37496427e-12 0 0)
(2.80575409e-12 0 0)
(3.59389265e-12 0 0)
(2.67699899e-12 0 0)
(3.14801204e-12 0 0)
(3.62100481e-12 0 0)
(2.91254516e-12 0 0)
(2.49819432e-12 0 0)
(3.24628922e-12 0 0)
(2.80658999e-12 0 0)
(3.53101262e-12 0 0)
(4.22041712e-12 0 0)
(3.77456241e-12 0 0)
(3.49671906e-12 0 0)
(3.57384172e-12 0 0)
(2.98509664e-12 0 0)
(4.43935402e-12 0 0)
(2.87103353e-12 0 0)
(4.22796176e-12 0 0)
(3.36421829e-12 0 0)
(4.21225787e-12 0 0)
(3.6521629e-12 0 0)
(3.43036297e-12 0 0)
(3.90168392e-12 0 0)
(4.4441559e-12 0 0)
(3.1078258e-12 0 0)
(3.13223564e-12 0 0)
(2.62307955e-12 0 0)
(2.79420135e-12 0 0)
(3.61381586e-12 0 0)
(3.07764477e-12 0 0)
(2.69544074e-12 0 0)
(2.87495626e-12 0 0)
(2.83493308e-12 0 0)
(2.66456141e-12 0 0)
(2.67716386e-12 0 0)
(3.9801684e-12 0 0)
(2.65267101e-12 0 0)
(2.66532438e-12 0 0)
(3.575415e-12 0 0)
(1.95937768e-12 0 0)
(2.73270828e-12 0 0)
(2.96939976e-12 0 0)
(2.07018747e-12 0 0)
(1.19170068e-12 0 0)
(2.46747511e-12 0 0)
(3.74149061e-12 0 0)
(2.06635069e-12 0 0)
(3.28966548e-12 0 0)
(1.8694664e-12 0 0)
(2.04666284e-12 0 0)
(9.30274882e-13 0 0)
(1.6307754e-12 0 0)
(2.22338311e-12 0 0)
(1.94499502e-12 0 0)
(1.32662915e-12 0 0)
(1.52827814e-12 0 0)
(1.95235677e-12 0 0)
(1.26682459e-12 0 0)
(1.25222556e-12 0 0)
(1.21561098e-12 0 0)
(1.29434773e-12 0 0)
(9.18200008e-13 0 0)
(-4.16088846e-13 0 0)
(4.06178606e-13 0 0)
(3.02445235e-13 0 0)
(1.36540384e-12 0 0)
(5.69079303e-13 0 0)
(2.14021748e-13 0 0)
(1.16601026e-12 0 0)
(1.55918639e-12 0 0)
(1.38328881e-12 0 0)
(9.72454708e-13 0 0)
(1.41154542e-12 0 0)
(2.07988028e-13 0 0)
(1.4748693e-12 0 0)
(5.25330195e-13 0 0)
(1.25235056e-12 0 0)
(1.25670579e-12 0 0)
(1.39392574e-13 0 0)
(5.05225138e-13 0 0)
(8.71359329e-13 0 0)
(1.87483353e-12 0 0)
(8.95136407e-13 0 0)
(1.55007675e-12 0 0)
(1.11081805e-12 0 0)
(7.22066462e-13 0 0)
(1.74579466e-12 0 0)
(2.0380889e-12 0 0)
(1.87606062e-12 0 0)
(1.76728127e-12 0 0)
(7.96886977e-13 0 0)
(1.62139657e-12 0 0)
(2.0152022e-12 0 0)
(2.20796545e-12 0 0)
(2.32874648e-12 0 0)
(2.52741829e-12 0 0)
(1.94297809e-12 0 0)
(2.22893137e-12 0 0)
(3.07788074e-12 0 0)
(2.17485148e-12 0 0)
(3.93741982e-12 0 0)
(2.00412648e-12 0 0)
(2.53975623e-12 0 0)
(2.92957322e-12 0 0)
(3.17540454e-12 0 0)
(2.51956965e-12 0 0)
(2.70372261e-12 0 0)
(3.11574686e-12 0 0)
(2.44015789e-12 0 0)
(1.94734343e-12 0 0)
(2.55481637e-12 0 0)
(1.91951153e-12 0 0)
(1.4554022e-12 0 0)
(1.86538344e-12 0 0)
(2.87737716e-12 0 0)
(3.01360879e-12 0 0)
(2.14692322e-12 0 0)
(9.53003902e-13 0 0)
(2.44193955e-12 0 0)
(1.56513395e-12 0 0)
(2.28074185e-12 0 0)
(2.27967721e-12 0 0)
(2.88273286e-12 0 0)
(2.21548213e-12 0 0)
(2.5682195e-12 0 0)
(3.15757357e-12 0 0)
(2.42548379e-12 0 0)
(2.4828984e-12 0 0)
(3.12599154e-12 0 0)
(2.82406097e-12 0 0)
(2.44657289e-12 0 0)
(3.78613672e-12 0 0)
(2.87782173e-12 0 0)
(2.10662893e-12 0 0)
(2.96964509e-12 0 0)
(2.50628199e-12 0 0)
(2.96594925e-12 0 0)
(3.10211878e-12 0 0)
(2.58835734e-12 0 0)
(2.58316204e-12 0 0)
(2.38644969e-12 0 0)
(2.66210247e-12 0 0)
(2.24215726e-12 0 0)
(2.17688917e-12 0 0)
(1.83824007e-12 0 0)
(2.12040856e-12 0 0)
(2.45383152e-12 0 0)
(2.92733887e-12 0 0)
(2.99838353e-12 0 0)
(3.32109182e-12 0 0)
(2.4725985e-12 0 0)
(2.5117521e-12 0 0)
(3.56811578e-12 0 0)
(2.58670842e-12 0 0)
(3.67217834e-12 0 0)
(3.03676768e-12 0 0)
(2.84585807e-12 0 0)
(3.41219364e-12 0 0)
(3.01415245e-12 0 0)
(4.72657465e-12 0 0)
(3.01871054e-12 0 0)
(2.7234081e-12 0 0)
(2.29499693e-12 0 0)
(2.93135766e-12 0 0)
(3.0510445e-12 0 0)
(2.30436173e-12 0 0)
(3.09358e-12 0 0)
(1.93110526e-12 0 0)
(1.85709021e-12 0 0)
(2.66421693e-12 0 0)
(2.03113852e-12 0 0)
(2.16659423e-12 0 0)
(2.34637064e-12 0 0)
(3.46405913e-12 0 0)
(2.15079292e-12 0 0)
(2.89240355e-12 0 0)
(2.71682135e-12 0 0)
(2.57731445e-12 0 0)
(2.61543807e-12 0 0)
(2.62266416e-12 0 0)
(2.74782351e-12 0 0)
(2.36560184e-12 0 0)
(2.3144077e-12 0 0)
(2.16743118e-12 0 0)
(2.6103726e-12 0 0)
(2.38209283e-12 0 0)
(2.53714664e-12 0 0)
(2.79538357e-12 0 0)
(1.72179076e-12 0 0)
(1.35427523e-12 0 0)
(2.40174469e-12 0 0)
(2.7022315e-12 0 0)
(2.71255788e-12 0 0)
(2.61409907e-12 0 0)
(2.69469936e-12 0 0)
(3.6275186e-12 0 0)
(2.09696547e-12 0 0)
(1.7318896e-12 0 0)
(1.92691728e-12 0 0)
(3.08323788e-12 0 0)
(2.96307102e-12 0 0)
(3.64560597e-12 0 0)
(2.79612529e-12 0 0)
(1.69130706e-12 0 0)
(3.41982514e-12 0 0)
(2.09628314e-12 0 0)
(2.06547086e-12 0 0)
(2.73181577e-12 0 0)
(2.59517276e-12 0 0)
(3.06461993e-12 0 0)
(2.11828363e-12 0 0)
(1.98978479e-12 0 0)
(1.92040821e-12 0 0)
(2.28621642e-12 0 0)
(1.93322896e-12 0 0)
(1.2564474e-12 0 0)
(1.62700122e-12 0 0)
(1.66054048e-12 0 0)
(1.69078634e-12 0 0)
(8.96859251e-13 0 0)
(1.96331687e-12 0 0)
(1.72229549e-12 0 0)
(1.74559876e-12 0 0)
(2.63522036e-12 0 0)
(2.48360666e-12 0 0)
(2.6812877e-12 0 0)
(1.9587813e-12 0 0)
(1.18644418e-12 0 0)
(2.15314424e-12 0 0)
(1.06387871e-12 0 0)
(2.00746433e-12 0 0)
(1.93209989e-12 0 0)
(1.46095286e-12 0 0)
(2.16652393e-12 0 0)
(1.70637122e-12 0 0)
(1.32763212e-12 0 0)
(1.84081984e-12 0 0)
(2.57783491e-12 0 0)
(1.24747573e-12 0 0)
(1.26238445e-12 0 0)
(2.96654288e-12 0 0)
(1.47604152e-12 0 0)
(3.33139781e-12 0 0)
(1.92335453e-12 0 0)
(1.59974208e-12 0 0)
(1.65810707e-12 0 0)
(1.12184601e-12 0 0)
(1.5537028e-12 0 0)
(1.57936385e-12 0 0)
(2.29931131e-12 0 0)
(1.89168587e-12 0 0)
(1.4300701e-12 0 0)
(2.7205939e-12 0 0)
(2.71105482e-12 0 0)
(1.71775817e-12 0 0)
(1.36426532e-12 0 0)
(2.19947546e-12 0 0)
(1.63944101e-12 0 0)
(1.68868587e-12 0 0)
(1.71837936e-12 0 0)
(2.27431074e-12 0 0)
(1.88410787e-12 0 0)
(1.88297065e-12 0 0)
(2.40083326e-12 0 0)
(2.07912374e-12 0 0)
(2.50580857e-12 0 0)
(2.08100902e-12 0 0)
(3.07614208e-12 0 0)
(1.90036401e-12 0 0)
(3.54433774e-12 0 0)
(1.71771688e-12 0 0)
(3.1930197e-12 0 0)
(2.00949064e-12 0 0)
(2.7859992e-12 0 0)
(2.72129979e-12 0 0)
(1.62213973e-12 0 0)
(2.48247034e-12 0 0)
(2.19054757e-12 0 0)
(3.11129074e-12 0 0)
(2.26478233e-12 0 0)
(1.58201732e-12 0 0)
(2.21972432e-12 0 0)
(3.77769571e-12 0 0)
(1.99969831e-12 0 0)
(1.98385833e-12 0 0)
(1.78044882e-12 0 0)
(2.43182501e-12 0 0)
(1.84403634e-12 0 0)
(1.42081303e-12 0 0)
(1.489524e-12 0 0)
(1.35711977e-12 0 0)
(2.30340496e-12 0 0)
(1.44935414e-12 0 0)
(2.03638182e-12 0 0)
(1.88183206e-12 0 0)
(1.6282637e-12 0 0)
(2.7917414e-12 0 0)
(1.98275415e-12 0 0)
(1.80377141e-12 0 0)
(1.79070257e-12 0 0)
(1.98662143e-12 0 0)
(2.03151292e-12 0 0)
(2.46861122e-12 0 0)
(2.99115441e-12 0 0)
(2.88369194e-12 0 0)
(3.30305705e-12 0 0)
(2.75093959e-12 0 0)
(3.16799632e-12 0 0)
(2.38845438e-12 0 0)
(3.43604433e-12 0 0)
(2.48334677e-12 0 0)
(3.44203551e-12 0 0)
(3.28453508e-12 0 0)
(2.71228375e-12 0 0)
(2.85646542e-12 0 0)
(2.57668096e-12 0 0)
(2.80393913e-12 0 0)
(1.76048715e-12 0 0)
(3.11269218e-12 0 0)
(3.32664713e-12 0 0)
(2.45491839e-12 0 0)
(3.39265561e-12 0 0)
(2.92298885e-12 0 0)
(3.12772165e-12 0 0)
(3.40053961e-12 0 0)
(4.28758364e-12 0 0)
(3.70822521e-12 0 0)
(3.07967075e-12 0 0)
(4.19628573e-12 0 0)
(3.8428045e-12 0 0)
(3.21338568e-12 0 0)
(4.04029974e-12 0 0)
(3.47935225e-12 0 0)
(3.62191255e-12 0 0)
(3.96650889e-12 0 0)
(4.83206833e-12 0 0)
(4.57965186e-12 0 0)
(4.99877286e-12 0 0)
(4.59909558e-12 0 0)
(5.26306634e-12 0 0)
(5.26103713e-12 0 0)
(4.75112673e-12 0 0)
(4.42150925e-12 0 0)
(4.77333022e-12 0 0)
(4.63773934e-12 0 0)
(4.96303421e-12 0 0)
(3.40689316e-12 0 0)
(4.17848766e-12 0 0)
(3.64400958e-12 0 0)
(3.93241909e-12 0 0)
(3.98755872e-12 0 0)
(4.37577423e-12 0 0)
(4.73822958e-12 0 0)
(4.22196904e-12 0 0)
(4.93260952e-12 0 0)
(4.90334647e-12 0 0)
(4.62188201e-12 0 0)
(4.95913705e-12 0 0)
(4.40918109e-12 0 0)
(4.98018792e-12 0 0)
(4.73959673e-12 0 0)
(4.53524974e-12 0 0)
(3.93576916e-12 0 0)
(4.54035187e-12 0 0)
(5.35440639e-12 0 0)
(5.66584382e-12 0 0)
(4.61570543e-12 0 0)
(4.75542485e-12 0 0)
(4.55435168e-12 0 0)
(5.3401096e-12 0 0)
(4.94412945e-12 0 0)
(5.21810908e-12 0 0)
(4.98698738e-12 0 0)
(4.41244707e-12 0 0)
(4.83007813e-12 0 0)
(5.33684046e-12 0 0)
(4.47283584e-12 0 0)
(4.8559248e-12 0 0)
(5.1672663e-12 0 0)
(4.67575218e-12 0 0)
(5.08814467e-12 0 0)
(4.52097865e-12 0 0)
(4.90009315e-12 0 0)
(4.15491726e-12 0 0)
(4.01599956e-12 0 0)
(4.95500105e-12 0 0)
(5.5494306e-12 0 0)
(4.64768052e-12 0 0)
(4.6501852e-12 0 0)
(4.92579067e-12 0 0)
(5.40580322e-12 0 0)
(4.90732591e-12 0 0)
(4.6276185e-12 0 0)
(4.68342253e-12 0 0)
(5.02392137e-12 0 0)
(6.44911976e-12 0 0)
(4.82786046e-12 0 0)
(4.80910709e-12 0 0)
(5.27603449e-12 0 0)
(4.79525701e-12 0 0)
(4.53607669e-12 0 0)
(4.7049449e-12 0 0)
(5.18915089e-12 0 0)
(5.5973203e-12 0 0)
(4.72349518e-12 0 0)
(5.06863167e-12 0 0)
(4.95806292e-12 0 0)
(4.74364105e-12 0 0)
(5.45006219e-12 0 0)
(4.21423371e-12 0 0)
(4.72240956e-12 0 0)
(4.75260681e-12 0 0)
(5.03891425e-12 0 0)
(5.87725778e-12 0 0)
(4.9678962e-12 0 0)
(4.60810593e-12 0 0)
(4.02925236e-12 0 0)
(3.49137377e-12 0 0)
(4.04350224e-12 0 0)
(4.29182916e-12 0 0)
(3.57628556e-12 0 0)
(3.37446639e-12 0 0)
(3.92451399e-12 0 0)
(2.60456485e-12 0 0)
(2.66390726e-12 0 0)
(3.73377171e-12 0 0)
(3.16120153e-12 0 0)
(2.73739805e-12 0 0)
(1.90773338e-12 0 0)
(3.37151867e-12 0 0)
(2.48533799e-12 0 0)
(2.76404236e-12 0 0)
(3.23400496e-12 0 0)
(2.84354823e-12 0 0)
(2.83379322e-12 0 0)
(2.68976639e-12 0 0)
(2.53722551e-12 0 0)
(2.63910612e-12 0 0)
(3.02771968e-12 0 0)
(2.58247249e-12 0 0)
(2.96531367e-12 0 0)
(2.31344181e-12 0 0)
(2.15840116e-12 0 0)
(2.27821019e-12 0 0)
(2.32418446e-12 0 0)
(2.8067323e-12 0 0)
(3.06871809e-12 0 0)
(3.36056357e-12 0 0)
(4.46605404e-12 0 0)
(3.70414541e-12 0 0)
(4.03604285e-12 0 0)
(4.39004397e-12 0 0)
(3.68125347e-12 0 0)
(3.10958639e-12 0 0)
(4.27889835e-12 0 0)
(3.11170667e-12 0 0)
(3.78317814e-12 0 0)
(2.67091039e-12 0 0)
(2.93334766e-12 0 0)
(3.34180533e-12 0 0)
(3.71570541e-12 0 0)
(3.0552173e-12 0 0)
(3.86676551e-12 0 0)
(3.4321693e-12 0 0)
(3.44945776e-12 0 0)
(3.8450648e-12 0 0)
(4.94732781e-12 0 0)
(3.45221196e-12 0 0)
(3.67878933e-12 0 0)
(4.90860891e-12 0 0)
(3.61338052e-12 0 0)
(3.7620792e-12 0 0)
(3.56425966e-12 0 0)
(4.19931869e-12 0 0)
(3.45751787e-12 0 0)
(3.36227762e-12 0 0)
(4.49538197e-12 0 0)
(3.72209295e-12 0 0)
(4.45401404e-12 0 0)
(3.91346504e-12 0 0)
(4.37076821e-12 0 0)
(3.72364705e-12 0 0)
(3.95968848e-12 0 0)
(4.05273154e-12 0 0)
(3.81405391e-12 0 0)
(3.24921303e-12 0 0)
(3.44237746e-12 0 0)
(2.37764257e-12 0 0)
(3.5514295e-12 0 0)
(3.16957594e-12 0 0)
(3.15603084e-12 0 0)
(2.45202008e-12 0 0)
(1.93617873e-12 0 0)
(1.55596125e-12 0 0)
(2.52152954e-12 0 0)
(6.10327716e-13 0 0)
(8.08994876e-13 0 0)
(1.14015244e-12 0 0)
(7.1055186e-13 0 0)
(1.70965355e-12 0 0)
(1.4552885e-12 0 0)
(2.41387032e-12 0 0)
(1.31339069e-12 0 0)
(1.99024672e-12 0 0)
(1.37853378e-12 0 0)
(1.14778785e-12 0 0)
(-2.94478997e-13 0 0)
(5.19563237e-13 0 0)
(6.88910822e-13 0 0)
(2.33823682e-13 0 0)
(1.55127912e-13 0 0)
(3.81613887e-13 0 0)
(-4.54907666e-13 0 0)
(-1.0041484e-12 0 0)
(-8.02260111e-13 0 0)
(-1.09386535e-12 0 0)
(-1.20511101e-12 0 0)
(-1.33686713e-12 0 0)
(-2.32728714e-12 0 0)
(-1.77935207e-12 0 0)
(-1.03971022e-12 0 0)
(-1.56903076e-12 0 0)
(-1.76904993e-12 0 0)
(-1.80140487e-12 0 0)
(-2.25885487e-12 0 0)
(-2.02714797e-12 0 0)
(-1.83095968e-12 0 0)
(-2.34890866e-12 0 0)
(-3.01834757e-12 0 0)
(-1.99567937e-12 0 0)
(-2.0334131e-12 0 0)
(-1.90075772e-12 0 0)
(-3.05770789e-12 0 0)
(-2.30951179e-12 0 0)
(-2.70534256e-12 0 0)
(-3.1076571e-12 0 0)
(-3.63496418e-12 0 0)
(-3.74631025e-12 0 0)
(-3.7433399e-12 0 0)
(-3.33999821e-12 0 0)
(-3.03084133e-12 0 0)
(-3.03635289e-12 0 0)
(-3.48500643e-12 0 0)
(-3.8102018e-12 0 0)
(-2.76438174e-12 0 0)
(-3.13717645e-12 0 0)
(-3.66848217e-12 0 0)
(-3.20961414e-12 0 0)
(-3.16356217e-12 0 0)
(-3.34549879e-12 0 0)
(-4.55455675e-12 0 0)
(-3.27041276e-12 0 0)
(-2.49398013e-12 0 0)
(-2.56753734e-12 0 0)
(-3.92034148e-12 0 0)
(-3.44731912e-12 0 0)
(-3.75181449e-12 0 0)
(-3.70601785e-12 0 0)
(-2.95955766e-12 0 0)
(-3.40176004e-12 0 0)
(-4.03540372e-12 0 0)
(-3.23156281e-12 0 0)
(-4.61818739e-12 0 0)
(-4.7666863e-12 0 0)
(-3.84661796e-12 0 0)
(-4.57166983e-12 0 0)
(-5.86803441e-12 0 0)
(-5.12306528e-12 0 0)
(-4.39217565e-12 0 0)
(-4.37199981e-12 0 0)
(-4.11554604e-12 0 0)
(-5.05917262e-12 0 0)
(-4.25346589e-12 0 0)
(-4.00767319e-12 0 0)
(-5.35349299e-12 0 0)
(-4.50577453e-12 0 0)
(-5.42491318e-12 0 0)
(-4.97166542e-12 0 0)
(-5.53246805e-12 0 0)
(-6.93503928e-12 0 0)
(-5.86631533e-12 0 0)
(-4.81306547e-12 0 0)
(-5.47235049e-12 0 0)
(-6.01083651e-12 0 0)
(-5.43816193e-12 0 0)
(-6.1134442e-12 0 0)
(-5.05026916e-12 0 0)
(-5.46736397e-12 0 0)
(-7.17583361e-12 0 0)
(-4.65034553e-12 0 0)
(-5.97635058e-12 0 0)
(-6.58242909e-12 0 0)
(-5.50982638e-12 0 0)
(-5.36095054e-12 0 0)
(-6.1319235e-12 0 0)
(-6.32957764e-12 0 0)
(-4.87050228e-12 0 0)
(-3.93306211e-12 0 0)
(-5.49731489e-12 0 0)
(-5.80934728e-12 0 0)
(-5.63129953e-12 0 0)
(-5.9083705e-12 0 0)
(-6.97528196e-12 0 0)
(-5.25449237e-12 0 0)
(-6.51639843e-12 0 0)
(-7.10561186e-12 0 0)
(-5.9940116e-12 0 0)
(-6.08544438e-12 0 0)
(-6.10588572e-12 0 0)
(-5.24031086e-12 0 0)
(-5.98900507e-12 0 0)
(-6.10199091e-12 0 0)
(-4.63084774e-12 0 0)
(-5.64876453e-12 0 0)
(-6.82507089e-12 0 0)
(-5.51566093e-12 0 0)
(-6.04368084e-12 0 0)
(-5.58329176e-12 0 0)
(-5.41840427e-12 0 0)
(-5.21377335e-12 0 0)
(-6.03253325e-12 0 0)
(-6.06912009e-12 0 0)
(-5.09329935e-12 0 0)
(-5.84245427e-12 0 0)
(-4.59536185e-12 0 0)
(-6.27115307e-12 0 0)
(-5.82077301e-12 0 0)
(-5.29546641e-12 0 0)
(-5.44555483e-12 0 0)
(-5.40591546e-12 0 0)
(-5.19895224e-12 0 0)
(-6.10754686e-12 0 0)
(-4.68664036e-12 0 0)
(-4.87181446e-12 0 0)
(-4.8617855e-12 0 0)
(-4.54769299e-12 0 0)
(-4.38206794e-12 0 0)
(-5.51968634e-12 0 0)
(-4.43144957e-12 0 0)
(-3.76517584e-12 0 0)
(-3.99102217e-12 0 0)
(-4.26769545e-12 0 0)
(-3.70333581e-12 0 0)
(-4.41798554e-12 0 0)
(-4.45642449e-12 0 0)
(-4.00633973e-12 0 0)
(-4.33821449e-12 0 0)
(-4.29213202e-12 0 0)
(-4.58659947e-12 0 0)
(-3.84681901e-12 0 0)
(-4.72121172e-12 0 0)
(-4.2559624e-12 0 0)
(-5.00164328e-12 0 0)
(-3.23071132e-12 0 0)
(-4.39718689e-12 0 0)
(-4.19888481e-12 0 0)
(-4.25213421e-12 0 0)
(-4.31242716e-12 0 0)
(-2.46916887e-12 0 0)
(-3.13269351e-12 0 0)
(-4.1152921e-12 0 0)
(-3.44026428e-12 0 0)
(-3.2922065e-12 0 0)
(-4.06120101e-12 0 0)
(-3.74184334e-12 0 0)
(-3.63606994e-12 0 0)
(-3.6007165e-12 0 0)
(-3.6175957e-12 0 0)
(-3.26337998e-12 0 0)
(-3.26557307e-12 0 0)
(-4.2952389e-12 0 0)
(-2.34456517e-12 0 0)
(-3.04671729e-12 0 0)
(-3.85770648e-12 0 0)
(-3.55354295e-12 0 0)
(-2.724734e-12 0 0)
(-2.35668947e-12 0 0)
(-2.83178388e-12 0 0)
(-2.78448394e-12 0 0)
(-2.9930026e-12 0 0)
(-2.9666381e-12 0 0)
(-1.85020647e-12 0 0)
(-2.36291717e-12 0 0)
(-3.6203028e-12 0 0)
(-2.97046026e-12 0 0)
(-2.01673294e-12 0 0)
(-2.59199738e-12 0 0)
(-2.11863059e-12 0 0)
(-1.81018598e-12 0 0)
(-1.88800095e-12 0 0)
(-1.80174654e-12 0 0)
(-2.28206245e-12 0 0)
(-2.56931969e-12 0 0)
(-2.76455017e-12 0 0)
(-2.33397978e-12 0 0)
(-2.47450845e-12 0 0)
(-2.96524703e-12 0 0)
(-2.60623117e-12 0 0)
(-3.10924917e-12 0 0)
(-3.03272818e-12 0 0)
(-2.04806449e-12 0 0)
(-3.02049353e-12 0 0)
(-2.30505671e-12 0 0)
(-2.72875786e-12 0 0)
(-2.23683949e-12 0 0)
(-3.21995435e-12 0 0)
(-2.35875693e-12 0 0)
(-2.92178531e-12 0 0)
(-1.47043115e-12 0 0)
(-2.71265212e-12 0 0)
(-3.094414e-12 0 0)
(-1.6714781e-12 0 0)
(-2.41869798e-12 0 0)
(-2.49810483e-12 0 0)
(-3.4160736e-12 0 0)
(-3.35643418e-12 0 0)
(-3.95374664e-12 0 0)
(-2.46116508e-12 0 0)
(-3.20496865e-12 0 0)
(-2.60327172e-12 0 0)
(-3.71875877e-12 0 0)
(-1.9930169e-12 0 0)
(-2.26282747e-12 0 0)
(-2.92587323e-12 0 0)
(-1.99341027e-12 0 0)
(-2.19069555e-12 0 0)
(-1.96951954e-12 0 0)
(-2.04545887e-12 0 0)
(-1.36159261e-12 0 0)
(-1.40549832e-12 0 0)
(-1.52057239e-12 0 0)
(-1.90082666e-12 0 0)
(-1.67938783e-12 0 0)
(-1.77465809e-12 0 0)
(-2.85916623e-12 0 0)
(-2.64502117e-12 0 0)
(-1.8356265e-12 0 0)
(-2.14678323e-12 0 0)
(-1.66695656e-12 0 0)
(-2.01600089e-12 0 0)
(-1.03095377e-12 0 0)
(-2.21245147e-12 0 0)
(-1.69825267e-12 0 0)
(-1.01221999e-12 0 0)
(-1.21768968e-12 0 0)
(-1.69344546e-12 0 0)
(-2.96576014e-12 0 0)
(-2.4784622e-12 0 0)
(-1.42955955e-12 0 0)
(-1.77877018e-12 0 0)
(-2.41426032e-12 0 0)
(-1.3913711e-12 0 0)
(-2.31910526e-12 0 0)
(-1.03774683e-12 0 0)
(-2.42417098e-12 0 0)
(-1.65615958e-12 0 0)
(-1.65724669e-12 0 0)
(-1.26747294e-12 0 0)
(-1.67306221e-12 0 0)
(-8.73822754e-13 0 0)
(-1.7581836e-12 0 0)
(-8.43817206e-13 0 0)
(-8.34469947e-13 0 0)
(-9.90471478e-13 0 0)
(-1.17346056e-12 0 0)