/*--------------------------------*- C++ -*----------------------------------*\
| =========                 |                                                 |
| \\      /  F ield         | OpenFOAM: The Open Source CFD Toolbox           |
|  \\    /   O peration     | Version:  2206                                  |
|   \\  /    A nd           | Website:  www.openfoam.com                      |
|    \\/     M anipulation  |                                                 |
\*---------------------------------------------------------------------------*/
FoamFile
{
    version     2.0;
    format      ascii;
    arch        "LSB;label=32;scalar=64";
    class       volScalarField;
    location    "1.68e-05";
    object      p;
}
// * * * * * * * * * * * * * * * * * * * * * * * * * * * * * * * * * * * * * //

dimensions      [1 -1 -2 0 0 0 0];

internalField   nonuniform List<scalar> 
3183
(
101325
101325
101325
101325
101325
101325
101325
101325
101325
101325
101325
101325
101325
101325
101325
101325
101325
101325
101325
101325
101325
101325
101325
101325
101325
101325
101325
101325
101325
101325
101325
101325
101325
101325
101325
101325
101325
101325
101325
101325
101325
101325
101325
101325
101325
101325
101325
101325
101325
101325
101325
101325
101325
101325
101325
101325
101325
101325
101325
101325
101325
101325
101325
101325
101325
101325
101325
101325
101325
101325
101325
101325
101325
101325
101325
101325
101325
101325
101325
101325
101325
101325
101325
101325
101325
101325
101325
101325
101325
101325
101325
101325
101325
101325
101325
101325
101325
101325
101325
101325
101325
101325
101325
101325
101325
101325
101325
101325
101325
101325
101325
101325
101325
101325
101325
101325
101325
101325
101325
101325
101325
101325
101325
101325
101325
101325
101325
101325
101325
101325
101325
101325
101325
101325
101325
101325
101325
101325
101325
101325
101325
101325
101325
101325
101325
101325
101325
101325
101325
101325
101325
101325
101325
101325
101325
101325
101325
101325
101325
101325
101325
101325
101325
101325
101325
101325
101325
101325
101325
101325
101325
101325
101325
101325
101325
101325
101325
101325
101325
101325
101325
101325
101325
101325
101325
101325
101325
101325
101325
101325
101325
101325
101325
101325
101325
101325
101325
101325
101325
101325
101325
101325
101325
101325
101325
101325
101325
101325
101325
101325
101325
101325
101325
101325
101325
101325
101325
101325
101325
101325
101325
101325
101325
101325
101325
101325
101325
101325
101325
101325
101325
101325
101325
101325
101325
101325
101325
101325
101325
101325
101325
101325
101325
101325
101325
101325
101325
101325
101325
101325
101325
101325
101325
101325
101325
101325
101325
101325
101325
101325
101325
101325
101325
101325
101325
101325
101325
101325
101325
101325
101325
101325
101325
101325
101325
101325
101325
101325
101325
101325
101325
101325
101325
101325
101325
101325
101325
101325
101325
101325
101325
101325
101325
101325
101325
101325
101325
101325
101325
101325
101325
101325
101325
101325
101325
101325
101325
101325
101325
101325
101325
101325
101325
101325
101325
101325
101325
101325
101325
101325
101325
101325
101325
101325
101325
101325
101325
101325
101325
101325
101325
101325
101325
101325
101325
101325
101325
101325
101325
101325
101325
101325
101325
101325
101325
101325
101325
101325
101325
101325
101325
101325
101325
101325
101325
101325
101325
101325
101325
101325
101325
101325
101325
101325
101325
101325
101325
101325
101325
101325
101325
101325
101325
101325
101325
101325
101325
101325
101325
101325
101325
101325
101325
101325
101325
101325
101325
101325
101325
101325
101325
101325
101325
101325
101325
101325
101325
101325
101325
101325
101325
101325
101325
101325
101325
101325
101325
101325
101325
101325
101325
101325
101325
101325
101325
101325
101325
101325
101325
101325
101325
101325
101325
101325
101325
101325
101325
101325
101325
101325
101325
101325
101325
101325
101325
101325
101325
101325
101325
101325
101325
101325
101325
101325
101325
101325
101325
101325
101325
101325
101325
101325
101325
101325
101325
101325
101325
101325
101325
101325
101325
101325
101325
101325
101325
101325
101325
101325
101325
101325
101325
101325
101325
101325
101325
101325
101325
101325
101325
101325
101325
101325
101325
101325
101325
101325
101325
101325
101325
101325
101325
101325
101325
101325
101325
101325
101325
101325
101325
101325
101325
101325
101325
101325
101325
101325
101325
101325
101325
101325
101325
101325
101325
101325
101325
101325
101325
101325
101325
101325
101325
101325
101325
101325
101325
101325
101325
101325
101325
101325
101325
101325
101325
101325
101325
101325
101325
101325
101325
101325
101325
101325
101325
101325
101325
101325
101325
101325
101325
101325
101325
101325
101325
101325
101325
101325
101325
101325
101325
101325
101325
101325
101325
101325
101325
101325
101325
101325
101325
101325
101325
101325
101325
101325
101325
101325
101325
101325
101325
101325
101325
101325
101325
101325
101325
101325
101325
101325
101325
101325
101325
101325
101325
101325
101325
101325
101325
101325
101325
101325
101325
101325
101325
101325
101325
101325
101325
101325
101325
101325
101325
101325
101325
101325
101325
101325
101325
101325
101325
101325
101325
101325
101325
101325
101325
101325
101325
101325
101325
101325
101325
101325
101325
101325
101325
101325
101325
101325
101325
101325
101325
101325
101325
101325
101325
101325
101325
101325
101325
101325
101325
101325
101325
101325
101325
101325
101325
101325
101325
101325
101325
101325
101325
101325
101325
101325
101325
101325
101325
101325
101325
101325
101325
101325
101325
101325
101325
101325
101325
101325
101325
101325
101325
101325
101325
101325
101325
101325
101325
101325
101325
101325
101325
101325
101325
101325
101325
101325
101325
101325
101325
101325
101325
101325
101325
101325
101325
101325
101325
101325
101325
101325
101325
101325
101325
101325
101325
101325
101325
101325
101325
101325
101325
101325
101325
101325
101325
101325
101325
101325
101325
101325
101325
101325
101325
101325
101325
101325
101325
101325
101325
101325
101325
101325
101325
101325
101325
101325
101325
101325
101325
101325
101325
101325
101325
101325
101325
101325
101325
101325
101325
101325
101325
101325
101325
101325
101325
101325
101325
101325
101325
101325
101325
101325
101325
101325
101325
101325
101325
101325
101325
101325
101325
101325
101325
101325
101325
101325
101325
101325
101325
101325
101325
101325
101325
101325
101325
101325
101325
101325
101325
101325
101325
101325
101325
101325
101325
101325
101325
101325
101325
101325
101325
101325
101325
101325
101325
101325
101325
101325
101325
101325
101325
101325
101325
101325
101325
101325
101325
101325
101325
101325
101325
101325
101325
101325
101325
101325
101325
101325
101325
101325
101325
101325
101325
101325
101325
101325
101325
101325
101325
101325
101325
101325
101325
101325
101325
101325
101325
101325
101325
101325
101325
101325
101325
101325
101325
101325
101325
101325
101325
101325
101325
101325
101325
101325
101325
101325
101325
101325
101325
101325
101325
101325
101325
101325
101325
101325
101325
101325
101325
101325
101325
101325
101325
101325
101325
101325
101325
101325
101325
101325
101325
101325
101325
101325
101325
101325
101325
101325
101325
101325
101325
101325
101325
101325
101325
101325
101325
101325
101325
101325
101325
101325
101325
101325
101325
101325
101325
101325
101325
101325
101325
101325
101325
101325
101325
101325
101325
101325
101325
101325
101325
101325
101325
101325
101325
101325
101325
101325
101325
101325
101325
101325
101325
101325
101325
101325
101325
101325
101325
101325
101325
101325
101325
101325
101325
101325
101325
101325
101325
101325
101325
101325
101325
101325
101325
101325
101325
101325
101325
101325
101325
101325
101325
101325
101325
101325
101325
101325
101325
101325
101325
101325
101325
101325
101325
101325
101325
101325
101325
101325
101325
101325
101325
101325
101325
101325
101325
101325
101325
101325
101325
101325
101325
101325
101325
101325
101325
101325
101325
101325
101325
101325
101325
101325
101325
101325
101325
101325
101325
101325
101325
101325
101325
101325
101325
101325
101325
101325
101325
101325
101325
101325
101325
101325
101325
101325
101325
101325
101325
101325
101325
101325
101325
101325
101325
101325
101325
101325
101325
101325
101325
101325
101325
101325
101325
101325
101325
101325
101325
101325
101325
101325
101325
101325
101325
101325
101325
101325
101325
101325
101325
101325
101325
101325
101325
101325
101325
101325
101325
101325
101325
101325
101325
101325
101325
101325
101325
101325
101325
101325
101325
101325
101325
101325
101325
101325
101325
101325
101325
101325
101325
101325
101325
101325
101325
101325
101325
101325
101325
101325
101325
101325
101325
101325
101325
101325
101325
101325
101325
101325
101325
101325
101325
101325
101325
101325
101325
101325
101325
101325
101325
101325
101325
101325
101325
101325
101325
101325
101325
101325
101325
101325
101325
101325
101325
101325
101325
101325
101325
101325
101325
101325
101325
101325
101325
101325
101325
101325
101325
101325
101325
101325
101325
101325
101325
101325
101325
101325
101325
101325
101325
101325
101325
101325
101325
101325
101325
101325
101325
101325
101325
101325
101325
101325
101325
101325
101325
101325
101325
101325
101325
101325
101325
101325
101325
101325
101325
101325
101325
101325
101325
101325
101325
101325
101325
101325
101325
101325
101325
101325
101325
101325
101325
101325
101325
101325
101325
101325
101325
101325
101325
101325
101325
101325
101325
101325
101325
101325
101325
101325
101325
101325
101325
101325
101325
101325
101325
101325
101325
101325
101325
101325
101325
101325
101325
101325
101325
101325
101325
101325
101325
101325
101325
101325
101325
101325
101325
101325
101325
101325
101325
101325
101325
101325
101325
101325
101325
101325
101325
101325
101325
101325
101325
101325
101325
101325
101325
101325
101325
101325
101325
101325
101325
101325
101325
101325
101325
101325
101325
101325
101325
101325
101325
101325
101325
101325
101325
101325
101325
101325
101325
101325
101325
101325
101325
101325
101325
101325
101325
101325
101325
101325
101325
101325
101325
101325
101325
101325
101325
101325
101325
101325
101325
101325
101325
101325
101325
101325
101325
101325
101325
101325
101325
101325
101325
101325
101325
101325
101325
101325
101325
101325
101325
101325
101325
101325
101325
101325
101325
101325
101325
101325
101325
101325
101325
101325
101325
101325
101325
101325
101325
101325
101325
101325
101325
101325
101325
101325
101325
101325
101325
101325
101325
101325
101325
101325
101325
101325
101325
101325
101325
101325
101325
101325
101325
101325
101325
101325
101325
101325
101325
101325
101325
101325
101325
101325
101325
101325
101325
101325
101325
101325
101325
101325
101325
101325
101325
101325
101325
101325
101325
101325
101325
101325
101325
101325
101325
101325
101325
101325
101325
101325
101325
101325
101325
101325
101325
101325
101325
101325
101325
101325
101325
101325
101325
101325
101325
101325
101325
101325
101325
101325
101325
101325
101325
101325
101325
101325
101325
101325
101325
101325
101325
101325
101325
101325
101325
101325
101325
101325
101325
101325
101325
101325
101325
101325
101325
101325
101325
101325
101325
101325
101325
101325
101325
101325
101325
101325
101325
101325
101325
101325
101325
101325
101325
101325
101325
101325
101325
101325
101325
101325
101325
101325
101325
101325
101325
101325
101325
101325
101325
101325
101325
101325
101325
101325
101325
101325
101325
101325
101325
101325
101325
101325
101325
101325
101325
101325
101325
101325
101325
101325
101325
101325
101325
101325
101325
101325
101325
101325
101325
101325
101325
101325
101325
101325
101325
101325
101325
101325
101325
101325
101325
101325
101325
101325
101325
101325
101325
101325
101325
101325
101325
101325
101325
101325
101325
101325
101325
101325
101325
101325
101325
101325
101325
101325
101325
101325
101325
101325
101325
101325
101325
101325
101325
101325
101325
101325
101325
101325
101325
101325
101325
101325
101325
101325
101325
101325
101325
101325
101325
101325
101325
101325
101325
101325
101325
101325
101325
101325
101325
101325
101325
101325
101325
101325
101325
101325
101325
101325
101325
101325
101325
101325
101325
101325
101325
101325
101325
101325
101325
101325
101325
101325
101325
101325
101325
101325
101325
101325
101325
101325
101325
101325
101325
101325
101325
101325
101325
101325
101325
101325
101325
101325
101325
101325
101325
101325
101325
101325
101325
101325
101325
101325
101325
101325
101325
101325
101325
101325
101325
101325
101325
101325
101325
101325
101325
101325
101325
101325
101325
101325
101325
101325
101325
101325
101325
101325
101325
101325
101325
101325
101325
101325
101325
101325
101325
101325
101325
101325
101325
101325
101325
101325
101325
101325
101325
101325
101325
101325
101325
101325
101325
101325
101325
101325
101325
101325
101325
101325
101325
101325
101325
101325
101325
101325
101325
101325
101325
101325
101325
101325
101325
101325
101325
101325
101325
101325
101325
101325
101325
101325
101325
101325
101325
101325
101325
101325
101325
101325
101325
101325
101325
101325
101325
101325
101325
101325
101325
101325
101325
101325
101325
101325
101325
101325
101325
101325
101325
101325
101325
101325
101325
101325
101325
101325
101325
101325
101325
101325
101325
101325
101325
101325
101325
101325
101325
101324.999
101324.999
101324.999
101324.999
101324.999
101324.999
101324.999
101324.999
101324.999
101324.999
101324.999
101324.999
101324.999
101324.999
101324.999
101324.999
101324.999
101324.999
101324.999
101324.998
101324.998
101324.998
101324.998
101324.998
101324.998
101324.998
101324.998
101324.998
101324.997
101324.997
101324.997
101324.997
101324.997
101324.997
101324.996
101324.996
101324.996
101324.996
101324.995
101324.995
101324.995
101324.995
101324.994
101324.994
101324.994
101324.993
101324.993
101324.993
101324.992
101324.992
101324.991
101324.991
101324.99
101324.99
101324.989
101324.989
101324.988
101324.987
101324.987
101324.986
101324.985
101324.985
101324.984
101324.983
101324.982
101324.981
101324.98
101324.979
101324.978
101324.977
101324.976
101324.974
101324.973
101324.972
101324.97
101324.969
101324.967
101324.965
101324.964
101324.962
101324.96
101324.958
101324.956
101324.953
101324.951
101324.949
101324.946
101324.944
101324.941
101324.938
101324.935
101324.932
101324.929
101324.925
101324.921
101324.918
101324.914
101324.91
101324.905
101324.901
101324.896
101324.891
101324.886
101324.881
101324.876
101324.87
101324.864
101324.858
101324.851
101324.844
101324.837
101324.83
101324.822
101324.814
101324.806
101324.797
101324.788
101324.779
101324.769
101324.759
101324.749
101324.738
101324.726
101324.714
101324.702
101324.689
101324.676
101324.662
101324.648
101324.633
101324.618
101324.602
101324.585
101324.568
101324.55
101324.531
101324.512
101324.492
101324.472
101324.45
101324.428
101324.405
101324.381
101324.357
101324.331
101324.305
101324.278
101324.25
101324.22
101324.19
101324.159
101324.127
101324.093
101324.059
101324.023
101323.987
101323.949
101323.91
101323.869
101323.828
101323.785
101323.74
101323.695
101323.647
101323.599
101323.549
101323.497
101323.444
101323.389
101323.333
101323.275
101323.215
101323.154
101323.09
101323.025
101322.958
101322.89
101322.819
101322.746
101322.672
101322.595
101322.517
101322.436
101322.353
101322.268
101322.181
101322.091
101321.999
101321.905
101321.809
101321.71
101321.609
101321.506
101321.399
101321.291
101321.18
101321.066
101320.95
101320.831
101320.709
101320.585
101320.458
101320.329
101320.196
101320.061
101319.923
101319.782
101319.639
101319.492
101319.343
101319.191
101319.036
101318.878
101318.717
101318.553
101318.386
101318.216
101318.044
101317.868
101317.689
101317.508
101317.323
101317.136
101316.946
101316.753
101316.557
101316.358
101316.156
101315.951
101315.744
101315.534
101315.321
101315.105
101314.887
101314.666
101314.443
101314.217
101313.988
101313.757
101313.524
101313.288
101313.05
101312.81
101312.567
101312.323
101312.076
101311.827
101311.577
101311.325
101311.071
101310.815
101310.558
101310.299
101310.039
101309.778
101309.515
101309.252
101308.987
101308.722
101308.456
101308.189
101307.921
101307.653
101307.385
101307.117
101306.848
101306.58
101306.311
101306.043
101305.776
101305.509
101305.242
101304.977
101304.712
101304.448
101304.186
101303.925
101303.665
101303.407
101303.151
101302.896
101302.644
101302.394
101302.146
101301.9
101301.657
101301.417
101301.179
101300.944
101300.713
101300.485
101300.259
101300.038
101299.82
101299.606
101299.395
101299.188
101298.986
101298.788
101298.593
101298.404
101298.218
101298.038
101297.862
101297.69
101297.524
101297.363
101297.206
101297.055
101296.909
101296.768
101296.632
101296.502
101296.377
101296.258
101296.144
101296.036
101295.933
101295.836
101295.745
101295.659
101295.579
101295.505
101295.436
101295.374
101295.317
101295.265
101295.22
101295.18
101295.146
101295.117
101295.094
101295.076
101295.065
101295.058
101295.057
101295.062
101295.071
101295.086
101295.107
101295.132
101295.162
101295.198
101295.238
101295.283
101295.332
101295.387
101295.445
101295.508
101295.576
101295.647
101295.723
101295.803
101295.886
101295.973
101296.064
101296.158
101296.256
101296.357
101296.461
101296.568
101296.678
101296.79
101296.905
101297.023
101297.143
101297.265
101297.389
101297.515
101297.643
101297.773
101297.904
101298.037
101298.17
101298.306
101298.442
101298.579
101298.717
101298.855
101298.995
101299.134
101299.274
101299.415
101299.555
101299.695
101299.836
101299.976
101300.116
101300.256
101300.395
101300.534
101300.672
101300.809
101300.945
101301.081
101301.216
101301.35
101301.483
101301.614
101301.745
101301.874
101302.002
101302.129
101302.254
101302.378
101302.501
101302.622
101302.741
101302.859
101302.975
101303.09
101303.203
101303.315
101303.425
101303.533
101303.639
101303.744
101303.848
101303.949
101304.049
101304.147
101304.244
101304.339
101304.432
101304.524
101304.614
101304.702
101304.789
101304.874
101304.958
101305.04
101305.121
101305.2
101305.278
101305.354
101305.429
101305.503
101305.575
101305.646
101305.716
101305.784
101305.851
101305.917
101305.982
101306.046
101306.109
101306.17
101306.231
101306.29
101306.349
101306.407
101306.463
101306.519
101306.574
101306.629
101306.682
101306.735
101306.787
101306.838
101306.889
101306.939
101306.988
101307.037
101307.085
101307.133
101307.18
101307.227
101307.273
101307.319
101307.364
101307.409
101307.454
101307.498
101307.542
101307.586
101307.629
101307.672
101307.714
101307.756
101307.798
101307.84
101307.881
101307.922
101307.963
101308.004
101308.044
101308.085
101308.124
101308.164
101308.204
101308.243
101308.282
101308.32
101308.359
101308.397
101308.435
101308.473
101308.51
101308.548
101308.585
101308.621
101308.658
101308.694
101308.73
101308.766
101308.801
101308.836
101308.871
101308.905
101308.939
101308.973
101309.006
101309.039
101309.072
101309.105
101309.137
101309.168
101309.199
101309.23
101309.261
101309.291
101309.32
101309.35
101309.379
101309.407
101309.435
101309.463
101309.49
101309.517
101309.543
101309.569
101309.594
101309.62
101309.644
101309.668
101309.692
101309.716
101309.739
101309.761
101309.784
101309.805
101309.827
101309.848
101309.869
101309.889
101309.909
101309.929
101309.948
101309.967
101309.986
101310.004
101310.022
101310.04
101310.058
101310.075
101310.092
101310.109
101310.126
101310.143
101310.159
101310.175
101310.191
101310.207
101310.223
101310.239
101310.255
101310.271
101310.286
101310.302
101310.317
101310.333
101310.349
101310.364
101310.38
101310.396
101310.411
101310.427
101310.443
101310.459
101310.475
101310.492
101310.508
101310.525
101310.542
101310.559
101310.576
101310.593
101310.61
101310.628
101310.646
101310.664
101310.682
101310.7
101310.718
101310.737
101310.756
101310.775
101310.794
101310.814
101310.833
101310.853
101310.873
101310.893
101310.913
101310.933
101310.953
101310.974
101310.994
101311.015
101311.036
101311.057
101311.077
101311.098
101311.119
101311.14
101311.161
101311.182
101311.203
101311.223
101311.244
101311.265
101311.285
101311.306
101311.326
101311.346
101311.366
101311.386
101311.406
101311.425
101311.445
101311.464
101311.483
101311.502
101311.52
101311.539
101311.557
101311.575
101311.592
101311.61
101311.627
101311.644
101311.66
101311.677
101311.693
101311.708
101311.724
101311.739
101311.754
101311.769
101311.784
101311.798
101311.812
101311.826
101311.84
101311.853
101311.867
101311.88
101311.893
101311.905
101311.918
101311.93
101311.942
101311.954
101311.966
101311.978
101311.989
101312.001
101312.012
101312.023
101312.035
101312.046
101312.056
101312.067
101312.078
101312.089
101312.099
101312.11
101312.12
101312.131
101312.141
101312.152
101312.162
101312.172
101312.182
101312.192
101312.202
101312.212
101312.222
101312.232
101312.242
101312.252
101312.262
101312.272
101312.281
101312.291
101312.301
101312.31
101312.32
101312.329
101312.338
101312.348
101312.357
101312.366
101312.375
101312.384
101312.393
101312.402
101312.411
101312.42
101312.429
101312.438
101312.446
101312.455
101312.463
101312.472
101312.48
101312.489
101312.497
101312.506
101312.514
101312.522
101312.531
101312.539
101312.547
101312.555
101312.564
101312.572
101312.58
101312.589
101312.597
101312.605
101312.614
101312.623
101312.631
101312.64
101312.649
101312.657
101312.666
101312.675
101312.684
101312.693
101312.703
101312.712
101312.721
101312.731
101312.741
101312.75
101312.76
101312.77
101312.78
101312.791
101312.801
101312.811
101312.822
101312.833
101312.844
101312.855
101312.867
101312.879
101312.891
101312.904
101312.917
101312.93
101312.944
101312.959
101312.975
101312.992
101313.009
101313.028
101313.048
101313.07
101313.093
101313.119
101313.147
101313.177
101313.21
101313.246
101313.285
101313.329
101313.376
101313.428
101313.486
101313.548
101313.616
101313.691
101313.772
101313.861
101313.956
101314.06
101314.172
101314.292
101314.421
101314.558
101314.703
101314.856
101315.017
101315.184
101315.358
101315.535
101315.716
101315.897
101316.077
101316.253
101316.421
101316.578
101316.721
101316.846
101316.949
101317.027
101317.077
101317.099
101317.101
101317.121
101317.039
101317.038
101317.123
101317.044
101316.533
101316.384
101316.288
101316.313
101316.293
101316.307
101316.267
101316.253
101316.201
101316.151
101316.078
101316.003
101315.921
101315.837
101315.751
101315.665
101315.579
101315.493
101315.407
101315.322
101315.239
101315.157
101315.076
101314.997
101314.919
101314.844
101314.77
101314.698
101314.627
101314.559
101314.493
101314.429
101314.367
101314.306
101314.248
101314.192
101314.137
101314.085
101314.034
101313.986
101313.939
101313.894
101313.85
101313.808
101313.768
101313.73
101313.693
101313.658
101313.624
101313.591
101313.56
101313.53
101313.501
101313.474
101313.448
101313.423
101313.399
101313.376
101313.354
101313.333
101313.313
101313.294
101313.275
101313.258
101313.241
101313.225
101313.21
101313.195
101313.181
101313.168
101313.155
101313.142
101313.131
101313.119
101313.108
101313.098
101313.088
101313.078
101313.069
101313.06
101313.051
101313.042
101313.034
101313.026
101313.019
101313.011
101313.004
101312.997
101312.99
101312.983
101312.977
101312.97
101312.964
101312.958
101312.952
101312.946
101312.94
101312.934
101312.928
101312.923
101312.917
101312.912
101312.906
101312.901
101312.895
101312.89
101312.885
101312.879
101312.874
101312.869
101312.864
101312.859
101312.854
101312.848
101312.843
101312.838
101312.833
101312.828
101312.823
101312.818
101312.813
101312.808
101312.803
101312.798
101312.793
101312.789
101312.784
101312.779
101312.774
101312.769
101312.764
101312.759
101312.755
101312.75
101312.745
101312.74
101312.736
101312.731
101312.726
101312.722
101312.717
101312.713
101312.708
101312.703
101312.699
101312.694
101312.69
101312.685
101312.681
101312.676
101312.672
101312.668
101312.663
101312.659
101312.654
101312.65
101312.646
101312.641
101312.637
101312.633
101312.629
101312.624
101312.62
101312.616
101312.612
101312.608
101312.603
101312.599
101312.595
101312.591
101312.587
101312.583
101312.579
101312.574
101312.57
101312.566
101312.562
101312.558
101312.554
101312.549
101312.545
101312.541
101312.537
101312.533
101312.529
101312.525
101312.52
101312.516
101312.512
101312.508
101312.504
101312.5
101312.495
101312.491
101312.487
101312.483
101312.478
101312.474
101312.47
101312.465
101312.461
101312.457
101312.452
101312.448
101312.444
101312.439
101312.435
101312.43
101312.426
101312.421
101312.417
101312.412
101312.408
101312.403
101312.399
101312.394
101312.389
101312.385
101312.38
101312.375
101312.371
101312.366
101312.361
101312.356
101312.352
101312.347
101312.342
101312.337
101312.332
101312.328
101312.323
101312.318
101312.313
101312.308
101312.303
101312.298
101312.293
101312.288
101312.283
101312.278
101312.273
101312.267
101312.262
101312.257
101312.252
101312.247
101312.242
101312.237
101312.231
101312.226
101312.221
101312.216
101312.21
101312.205
101312.2
101312.194
101312.189
101312.184
101312.178
101312.173
101312.167
101312.162
101312.156
101312.151
101312.145
101312.14
101312.134
101312.129
101312.123
101312.118
101312.112
101312.106
101312.101
101312.095
101312.089
101312.084
101312.078
101312.072
101312.066
101312.061
101312.055
101312.049
101312.043
101312.037
101312.031
101312.025
101312.019
101312.013
101312.007
101312.001
101311.995
101311.989
101311.983
101311.977
101311.97
101311.964
101311.958
101311.951
101311.945
101311.939
101311.932
101311.926
101311.919
101311.913
101311.906
101311.899
101311.893
101311.886
101311.879
101311.872
101311.865
101311.858
101311.851
101311.844
101311.837
101311.83
101311.823
101311.816
101311.808
101311.801
101311.794
101311.786
101311.779
101311.771
101311.764
101311.756
101311.748
101311.74
101311.733
101311.725
101311.717
101311.709
101311.7
101311.692
101311.684
101311.676
101311.667
101311.659
101311.651
101311.642
101311.633
101311.625
101311.616
101311.607
101311.599
101311.59
101311.581
101311.572
101311.563
101311.553
101311.544
101311.535
101311.526
101311.516
101311.507
101311.497
101311.488
101311.478
101311.469
101311.459
101311.449
101311.44
101311.43
101311.42
101311.41
101311.4
101311.39
101311.38
101311.37
101311.36
101311.349
101311.339
101311.329
101311.319
101311.308
101311.298
101311.288
101311.277
101311.267
101311.256
101311.246
101311.235
101311.225
101311.214
101311.203
101311.193
101311.182
101311.172
101311.161
101311.15
101311.14
101311.129
101311.118
101311.108
101311.097
101311.086
101311.076
101311.065
101311.054
101311.044
101311.033
101311.022
101311.012
101311.001
101310.99
101310.98
101310.969
101310.959
101310.948
101310.938
101310.927
101310.917
101310.906
101310.896
101310.885
101310.875
101310.865
101310.854
101310.844
101310.834
101310.823
101310.813
101310.803
101310.793
101310.783
101310.773
101310.763
101310.753
101310.743
101310.733
101310.723
101310.713
101310.703
101310.694
101310.684
101310.674
101310.665
101310.655
101310.645
101310.636
101310.626
101310.617
101310.608
101310.598
101310.589
101310.58
101310.57
101310.561
101310.552
101310.543
101310.534
101310.525
101310.516
101310.507
101310.498
101310.489
101310.48
101310.471
101310.462
101310.453
101310.445
101310.436
101310.427
101310.418
101310.41
101310.401
101310.392
101310.384
101310.375
101310.366
101310.358
101310.349
101310.341
101310.332
101310.324
101310.315
101310.307
101310.298
101310.289
101310.281
101310.272
101310.264
101310.255
101310.247
101310.238
101310.23
101310.221
101310.213
101310.204
101310.195
101310.187
101310.178
101310.169
101310.161
101310.152
101310.143
101310.134
101310.126
101310.117
101310.108
101310.099
101310.089
101310.078
101310.066
101310.054
101310.04
101310.026
101310.01
101309.993
101309.975
101309.954
101309.933
101309.909
101309.883
101309.855
101309.824
101309.79
101309.753
101309.711
101309.666
101309.616
101309.56
101309.498
101309.429
101309.353
101309.267
101309.171
101309.065
101308.946
101308.813
101308.666
101308.503
101308.322
101308.122
101307.901
101307.657
101307.386
101307.082
101306.737
101306.334
101305.852
101305.257
101304.505
101303.539
101302.301
101300.75
101298.901
101296.881
101294.993
101293.732
101293.723
101295.509
101299.271
101304.604
101310.556
101315.974
101320.059
101322.64
101324.016
101324.642
101324.886
101324.969
101324.993
101324.999
101325
101325.001
101325.001
101325.001
101325.001
101325.001
101325.001
101325.001
101325.001
101325.001
101325.001
101325
101325
)
;

boundaryField
{
    closed
    {
        type            zeroGradient;
    }
    open
    {
        type            waveTransmissive;
        gamma           1.25;
        fieldInf        101325;
        lInf            1;
        value           uniform 101325;
    }
    sides
    {
        type            empty;
    }
}


// ************************************************************************* //
