/*--------------------------------*- C++ -*----------------------------------*\
| =========                 |                                                 |
| \\      /  F ield         | OpenFOAM: The Open Source CFD Toolbox           |
|  \\    /   O peration     | Version:  2206                                  |
|   \\  /    A nd           | Website:  www.openfoam.com                      |
|    \\/     M anipulation  |                                                 |
\*---------------------------------------------------------------------------*/
FoamFile
{
    version     2.0;
    format      ascii;
    arch        "LSB;label=32;scalar=64";
    class       surfaceScalarField;
    location    "1.68e-05";
    object      phi;
}
// * * * * * * * * * * * * * * * * * * * * * * * * * * * * * * * * * * * * * //

dimensions      [1 0 -1 0 0 0 0];

oriented        oriented;

internalField   nonuniform List<scalar> 
3182
(
5.96725375e-18
-2.00486251e-18
-2.81685245e-18
-2.28758216e-18
-8.72388811e-21
-4.37367228e-23
-3.05865184e-24
1.91413699e-25
8.25703832e-24
1.74614789e-22
2.06658649e-19
4.61987536e-18
3.71708888e-18
1.34568301e-18
1.17013611e-18
-1.40099324e-18
-5.23597984e-18
-4.64754961e-18
-5.47121451e-18
4.16562376e-18
7.79447189e-20
3.73130612e-21
1.61168038e-18
2.57943442e-18
4.29514579e-18
6.4032236e-18
5.22270011e-18
2.54113066e-18
9.40471886e-20
-8.09119293e-19
-4.48467118e-19
-1.42084973e-18
-5.42993099e-18
-5.9901078e-18
-3.3267806e-18
-5.66928983e-18
-8.85879049e-18
-8.29785414e-18
-7.32571232e-18
-4.40060539e-18
-2.26587822e-18
6.79921946e-19
3.14771246e-18
6.68232441e-18
9.47239039e-18
1.1170058e-17
1.26696905e-17
1.11545877e-17
9.20939068e-18
7.9250041e-18
4.12921389e-18
1.49043059e-19
-2.27042759e-18
-5.51528666e-18
-9.96455625e-18
-1.34192692e-17
-1.73354068e-17
-2.10129973e-17
-2.32073523e-17
-2.56098145e-17
-2.84185566e-17
-3.08557889e-17
-3.24249767e-17
-3.47566947e-17
-3.57795378e-17
-3.57854752e-17
-3.60166779e-17
-3.72836162e-17
-3.86028649e-17
-3.87034948e-17
-3.99403127e-17
-4.05900083e-17
-4.11634972e-17
-4.22383085e-17
-4.31210262e-17
-4.44032054e-17
-4.48920161e-17
-4.53296925e-17
-4.54612129e-17
-4.79342329e-17
-4.84968991e-17
-4.88055331e-17
-5.00697594e-17
-5.27024414e-17
-5.32698429e-17
-5.36639185e-17
-5.67010882e-17
-5.69024143e-17
-5.84176407e-17
-5.82332289e-17
-5.94546419e-17
-6.16271203e-17
-6.55507791e-17
-6.31482049e-17
-6.39561169e-17
-6.37895023e-17
-6.42075846e-17
-6.63094529e-17
-6.18315561e-17
-6.2587817e-17
-6.06754365e-17
-6.21327973e-17
-6.39924259e-17
-6.25780196e-17
-6.27008413e-17
-6.12691899e-17
-6.19810143e-17
-6.25958897e-17
-6.29652786e-17
-6.17427601e-17
-6.26649718e-17
-6.52847611e-17
-6.59838909e-17
-6.57759142e-17
-6.94499073e-17
-6.97051432e-17
-7.02715399e-17
-7.15730654e-17
-7.30195322e-17
-7.38263219e-17
-7.33057376e-17
-7.38220438e-17
-7.30306673e-17
-7.03474799e-17
-7.27184894e-17
-7.23806398e-17
-7.30903495e-17
-7.48647148e-17
-7.66732743e-17
-7.69479221e-17
-7.78694575e-17
-7.89378191e-17
-7.97956589e-17
-7.93392608e-17
-8.38297377e-17
-8.49450703e-17
-8.37659172e-17
-8.36478604e-17
-8.58482981e-17
-8.54610755e-17
-8.54084125e-17
-8.83825516e-17
-8.69869424e-17
-8.82199503e-17
-8.88977956e-17
-8.97189627e-17
-9.02653015e-17
-8.61769128e-17
-8.47704002e-17
-8.42381947e-17
-8.48830534e-17
-8.62632385e-17
-8.57208991e-17
-8.73262201e-17
-8.66646206e-17
-8.68497021e-17
-8.8094927e-17
-8.89733856e-17
-8.56764115e-17
-8.72933113e-17
-8.63300034e-17
-8.4532376e-17
-8.20394388e-17
-8.19189764e-17
-7.93006863e-17
-8.22939348e-17
-8.32782775e-17
-8.42527884e-17
-8.87962e-17
-9.01009876e-17
-8.75312015e-17
-8.8461616e-17
-8.62271283e-17
-9.07717033e-17
-8.61848882e-17
-8.58360664e-17
-8.72227746e-17
-8.4373393e-17
-8.53296805e-17
-8.56595472e-17
-8.53470983e-17
-8.8271982e-17
-8.77611209e-17
-8.77056879e-17
-8.60297151e-17
-8.92145506e-17
-8.72876454e-17
-8.89399284e-17
-8.85102156e-17
-8.87882069e-17
-9.03143422e-17
-9.16424381e-17
-8.88634313e-17
-8.88887949e-17
-9.16959761e-17
-9.08515453e-17
-9.45799361e-17
-9.52827701e-17
-9.22171926e-17
-9.19811703e-17
-9.33481255e-17
-9.59567451e-17
-9.69101474e-17
-9.78422935e-17
-9.69262419e-17
-9.62187743e-17
-9.87697984e-17
-9.73590258e-17
-9.49752589e-17
-9.8872634e-17
-9.93785357e-17
-9.9868394e-17
-1.03337648e-16
-1.04909433e-16
-1.05680887e-16
-1.04473458e-16
-1.05154015e-16
-1.04368496e-16
-1.02910698e-16
-1.06266119e-16
-1.05485274e-16
-1.04433478e-16
-1.05254348e-16
-1.05247745e-16
-1.06027206e-16
-1.07992153e-16
-1.03994249e-16
-1.07253544e-16
-1.02695452e-16
-1.02166309e-16
-1.03320925e-16
-1.02310505e-16
-1.0051958e-16
-1.01030595e-16
-1.03142148e-16
-1.01381249e-16
-1.04214766e-16
-1.03761826e-16
-1.04987382e-16
-1.05113543e-16
-1.04201601e-16
-1.0239179e-16
-1.03906745e-16
-1.06356927e-16
-1.08513995e-16
-1.08405845e-16
-1.09523303e-16
-1.07710329e-16
-1.09807156e-16
-1.0778866e-16
-1.05933835e-16
-1.08302873e-16
-1.05399847e-16
-1.04197995e-16
-1.04970287e-16
-1.07392596e-16
-1.04801622e-16
-1.07409146e-16
-1.09156344e-16
-1.06441062e-16
-1.08972745e-16
-1.15727674e-16
-1.13727691e-16
-1.13834335e-16
-1.1702166e-16
-1.1843165e-16
-1.18181004e-16
-1.19340613e-16
-1.20216815e-16
-1.20252642e-16
-1.21222033e-16
-1.19605011e-16
-1.21100226e-16
-1.18136281e-16
-1.18399316e-16
-1.22242388e-16
-1.22647596e-16
-1.24745109e-16
-1.22528517e-16
-1.25518488e-16
-1.29615438e-16
-1.27848126e-16
-1.31047331e-16
-1.31135674e-16
-1.30535961e-16
-1.29985532e-16
-1.30214505e-16
-1.31745721e-16
-1.32499007e-16
-1.31046889e-16
-1.26407e-16
-1.25658707e-16
-1.243913e-16
-1.2687531e-16
-1.28018232e-16
-1.28299831e-16
-1.27601457e-16
-1.27263251e-16
-1.27815077e-16
-1.23923776e-16
-1.26678191e-16
-1.2208156e-16
-1.257101e-16
-1.27698536e-16
-1.29928434e-16
-1.30776884e-16
-1.31979432e-16
-1.33653728e-16
-1.31038105e-16
-1.33448274e-16
-1.3260822e-16
-1.34695555e-16
-1.3647028e-16
-1.38352388e-16
-1.35255328e-16
-1.39160338e-16
-1.37003567e-16
-1.36990657e-16
-1.33524788e-16
-1.32730159e-16
-1.33938788e-16
-1.33904426e-16
-1.34165786e-16
-1.35706509e-16
-1.34407479e-16
-1.30491533e-16
-1.29359728e-16
-1.2943693e-16
-1.28739383e-16
-1.2827219e-16
-1.28532433e-16
-1.26546945e-16
-1.2824677e-16
-1.25090066e-16
-1.2606357e-16
-1.2857971e-16
-1.27173195e-16
-1.31393997e-16
-1.30900679e-16
-1.26629399e-16
-1.28015264e-16
-1.27075658e-16
-1.27104407e-16
-1.25875609e-16
-1.25465218e-16
-1.25643606e-16
-1.27998196e-16
-1.28213437e-16
-1.27051826e-16
-1.25035313e-16
-1.25044668e-16
-1.24845951e-16
-1.2632346e-16
-1.25738316e-16
-1.25510145e-16
-1.2148225e-16
-1.21776831e-16
-1.21855559e-16
-1.21196687e-16
-1.23573674e-16
-1.2296905e-16
-1.23431379e-16
-1.21604935e-16
-1.20785545e-16
-1.20041434e-16
-1.21387374e-16
-1.19393468e-16
-1.18153531e-16
-1.15447528e-16
-1.18399297e-16
-1.16003908e-16
-1.11934348e-16
-1.11715793e-16
-1.12603982e-16
-1.14505235e-16
-1.16162377e-16
-1.11161514e-16
-1.12455576e-16
-1.11286617e-16
-1.12378738e-16
-1.12498672e-16
-1.10129973e-16
-1.09929137e-16
-1.13112842e-16
-1.09013528e-16
-1.0828055e-16
-1.1274537e-16
-1.07870031e-16
-1.08630799e-16
-1.097625e-16
-1.1011807e-16
-1.08559135e-16
-1.07223147e-16
-1.12882252e-16
-1.07317837e-16
-1.08859061e-16
-1.07712074e-16
-1.05438007e-16
-1.07338524e-16
-1.03606466e-16
-9.93196579e-17
-1.00454369e-16
-9.98735779e-17
-1.0281909e-16
-9.97443798e-17
-9.70060127e-17
-1.0279502e-16
-9.85807916e-17
-9.69145938e-17
-9.33874607e-17
-9.13446741e-17
-8.97028038e-17
-8.80334629e-17
-9.20592142e-17
-9.1390017e-17
-9.16143129e-17
-8.97444831e-17
-8.93454822e-17
-8.42862552e-17
-8.60173878e-17
-8.62468949e-17
-8.46018003e-17
-8.69082265e-17
-8.76030053e-17
-8.80001203e-17
-8.96850312e-17
-8.77567604e-17
-8.65238744e-17
-8.19938538e-17
-8.32378397e-17
-8.48790612e-17
-8.55915229e-17
-8.31789262e-17
-8.30912445e-17
-8.27210889e-17
-8.5825903e-17
-8.42492076e-17
-8.69106011e-17
-8.85845681e-17
-8.5188266e-17
-8.7368082e-17
-8.80530965e-17
-8.71795917e-17
-8.72456852e-17
-8.1546492e-17
-8.25989832e-17
-8.08976992e-17
-8.26133793e-17
-8.66226362e-17
-8.3557037e-17
-8.20969575e-17
-8.51338428e-17
-8.54852389e-17
-8.54500925e-17
-8.6095285e-17
-8.9721982e-17
-8.56751518e-17
-8.71374303e-17
-8.92743404e-17
-8.71017875e-17
-8.80690216e-17
-8.4567222e-17
-8.46850659e-17
-8.38700592e-17
-7.94325979e-17
-7.8439053e-17
-7.21195289e-17
-7.43292458e-17
-7.0942053e-17
-7.28180012e-17
-7.53702104e-17
-7.44134903e-17
-7.39167026e-17
-7.58399395e-17
-7.33026092e-17
-7.23047814e-17
-6.90552689e-17
-6.98232455e-17
-6.82662876e-17
-6.70150279e-17
-6.71530097e-17
-6.85698663e-17
-6.58440498e-17
-6.56578638e-17
-6.33824792e-17
-6.42897939e-17
-6.24040781e-17
-6.55658069e-17
-6.43021567e-17
-6.75005665e-17
-6.4392887e-17
-6.39417038e-17
-6.60624817e-17
-6.28301441e-17
-6.2697903e-17
-6.60964075e-17
-6.1146344e-17
-5.87354842e-17
-5.90811262e-17
-6.2401919e-17
-6.30974115e-17
-5.92874674e-17
-6.07925295e-17
-6.33623855e-17
-6.17217356e-17
-6.04380521e-17
-6.10618177e-17
-5.77822124e-17
-5.87617653e-17
-5.82168912e-17
-5.81362217e-17
-5.8576847e-17
-5.52340119e-17
-5.66880108e-17
-5.55472149e-17
-5.42083778e-17
-5.35211898e-17
-5.63104201e-17
-5.16619148e-17
-5.24271542e-17
-4.90623904e-17
-4.781053e-17
-4.97577815e-17
-4.88292829e-17
-4.64292609e-17
-4.72945675e-17
-4.81077711e-17
-4.6008566e-17
-4.49818045e-17
-4.37331185e-17
-4.27614665e-17
-4.2591558e-17
-4.25832038e-17
-3.96304794e-17
-4.09849097e-17
-4.13821492e-17
-4.26458475e-17
-4.42703956e-17
-4.21770108e-17
-3.92804389e-17
-3.90459755e-17
-3.97093511e-17
-3.53793424e-17
-3.42181382e-17
-3.18151226e-17
-3.40156291e-17
-3.50661241e-17
-3.15881992e-17
-3.37226688e-17
-3.53326959e-17
-3.56548309e-17
-3.20323685e-17
-2.92690709e-17
-2.81406901e-17
-2.46859432e-17
-2.5075676e-17
-2.49085737e-17
-2.56687625e-17
-2.7477703e-17
-2.40985993e-17
-2.7543858e-17
-2.66505551e-17
-2.62540558e-17
-2.39377806e-17
-2.19632074e-17
-1.95369829e-17
-1.42625878e-17
-1.51588832e-17
-1.2314829e-17
-1.07234392e-17
-6.97073472e-18
-1.06442972e-17
-6.92389696e-18
-8.54651588e-18
-4.70224071e-18
-7.84743289e-18
-8.77999563e-18
-6.42545155e-18
-4.86651601e-18
-8.04096819e-18
-4.36701337e-18
-5.45607886e-18
-3.82430099e-18
-5.07799317e-18
-2.54668771e-18
-1.49963892e-18
1.43813036e-19
-1.92345208e-18
3.79904151e-19
2.5934363e-18
2.38609306e-20
1.18316684e-18
1.49836756e-18
1.36841951e-18
2.68275323e-18
3.30537036e-18
1.95816226e-18
5.66227537e-18
6.51067615e-18
5.87989509e-18
4.81159816e-18
5.60091787e-18
6.222072e-18
5.92216774e-18
6.01631996e-18
8.08888043e-18
8.45317992e-18
1.00336023e-17
6.47650763e-18
5.99789964e-18
4.57736117e-18
3.51569128e-18
4.51577736e-18
6.63518705e-18
5.20012011e-18
8.20684581e-18
8.49984965e-18
1.15274705e-17
7.98385646e-18
4.34618791e-18
2.97541532e-18
9.13399784e-19
1.09276564e-18
1.02980185e-18
3.37922361e-18
2.75697208e-18
7.90839556e-19
4.34182529e-18
2.66604498e-18
3.07024601e-18
3.80805918e-18
7.32296861e-18
7.0432721e-18
6.43180959e-18
6.89297753e-18
1.00084515e-17
7.70078153e-18
9.02292887e-18
8.54432685e-18
7.05135869e-18
8.9578889e-18
6.78188534e-18
8.92462668e-18
1.10476907e-17
8.5133081e-18
1.24576534e-17
1.21921408e-17
1.35608198e-17
1.62124266e-17
1.75187629e-17
1.66361522e-17
1.43073906e-17
1.60086124e-17
1.2318717e-17
1.49097013e-17
1.32988524e-17
1.43482722e-17
1.33168206e-17
1.54321674e-17
1.64936314e-17
1.98511067e-17
1.88271814e-17
1.91330007e-17
2.09447819e-17
1.90989574e-17
2.53937991e-17
2.55640081e-17
2.62947517e-17
2.76163449e-17
2.69158632e-17
2.10834391e-17
2.45946188e-17
2.43782779e-17
2.36140864e-17
2.3555474e-17
2.10433651e-17
2.33760769e-17
2.33529916e-17
2.59248375e-17
2.79363027e-17
3.1015161e-17
3.10197406e-17
3.45387801e-17
3.06920348e-17
2.65325425e-17
2.97538891e-17
3.19114806e-17
3.34261609e-17
3.46783565e-17
3.62493111e-17
3.40154649e-17
3.77554931e-17
3.45162058e-17
3.74929512e-17
3.99638514e-17
4.12399216e-17
4.19705188e-17
4.26634653e-17
4.64761656e-17
4.72800516e-17
4.62627131e-17
4.52327093e-17
4.56458542e-17
4.5705545e-17
4.76843795e-17
5.04042999e-17
4.98613938e-17
4.89542559e-17
4.93852489e-17
4.81432822e-17
4.92391701e-17
5.02398448e-17
5.28697323e-17
5.26938555e-17
5.23969264e-17
5.22342227e-17
5.33765957e-17
5.64012912e-17
5.57892512e-17
5.74859837e-17
6.00307684e-17
5.76460031e-17
5.58326549e-17
5.75965481e-17
5.63737217e-17
5.32339548e-17
5.80963132e-17
5.51852627e-17
5.59958476e-17
5.67933131e-17
5.61944988e-17
5.89397961e-17
6.06036263e-17
5.88636796e-17
6.00665231e-17
5.60474418e-17
5.65345926e-17
5.47698111e-17
5.33810692e-17
5.71730795e-17
5.43658589e-17
5.02411793e-17
5.12670388e-17
4.98341786e-17
4.94841866e-17
4.65912185e-17
4.77665065e-17
4.56166163e-17
4.50436563e-17
4.32286166e-17
4.41819448e-17
4.42166072e-17
4.52875198e-17
4.61864629e-17
4.84574105e-17
4.95619959e-17
5.00193832e-17
5.08854765e-17
4.83209847e-17
4.80462708e-17
4.95356462e-17
4.88557826e-17
4.97856664e-17
5.03338941e-17
4.98221042e-17
4.9542678e-17
4.79174027e-17
5.43703559e-17
5.34351459e-17
5.26512585e-17
5.60890825e-17
5.65822464e-17
5.32767158e-17
5.69410472e-17
5.56801794e-17
5.60670052e-17
5.60230382e-17
5.80728637e-17
5.39566183e-17
5.80125258e-17
5.88706282e-17
6.11029814e-17
5.83645815e-17
5.92443018e-17
5.97449289e-17
5.64788879e-17
5.98929693e-17
6.13635864e-17
5.63122516e-17
5.90687219e-17
5.67158499e-17
5.85509897e-17
6.10347214e-17
5.58818684e-17
5.78183051e-17
6.39558464e-17
6.26455035e-17
5.96927192e-17
5.70530058e-17
5.88828089e-17
5.67407595e-17
5.69790991e-17
5.8220641e-17
5.75495353e-17
6.13441855e-17
5.89645275e-17
6.13002851e-17
5.72399149e-17
5.87706419e-17
5.68606425e-17
6.00212701e-17
5.66240459e-17
5.72048056e-17
5.76508486e-17
6.09015626e-17
5.70252655e-17
5.50472812e-17
5.71497099e-17
5.69506491e-17
5.91280229e-17
5.85922903e-17
5.84917398e-17
5.68439568e-17
5.63808149e-17
5.93023504e-17
6.22753315e-17
6.1613263e-17
6.24279355e-17
6.20980608e-17
6.35100889e-17
6.31201269e-17
6.29502116e-17
6.60757966e-17
6.84792649e-17
6.67393951e-17
6.77312301e-17
6.81674456e-17
6.80233915e-17
6.46029909e-17
6.92212336e-17
6.86515151e-17
6.6200305e-17
7.22909665e-17
6.97726191e-17
6.886913e-17
7.074989e-17
7.01009358e-17
6.79115043e-17
6.7540708e-17
6.5535739e-17
6.42469062e-17
6.41527365e-17
6.59678861e-17
6.84781585e-17
6.59846732e-17
6.85109715e-17
6.91886254e-17
6.4715533e-17
6.43698544e-17
6.75681213e-17
6.80246376e-17
6.68815076e-17
6.71039808e-17
6.93844892e-17
6.4537135e-17
6.76067163e-17
6.45637955e-17
6.74197351e-17
6.65697571e-17
6.97422425e-17
7.04674431e-17
6.62804986e-17
6.77214411e-17
6.99984767e-17
6.81780572e-17
6.78792979e-17
7.10555389e-17
7.34675157e-17
7.30645508e-17
7.2288642e-17
7.17338867e-17
6.97179969e-17
6.97758332e-17
6.97034266e-17
7.19580867e-17
7.09582208e-17
6.9329188e-17
7.00565796e-17
6.51815757e-17
6.74265309e-17
6.6695802e-17
6.5347981e-17
6.32339899e-17
6.3888118e-17
6.68616164e-17
6.42807442e-17
6.67841362e-17
6.87706868e-17
6.80835052e-17
6.66586633e-17
6.34611377e-17
6.43440835e-17
6.41538912e-17
6.1085555e-17
5.96701626e-17
5.73341131e-17
6.21250532e-17
5.92098771e-17
5.97335774e-17
5.98547478e-17
5.62551548e-17
5.773988e-17
5.99778025e-17
5.95272183e-17
5.59451068e-17
5.68620843e-17
5.39255105e-17
5.40827559e-17
5.37546627e-17
5.58890014e-17
5.95205146e-17
6.01888321e-17
5.67796235e-17
6.15408503e-17
6.09678186e-17
6.09890444e-17
6.02768298e-17
6.03271712e-17
5.98112175e-17
5.85434421e-17
6.01016676e-17
5.82556769e-17
5.93390499e-17
6.13706126e-17
6.11444968e-17
5.91352691e-17
6.19151922e-17
6.15737618e-17
6.15176979e-17
6.33436588e-17
6.6918313e-17
6.55343134e-17
6.57617782e-17
6.58819516e-17
6.53985336e-17
6.4078535e-17
6.3925275e-17
6.4525094e-17
6.63294066e-17
6.38671116e-17
6.66503785e-17
6.62510754e-17
6.73833902e-17
6.60923548e-17
6.54737784e-17
6.61245346e-17
6.82832319e-17
6.74475091e-17
6.78219049e-17
6.87622676e-17
6.90587547e-17
6.84005951e-17
6.81594899e-17
6.8580033e-17
6.88092122e-17
6.95491413e-17
6.93819784e-17
6.71789523e-17
6.93965913e-17
6.86095693e-17
6.59864669e-17
6.40344272e-17
6.19832373e-17
6.06907821e-17
6.27078009e-17
6.22941372e-17
5.96278538e-17
6.07249669e-17
6.24669492e-17
6.39063791e-17
6.45800605e-17
6.25257235e-17
6.54290635e-17
6.63987424e-17
6.48175519e-17
6.55044853e-17
6.27145814e-17
5.78606307e-17
5.95427124e-17
6.04903614e-17
6.20252217e-17
6.12880933e-17
6.27283066e-17
6.0639599e-17
6.24147015e-17
6.0535629e-17
6.12904323e-17
6.00425456e-17
5.63515971e-17
5.59930876e-17
5.83834565e-17
5.43122411e-17
5.43727268e-17
5.29876734e-17
5.54895986e-17
5.14308721e-17
5.63829296e-17
5.39203343e-17
5.31764957e-17
5.13726826e-17
5.0682182e-17
5.050524e-17
4.87754004e-17
4.96025425e-17
5.16176381e-17
5.17655568e-17
5.1624307e-17
4.91919214e-17
4.85031112e-17
4.46917697e-17
4.49665819e-17
4.45332333e-17
4.24192272e-17
4.16908756e-17
4.18765001e-17
4.27380129e-17
4.0246395e-17
4.16082662e-17
3.81690935e-17
3.52622791e-17
3.74884409e-17
3.35021019e-17
3.57937307e-17
3.31996096e-17
3.20017017e-17
3.09622243e-17
3.1433725e-17
3.40960346e-17
2.75433574e-17
2.97456032e-17
3.03481577e-17
2.74898728e-17
2.62239543e-17
2.80546824e-17
2.52086447e-17
2.54973584e-17
2.72993e-17
2.78653963e-17
2.85008476e-17
3.07770425e-17
2.66617667e-17
2.87607215e-17
2.72616938e-17
2.58246947e-17
2.64188812e-17
2.5409465e-17
2.58483207e-17
2.3955316e-17
2.26743783e-17
2.36175474e-17
2.59439252e-17
2.51720751e-17
2.37025697e-17
2.52555996e-17
2.6025503e-17
2.24466527e-17
2.07219811e-17
2.09272912e-17
2.19281209e-17
2.06502971e-17
2.31948129e-17
2.20694522e-17
2.44196107e-17
2.33916111e-17
2.57473489e-17
2.45284301e-17
2.05424444e-17
1.70456563e-17
1.79372509e-17
1.67456736e-17
1.7066511e-17
1.40260849e-17
1.66151888e-17
1.68503492e-17
1.68926878e-17
1.47035599e-17
1.4295452e-17
1.50769865e-17
1.25829957e-17
1.26208045e-17
1.1111443e-17
6.58136977e-18
2.0048598e-18
-1.18973437e-18
-8.44461881e-19
9.58359249e-20
-5.59546767e-19
-6.96907185e-19
-3.46643146e-18
-3.72302893e-18
-4.10757824e-18
-5.72535752e-18
-8.79123971e-18
-9.15657232e-18
-9.50086293e-18
-1.00915368e-17
-1.05179961e-17
-8.80378152e-18
-9.78105919e-18
-9.08261349e-18
-9.59649205e-18
-8.32017429e-18
-8.91414075e-18
-7.36841579e-18
-8.78574664e-18
-9.20952687e-18
-9.91628012e-18
-1.22621852e-17
-1.53780041e-17
-1.45038732e-17
-1.47447082e-17
-1.38372906e-17
-1.75634046e-17
-1.64730711e-17
-1.65032149e-17
-1.54260694e-17
-1.653303e-17
-1.84397797e-17
-1.69836983e-17
-1.86854231e-17
-1.78302822e-17
-1.99512077e-17
-2.14174711e-17
-2.41265676e-17
-2.67629633e-17
-2.64296068e-17
-2.33734017e-17
-2.20565938e-17
-2.250717e-17
-2.53812849e-17
-2.60546802e-17
-2.16699255e-17
-2.17598168e-17
-2.31158724e-17
-2.6994202e-17
-2.49819686e-17
-2.28203986e-17
-2.58238759e-17
-2.49756976e-17
-2.17715357e-17
-1.96046215e-17
-1.89367943e-17
-2.05212744e-17
-1.95065303e-17
-2.165318e-17
-2.53515104e-17
-2.45252485e-17
-2.42755057e-17
-2.12658551e-17
-2.47839189e-17
-2.61905099e-17
-2.27918253e-17
-2.4814567e-17
-2.19660965e-17
-2.18251404e-17
-2.36756431e-17
-2.31273867e-17
-2.33495453e-17
-2.34688726e-17
-2.48720686e-17
-2.74359453e-17
-2.80054054e-17
-3.09808605e-17
-3.40527549e-17
-3.36917114e-17
-3.45514833e-17
-3.91336249e-17
-3.81113889e-17
-3.76038633e-17
-3.69017911e-17
-3.60191664e-17
-4.07923997e-17
-4.21791499e-17
-4.22160081e-17
-5.05321914e-17
-4.43966011e-17
-5.01247572e-17
-4.9552783e-17
-5.24740312e-17
-4.63642719e-17
-4.86853566e-17
-5.17305179e-17
-5.28175029e-17
-4.60513418e-17
-4.62877754e-17
-4.10543927e-17
-4.83429448e-17
-4.64488575e-17
-4.74967766e-17
-4.92858269e-17
-4.93086707e-17
-5.22448766e-17
-5.33942565e-17
-5.34525236e-17
-5.22108062e-17
-5.48132424e-17
-5.54762213e-17
-5.33300174e-17
-5.82322641e-17
-5.48929506e-17
-5.72684428e-17
-6.05998391e-17
-5.88242477e-17
-6.16341093e-17
-5.78810863e-17
-5.77971481e-17
-5.96342699e-17
-6.31163771e-17
-6.18369167e-17
-6.09130643e-17
-6.30134744e-17
-6.56599068e-17
-6.50127574e-17
-6.77652035e-17
-6.96351711e-17
-6.86015439e-17
-6.45486316e-17
-6.62989988e-17
-6.68817954e-17
-6.7662084e-17
-6.77373097e-17
-6.91513982e-17
-7.14409292e-17
-7.4826605e-17
-7.92127409e-17
-8.21580711e-17
-8.13774566e-17
-7.87657647e-17
-7.83103571e-17
-7.76932539e-17
-7.8154611e-17
-7.58419717e-17
-7.66842419e-17
-7.64932716e-17
-7.44813949e-17
-7.78395331e-17
-7.84170663e-17
-7.93591443e-17
-7.97013177e-17
-7.93723542e-17
-7.82706411e-17
-7.81405208e-17
-7.87179176e-17
-7.86721951e-17
-7.76865062e-17
-7.78200369e-17
-7.68632976e-17
-7.85266143e-17
-7.94991973e-17
-7.85850426e-17
-8.14938955e-17
-7.86312414e-17
-8.01079124e-17
-8.24764747e-17
-8.07412054e-17
-7.93735149e-17
-7.88987159e-17
-7.87375783e-17
-7.76709606e-17
-7.71944779e-17
-7.77637258e-17
-7.67641958e-17
-7.53583995e-17
-7.77119115e-17
-8.05033988e-17
-7.79863853e-17
-8.00683553e-17
-8.29664355e-17
-8.0720097e-17
-8.20867767e-17
-8.26663287e-17
-8.07347675e-17
-8.34168532e-17
-8.43451229e-17
-8.12977938e-17
-8.27578964e-17
-8.40078838e-17
-8.40221848e-17
-8.27420177e-17
-8.30071671e-17
-7.90688778e-17
-7.64238435e-17
-7.87431929e-17
-7.71758858e-17
-7.56282132e-17
-7.7755003e-17
-7.466087e-17
-7.49493412e-17
-7.74452192e-17
-7.63215993e-17
-7.88324669e-17
-7.99662318e-17
-8.29195241e-17
-8.42426055e-17
-8.16000609e-17
-8.03251868e-17
-8.14758879e-17
-7.58649099e-17
-8.08763665e-17
-7.98258403e-17
-7.68860363e-17
-7.68178081e-17
-8.00519687e-17
-7.91817213e-17
-8.06997133e-17
-7.9784974e-17
-8.04688661e-17
-8.06815153e-17
-8.29601633e-17
-7.90034789e-17
-7.97659224e-17
-8.00785175e-17
-7.76405759e-17
-7.7340308e-17
-7.78090247e-17
-7.85575175e-17
-7.95240158e-17
-7.95332777e-17
-7.9598056e-17
-7.74883438e-17
-7.83828807e-17
-7.77401193e-17
-7.7555651e-17
-7.90700311e-17
-7.80793107e-17
-7.63881387e-17
-7.614254e-17
-7.68683256e-17
-7.75716512e-17
-7.78207457e-17
-7.4814326e-17
-7.4145872e-17
-7.46993699e-17
-7.16460569e-17
-7.301491e-17
-7.607469e-17
-7.16658067e-17
-6.90900442e-17
-6.59611592e-17
-6.92299906e-17
-6.96386972e-17
-6.79458888e-17
-6.83409089e-17
-6.4954266e-17
-6.14041506e-17
-6.50792041e-17
-6.35570833e-17
-6.5660369e-17
-6.50481437e-17
-6.66431497e-17
-6.62657487e-17
-6.90505424e-17
-6.42748829e-17
-6.58541322e-17
-6.31488692e-17
-6.04334489e-17
-5.91240556e-17
-5.7549344e-17
-5.89024015e-17
-5.85207065e-17
-5.92863703e-17
-5.75554876e-17
-5.72254089e-17
-5.73595015e-17
-5.85675946e-17
-5.8733883e-17
-6.06330917e-17
-6.21157082e-17
-6.26513219e-17
-6.30961935e-17
-6.33483553e-17
-6.37673959e-17
-6.45415331e-17
-6.67219721e-17
-6.49033016e-17
-6.740232e-17
-6.31343888e-17
-6.57951989e-17
-6.47023118e-17
-6.54428211e-17
-6.34679521e-17
-6.25499085e-17
-6.00679392e-17
-6.13976026e-17
-6.17082095e-17
-6.32885414e-17
-6.15635916e-17
-6.4879673e-17
-6.14791603e-17
-6.11395323e-17
-6.34731903e-17
-6.27004758e-17
-6.44099341e-17
-6.37669223e-17
-6.28985368e-17
-6.40675546e-17
-6.40497948e-17
-5.87555954e-17
-5.83258113e-17
-5.61862803e-17
-5.56055944e-17
-5.62557978e-17
-5.5515292e-17
-5.68840339e-17
-5.74399065e-17
-5.34344278e-17
-5.43919839e-17
-5.52870841e-17
-5.4354742e-17
-5.50998997e-17
-5.83228109e-17
-5.91764741e-17
-5.81968479e-17
-5.73440374e-17
-5.53540372e-17
-5.46187e-17
-5.63873963e-17
-5.72492321e-17
-5.58375776e-17
-5.33745435e-17
-5.29435138e-17
-5.39066218e-17
-5.45887587e-17
-5.09639144e-17
-5.4993767e-17
-5.09542015e-17
-5.28818157e-17
-5.07103412e-17
-4.9440376e-17
-5.34200558e-17
-5.47223387e-17
-5.30650239e-17
-5.3449356e-17
-5.07145606e-17
-5.35102076e-17
-5.19914473e-17
-5.20941615e-17
-5.11446907e-17
-4.90043451e-17
-4.48633785e-17
-4.79381654e-17
-5.00478304e-17
-5.19915345e-17
-5.13040975e-17
-5.20587386e-17
-5.1020451e-17
-5.48281862e-17
-5.56995928e-17
-6.03633568e-17
-5.61930997e-17
-5.56121671e-17
-5.727314e-17
-5.82675826e-17
-5.71151553e-17
-5.74554883e-17
-5.70990485e-17
-5.26588976e-17
-5.4159689e-17
-5.82873941e-17
-5.82104495e-17
-6.04595272e-17
-5.99679505e-17
-6.18256418e-17
-6.12798048e-17
-5.75040417e-17
-5.66796485e-17
-5.54504187e-17
-5.78069681e-17
-5.3901568e-17
-5.46744214e-17
-5.49830826e-17
-5.60574192e-17
-5.62228787e-17
-5.5203214e-17
-5.88984717e-17
-6.02349121e-17
-6.11739856e-17
-6.18645631e-17
-6.12406677e-17
-5.82940582e-17
-5.75891896e-17
-5.96871414e-17
-5.80319735e-17
-5.50332725e-17
-5.11413655e-17
-5.44842957e-17
-5.31028378e-17
-5.23793373e-17
-5.42846767e-17
-5.12197848e-17
-5.33573815e-17
-5.20559392e-17
-5.33761343e-17
-5.241391e-17
-4.88268392e-17
-4.74819445e-17
-4.62139083e-17
-4.44076219e-17
-4.44812891e-17
-4.3749071e-17
-4.19940408e-17
-3.96892854e-17
-3.7065866e-17
-3.72472866e-17
-3.33758524e-17
-3.54155947e-17
-3.37479351e-17
-3.60544959e-17
-3.66532085e-17
-3.71253546e-17
-3.39006748e-17
-3.3928124e-17
-3.24705055e-17
-2.83304855e-17
-3.11928936e-17
-3.09058906e-17
-2.58599507e-17
-2.41523858e-17
-2.36320112e-17
-2.19837539e-17
-1.98783187e-17
-2.05549877e-17
-1.93084869e-17
-1.61710331e-17
-1.68820712e-17
-1.626889e-17
-1.28004517e-17
-1.30455494e-17
-1.41309597e-17
-1.3110591e-17
-1.2804457e-17
-1.12497765e-17
-9.20360303e-18
-1.0560212e-17
-1.13146693e-17
-1.17653835e-17
-1.19633367e-17
-9.96200669e-18
-1.31822053e-17
-1.1583267e-17
-8.7958681e-18
-1.42263416e-17
-1.2816726e-17
-1.34776913e-17
-8.9558046e-18
-8.21611102e-18
-7.69136256e-18
-6.28869436e-18
-7.61996163e-18
-6.3439971e-18
-6.5859734e-18
-3.03643731e-18
-1.80682848e-18
-1.06344037e-18
-1.24007312e-19
1.67012105e-18
3.91325886e-18
4.0609011e-19
1.63976805e-18
4.12298888e-19
1.37312863e-18
3.48986191e-18
5.08987167e-18
5.44447939e-18
9.92029666e-18
8.33926478e-18
5.12513418e-18
8.93477156e-18
8.39552335e-18
1.15227843e-17
8.41266806e-18
1.18817862e-17
1.6972771e-17
1.84246779e-17
1.60677884e-17
1.68246648e-17
2.23900722e-17
2.1016698e-17
2.08082958e-17
2.46338293e-17
2.20249555e-17
2.83435583e-17
2.48180394e-17
2.36233918e-17
2.61935926e-17
2.75075133e-17
2.91964799e-17
3.53160098e-17
3.39406114e-17
3.72914963e-17
3.51582896e-17
3.48909621e-17
3.91774093e-17
3.97743405e-17
4.14426372e-17
4.51905349e-17
4.69406642e-17
4.43545061e-17
5.16216332e-17
5.23413535e-17
5.87098017e-17
6.58630523e-17
6.97035628e-17
7.29259401e-17
8.01208792e-17
8.84571678e-17
9.06175959e-17
9.89034887e-17
1.03065383e-16
1.08977967e-16
1.19268943e-16
1.24151646e-16
1.3411722e-16
1.44019465e-16
1.54458912e-16
1.64803843e-16
1.7505788e-16
1.8928866e-16
2.06933435e-16
2.21818482e-16
2.36594032e-16
2.5601066e-16
2.77387683e-16
2.88908429e-16
3.13164759e-16
3.35942242e-16
3.66104255e-16
3.95404522e-16
4.25295827e-16
4.58655296e-16
4.9019062e-16
5.29008717e-16
5.67333768e-16
6.12209939e-16
6.59442382e-16
7.04531106e-16
7.52248735e-16
8.13169395e-16
8.72787716e-16
9.39827028e-16
1.00946871e-15
1.08803346e-15
1.16537183e-15
1.24860221e-15
1.34464427e-15
1.44748501e-15
1.55182419e-15
1.66823595e-15
1.7899915e-15
1.92595175e-15
2.07016733e-15
2.22410237e-15
2.38908789e-15
2.56882863e-15
2.75999864e-15
2.96444022e-15
3.18119211e-15
3.41789293e-15
3.67666616e-15
3.94939273e-15
4.2382534e-15
4.55813115e-15
4.8933023e-15
5.24827274e-15
5.63522596e-15
6.04987039e-15
6.49833207e-15
6.97806263e-15
7.4918059e-15
8.04116745e-15
8.62860535e-15
9.25979999e-15
9.9411046e-15
1.06649579e-14
1.14414873e-14
1.22771873e-14
1.31732126e-14
1.41293307e-14
1.51561066e-14
1.62571473e-14
1.74358977e-14
1.86965822e-14
2.00498703e-14
2.14959873e-14
2.30449363e-14
2.47010869e-14
2.64781981e-14
2.83775783e-14
3.04122605e-14
3.25901954e-14
3.49167895e-14
3.74101939e-14
4.0076456e-14
4.29283134e-14
4.59783234e-14
4.92398834e-14
5.27306505e-14
5.6462778e-14
6.04532171e-14
6.47173025e-14
6.92771007e-14
7.41489218e-14
7.93616583e-14
8.49256551e-14
9.08677113e-14
9.72245295e-14
1.04008772e-13
1.11256665e-13
1.18998473e-13
1.27267496e-13
1.36094278e-13
1.4552637e-13
1.55593919e-13
1.66336285e-13
1.77806676e-13
1.90051658e-13
2.03115271e-13
2.17055369e-13
2.31929133e-13
2.47790849e-13
2.64714414e-13
2.82767309e-13
3.02013753e-13
3.22540765e-13
3.44419719e-13
3.67747313e-13
3.92612445e-13
4.19119896e-13
4.47365087e-13
4.77466456e-13
5.09540864e-13
5.43706336e-13
5.80103819e-13
6.18868949e-13
6.60156872e-13
7.04120503e-13
7.5092615e-13
8.00757867e-13
8.53806987e-13
9.10270133e-13
9.70357084e-13
1.03429981e-12
1.10233787e-12
1.174717e-12
1.25171149e-12
1.33360626e-12
1.42069976e-12
1.51331527e-12
1.61178315e-12
1.71646615e-12
1.82774714e-12
1.94602109e-12
2.07171729e-12
2.20528293e-12
2.34719236e-12
2.49795264e-12
2.65809627e-12
2.8281823e-12
3.00880601e-12
3.20060097e-12
3.40422572e-12
3.62039644e-12
3.84984677e-12
4.09336294e-12
4.35178042e-12
4.62597477e-12
4.91687378e-12
5.2254518e-12
5.55274878e-12
5.89985313e-12
6.26792062e-12
6.65816266e-12
7.07186951e-12
7.51039448e-12
7.97516183e-12
8.46768565e-12
8.98955987e-12
9.54245275e-12
1.01281376e-11
1.07484777e-11
1.14054428e-11
1.21011045e-11
1.2837647e-11
1.36173676e-11
1.44426907e-11
1.53161705e-11
1.62404968e-11
1.72185012e-11
1.8253165e-11
1.93476225e-11
2.0505181e-11
2.17293112e-11
2.30236645e-11
2.43920976e-11
2.58386534e-11
2.7367584e-11
2.89833586e-11
3.06906863e-11
3.2494512e-11
3.44000223e-11
3.64126893e-11
3.85382389e-11
4.07826913e-11
4.31523797e-11
4.56539466e-11
4.82943638e-11
5.10809578e-11
5.402141e-11
5.71237831e-11
6.03965392e-11
6.3848552e-11
6.74891245e-11
7.13280174e-11
7.53754686e-11
7.96422029e-11
8.41394602e-11
8.88790177e-11
9.38732261e-11
9.91350084e-11
1.04677905e-10
1.10516093e-10
1.16664421e-10
1.23138421e-10
1.29954362e-10
1.37129249e-10
1.44680892e-10
1.52627912e-10
1.60989775e-10
1.69786842e-10
1.79040397e-10
1.88772688e-10
1.99006961e-10
2.09767507e-10
2.21079695e-10
2.32970015e-10
2.45466149e-10
2.58596971e-10
2.72392647e-10
2.86884633e-10
3.02105761e-10
3.18090279e-10
3.34873899e-10
3.52493871e-10
3.70989029e-10
3.90399842e-10
4.10768485e-10
4.32138905e-10
4.54556884e-10
4.78070094e-10
5.02728181e-10
5.28582826e-10
5.55687811e-10
5.84099118e-10
6.13874982e-10
6.45075963e-10
6.77765067e-10
7.12007779e-10
7.47872178e-10
7.85429007e-10
8.24751787e-10
8.65916876e-10
9.09003575e-10
9.5409424e-10
1.00127435e-09
1.05063263e-09
1.10226112e-09
1.15625534e-09
1.21271433e-09
1.27174077e-09
1.33344115e-09
1.39792581e-09
1.46530906e-09
1.53570934e-09