/*--------------------------------*- C++ -*----------------------------------*\
| =========                 |                                                 |
| \\      /  F ield         | OpenFOAM: The Open Source CFD Toolbox           |
|  \\    /   O peration     | Version:  2206                                  |
|   \\  /    A nd           | Website:  www.openfoam.com                      |
|    \\/     M anipulation  |                                                 |
\*---------------------------------------------------------------------------*/
FoamFile
{
    version     2.0;
    format      ascii;
    arch        "LSB;label=32;scalar=64";
    class       volScalarField;
    location    "1.68e-05";
    object      PVsourcePV;
}
// * * * * * * * * * * * * * * * * * * * * * * * * * * * * * * * * * * * * * //

dimensions      [1 -3 -1 0 0 0 0];

internalField   nonuniform List<scalar> 
3183
(
0
0
0
0
0
0
0
0
0
0
0
0
0
0
0
0
0
0
0
0
0
0
0
0
0
0
0
0
0
0
0
0
0
0
0
0
0
0
0
0
0
0
0
0
0
0
0
0
0
0
0
0
0
0
0
0
0
0
0
0
0
0
0
0
0
0
0
0
0
0
0
0
0
0
0
0
0
0
0
0
0
0
0
0
0
0
0
0
0
0
0
0
0
0
0
0
0
0
0
0
0
0
0
0
0
0
0
0
0
0
0
0
0
0
0
0
0
0
0
0
0
0
0
0
0
0
0
0
0
0
0
0
0
0
0
0
0
0
0
0
0
0
0
0
0
0
0
0
0
0
0
0
0
0
0
0
0
0
0
0
0
0
0
0
0
0
0
0
0
0
0
0
0
0
0
0
0
0
0
0
0
0
0
0
0
0
0
0
0
0
0
0
0
0
0
0
0
0
0
0
0
0
0
0
0
0
0
0
0
0
0
0
0
0
0
0
0
0
0
0
0
0
0
0
0
0
0
0
0
0
0
0
0
0
0
0
0
0
0
0
0
0
0
0
0
0
0
0
0
0
0
0
0
0
0
0
0
0
0
0
0
0
0
0
0
0
0
0
0
0
0
0
0
0
0
0
0
0
0
0
0
0
0
0
0
0
0
0
0
0
0
0
0
0
0
0
0
0
0
0
0
0
0
0
0
0
0
0
0
0
0
0
0
0
0
0
0
0
0
0
0
0
0
0
0
0
0
0
0
0
0
0
0
0
0
0
0
0
0
0
0
0
0
0
0
0
0
0
0
0
0
0
0
0
0
0
0
0
0
0
0
0
0
0
0
0
0
0
0
0
0
0
0
0
0
0
0
0
0
0
0
0
0
0
0
0
0
0
0
0
0
0
0
0
0
0
0
0
0
0
0
0
0
0
0
0
0
0
0
0
0
0
0
0
0
0
0
0
0
0
0
0
0
0
0
0
0
0
0
0
0
0
0
0
0
0
0
0
0
0
0
0
0
0
0
0
0
0
0
0
0
0
0
0
0
0
0
0
0
0
0
0
0
0
0
0
0
0
0
0
0
0
0
0
0
0
0
0
0
0
0
0
0
0
0
0
0
0
0
0
0
0
0
0
0
0
0
0
0
0
0
0
0
0
0
0
0
0
0
0
0
0
0
0
0
0
0
0
0
0
0
0
0
0
0
0
0
0
0
0
0
0
0
0
0
0
0
0
0
0
0
0
0
0
0
0
0
0
0
0
0
0
0
0
0
0
0
0
0
0
0
0
0
0
0
0
0
0
0
0
0
0
0
0
0
0
0
0
0
0
0
0
0
0
0
0
0
0
0
0
0
0
0
0
0
0
0
0
0
0
0
0
0
0
0
0
0
0
0
0
0
0
0
0
0
0
0
0
0
0
0
0
0
0
0
0
0
0
0
0
0
0
0
0
0
0
0
0
0
0
0
0
0
0
0
0
0
0
0
0
0
0
0
0
0
0
0
0
0
0
0
0
0
0
0
0
0
0
0
0
0
0
0
0
0
0
0
0
0
0
0
0
0
0
0
0
0
0
0
0
0
0
0
0
0
0
0
0
0
0
0
0
0
0
0
0
0
0
0
0
0
0
0
0
0
0
0
0
0
0
0
0
0
0
0
0
0
0
0
0
0
0
0
0
0
0
0
0
0
0
0
0
0
0
0
0
0
0
0
0
0
0
0
0
0
0
0
0
0
0
0
0
0
0
0
0
0
0
0
0
0
0
0
0
0
0
0
0
0
0
0
0
0
0
0
0
0
0
0
0
0
0
0
0
0
0
0
0
0
0
0
0
0
0
0
0
0
0
0
0
0
0
0
0
0
0
0
0
0
0
0
0
0
0
0
0
0
0
0
0
0
0
0
0
0
0
0
0
0
0
0
0
0
0
0
0
0
0
0
0
0
0
0
0
0
0
0
0
0
0
0
0
0
0
0
0
0
0
0
0
0
0
0
0
0
0
0
0
0
0
0
0
0
0
0
0
0
0
0
0
0
0
0
0
0
0
0
0
0
0
0
0
0
0
0
0
0
0
0
0
0
0
0
0
0
0
0
0
0
0
0
0
0
0
0
0
0
0
0
0
0
0
0
0
0
0
0
0
0
0
0
0
0
0
0
0
0
0
0
0
0
0
0
0
0
0
0
0
0
0
0
0
0
0
0
0
0
0
0
0
0
0
0
0
0
0
0
0
0
0
0
0
0
0
0
0
0
0
0
0
0
0
0
0
0
0
0
0
0
0
0
0
0
0
0
0
0
0
0
0
0
0
0
0
0
0
0
0
0
0
0
0
0
0
0
0
0
0
0
0
0
0
0
0
0
0
0
0
0
0
0
0
0
0
0
0
0
0
0
0
0
0
0
0
0
0
0
0
0
0
0
0
0
0
0
0
0
0
0
0
0
0
0
0
0
0
0
0
0
0
0
0
0
0
0
0
0
0
0
0
0
0
0
0
0
0
0
0
0
0
0
0
0
0
0
0
0
0
0
0
0
0
0
0
0
0
0
0
0
0
0
0
0
0
0
0
0
0
0
0
0
0
0
0
0
0
0
0
0
0
0
0
0
0
0
0
0
0
0
0
0
0
0
0
0
0
0
0
0
0
0
0
0
0
0
0
0
0
0
0
0
0
0
0
0
0
0
0
0
0
0
0
0
0
0
0
0
0
0
0
0
0
0
0
0
0
0
0
0
0
0
0
0
0
0
0
0
0
0
0
0
0
0
0
0
0
0
0
0
0
0
0
0
0
0
0
0
0
0
0
0
0
0
0
0
0
0
0
0
0
0
0
0
0
0
0
0
0
0
0
0
0
0
0
0
0
0
0
0
0
0
0
0
0
0
0
0
0
0
0
0
0
0
0
0
0
0
0
0
0
0
0
0
0
0
0
0
0
0
0
0
0
0
0
0
0
0
0
0
0
0
0
0
0
0
0
0
0
0
0
0
0
0
0
0
0
0
0
0
0
0
0
0
0
0
0
0
0
0
0
0
0
0
0
0
0
0
0
0
0
0
0
0
0
0
0
0
0
0
0
0
0
0
0
0
0
0
0
0
0
0
0
0
0
0
0
0
0
0
0
0
0
0
0
0
0
0
0
0
0
0
0
0
0
0
0
0
0
0
0
0
0
0
0
0
0
0
0
0
0
0
0
0
0
0
0
0
0
0
0
0
0
0
0
0
0
0
0
0
0
0
0
0
0
0
0
0
0
0
0
0
0
0
0
0
0
0
0
0
0
0
0
0
0
0
0
0
0
0
0
0
0
0
0
0
0
0
0
0
0
0
0
0
0
0
0
0
0
0
0
0
0
0
0
0
0
0
0
0
0
0
0
0
0
0
0
0
0
0
0
0
0
0
0
0
0
0
0
0
0
0
0
0
0
0
0
0
0
0
0
0
0
0
0
0
0
0
0
0
0
0
0
0
0
0
0
0
0
0
0
0
0
0
0
0
0
0
0
0
0
0
0
0
0
0
0
0
0
0
0
0
0
0
0
0
0
0
0
0
0
0
0
0
0
0
0
0
0
0
0
0
0
0
0
0
0
0
0
0
0
0
0
0
0
0
0
0
0
0
0
0
0
0
0
0
0
0
0
0
0
0
0
0
0
0
0
0
0
0
0
0
0
0
0
0
0
0
0
0
0
0
0
0
0
0
0
0
0
0
0
0
0
0
0
0
0
0
0
0
0
0
0
0
0
0
0
0
0
0
0
0
0
0
0
0
0
0
0
0
0
0
0
0
0
0
0
0
0
0
0
0
0
0
0
0
0
0
0
0
0
0
0
0
0
0
0
0
0
0
0
0
0
0
0
0
0
0
0
0
0
0
0
0
0
0
0
0
0
0
0
0
0
0
0
0
0
0
0
0
0
0
0
0
0
0
0
0
0
0
0
0
0
0
0
0
0
0
0
0
0
0
0
0
0
0
0
0
0
0
0
0
0
0
0
0
0
0
0
0
0
0
0
0
0
0
0
0
0
0
0
0
0
0
0
0
0
0
0
0
0
0
0
0
0
0
0
0
0
0
0
0
0
0
0
0
0
0
0
0
0
0
0
0
0
0
0
0
0
0
0
0
0
0
0
0
0
0
0
0
0
0
0
0
0
0
0
0
0
0
0
0
0
0
0
0
0
0
0
0
0
0
0
0
0
0
0
0
0
0
0
0
0
0
0
0
0
0
0
0
0
0
0
0
0
0
0
0
0
0
0
0
0
0
0
0
0
0
0
0
0
0
0
0
0
0
0
0
0
0
0
0
0
0
0
0
0
0
0
0
0
0
0
0
0
0
0
0
0
0
0
0
0
0
0
0
0
0
0
0
0
0
0
0
0
0
0
0
0
0
0
0
0
0
0
0
0
0
0
0
0
0
0
0
0
0
0
0
0
0
0
0
0
0
0
0
0
0
0
0
0
0
0
0
0
0
0
0
0
0
0
0
0
0
0
0
0
0
0
0
0
0
0
0
0
0
0
0
0
0
0
0
0
0
0
0
0
0
0
0
0
0
0
0
0
0
0
0
0
0
0
0
0
0
0
0
0
0
0
0
0
0
0
0
0
0
0
0
0
0
0
0
0
0
0
0
0
0
0
0
0
0
0
0
0
0
0
0
0
0
0
0
0
0
0
0
0
0
0
0
0
0
0
0
0
0
0
0
0
0
0
0
0
0
0
0
0
0
0
0
0
0
0
0
0
0
0
0
0
0
0
0
0
0
0
0
0
0
0
0
0
0
0
0
0
0
0
0
0
0
0
0
0
0
0
0
0
0
0
0
0
0
0
0
0
0
0
0
0
0
0
0
0
0
0
0
0
0
0
0
0
0
0
0
0
0
0
0
0
0
0
0
0
0
0
0
0
0
0
0
0
0
0
0
0
0
0
0
0
0
0
0
0
0
0
0
0
0
0
0
0
0
0
0
0
0
0
0
0
0
0
0
0
0
0
0
0
0
0
0
0
0
0
0
0
0
0
0
0
0
0
0
0
0
0
0
0
0
0
0
0
0
0
0
0
0
0
0
0
0
0
0
0
0
0
0
0
0
0
0
0
0
0
0
0
0
0
0
0
0
0
0
0
0
0
0
0
0
0
0
0
0
0
0
0
0
0
0
0
0
0
0
0
0
0
0
0
0
0
0
0
0
0
0
0
0
0
0
0
0
0
0
0
0
0
0
0
0
0
0
0
0
0
0
0
0
0
0
0
0
0
0
0
0
0
0
0
0
0
0
0
0
0
0
0
0
0
0
0
0
0
0
0
0
0
0
0
0
0
0
0
0
0
0
0
0
0
0
0
0
0
0
0
0
0
0
0
0
0
0
0
0
8.08950075e-299
3.91144027e-299
4.3150057e-296
2.10897488e-296
2.28001262e-293
1.12628172e-293
1.19339983e-290
5.95749391e-291
6.18761826e-288
3.12119205e-288
3.17793658e-285
1.61960845e-285
1.61676099e-282
8.32407121e-283
8.14740598e-280
4.23736234e-280
4.06686024e-277
2.13628723e-277
2.01075078e-274
1.06676113e-274
9.84710209e-272
5.27593667e-272
4.7764062e-269
2.58362816e-269
2.29470796e-266
1.25354465e-266
1.09188526e-263
6.02300361e-264
5.14563936e-261
2.86666086e-261
2.40161341e-258
1.35056977e-258
1.11008491e-255
6.3010887e-256
5.0814288e-253
2.9111207e-253
2.30344846e-250
1.33179773e-250
1.03399842e-247
6.03304197e-248
4.59615759e-245
2.7060773e-245
2.02296223e-242
1.20180706e-242
8.81620812e-240
5.28450224e-240
3.80416762e-237
2.30054869e-237
1.62518549e-234
9.91514644e-235
6.87373202e-232
4.23047038e-232
2.87811832e-229
1.78681901e-229
1.19297191e-226
7.47058291e-227
4.89480679e-224
3.09164147e-224
1.98793399e-221
1.26637463e-221
7.99108583e-219
5.13393613e-219
3.17923368e-216
2.05982179e-216
1.25177512e-213
8.17851512e-214
4.87742672e-211
3.21335382e-211
1.88056382e-208
1.24926471e-208
7.17446491e-206
4.80544566e-206
2.70810301e-203
1.82880098e-203
1.01130938e-200
6.88528486e-201
3.73606018e-198
2.56429495e-198
1.3652784e-195
9.44650784e-196
4.93482099e-193
3.44189182e-193
1.76412117e-190
1.24025158e-190
6.23670053e-188
4.419485e-188
2.18027913e-185
1.55719889e-185
7.53632893e-183
5.42483862e-183
2.57546974e-180
1.86834954e-180
8.70078993e-178
6.36084303e-178
2.9055055e-175
2.1404817e-175
9.58956698e-173
7.11872153e-173
3.1278241e-170
2.33957907e-170
1.00809538e-167
7.59746066e-168
3.21014744e-165
2.43748566e-165
1.00985378e-162
7.725106e-163
3.13795164e-160
2.41824016e-160
9.63008628e-158
7.47598976e-158
2.91843494e-155
2.28218949e-155
8.73259188e-153
6.8783702e-153
2.57955384e-150
2.0464677e-150
7.52119335e-148
6.00954856e-148
2.16421005e-145
1.74150946e-145
6.14482555e-143
4.97947415e-143
1.72123933e-140
1.40455406e-140
4.75571161e-138
3.90761131e-138
1.2958361e-135
1.07206106e-135
3.48144327e-133
2.89985898e-133
9.22049098e-131
7.73203411e-131
2.40680704e-128
2.03178017e-128
6.19047611e-126
5.26051537e-126
1.56856034e-123
1.34167345e-123
3.91441819e-121
3.36997111e-121
9.61859709e-119
8.33403851e-119
2.32658808e-116
2.02870522e-116
5.53821701e-114
4.85954216e-114
1.29699106e-111
1.14513828e-111
2.98736587e-109
2.65383491e-109
6.7652802e-107
6.04650065e-107
1.50585742e-104
1.35394985e-104
3.29329115e-102
2.97862694e-102
7.07398932e-100
6.43552126e-100
1.49182604e-97
1.36501098e-97
3.08755081e-95
2.84115655e-95
6.26852392e-93
5.80060151e-93
1.24788495e-90
1.16110551e-90
2.43463398e-88
2.27762371e-88
4.65288725e-86
4.37605487e-86
8.70578685e-84
8.23075981e-84
1.59383411e-81
1.51462564e-81
2.85341884e-79
2.72530683e-79
4.99225119e-77
4.79170472e-77
8.52980206e-75
8.22679654e-75
1.42225172e-72
1.37822111e-72
2.31244115e-70
2.25119667e-70
3.66319066e-68
3.58218602e-68
5.64877955e-66
5.54788965e-66
8.47107705e-64
8.35455189e-64
1.23413306e-61
1.22197748e-61
1.74477464e-59
1.73371923e-59
2.39081362e-57
2.38251013e-57
3.17111425e-55
3.15690086e-55
4.06562304e-53
4.03835737e-53
5.03048021e-51
4.81910221e-51
5.99811077e-49
5.99348089e-49
6.87291091e-47
6.8498861e-47
7.55996306e-45
7.50591085e-45
7.96138725e-43
7.87393218e-43
8.00616568e-41
7.88913546e-41
7.66601158e-39
7.52541611e-39
6.96630903e-37
6.96380321e-37
5.98423625e-35
5.97546307e-35
4.84102304e-33
4.83075853e-33
3.66908777e-31
3.65782264e-31
2.59051274e-29
2.57637039e-29
1.69233383e-27
1.67679733e-27
1.01470276e-25
1.00158711e-25
5.52907321e-24
5.45415683e-24
2.7044872e-22
2.67475429e-22
1.16916266e-20
1.16926704e-20
4.37627974e-19
4.37165202e-19
1.38025978e-17
1.37678973e-17
3.52389694e-16
3.52547008e-16
9.2105625e-15
9.49934434e-15
1.3482085e-10
1.35654839e-10
0.00305544595
0.0136657407
0.47838336
0.591692526
0.706387753
0.648040808
0.254535677
0.211083197
0.0447572191
0.0363615869
0.00996971831
0.00899610482
0.00211399931
0.00197814733
0.000402542566
0.000390971939
7.06599026e-05
7.04286439e-05
1.21144094e-05
1.21127346e-05
2.39278414e-06
2.39985508e-06
9.08069608e-07
9.08674581e-07
6.95877795e-07
6.95920291e-07
6.67521132e-07
6.6753089e-07
6.63968932e-07
6.63970215e-07
6.63548778e-07
6.63549764e-07
6.6350164e-07
6.63502905e-07
6.63496089e-07
6.63498121e-07
6.6349557e-07
6.63496069e-07
6.6349654e-07
6.63494614e-07
6.63497038e-07
6.63495534e-07
6.63496705e-07
6.63495809e-07
6.6349694e-07
6.63495691e-07
6.63497016e-07
6.63496381e-07
6.63497115e-07
6.63496612e-07
6.63497391e-07
6.63496828e-07
6.63496935e-07
6.63496763e-07
6.63497057e-07
6.63496653e-07
6.63496065e-07
6.63498022e-07
6.63495636e-07
6.63497102e-07
6.63496335e-07
6.63496714e-07
6.63495942e-07
6.63496213e-07
6.63495712e-07
6.63496264e-07
6.63496151e-07
6.6349669e-07
6.63495583e-07
6.63497643e-07
6.63495209e-07
6.63496494e-07
6.63495726e-07
6.63497099e-07
6.63495429e-07
6.63497534e-07
6.63495914e-07
6.63497542e-07
6.63495927e-07
6.63497101e-07
6.63496038e-07
6.63496182e-07
6.63496482e-07
6.63496285e-07
6.63496717e-07
6.63495873e-07
6.63496809e-07
6.63495863e-07
6.63496831e-07
6.63494787e-07
6.63498147e-07
6.63495465e-07
6.63497158e-07
6.63496277e-07
6.63498081e-07
6.63495838e-07
6.63497008e-07
6.63496404e-07
6.63497101e-07
6.63496565e-07
6.63497375e-07
6.63496094e-07
6.63496818e-07
6.63496207e-07
6.63496665e-07
6.63497046e-07
6.63496085e-07
6.6349615e-07
6.63496694e-07
6.63496367e-07
6.63496084e-07
6.63496712e-07
6.63495619e-07
6.63496524e-07
6.6349628e-07
6.63496826e-07
6.63494986e-07
6.6349735e-07
6.63495588e-07
6.6349796e-07
6.63495277e-07
6.63497772e-07
6.63494935e-07
6.63496884e-07
6.63496562e-07
6.63496772e-07
6.63496368e-07
6.63497844e-07
6.63496134e-07
6.63497557e-07
6.63497093e-07
6.63496752e-07
6.63497545e-07
6.63497643e-07
6.63496664e-07
6.63498176e-07
6.63496405e-07
6.63497731e-07
6.63496699e-07
6.6349663e-07
6.63496403e-07
6.63497018e-07
6.63495423e-07
6.6349688e-07
6.63495521e-07
6.63496472e-07
6.63495269e-07
6.63497478e-07
6.6349613e-07
6.63495734e-07
6.63497847e-07
6.63495424e-07
6.63497941e-07
6.63495798e-07
6.63497412e-07
6.63497103e-07
6.63496767e-07
6.63496186e-07
6.63496991e-07
6.6349558e-07
6.63498433e-07
6.63495555e-07
6.63498362e-07
6.63496289e-07
6.63498464e-07
6.6349618e-07
6.63496785e-07
6.63497002e-07
6.63496665e-07
6.63495733e-07
6.6349668e-07
6.63495902e-07
6.63496439e-07
6.63497284e-07
6.63495318e-07
6.63497589e-07
6.6349782e-07
6.63510021e-07
6.63510986e-07
6.63738607e-07
6.63737618e-07
6.63510321e-07
6.63510659e-07
6.63498357e-07
6.63496937e-07
6.63496457e-07
6.63496909e-07
6.63496735e-07
6.63497276e-07
6.63496305e-07
6.63497715e-07
6.63495662e-07
6.63497656e-07
6.63496469e-07
6.63497497e-07
6.63496408e-07
6.63496895e-07
6.63496574e-07
6.63497479e-07
6.63496034e-07
6.63498378e-07
6.63495313e-07
6.63498424e-07
6.63495976e-07
6.63497606e-07
6.63496286e-07
6.63497109e-07
6.634967e-07
6.63497715e-07
6.63496983e-07
6.63497412e-07
6.63497148e-07
6.63497226e-07
6.63496725e-07
6.63497521e-07
6.63497067e-07
6.63496786e-07
6.63496802e-07
6.63496796e-07
6.63497525e-07
6.63496688e-07
6.63496793e-07
6.63496898e-07
6.63497408e-07
6.63496938e-07
6.63496461e-07
6.63498892e-07
6.63495608e-07
6.63497532e-07
6.63497462e-07
6.63496673e-07
6.63497717e-07
6.63496991e-07
6.63497304e-07
6.63497142e-07
6.63497903e-07
6.63497355e-07
6.63497541e-07
6.63497332e-07
6.63497693e-07
6.63497571e-07
6.63498446e-07
6.63496173e-07
6.63499011e-07
6.63495377e-07
6.6349834e-07
6.63495849e-07
6.63498002e-07
6.63496696e-07
6.6349619e-07
6.63497972e-07
6.63496595e-07
6.63497282e-07
6.63497186e-07
6.63497638e-07
6.63497332e-07
6.63496153e-07
6.63498346e-07
6.63496751e-07
6.63497754e-07
6.63498052e-07
6.63497158e-07
6.63497755e-07
6.6349644e-07
6.634974e-07
6.63496135e-07
6.63497718e-07
6.63496443e-07
6.63497489e-07
6.63496097e-07
6.63498125e-07
6.63495762e-07
6.63497828e-07
6.63497534e-07
6.63497396e-07
6.63497764e-07
6.63496886e-07
6.63497356e-07
6.63497183e-07
6.63496614e-07
6.63497845e-07
6.63496733e-07
6.6349704e-07
6.63496714e-07
6.63497446e-07
6.634969e-07
6.63497047e-07
6.63497111e-07
6.63497262e-07
6.63497552e-07
6.63497517e-07
6.63497332e-07
6.6349811e-07
6.63496301e-07
6.63497253e-07
6.6349703e-07
6.63497134e-07
6.63497641e-07
6.63498594e-07
6.63497687e-07
6.63497806e-07
6.63497813e-07
6.63497895e-07
6.63497598e-07
6.63497269e-07
6.63498007e-07
6.63497185e-07
6.63496809e-07
6.63496363e-07
6.6349828e-07
6.63495758e-07
6.63498479e-07
6.63496224e-07
6.6349843e-07
6.63497327e-07
6.63497163e-07
6.63497917e-07
6.63496861e-07
6.63498415e-07
6.63496148e-07
6.63498328e-07
6.63495372e-07
6.63499045e-07
6.63495882e-07
6.63498731e-07
6.63496974e-07
6.63497183e-07
6.63497539e-07
6.63497954e-07
6.63497477e-07
6.63497892e-07
6.634969e-07
6.63497971e-07
6.63497204e-07
6.63497357e-07
6.63497606e-07
6.63497625e-07
6.63498036e-07
6.63497045e-07
6.63497557e-07
6.63498029e-07
6.6349818e-07
6.63497982e-07
6.63497875e-07
6.63498469e-07
6.63497806e-07
6.63497034e-07
6.63498309e-07
6.63497499e-07
6.63497139e-07
6.63498296e-07
6.63497433e-07
6.63497674e-07
6.63497256e-07
6.63497165e-07
6.63497196e-07
6.63498167e-07
6.63496717e-07
6.63498126e-07
6.63497209e-07
6.63497266e-07
6.63497791e-07
6.6349781e-07
6.63497639e-07
6.63497911e-07
6.63497024e-07
6.63498085e-07
6.63496896e-07
6.63498872e-07
6.63497358e-07
6.63498202e-07
6.63497808e-07
6.63497919e-07
6.63497793e-07
6.63499208e-07
6.63497141e-07
6.63497793e-07
6.6349782e-07
6.63498401e-07
6.63498111e-07
6.63497681e-07
6.63497782e-07
6.6349809e-07
6.63497984e-07
6.63497893e-07
6.63497797e-07
6.63497167e-07
6.6349847e-07
6.63496182e-07
6.63498434e-07
6.63496607e-07
6.6349788e-07
6.6349747e-07
6.63497565e-07
6.63497995e-07
6.63498011e-07
6.63497926e-07
6.63498297e-07
6.63497659e-07
6.63498136e-07
6.63497731e-07
6.63497669e-07
6.63497011e-07
6.63498825e-07
6.63495937e-07
6.63499403e-07
6.63496115e-07
6.63499095e-07
6.63497348e-07
6.63497318e-07
6.63498321e-07
6.63497753e-07
6.63498009e-07
6.63497704e-07
6.6349747e-07
6.63497706e-07
6.63498323e-07
6.63498029e-07
6.63497907e-07
6.63498785e-07
6.63498228e-07
6.6349857e-07
6.63497398e-07
6.63499639e-07
6.63497281e-07
6.63499224e-07
6.63497636e-07
6.6349891e-07
6.63497738e-07
6.63498254e-07
6.63497937e-07
6.63498555e-07
6.63498767e-07
6.6349818e-07
6.63499153e-07
6.63497305e-07
6.6349938e-07
6.63497467e-07
6.6349892e-07
6.63498635e-07
6.63498033e-07
6.63498475e-07
6.63497618e-07
6.63499118e-07
6.63497725e-07
6.63498136e-07
6.63498233e-07
6.63498384e-07
6.63498104e-07
6.63498586e-07
6.63498186e-07
6.63498405e-07
6.63497821e-07
6.63497942e-07
6.63497701e-07
6.63498454e-07
6.63498047e-07
6.63497727e-07
6.63498019e-07
6.63498523e-07
6.63498318e-07
6.63497755e-07
6.63497705e-07
6.63498796e-07
6.634973e-07
6.63500079e-07
6.634984e-07
6.63498956e-07
6.63497741e-07
6.63499436e-07
6.63497242e-07
6.63498419e-07
6.63497367e-07
6.63497725e-07
6.63497785e-07
6.63498611e-07
6.63498167e-07
6.63499115e-07
6.63498205e-07
6.63497434e-07
6.63497976e-07
6.63498404e-07
6.63497858e-07
6.63498598e-07
6.63497662e-07
6.63498297e-07
6.63497796e-07
6.63497567e-07
6.63498183e-07
6.63497657e-07
6.63498614e-07
6.63497961e-07
6.63500111e-07
6.6349714e-07
6.63499581e-07
6.63496338e-07
6.63499849e-07
6.63497436e-07
6.63498211e-07
6.6349807e-07
6.63498312e-07
6.63498218e-07
6.63498536e-07
6.63498718e-07
6.63498452e-07
6.63497286e-07
6.63499338e-07
6.63497947e-07
6.63498235e-07
6.63498488e-07
6.63498619e-07
6.63498096e-07
6.63498452e-07
6.63498273e-07
6.63498612e-07
6.63498213e-07
6.63498478e-07
6.63498646e-07
6.63498332e-07
6.63498298e-07
6.63498663e-07
6.63498519e-07
6.63498591e-07
6.63498426e-07
6.63498622e-07
6.63498472e-07
6.63498586e-07
6.63498645e-07
6.63498701e-07
6.63498676e-07
6.63498725e-07
6.63498854e-07
6.63498869e-07
6.63498833e-07
6.63498955e-07
6.63499029e-07
6.6349902e-07
6.63499112e-07
6.63499193e-07
6.6349932e-07
6.63499362e-07
6.63499454e-07
6.63499581e-07
6.63499662e-07
6.63499801e-07
6.63499975e-07
6.63500153e-07
6.63500307e-07
6.63500572e-07
6.63500824e-07
6.63501112e-07
6.63501433e-07
6.6350174e-07
6.63502042e-07
6.63502326e-07
6.6350253e-07
6.63502652e-07
6.63502716e-07
6.63502759e-07
6.63502815e-07
6.63502801e-07
6.6350282e-07
6.6350282e-07
6.63502811e-07
6.63502823e-07
6.63502823e-07
6.63502808e-07
6.63502836e-07
6.63502802e-07
6.63502811e-07
6.63502809e-07
6.63502812e-07
6.63502809e-07
6.63502809e-07
6.63502816e-07
6.63502807e-07
6.635028e-07
6.63502835e-07
)
;

boundaryField
{
    closed
    {
        type            calculated;
        value           uniform 0;
    }
    open
    {
        type            calculated;
        value           uniform 0;
    }
    sides
    {
        type            empty;
    }
}


// ************************************************************************* //
