/*--------------------------------*- C++ -*----------------------------------*\
| =========                 |                                                 |
| \\      /  F ield         | OpenFOAM: The Open Source CFD Toolbox           |
|  \\    /   O peration     | Version:  2206                                  |
|   \\  /    A nd           | Website:  www.openfoam.com                      |
|    \\/     M anipulation  |                                                 |
\*---------------------------------------------------------------------------*/
FoamFile
{
    version     2.0;
    format      ascii;
    arch        "LSB;label=32;scalar=64";
    class       volScalarField;
    location    "1.68e-05";
    object      sourcePV;
}
// * * * * * * * * * * * * * * * * * * * * * * * * * * * * * * * * * * * * * //

dimensions      [1 -3 -1 0 0 0 0];

internalField   nonuniform List<scalar> 
3183
(
0
0
0
0
0
0
0
0
0
0
0
0
0
0
0
0
0
0
0
0
0
0
0
0
0
0
0
0
0
0
0
0
0
0
0
0
0
0
0
0
0
0
0
0
0
0
0
0
0
0
0
0
0
0
0
0
0
0
0
0
0
0
0
0
0
0
0
0
0
0
0
0
0
0
0
0
0
0
0
0
0
0
0
0
0
0
0
0
0
0
0
0
0
0
0
0
0
0
0
0
0
0
0
0
0
0
0
0
0
0
0
0
0
0
0
0
0
0
0
0
0
0
0
0
0
0
0
0
0
0
0
0
0
0
0
0
0
0
0
0
0
0
0
0
0
0
0
0
0
0
0
0
0
0
0
0
0
0
0
0
0
0
0
0
0
0
0
0
0
0
0
0
0
0
0
0
0
0
0
0
0
0
0
0
0
0
0
0
0
0
0
0
0
0
0
0
0
0
0
0
0
0
0
0
0
0
0
0
0
0
0
0
0
0
0
0
0
0
0
0
0
0
0
0
0
0
0
0
0
0
0
0
0
0
0
0
0
0
0
0
0
0
0
0
0
0
0
0
0
0
0
0
0
0
0
0
0
0
0
0
0
0
0
0
0
0
0
0
0
0
0
0
0
0
0
0
0
0
0
0
0
0
0
0
0
0
0
0
0
0
0
0
0
0
0
0
0
0
0
0
0
0
0
0
0
0
0
0
0
0
0
0
0
0
0
0
0
0
0
0
0
0
0
0
0
0
0
0
0
0
0
0
0
0
0
0
0
0
0
0
0
0
0
0
0
0
0
0
0
0
0
0
0
0
0
0
0
0
0
0
0
0
0
0
0
0
0
0
0
0
0
0
0
0
0
0
0
0
0
0
0
0
0
0
0
0
0
0
0
0
0
0
0
0
0
0
0
0
0
0
0
0
0
0
0
0
0
0
0
0
0
0
0
0
0
0
0
0
0
0
0
0
0
0
0
0
0
0
0
0
0
0
0
0
0
0
0
0
0
0
0
0
0
0
0
0
0
0
0
0
0
0
0
0
0
0
0
0
0
0
0
0
0
0
0
0
0
0
0
0
0
0
0
0
0
0
0
0
0
0
0
0
0
0
0
0
0
0
0
0
0
0
0
0
0
0
0
0
0
0
0
0
0
0
0
0
0
0
0
0
0
0
0
0
0
0
0
0
0
0
0
0
0
0
0
0
0
0
0
0
0
0
0
0
0
0
0
0
0
0
0
0
0
0
0
0
0
0
0
0
0
0
0
0
0
0
0
0
0
0
0
0
0
0
0
0
0
0
0
0
0
0
0
0
0
0
0
0
0
0
0
0
0
0
0
0
0
0
0
0
0
0
0
0
0
0
0
0
0
0
0
0
0
0
0
0
0
0
0
0
0
0
0
0
0
0
0
0
0
0
0
0
0
0
0
0
0
0
0
0
0
0
0
0
0
0
0
0
0
0
0
0
0
0
0
0
0
0
0
0
0
0
0
0
0
0
0
0
0
0
0
0
0
0
0
0
0
0
0
0
0
0
0
0
0
0
0
0
0
0
0
0
0
0
0
0
0
0
0
0
0
0
0
0
0
0
0
0
0
0
0
0
0
0
0
0
0
0
0
0
0
0
0
0
0
0
0
0
0
0
0
0
0
0
0
0
0
0
0
0
0
0
0
0
0
0
0
0
0
0
0
0
0
0
0
0
0
0
0
0
0
0
0
0
0
0
0
0
0
0
0
0
0
0
0
0
0
0
0
0
0
0
0
0
0
0
0
0
0
0
0
0
0
0
0
0
0
0
0
0
0
0
0
0
0
0
0
0
0
0
0
0
0
0
0
0
0
0
0
0
0
0
0
0
0
0
0
0
0
0
0
0
0
0
0
0
0
0
0
0
0
0
0
0
0
0
0
0
0
0
0
0
0
0
0
0
0
0
0
0
0
0
0
0
0
0
0
0
0
0
0
0
0
0
0
0
0
0
0
0
0
0
0
0
0
0
0
0
0
0
0
0
0
0
0
0
0
0
0
0
0
0
0
0
0
0
0
0
0
0
0
0
0
0
0
0
0
0
0
0
0
0
0
0
0
0
0
0
0
0
0
0
0
0
0
0
0
0
0
0
0
0
0
0
0
0
0
0
0
0
0
0
0
0
0
0
0
0
0
0
0
0
0
0
0
0
0
0
0
0
0
0
0
0
0
0
0
0
0
0
0
0
0
0
0
0
0
0
0
0
0
0
0
0
0
0
0
0
0
0
0
0
0
0
0
0
0
0
0
0
0
0
0
0
0
0
0
0
0
0
0
0
0
0
0
0
0
0
0
0
0
0
0
0
0
0
0
0
0
0
0
0
0
0
0
0
0
0
0
0
0
0
0
0
0
0
0
0
0
0
0
0
0
0
0
0
0
0
0
0
0
0
0
0
0
0
0
0
0
0
0
0
0
0
0
0
0
0
0
0
0
0
0
0
0
0
0
0
0
0
0
0
0
0
0
0
0
0
0
0
0
0
0
0
0
0
0
0
0
0
0
0
0
0
0
0
0
0
0
0
0
0
0
0
0
0
0
0
0
0
0
0
0
0
0
0
0
0
0
0
0
0
0
0
0
0
0
0
0
0
0
0
0
0
0
0
0
0
0
0
0
0
0
0
0
0
0
0
0
0
0
0
0
0
0
0
0
0
0
0
0
0
0
0
0
0
0
0
0
0
0
0
0
0
0
0
0
0
0
0
0
0
0
0
0
0
0
0
0
0
0
0
0
0
0
0
0
0
0
0
0
0
0
0
0
0
0
0
0
0
0
0
0
0
0
0
0
0
0
0
0
0
0
0
0
0
0
0
0
0
0
0
0
0
0
0
0
0
0
0
0
0
0
0
0
0
0
0
0
0
0
0
0
0
0
0
0
0
0
0
0
0
0
0
0
0
0
0
0
0
0
0
0
0
0
0
0
0
0
0
0
0
0
0
0
0
0
0
0
0
0
0
0
0
0
0
0
0
0
0
0
0
0
0
0
0
0
0
0
0
0
0
0
0
0
0
0
0
0
0
0
0
0
0
0
0
0
0
0
0
0
0
0
0
0
0
0
0
0
0
0
0
0
0
0
0
0
0
0
0
0
0
0
0
0
0
0
0
0
0
0
0
0
0
0
0
0
0
0
0
0
0
0
0
0
0
0
0
0
0
0
0
0
0
0
0
0
0
0
0
0
0
0
0
0
0
0
0
0
0
0
0
0
0
0
0
0
0
0
0
0
0
0
0
0
0
0
0
0
0
0
0
0
0
0
0
0
0
0
0
0
0
0
0
0
0
0
0
0
0
0
0
0
0
0
0
0
0
0
0
0
0
0
0
0
0
0
0
0
0
0
0
0
0
0
0
0
0
0
0
0
0
0
0
0
0
0
0
0
0
0
0
0
0
0
0
0
0
0
0
0
0
0
0
0
0
0
0
0
0
0
0
0
0
0
0
0
0
0
0
0
0
0
0
0
0
0
0
0
0
0
0
0
0
0
0
0
0
0
0
0
0
0
0
0
0
0
0
0
0
0
0
0
0
0
0
0
0
0
0
0
0
0
0
0
0
0
0
0
0
0
0
0
0
0
0
0
0
0
0
0
0
0
0
0
0
0
0
0
0
0
0
0
0
0
0
0
0
0
0
0
0
0
0
0
0
0
0
0
0
0
0
0
0
0
0
0
0
0
0
0
0
0
0
0
0
0
0
0
0
0
0
0
0
0
0
0
0
0
0
0
0
0
0
0
0
0
0
0
0
0
0
0
0
0
0
0
0
0
0
0
0
0
0
0
0
0
0
0
0
0
0
0
0
0
0
0
0
0
0
0
0
0
0
0
0
0
0
0
0
0
0
0
0
0
0
0
0
0
0
0
0
0
0
0
0
0
0
0
0
0
0
0
0
0
0
0
0
0
0
0
0
0
0
0
0
0
0
0
0
0
0
0
0
0
0
0
0
0
0
0
0
0
0
0
0
0
0
0
0
0
0
0
0
0
0
0
0
0
0
0
0
0
0
0
0
0
0
0
0
0
0
0
0
0
0
0
0
0
0
0
0
0
0
0
0
0
0
0
0
0
0
0
0
0
0
0
0
0
0
0
0
0
0
0
0
0
0
0
0
0
0
0
0
0
0
0
0
0
0
0
0
0
0
0
0
0
0
0
0
0
0
0
0
0
0
0
0
0
0
0
0
0
0
0
0
0
0
0
0
0
0
0
0
0
0
0
0
0
0
0
0
0
0
0
0
0
0
0
0
0
0
0
0
0
0
0
0
0
0
0
0
0
0
0
0
0
0
0
0
0
0
0
0
0
0
0
0
0
0
0
0
0
0
0
0
0
0
0
0
0
0
0
0
0
0
0
0
0
0
0
0
0
0
0
0
0
0
0
0
0
0
0
0
0
0
0
0
0
0
0
0
0
0
0
0
0
0
0
0
0
0
0
0
0
0
0
0
0
0
0
0
0
0
0
0
0
0
0
0
0
0
0
0
0
0
0
0
0
0
0
0
0
0
0
0
0
0
0
0
0
0
0
0
0
0
0
0
0
0
0
0
0
0
0
0
0
0
0
0
0
0
0
0
0
0
0
0
0
0
0
0
0
0
0
0
0
0
0
0
0
0
0
0
0
0
0
0
0
0
0
0
0
0
0
0
0
0
0
0
0
0
0
0
0
0
0
0
0
0
0
0
0
0
0
0
0
0
0
0
0
0
0
0
0
0
0
0
0
0
0
0
0
0
0
0
0
0
0
0
0
0
0
0
0
0
0
0
0
0
0
0
0
0
0
0
0
0
0
0
0
0
0
0
0
0
0
0
0
0
0
0
0
0
0
0
0
0
0
0
0
0
0
0
0
0
0
0
0
0
0
0
0
0
0
0
0
0
0
0
0
0
0
0
0
0
0
0
0
0
0
0
0
0
0
0
0
0
0
0
0
0
0
0
0
0
0
0
0
0
0
0
0
0
0
0
0
0
0
0
0
0
0
0
0
0
0
0
0
0
0
0
0
0
0
0
0
0
0
0
0
0
0
0
0
0
0
0
0
0
0
0
0
0
0
0
0
0
0
0
0
0
0
0
0
0
0
0
0
0
0
0
0
0
0
0
0
0
0
0
0
0
0
0
0
0
0
0
0
0
0
0
0
0
0
0
0
0
0
0
0
0
0
0
0
0
0
0
0
0
0
0
0
0
0
0
0
0
0
0
0
0
0
0
0
0
0
0
0
0
0
0
0
0
0
0
0
0
0
0
0
0
0
0
0
0
0
0
0
0
0
0
0
0
0
0
0
0
0
0
0
0
0
0
0
0
0
0
0
0
0
0
0
0
0
0
0
0
0
2.62289129e-298
1.25447904e-298
1.41234555e-295
6.82898169e-296
7.53356637e-293
3.68205822e-293
3.98067294e-290
1.96637472e-290
2.08355618e-287
1.04011857e-287
1.08029597e-284
5.44928771e-285
5.54835795e-282
2.82767362e-282
2.82270223e-279
1.45329919e-279
1.42245522e-276
7.39800887e-277
7.10032933e-274
3.72974284e-274
3.51056881e-271
1.86245774e-271
1.71920508e-268
9.2112553e-269
8.33912528e-266
4.51075517e-266
4.00632953e-263
2.18856301e-263
1.90632194e-260
1.05155591e-260
8.98376927e-258
5.00490181e-258
4.19297569e-255
2.35795911e-255
1.93809671e-252
1.10010677e-252
8.87166409e-250
5.08252423e-250
4.02158956e-247
2.32518502e-247
1.80525734e-244
1.05330851e-244
8.02442933e-242
4.72453905e-242
3.53188879e-239
2.09823437e-239
1.53922135e-236
9.22620992e-237
6.64169441e-234
4.01652686e-234
2.83741057e-231
1.73108494e-231
1.20008454e-228
7.38597619e-229
5.02490539e-226
3.11960646e-226
2.08280909e-223
1.30428871e-223
8.54584082e-221
5.39769536e-221
3.47073299e-218
2.21096285e-218
1.39516329e-215
8.96333663e-216
5.55062255e-213
3.59624186e-213
2.18547358e-210
1.42788656e-210
8.51549697e-208
5.6101929e-208
3.28327548e-205
2.18109065e-205
1.25258948e-202
8.38982526e-203
4.72807575e-200
3.19290274e-200
1.76564456e-197
1.20210155e-197
6.52278566e-195
4.47700131e-195
2.3836389e-192
1.64926535e-192
8.6157016e-190
6.00919726e-190
3.0799783e-187
2.16535463e-187
1.08886525e-184
7.71597674e-185
3.80654829e-182
2.7187128e-182
1.3157673e-179
9.47122314e-180
4.49651137e-177
3.26195055e-177
1.51907049e-174
1.11053928e-174
5.07272065e-172
3.73706597e-172
1.67424204e-169
1.24285725e-169
5.4608666e-167
4.08466998e-167
1.76003325e-164
1.32644029e-164
5.60459486e-162
4.25560504e-162
1.76310323e-159
1.34872589e-159
5.47854825e-157
4.22200432e-157
1.6813163e-154
1.30523269e-154
5.09529416e-152
3.98447354e-152
1.5246228e-149
1.20089432e-149
4.50364181e-147
3.57292697e-147
1.31312478e-144
1.04920679e-144
3.77849329e-142
3.04050053e-142
1.0728248e-139
8.69366152e-140
3.00511091e-137
2.45221026e-137
8.30299462e-135
6.82229671e-135
2.26239963e-132
1.87171089e-132
6.07825013e-130
5.06286239e-130
1.60980508e-127
1.34993546e-127
4.20204326e-125
3.54728401e-125
1.08079493e-122
9.18433126e-123
2.73854875e-120
2.34242703e-120
6.83418083e-118
5.88363094e-118
1.6793104e-115
1.45503938e-115
4.06198901e-113
3.54191547e-113
9.66917041e-111
8.48427232e-111
2.26441607e-108
1.99929638e-108
5.21564064e-106
4.63332909e-106
1.18114994e-103
1.05565826e-103
2.62907574e-101
2.3638604e-101
5.74975543e-99
5.20038334e-99
1.23504746e-96
1.12357735e-96
2.60457837e-94
2.38317201e-94
5.39055347e-92
4.96037386e-92
1.09442129e-89
1.01272674e-89
2.17868174e-87
2.02717355e-87
4.25062629e-85
3.97650213e-85
8.1234736e-83
7.64015208e-83
1.51994291e-80
1.43700796e-80
2.78267421e-78
2.64438418e-78
4.98178258e-76
4.75811189e-76
8.71596895e-74
8.36583497e-74
1.48921773e-71
1.43631601e-71
2.4831086e-69
2.40623557e-69
4.0372899e-67
3.93036318e-67
6.39556282e-65
6.25413686e-65
9.8622015e-63
9.68605788e-63
1.47896493e-60
1.45862081e-60
2.15467231e-58
2.13344989e-58
3.0462012e-56
3.02689956e-56
4.17412034e-54
4.15962329e-54
5.53644685e-52
5.5116317e-52
7.09816932e-50
7.05056618e-50
8.78271297e-48
8.41366823e-48
1.04720987e-45
1.04640154e-45
1.19994119e-43
1.19592128e-43
1.31989359e-41
1.31045661e-41
1.38997822e-39
1.37470944e-39
1.39779608e-37
1.37736378e-37
1.33840859e-35
1.31386204e-35
1.21624756e-33
1.21581007e-33
1.04478752e-31
1.04325581e-31
8.45193979e-30
8.43401899e-30
6.40585856e-28
6.38619079e-28
4.52277495e-26
4.49808382e-26
2.95464481e-24
2.92751965e-24
1.77156906e-22
1.74867045e-22
9.65320625e-21
9.52240978e-21
4.7217629e-19
4.66985223e-19
2.04124052e-17
2.04142276e-17
7.64054469e-16
7.63246515e-16
2.40979488e-14
2.40373653e-14
6.15236997e-13
6.15511651e-13
1.33509416e-11
1.35684166e-11
1.70167389e-08
1.71046761e-08
0.0725236985
0.293853753
7.21557624
8.58703743
9.00393662
8.1493804
3.05242683
2.52268785
0.526633825
0.427071594
0.117095643
0.105660425
0.0248291947
0.0232335954
0.00472791122
0.00459201269
0.000829905903
0.000827189739
0.000142281422
0.000142261751
2.80996605e-05
2.81827097e-05
1.0661494e-05
1.06685995e-05
8.16927339e-06
8.16977252e-06
7.83622068e-06
7.83633528e-06
7.79449962e-06
7.79451469e-06
7.78956486e-06
7.78957644e-06
7.78901122e-06
7.78902608e-06
7.78894602e-06
7.78896988e-06
7.78893993e-06
7.78894579e-06
7.78895131e-06
7.78892869e-06
7.78895716e-06
7.78893951e-06
7.78895325e-06
7.78894274e-06
7.78895602e-06
7.78894135e-06
7.78895691e-06
7.78894945e-06
7.78895807e-06
7.78895216e-06
7.78896131e-06
7.7889547e-06
7.78895595e-06
7.78895393e-06
7.78895738e-06
7.78895265e-06
7.78894573e-06
7.78896873e-06
7.7889407e-06
7.78895792e-06
7.78894891e-06
7.78895336e-06
7.78894429e-06
7.78894748e-06
7.78894159e-06
7.78894807e-06
7.78894675e-06
7.78895308e-06
7.78894008e-06
7.78896427e-06
7.78893568e-06
7.78895077e-06
7.78894175e-06
7.78895788e-06
7.78893827e-06
7.788963e-06
7.78894396e-06
7.78896308e-06
7.78894411e-06
7.7889579e-06
7.78894543e-06
7.78894711e-06
7.78895064e-06
7.78894832e-06
7.78895339e-06
7.78894348e-06
7.78895447e-06
7.78894337e-06
7.78895474e-06
7.78893073e-06
7.78897019e-06
7.78893869e-06
7.78895857e-06
7.78894823e-06
7.78896941e-06
7.78894307e-06
7.78895681e-06
7.78894972e-06
7.7889579e-06
7.78895161e-06
7.78896112e-06
7.78894608e-06
7.78895459e-06
7.78894741e-06
7.78895279e-06
7.78895726e-06
7.78894598e-06
7.78894674e-06
7.78895313e-06
7.78894928e-06
7.78894597e-06
7.78895334e-06
7.7889405e-06
7.78895113e-06
7.78894826e-06
7.78895467e-06
7.78893307e-06
7.78896084e-06
7.78894014e-06
7.788968e-06
7.78893649e-06
7.78896579e-06
7.78893246e-06
7.78895536e-06
7.78895158e-06
7.78895405e-06
7.7889493e-06
7.78896663e-06
7.78894655e-06
7.78896326e-06
7.78895781e-06
7.7889538e-06
7.78896312e-06
7.78896427e-06
7.78895278e-06
7.78897053e-06
7.78894973e-06
7.78896531e-06
7.78895319e-06
7.78895237e-06
7.7889497e-06
7.78895693e-06
7.78893819e-06
7.78895531e-06
7.78893935e-06
7.78895052e-06
7.78893639e-06
7.78896233e-06
7.7889465e-06
7.78894185e-06
7.78896667e-06
7.78893821e-06
7.78896777e-06
7.7889426e-06
7.78896156e-06
7.78895793e-06
7.78895398e-06
7.78894716e-06
7.78895661e-06
7.78894005e-06
7.78897356e-06
7.78893975e-06
7.78897272e-06
7.78894837e-06
7.78897392e-06
7.78894709e-06
7.7889542e-06
7.78895674e-06
7.78895279e-06
7.78894184e-06
7.78895296e-06
7.78894383e-06
7.78895013e-06
7.78896005e-06
7.78893696e-06
7.78896364e-06
7.78896635e-06
7.78910965e-06
7.78912098e-06
7.79179442e-06
7.79178281e-06
7.78911318e-06
7.78911715e-06
7.78897266e-06
7.78895597e-06
7.78895034e-06
7.78895565e-06
7.7889536e-06
7.78895996e-06
7.78894856e-06
7.78896511e-06
7.788941e-06
7.78896443e-06
7.78895049e-06
7.78896255e-06
7.78894977e-06
7.78895549e-06
7.78895172e-06
7.78896235e-06
7.78894537e-06
7.7889729e-06
7.78893691e-06
7.78897344e-06
7.78894469e-06
7.78896383e-06
7.78894833e-06
7.788958e-06
7.7889532e-06
7.78896511e-06
7.78895653e-06
7.78896156e-06
7.78895846e-06
7.78895937e-06
7.78895349e-06
7.78896284e-06
7.78895751e-06
7.78895421e-06
7.7889544e-06
7.78895432e-06
7.78896288e-06
7.78895305e-06
7.78895429e-06
7.78895552e-06
7.78896151e-06
7.788956e-06
7.78895039e-06
7.78897895e-06
7.78894037e-06
7.78896296e-06
7.78896215e-06
7.78895288e-06
7.78896514e-06
7.78895661e-06
7.7889603e-06
7.78895839e-06
7.78896733e-06
7.78896089e-06
7.78896307e-06
7.78896062e-06
7.78896486e-06
7.78896343e-06
7.7889737e-06
7.788947e-06
7.78898034e-06
7.78893765e-06
7.78897245e-06
7.7889432e-06
7.78896848e-06
7.78895315e-06
7.7889472e-06
7.78896813e-06
7.78895196e-06
7.78896003e-06
7.78895891e-06
7.78896421e-06
7.78896061e-06
7.78894677e-06
7.78897253e-06
7.78895379e-06
7.78896558e-06
7.78896908e-06
7.78895857e-06
7.78896559e-06
7.78895014e-06
7.78896142e-06
7.78894656e-06
7.78896516e-06
7.78895018e-06
7.78896247e-06
7.78894611e-06
7.78896993e-06
7.78894217e-06
7.78896644e-06
7.78896299e-06
7.78896138e-06
7.7889657e-06
7.78895538e-06
7.7889609e-06
7.78895887e-06
7.78895218e-06
7.78896664e-06
7.78895358e-06
7.78895719e-06
7.78895336e-06
7.78896196e-06
7.78895554e-06
7.78895728e-06
7.78895802e-06
7.7889598e-06
7.78896321e-06
7.7889628e-06
7.78896061e-06
7.78896975e-06
7.78894851e-06
7.78895969e-06
7.78895708e-06
7.78895829e-06
7.78896425e-06
7.78897544e-06
7.78896479e-06
7.78896618e-06
7.78896627e-06
7.78896723e-06
7.78896375e-06
7.78895988e-06
7.78896855e-06
7.7889589e-06
7.78895447e-06
7.78894924e-06
7.78897176e-06
7.78894213e-06
7.7889741e-06
7.78894761e-06
7.78897351e-06
7.78896056e-06
7.78895863e-06
7.78896749e-06
7.78895508e-06
7.78897333e-06
7.78894672e-06
7.78897232e-06
7.7889376e-06
7.78898074e-06
7.78894359e-06
7.78897705e-06
7.78895642e-06
7.78895887e-06
7.78896305e-06
7.78896792e-06
7.78896232e-06
7.7889672e-06
7.78895554e-06
7.78896812e-06
7.78895912e-06
7.78896091e-06
7.78896383e-06
7.78896406e-06
7.78896888e-06
7.78895725e-06
7.78896326e-06
7.78896881e-06
7.78897058e-06
7.78896825e-06
7.788967e-06
7.78897397e-06
7.78896618e-06
7.78895712e-06
7.78897209e-06
7.78896258e-06
7.78895835e-06
7.78897195e-06
7.78896181e-06
7.78896464e-06
7.78895972e-06
7.78895865e-06
7.78895902e-06
7.78897042e-06
7.7889534e-06
7.78896994e-06
7.78895917e-06
7.78895984e-06
7.78896601e-06
7.78896624e-06
7.78896422e-06
7.78896742e-06
7.788957e-06
7.78896947e-06
7.7889555e-06
7.7889787e-06
7.78896092e-06
7.78897083e-06
7.78896621e-06
7.78896751e-06
7.78896604e-06
7.78898265e-06
7.78895838e-06
7.78896604e-06
7.78896635e-06
7.78897317e-06
7.78896976e-06
7.78896472e-06
7.78896591e-06
7.78896952e-06
7.78896828e-06
7.78896721e-06
7.78896608e-06
7.78895869e-06
7.78897398e-06
7.78894711e-06
7.78897357e-06
7.78895211e-06
7.78896705e-06
7.78896224e-06
7.78896336e-06
7.78896841e-06
7.78896859e-06
7.78896759e-06
7.78897196e-06
7.78896446e-06
7.78897006e-06
7.78896531e-06
7.78896457e-06
7.78895685e-06
7.78897815e-06
7.78894423e-06
7.78898494e-06
7.78894633e-06
7.78898133e-06
7.7889608e-06
7.78896045e-06
7.78897223e-06
7.78896556e-06
7.78896857e-06
7.78896499e-06
7.78896224e-06
7.78896501e-06
7.78897225e-06
7.78896881e-06
7.78896737e-06
7.78897769e-06
7.78897114e-06
7.78897515e-06
7.7889614e-06
7.78898772e-06
7.78896002e-06
7.78898284e-06
7.78896419e-06
7.78897915e-06
7.78896539e-06
7.78897145e-06
7.78896772e-06
7.78897499e-06
7.78897747e-06
7.78897058e-06
7.78898201e-06
7.78896031e-06
7.78898468e-06
7.7889622e-06
7.78897927e-06
7.78897593e-06
7.78896885e-06
7.78897404e-06
7.78896398e-06
7.78898159e-06
7.78896523e-06
7.78897006e-06
7.7889712e-06
7.78897297e-06
7.78896969e-06
7.78897535e-06
7.78897065e-06
7.78897322e-06
7.78896636e-06
7.78896778e-06
7.78896496e-06
7.7889738e-06
7.78896901e-06
7.78896525e-06
7.78896868e-06
7.7889746e-06
7.7889722e-06
7.78896559e-06
7.788965e-06
7.78897781e-06
7.78896024e-06
7.78899288e-06
7.78897316e-06
7.7889797e-06
7.78896542e-06
7.78898533e-06
7.78895956e-06
7.78897339e-06
7.78896103e-06
7.78896523e-06
7.78896594e-06
7.78897564e-06
7.78897042e-06
7.78898156e-06
7.78897088e-06
7.78896182e-06
7.78896819e-06
7.78897321e-06
7.7889668e-06
7.78897549e-06
7.78896449e-06
7.78897196e-06
7.78896607e-06
7.78896338e-06
7.78897061e-06
7.78896444e-06
7.78897567e-06
7.78896801e-06
7.78899326e-06
7.78895837e-06
7.78898703e-06
7.78894894e-06
7.78899018e-06
7.78896184e-06
7.78897094e-06
7.78896929e-06
7.78897213e-06
7.78897102e-06
7.78897476e-06
7.7889769e-06
7.78897377e-06
7.78896007e-06
7.78898418e-06
7.78896785e-06
7.78897123e-06
7.78897419e-06
7.78897574e-06
7.78896959e-06
7.78897378e-06
7.78897167e-06
7.78897565e-06
7.78897096e-06
7.78897407e-06
7.78897606e-06
7.78897237e-06
7.78897197e-06
7.78897626e-06
7.78897456e-06
7.78897541e-06
7.78897347e-06
7.78897577e-06
7.78897401e-06
7.78897535e-06
7.78897604e-06
7.7889767e-06
7.7889764e-06
7.78897698e-06
7.78897849e-06
7.78897867e-06
7.78897825e-06
7.78897968e-06
7.78898055e-06
7.78898044e-06
7.78898152e-06
7.78898247e-06
7.78898397e-06
7.78898446e-06
7.78898554e-06
7.78898704e-06
7.78898798e-06
7.78898962e-06
7.78899167e-06
7.78899375e-06
7.78899556e-06
7.78899867e-06
7.78900163e-06
7.78900501e-06
7.78900878e-06
7.78901239e-06
7.78901594e-06
7.78901928e-06
7.78902167e-06
7.7890231e-06
7.78902385e-06
7.78902436e-06
7.78902502e-06
7.78902485e-06
7.78902507e-06
7.78902508e-06
7.78902498e-06
7.78902511e-06
7.78902511e-06
7.78902493e-06
7.78902526e-06
7.78902486e-06
7.78902498e-06
7.78902494e-06
7.78902499e-06
7.78902494e-06
7.78902494e-06
7.78902503e-06
7.78902492e-06
7.78902484e-06
7.78902525e-06
)
;

boundaryField
{
    closed
    {
        type            calculated;
        value           uniform 0;
    }
    open
    {
        type            calculated;
        value           uniform 0;
    }
    sides
    {
        type            empty;
    }
}


// ************************************************************************* //
