/*--------------------------------*- C++ -*----------------------------------*\
| =========                 |                                                 |
| \\      /  F ield         | OpenFOAM: The Open Source CFD Toolbox           |
|  \\    /   O peration     | Version:  2206                                  |
|   \\  /    A nd           | Website:  www.openfoam.com                      |
|    \\/     M anipulation  |                                                 |
\*---------------------------------------------------------------------------*/
FoamFile
{
    version     2.0;
    format      ascii;
    arch        "LSB;label=32;scalar=64";
    class       volVectorField;
    location    "1.68e-05";
    object      U;
}
// * * * * * * * * * * * * * * * * * * * * * * * * * * * * * * * * * * * * * //

dimensions      [0 1 -1 0 0 0 0];

internalField   nonuniform List<vector> 
3183
(
(5.03395366e-13 0 0)
(2.23438298e-13 0 0)
(-3.64035246e-13 0 0)
(-4.48917963e-13 0 0)
(-1.78453473e-13 0 0)
(-1.28020978e-17 0 0)
(-9.6630153e-19 0 0)
(-9.45737007e-23 0 0)
(5.75643596e-20 0 0)
(2.42457926e-18 0 0)
(3.99287795e-14 0 0)
(3.08951247e-13 0 0)
(7.446403e-13 0 0)
(3.0221882e-13 0 0)
(1.92230732e-13 0 0)
(-1.71243683e-17 0 0)
(-4.14090088e-13 0 0)
(-7.08444265e-13 0 0)
(-1.0063191e-12 0 0)
(-2.66095192e-13 0 0)
(3.60091899e-13 0 0)
(2.17696113e-16 0 0)
(1.57669872e-13 0 0)
(3.92404588e-13 0 0)
(4.76971688e-13 0 0)
(9.48587088e-13 0 0)
(9.33444091e-13 0 0)
(6.63707819e-13 0 0)
(2.00345474e-13 0 0)
(1.04477896e-13 0 0)
(-5.48269494e-14 0 0)
(2.44563303e-14 0 0)
(-5.85551272e-13 0 0)
(-8.45578694e-13 0 0)
(-6.87229815e-13 0 0)
(-7.44372182e-13 0 0)
(-1.16801185e-12 0 0)
(-1.37536245e-12 0 0)
(-1.23512029e-12 0 0)
(-1.01184934e-12 0 0)
(-5.90191715e-13 0 0)
(-5.37433309e-14 0 0)
(5.49694738e-13 0 0)
(5.23618921e-13 0 0)
(1.25596923e-12 0 0)
(1.81242302e-12 0 0)
(1.69512542e-12 0 0)
(1.80094009e-12 0 0)
(1.42471968e-12 0 0)
(1.32925024e-12 0 0)
(8.5473745e-13 0 0)
(5.46546409e-13 0 0)
(-3.5620432e-13 0 0)
(-4.08745695e-13 0 0)
(-1.00053429e-12 0 0)
(-1.77030693e-12 0 0)
(-2.25921971e-12 0 0)
(-2.84580161e-12 0 0)
(-3.41556228e-12 0 0)
(-3.6381734e-12 0 0)
(-4.0422778e-12 0 0)
(-4.8181476e-12 0 0)
(-4.76920914e-12 0 0)
(-5.53435338e-12 0 0)
(-5.139772e-12 0 0)
(-5.55861885e-12 0 0)
(-5.7548449e-12 0 0)
(-5.36696023e-12 0 0)
(-5.57163932e-12 0 0)
(-6.14906041e-12 0 0)
(-6.14832351e-12 0 0)
(-6.25375432e-12 0 0)
(-5.8325637e-12 0 0)
(-6.39258e-12 0 0)
(-7.10808114e-12 0 0)
(-6.52156106e-12 0 0)
(-7.05958499e-12 0 0)
(-6.62437274e-12 0 0)
(-6.82950166e-12 0 0)
(-7.04502845e-12 0 0)
(-8.24979544e-12 0 0)
(-6.93818108e-12 0 0)
(-7.44606452e-12 0 0)
(-8.54269964e-12 0 0)
(-7.94898394e-12 0 0)
(-7.80270765e-12 0 0)
(-8.3556168e-12 0 0)
(-9.16326439e-12 0 0)
(-8.16166605e-12 0 0)
(-8.64136361e-12 0 0)
(-9.71538159e-12 0 0)
(-9.54506685e-12 0 0)
(-9.28154027e-12 0 0)
(-9.7438897e-12 0 0)
(-1.0273114e-11 0 0)
(-1.04455454e-11 0 0)
(-9.85295443e-12 0 0)
(-9.50473682e-12 0 0)
(-1.01801557e-11 0 0)
(-9.6487604e-12 0 0)
(-9.32927425e-12 0 0)
(-9.79743787e-12 0 0)
(-1.00999326e-11 0 0)
(-9.69550073e-12 0 0)
(-9.57151105e-12 0 0)
(-9.0905525e-12 0 0)
(-9.1249172e-12 0 0)
(-9.84184092e-12 0 0)
(-1.0596284e-11 0 0)
(-1.00760641e-11 0 0)
(-9.43762897e-12 0 0)
(-9.310807e-12 0 0)
(-9.39883828e-12 0 0)
(-1.02112934e-11 0 0)
(-1.03678034e-11 0 0)
(-1.12182068e-11 0 0)
(-1.06424294e-11 0 0)
(-1.03867056e-11 0 0)
(-1.11444e-11 0 0)
(-1.21926621e-11 0 0)
(-1.19947404e-11 0 0)
(-1.08233288e-11 0 0)
(-1.04405368e-11 0 0)
(-1.07795861e-11 0 0)
(-1.10025291e-11 0 0)
(-1.09899188e-11 0 0)
(-1.12991209e-11 0 0)
(-1.17805083e-11 0 0)
(-1.07566138e-11 0 0)
(-1.21369172e-11 0 0)
(-1.13128012e-11 0 0)
(-1.16247344e-11 0 0)
(-1.2698447e-11 0 0)
(-1.33698171e-11 0 0)
(-1.10625434e-11 0 0)
(-1.35885963e-11 0 0)
(-1.35080228e-11 0 0)
(-1.23904858e-11 0 0)
(-1.31717093e-11 0 0)
(-1.28725045e-11 0 0)
(-1.35321434e-11 0 0)
(-1.31426988e-11 0 0)
(-1.39191505e-11 0 0)
(-1.43347275e-11 0 0)
(-1.2392707e-11 0 0)
(-1.4169717e-11 0 0)
(-1.30846317e-11 0 0)
(-1.47334311e-11 0 0)
(-1.3354749e-11 0 0)
(-1.28664618e-11 0 0)
(-1.30552207e-11 0 0)
(-1.40173293e-11 0 0)
(-1.33878507e-11 0 0)
(-1.27955668e-11 0 0)
(-1.43464192e-11 0 0)
(-1.24313915e-11 0 0)
(-1.40336698e-11 0 0)
(-1.41851439e-11 0 0)
(-1.32207533e-11 0 0)
(-1.34493508e-11 0 0)
(-1.38363609e-11 0 0)
(-1.29926048e-11 0 0)
(-1.28515679e-11 0 0)
(-1.24600354e-11 0 0)
(-1.28867081e-11 0 0)
(-1.20470352e-11 0 0)
(-1.27142731e-11 0 0)
(-1.26172069e-11 0 0)
(-1.2656972e-11 0 0)
(-1.50118248e-11 0 0)
(-1.36241105e-11 0 0)
(-1.29234087e-11 0 0)
(-1.37298766e-11 0 0)
(-1.32627115e-11 0 0)
(-1.39758637e-11 0 0)
(-1.30012856e-11 0 0)
(-1.39140514e-11 0 0)
(-1.28459215e-11 0 0)
(-1.27201601e-11 0 0)
(-1.4277498e-11 0 0)
(-1.29306388e-11 0 0)
(-1.32373235e-11 0 0)
(-1.30631052e-11 0 0)
(-1.35210822e-11 0 0)
(-1.32752929e-11 0 0)
(-1.41114605e-11 0 0)
(-1.34240282e-11 0 0)
(-1.37832491e-11 0 0)
(-1.36843927e-11 0 0)
(-1.29319332e-11 0 0)
(-1.35644484e-11 0 0)
(-1.41371697e-11 0 0)
(-1.40560981e-11 0 0)
(-1.38687283e-11 0 0)
(-1.43631774e-11 0 0)
(-1.40757992e-11 0 0)
(-1.3810763e-11 0 0)
(-1.41634181e-11 0 0)
(-1.50902342e-11 0 0)
(-1.43787236e-11 0 0)
(-1.39257456e-11 0 0)
(-1.46734452e-11 0 0)
(-1.41176986e-11 0 0)
(-1.58071606e-11 0 0)
(-1.5065061e-11 0 0)
(-1.46254592e-11 0 0)
(-1.46979423e-11 0 0)
(-1.48765667e-11 0 0)
(-1.64453892e-11 0 0)
(-1.38903767e-11 0 0)
(-1.49096239e-11 0 0)
(-1.57494856e-11 0 0)
(-1.49201002e-11 0 0)
(-1.71227246e-11 0 0)
(-1.558301e-11 0 0)
(-1.71402355e-11 0 0)
(-1.62105587e-11 0 0)
(-1.53276186e-11 0 0)
(-1.55339178e-11 0 0)
(-1.63827479e-11 0 0)
(-1.6244043e-11 0 0)
(-1.66881538e-11 0 0)
(-1.64274476e-11 0 0)
(-1.65719056e-11 0 0)
(-1.58950135e-11 0 0)
(-1.59263681e-11 0 0)
(-1.60801017e-11 0 0)
(-1.66358041e-11 0 0)
(-1.6387735e-11 0 0)
(-1.61109544e-11 0 0)
(-1.50782202e-11 0 0)
(-1.61277098e-11 0 0)
(-1.61174688e-11 0 0)
(-1.58786773e-11 0 0)
(-1.56148333e-11 0 0)
(-1.49070993e-11 0 0)
(-1.55141214e-11 0 0)
(-1.63121899e-11 0 0)
(-1.65635549e-11 0 0)
(-1.58904142e-11 0 0)
(-1.66142203e-11 0 0)
(-1.61039863e-11 0 0)
(-1.50659896e-11 0 0)
(-1.60942076e-11 0 0)
(-1.65027892e-11 0 0)
(-1.68718237e-11 0 0)
(-1.64878625e-11 0 0)
(-1.6315794e-11 0 0)
(-1.67042373e-11 0 0)
(-1.63855767e-11 0 0)
(-1.70574502e-11 0 0)
(-1.69034989e-11 0 0)
(-1.64250165e-11 0 0)
(-1.60109076e-11 0 0)
(-1.70515461e-11 0 0)
(-1.55004624e-11 0 0)
(-1.66060892e-11 0 0)
(-1.59514777e-11 0 0)
(-1.63801081e-11 0 0)
(-1.67995916e-11 0 0)
(-1.64626628e-11 0 0)
(-1.76144383e-11 0 0)
(-1.78550353e-11 0 0)
(-1.74431932e-11 0 0)
(-1.83693676e-11 0 0)
(-1.81140573e-11 0 0)
(-1.84280611e-11 0 0)
(-1.83264945e-11 0 0)
(-1.79253822e-11 0 0)
(-1.81406779e-11 0 0)
(-1.8708292e-11 0 0)
(-1.87676918e-11 0 0)
(-1.90847191e-11 0 0)
(-1.81173459e-11 0 0)
(-1.81577586e-11 0 0)
(-1.77713975e-11 0 0)
(-1.91899813e-11 0 0)
(-1.94963916e-11 0 0)
(-1.87835506e-11 0 0)
(-1.89902396e-11 0 0)
(-1.9008089e-11 0 0)
(-1.98062681e-11 0 0)
(-1.99715981e-11 0 0)
(-2.0322114e-11 0 0)
(-1.97687247e-11 0 0)
(-2.01264817e-11 0 0)
(-1.95257875e-11 0 0)
(-1.99199675e-11 0 0)
(-2.12670717e-11 0 0)
(-1.96077334e-11 0 0)
(-1.98037553e-11 0 0)
(-1.96227103e-11 0 0)
(-1.91977388e-11 0 0)
(-1.89427033e-11 0 0)
(-1.95823184e-11 0 0)
(-1.92444568e-11 0 0)
(-1.91855931e-11 0 0)
(-2.03999894e-11 0 0)
(-1.95095514e-11 0 0)
(-1.93468823e-11 0 0)
(-1.9037093e-11 0 0)
(-1.97008835e-11 0 0)
(-1.88425684e-11 0 0)
(-1.93717843e-11 0 0)
(-2.02923757e-11 0 0)
(-2.12837806e-11 0 0)
(-1.92345452e-11 0 0)
(-1.98866393e-11 0 0)
(-2.11240156e-11 0 0)
(-2.00066717e-11 0 0)
(-2.11174914e-11 0 0)
(-2.04923226e-11 0 0)
(-2.02756198e-11 0 0)
(-2.08070915e-11 0 0)
(-2.11339662e-11 0 0)
(-2.15877755e-11 0 0)
(-2.11550195e-11 0 0)
(-2.18706924e-11 0 0)
(-2.06474173e-11 0 0)
(-2.05464804e-11 0 0)
(-2.06232568e-11 0 0)
(-2.09423201e-11 0 0)
(-2.01339092e-11 0 0)
(-2.02917778e-11 0 0)
(-2.16176096e-11 0 0)
(-1.98916402e-11 0 0)
(-2.09141253e-11 0 0)
(-1.92814191e-11 0 0)
(-1.97647794e-11 0 0)
(-1.99282787e-11 0 0)
(-1.97904616e-11 0 0)
(-1.94192239e-11 0 0)
(-2.00151741e-11 0 0)
(-1.98843246e-11 0 0)
(-1.88847151e-11 0 0)
(-1.95852464e-11 0 0)
(-1.88764172e-11 0 0)
(-2.09499753e-11 0 0)
(-1.99520847e-11 0 0)
(-2.03450856e-11 0 0)
(-1.89506131e-11 0 0)
(-2.06029381e-11 0 0)
(-1.92962206e-11 0 0)
(-1.78351996e-11 0 0)
(-2.01179455e-11 0 0)
(-1.97476498e-11 0 0)
(-1.98585279e-11 0 0)
(-1.9024417e-11 0 0)
(-1.95792332e-11 0 0)
(-2.00290646e-11 0 0)
(-1.90706988e-11 0 0)
(-1.92233888e-11 0 0)
(-1.97080026e-11 0 0)
(-1.94722236e-11 0 0)
(-1.86944894e-11 0 0)
(-1.91403227e-11 0 0)
(-1.8893383e-11 0 0)
(-1.90837275e-11 0 0)
(-1.86506452e-11 0 0)
(-1.80784799e-11 0 0)
(-1.93412227e-11 0 0)
(-1.98054964e-11 0 0)
(-1.86936154e-11 0 0)
(-1.85015047e-11 0 0)
(-1.83990653e-11 0 0)
(-1.82605303e-11 0 0)
(-1.87747583e-11 0 0)
(-1.79110154e-11 0 0)
(-1.80995555e-11 0 0)
(-1.86108003e-11 0 0)
(-1.76094573e-11 0 0)
(-1.78805001e-11 0 0)
(-1.75075072e-11 0 0)
(-1.61583426e-11 0 0)
(-1.76272371e-11 0 0)
(-1.84960566e-11 0 0)
(-1.76019912e-11 0 0)
(-1.72897367e-11 0 0)
(-1.70234442e-11 0 0)
(-1.73053092e-11 0 0)
(-1.76582191e-11 0 0)
(-1.66671408e-11 0 0)
(-1.71441754e-11 0 0)
(-1.68342571e-11 0 0)
(-1.71405703e-11 0 0)
(-1.68400841e-11 0 0)
(-1.68825593e-11 0 0)
(-1.7841448e-11 0 0)
(-1.64049175e-11 0 0)
(-1.67812855e-11 0 0)
(-1.63949366e-11 0 0)
(-1.73450947e-11 0 0)
(-1.63592533e-11 0 0)
(-1.65977589e-11 0 0)
(-1.72074317e-11 0 0)
(-1.671738e-11 0 0)
(-1.6543729e-11 0 0)
(-1.69227949e-11 0 0)
(-1.59784619e-11 0 0)
(-1.57112271e-11 0 0)
(-1.56842948e-11 0 0)
(-1.57064072e-11 0 0)
(-1.52268348e-11 0 0)
(-1.57456038e-11 0 0)
(-1.56015107e-11 0 0)
(-1.48463334e-11 0 0)
(-1.54737351e-11 0 0)
(-1.56001728e-11 0 0)
(-1.47144335e-11 0 0)
(-1.51730662e-11 0 0)
(-1.43575025e-11 0 0)
(-1.39520114e-11 0 0)
(-1.32161536e-11 0 0)
(-1.31789402e-11 0 0)
(-1.47137577e-11 0 0)
(-1.42244783e-11 0 0)
(-1.40776324e-11 0 0)
(-1.32563103e-11 0 0)
(-1.40046864e-11 0 0)
(-1.38000827e-11 0 0)
(-1.30574128e-11 0 0)
(-1.33022325e-11 0 0)
(-1.24426762e-11 0 0)
(-1.33416754e-11 0 0)
(-1.33006025e-11 0 0)
(-1.33431318e-11 0 0)
(-1.37844206e-11 0 0)
(-1.34553299e-11 0 0)
(-1.36945261e-11 0 0)
(-1.19503927e-11 0 0)
(-1.30427352e-11 0 0)
(-1.31944522e-11 0 0)
(-1.29623001e-11 0 0)
(-1.28117511e-11 0 0)
(-1.26526438e-11 0 0)
(-1.31032667e-11 0 0)
(-1.32065738e-11 0 0)
(-1.36825178e-11 0 0)
(-1.30187203e-11 0 0)
(-1.3677527e-11 0 0)
(-1.31281487e-11 0 0)
(-1.39687229e-11 0 0)
(-1.35746907e-11 0 0)
(-1.27733123e-11 0 0)
(-1.31818408e-11 0 0)
(-1.23034264e-11 0 0)
(-1.32444723e-11 0 0)
(-1.29271345e-11 0 0)
(-1.28603228e-11 0 0)
(-1.23081006e-11 0 0)
(-1.30349383e-11 0 0)
(-1.28918482e-11 0 0)
(-1.38339742e-11 0 0)
(-1.34866059e-11 0 0)
(-1.25581503e-11 0 0)
(-1.326297e-11 0 0)
(-1.39256919e-11 0 0)
(-1.34941957e-11 0 0)
(-1.38339826e-11 0 0)
(-1.22740353e-11 0 0)
(-1.38646647e-11 0 0)
(-1.33745187e-11 0 0)
(-1.33294585e-11 0 0)
(-1.27867301e-11 0 0)
(-1.25916315e-11 0 0)
(-1.22633982e-11 0 0)
(-1.19105639e-11 0 0)
(-1.11089647e-11 0 0)
(-1.03991037e-11 0 0)
(-1.18176782e-11 0 0)
(-1.12954398e-11 0 0)
(-1.12886971e-11 0 0)
(-1.12243521e-11 0 0)
(-1.18847986e-11 0 0)
(-1.11098855e-11 0 0)
(-1.16338933e-11 0 0)
(-1.07015337e-11 0 0)
(-1.13721256e-11 0 0)
(-1.07628544e-11 0 0)
(-1.04511324e-11 0 0)
(-1.00244112e-11 0 0)
(-1.05174598e-11 0 0)
(-1.06555492e-11 0 0)
(-9.51025028e-12 0 0)
(-1.00309592e-11 0 0)
(-1.04896976e-11 0 0)
(-9.74205212e-12 0 0)
(-1.01579763e-11 0 0)
(-9.63465688e-12 0 0)
(-9.6479685e-12 0 0)
(-1.0223659e-11 0 0)
(-9.97717384e-12 0 0)
(-1.0324154e-11 0 0)
(-1.05612084e-11 0 0)
(-9.1534297e-12 0 0)
(-9.77278114e-12 0 0)
(-9.81618e-12 0 0)
(-9.75141048e-12 0 0)
(-9.25066407e-12 0 0)
(-8.81166696e-12 0 0)
(-9.92290502e-12 0 0)
(-9.05520172e-12 0 0)
(-9.20953552e-12 0 0)
(-9.86150796e-12 0 0)
(-8.76731873e-12 0 0)
(-9.73197505e-12 0 0)
(-9.64302698e-12 0 0)
(-8.45599251e-12 0 0)
(-8.8666044e-12 0 0)
(-9.27367308e-12 0 0)
(-9.25285803e-12 0 0)
(-9.05605561e-12 0 0)
(-8.86493595e-12 0 0)
(-8.25224199e-12 0 0)
(-8.84264585e-12 0 0)
(-7.97365637e-12 0 0)
(-8.7384048e-12 0 0)
(-7.77087685e-12 0 0)
(-8.30800194e-12 0 0)
(-8.25969351e-12 0 0)
(-9.0780955e-12 0 0)
(-6.9253773e-12 0 0)
(-7.06978535e-12 0 0)
(-8.31703811e-12 0 0)
(-7.43596462e-12 0 0)
(-6.89268814e-12 0 0)
(-7.87525698e-12 0 0)
(-6.55081638e-12 0 0)
(-6.87003719e-12 0 0)
(-7.41198573e-12 0 0)
(-6.99420097e-12 0 0)
(-5.72966366e-12 0 0)
(-6.58175841e-12 0 0)
(-7.2997113e-12 0 0)
(-5.82223349e-12 0 0)
(-6.48386554e-12 0 0)
(-5.85645814e-12 0 0)
(-6.5091719e-12 0 0)
(-6.7830837e-12 0 0)
(-6.98967385e-12 0 0)
(-6.0466256e-12 0 0)
(-5.19953712e-12 0 0)
(-5.94858143e-12 0 0)
(-5.87136507e-12 0 0)
(-5.00380017e-12 0 0)
(-4.56449419e-12 0 0)
(-5.56926403e-12 0 0)
(-5.1365352e-12 0 0)
(-5.0488264e-12 0 0)
(-5.46155708e-12 0 0)
(-4.7467213e-12 0 0)
(-4.75785148e-12 0 0)
(-5.35203146e-12 0 0)
(-4.24156364e-12 0 0)
(-4.42498015e-12 0 0)
(-4.01099375e-12 0 0)
(-3.43280527e-12 0 0)
(-3.18779206e-12 0 0)
(-4.59586426e-12 0 0)
(-3.39519841e-12 0 0)
(-3.77072432e-12 0 0)
(-4.49264072e-12 0 0)
(-3.94930558e-12 0 0)
(-3.80716824e-12 0 0)
(-4.38755969e-12 0 0)
(-2.62458082e-12 0 0)
(-1.85890739e-12 0 0)
(-2.70458688e-12 0 0)
(-1.46961801e-12 0 0)
(-1.83061143e-12 0 0)
(-1.61804108e-12 0 0)
(-1.47514135e-12 0 0)
(-1.09978435e-12 0 0)
(-1.69870818e-12 0 0)
(-1.01170818e-12 0 0)
(-1.07647798e-12 0 0)
(-1.61231065e-12 0 0)
(-8.60873844e-13 0 0)
(-5.35797342e-13 0 0)
(-1.39941211e-12 0 0)
(-8.2573018e-13 0 0)
(-1.28111376e-12 0 0)
(4.12547829e-13 0 0)
(-1.03993824e-12 0 0)
(-9.22068624e-13 0 0)
(-1.76899022e-13 0 0)
(4.82405351e-14 0 0)
(-5.5799118e-13 0 0)
(-1.93240274e-14 0 0)
(-1.65573894e-13 0 0)
(1.80105379e-13 0 0)
(1.28230598e-14 0 0)
(1.1845244e-13 0 0)
(1.05345125e-12 0 0)
(-3.52708819e-13 0 0)
(5.55423911e-13 0 0)
(2.3272278e-13 0 0)
(1.13156835e-12 0 0)
(7.09108066e-13 0 0)
(9.48086485e-13 0 0)
(1.09743535e-12 0 0)
(4.51008729e-13 0 0)
(4.66333385e-13 0 0)
(1.04515736e-12 0 0)
(1.80311793e-12 0 0)
(4.2034653e-13 0 0)
(1.96883614e-12 0 0)
(1.51370654e-12 0 0)
(4.73759245e-13 0 0)
(1.0327817e-12 0 0)
(6.43703328e-13 0 0)
(1.12898015e-12 0 0)
(1.21671979e-12 0 0)
(1.23507899e-13 0 0)
(8.41393712e-13 0 0)
(1.05511577e-12 0 0)
(1.45199626e-12 0 0)
(1.65804747e-12 0 0)
(1.17962095e-12 0 0)
(1.26267629e-12 0 0)
(9.20463785e-13 0 0)
(-6.8957253e-13 0 0)
(6.99299116e-13 0 0)
(4.47889793e-13 0 0)
(2.11851573e-13 0 0)
(1.87389478e-13 0 0)
(2.27285498e-13 0 0)
(2.52129441e-13 0 0)
(1.16257201e-12 0 0)
(7.0648556e-13 0 0)
(4.28500943e-13 0 0)
(2.6319666e-13 0 0)
(1.65078374e-12 0 0)
(8.900995e-13 0 0)
(1.17728933e-12 0 0)
(1.23872825e-12 0 0)
(1.45360533e-12 0 0)
(1.113544e-12 0 0)
(1.82868197e-12 0 0)
(5.47671189e-13 0 0)
(1.27469777e-12 0 0)
(1.39873299e-12 0 0)
(1.9729416e-12 0 0)
(1.31540788e-12 0 0)
(1.55891847e-12 0 0)
(1.50693381e-12 0 0)
(2.46377448e-12 0 0)
(2.11188748e-12 0 0)
(1.15988954e-12 0 0)
(3.10093773e-12 0 0)
(2.56152131e-12 0 0)
(2.61720451e-12 0 0)
(2.21039192e-12 0 0)
(2.18236583e-12 0 0)
(1.79792111e-12 0 0)
(2.37118823e-12 0 0)
(2.94697956e-12 0 0)
(1.5854796e-12 0 0)
(2.3715136e-12 0 0)
(1.94785463e-12 0 0)
(2.36808462e-12 0 0)
(3.5784664e-12 0 0)
(3.35031137e-12 0 0)
(2.55537494e-12 0 0)
(3.38502483e-12 0 0)
(3.20731288e-12 0 0)
(4.13525063e-12 0 0)
(3.45489115e-12 0 0)
(4.55982072e-12 0 0)
(4.29152578e-12 0 0)
(4.20706967e-12 0 0)
(3.39010801e-12 0 0)
(3.38947362e-12 0 0)
(3.27750452e-12 0 0)
(3.50594783e-12 0 0)
(3.35091693e-12 0 0)
(3.95238764e-12 0 0)
(3.40554722e-12 0 0)
(3.93011544e-12 0 0)
(4.24317515e-12 0 0)
(3.96721635e-12 0 0)
(5.2961429e-12 0 0)
(5.10204692e-12 0 0)
(5.28348609e-12 0 0)
(4.48634123e-12 0 0)
(3.87883819e-12 0 0)
(4.93233001e-12 0 0)
(5.24679512e-12 0 0)
(4.81125667e-12 0 0)
(5.90013071e-12 0 0)
(5.88066347e-12 0 0)
(5.39682169e-12 0 0)
(5.14566467e-12 0 0)
(5.04782544e-12 0 0)
(6.60736879e-12 0 0)
(6.55755338e-12 0 0)
(6.26565718e-12 0 0)
(5.96490663e-12 0 0)
(6.80410599e-12 0 0)
(7.78444502e-12 0 0)
(7.08162435e-12 0 0)
(6.9291851e-12 0 0)
(7.46075145e-12 0 0)
(6.22125407e-12 0 0)
(7.79747774e-12 0 0)
(7.40262963e-12 0 0)
(8.31475311e-12 0 0)
(7.61035709e-12 0 0)
(6.72433575e-12 0 0)
(8.02517232e-12 0 0)
(7.27708912e-12 0 0)
(7.46868024e-12 0 0)
(7.8006709e-12 0 0)
(8.25070372e-12 0 0)
(8.21318742e-12 0 0)
(8.1666901e-12 0 0)
(7.9336594e-12 0 0)
(8.62476308e-12 0 0)
(9.42648021e-12 0 0)
(8.17058503e-12 0 0)
(8.83275568e-12 0 0)
(8.65480956e-12 0 0)
(8.70691347e-12 0 0)
(9.50755473e-12 0 0)
(8.36030802e-12 0 0)
(9.69448823e-12 0 0)
(8.20651743e-12 0 0)
(7.94272877e-12 0 0)
(8.64702309e-12 0 0)
(9.37631903e-12 0 0)
(8.49242037e-12 0 0)
(8.86603086e-12 0 0)
(8.89489945e-12 0 0)
(8.31377629e-12 0 0)
(9.40357802e-12 0 0)
(8.83159918e-12 0 0)
(8.96747703e-12 0 0)
(8.00460456e-12 0 0)
(8.98533204e-12 0 0)
(8.52112421e-12 0 0)
(8.81859284e-12 0 0)
(7.97885015e-12 0 0)
(7.31527058e-12 0 0)
(8.27787518e-12 0 0)
(7.47166847e-12 0 0)
(6.81993775e-12 0 0)
(7.70206173e-12 0 0)
(6.4205935e-12 0 0)
(7.61902004e-12 0 0)
(7.14442265e-12 0 0)
(6.23872214e-12 0 0)
(7.03494243e-12 0 0)
(6.94254978e-12 0 0)
(6.49718941e-12 0 0)
(7.34399681e-12 0 0)
(8.12996933e-12 0 0)
(7.48843921e-12 0 0)
(7.36164202e-12 0 0)
(7.87836259e-12 0 0)
(7.59445807e-12 0 0)
(7.59327506e-12 0 0)
(7.45529064e-12 0 0)
(7.11037527e-12 0 0)
(7.39038058e-12 0 0)
(7.98120548e-12 0 0)
(7.95123002e-12 0 0)
(7.14676461e-12 0 0)
(7.72985786e-12 0 0)
(8.63454621e-12 0 0)
(7.9656571e-12 0 0)
(8.92162122e-12 0 0)
(8.09567985e-12 0 0)
(8.17859275e-12 0 0)
(8.78944915e-12 0 0)
(8.49538569e-12 0 0)
(8.36606766e-12 0 0)
(8.92167708e-12 0 0)
(8.94935935e-12 0 0)
(8.59177847e-12 0 0)
(8.4188961e-12 0 0)
(8.82663997e-12 0 0)
(9.08642992e-12 0 0)
(9.99620903e-12 0 0)
(8.27052269e-12 0 0)
(9.41273334e-12 0 0)
(8.92168648e-12 0 0)
(8.98723406e-12 0 0)
(9.48370947e-12 0 0)
(8.79278978e-12 0 0)
(8.7740659e-12 0 0)
(9.08238893e-12 0 0)
(9.40750221e-12 0 0)
(8.67549657e-12 0 0)
(8.22825099e-12 0 0)
(9.26513235e-12 0 0)
(9.83768826e-12 0 0)
(9.37063767e-12 0 0)
(9.38282568e-12 0 0)
(9.16010144e-12 0 0)
(8.42210815e-12 0 0)
(8.7198179e-12 0 0)
(8.30392593e-12 0 0)
(9.30159919e-12 0 0)
(8.94688302e-12 0 0)
(8.75190776e-12 0 0)
(9.26593587e-12 0 0)
(9.87159343e-12 0 0)
(8.95261049e-12 0 0)
(8.69617932e-12 0 0)
(8.8734346e-12 0 0)
(9.40024195e-12 0 0)
(8.88763293e-12 0 0)
(8.75459529e-12 0 0)
(9.42864286e-12 0 0)
(8.61849815e-12 0 0)
(8.67616781e-12 0 0)
(9.1729021e-12 0 0)
(8.83606585e-12 0 0)
(8.56054916e-12 0 0)
(8.82792047e-12 0 0)
(9.13498839e-12 0 0)
(8.94577301e-12 0 0)
(8.69127126e-12 0 0)
(9.09718154e-12 0 0)
(8.80411992e-12 0 0)
(9.78419608e-12 0 0)
(9.27104993e-12 0 0)
(9.82941664e-12 0 0)
(9.27982339e-12 0 0)
(1.01357364e-11 0 0)
(9.51186293e-12 0 0)
(1.02102398e-11 0 0)
(9.18228226e-12 0 0)
(1.05176984e-11 0 0)
(1.03597111e-11 0 0)
(1.00886213e-11 0 0)
(1.02584773e-11 0 0)
(1.03717121e-11 0 0)
(9.90187077e-12 0 0)
(1.08114553e-11 0 0)
(1.03602665e-11 0 0)
(1.01670393e-11 0 0)
(1.08874586e-11 0 0)
(1.07525224e-11 0 0)
(1.05899248e-11 0 0)
(1.07791343e-11 0 0)
(1.08057613e-11 0 0)
(1.06328564e-11 0 0)
(1.06660934e-11 0 0)
(1.00243604e-11 0 0)
(9.57566567e-12 0 0)
(1.00707239e-11 0 0)
(1.03771554e-11 0 0)
(1.05856347e-11 0 0)
(1.03242993e-11 0 0)
(1.00139255e-11 0 0)
(1.0634932e-11 0 0)
(1.1108597e-11 0 0)
(1.01213343e-11 0 0)
(9.85740658e-12 0 0)
(1.01564969e-11 0 0)
(1.02195275e-11 0 0)
(1.04467615e-11 0 0)
(1.15514689e-11 0 0)
(9.97782299e-12 0 0)
(9.59131231e-12 0 0)
(1.05780359e-11 0 0)
(1.05712497e-11 0 0)
(9.79528392e-12 0 0)
(1.11536091e-11 0 0)
(1.04767361e-11 0 0)
(1.05561116e-11 0 0)
(1.07523107e-11 0 0)
(1.07544598e-11 0 0)
(1.03877267e-11 0 0)
(1.0139964e-11 0 0)
(1.11205215e-11 0 0)
(1.14935903e-11 0 0)
(1.03780715e-11 0 0)
(1.14907126e-11 0 0)
(1.11464398e-11 0 0)
(1.06862194e-11 0 0)
(9.89076907e-12 0 0)
(1.16413848e-11 0 0)
(1.11771151e-11 0 0)
(1.03996183e-11 0 0)
(1.11386232e-11 0 0)
(1.09132373e-11 0 0)
(1.02784272e-11 0 0)
(9.57255782e-12 0 0)
(1.05431673e-11 0 0)
(9.4236525e-12 0 0)
(1.07706168e-11 0 0)
(1.05744119e-11 0 0)
(9.03568212e-12 0 0)
(1.02539171e-11 0 0)
(9.79743747e-12 0 0)
(1.07640536e-11 0 0)
(1.09650662e-11 0 0)
(1.02075863e-11 0 0)
(9.838041e-12 0 0)
(9.24415975e-12 0 0)
(9.80950299e-12 0 0)
(9.93135449e-12 0 0)
(9.75061359e-12 0 0)
(8.84045975e-12 0 0)
(9.28010815e-12 0 0)
(8.48867594e-12 0 0)
(9.03249588e-12 0 0)
(9.18000529e-12 0 0)
(8.98434339e-12 0 0)
(8.63477764e-12 0 0)
(9.04441268e-12 0 0)
(8.75568218e-12 0 0)
(9.17755073e-12 0 0)
(8.75673438e-12 0 0)
(9.24771263e-12 0 0)
(7.98053444e-12 0 0)
(7.95012748e-12 0 0)
(9.16878739e-12 0 0)
(8.62433336e-12 0 0)
(9.15490861e-12 0 0)
(8.54479437e-12 0 0)
(9.76457729e-12 0 0)
(9.12573996e-12 0 0)
(9.43339699e-12 0 0)
(8.98014714e-12 0 0)
(9.46267941e-12 0 0)
(9.41275539e-12 0 0)
(8.16582412e-12 0 0)
(9.94144983e-12 0 0)
(8.59980662e-12 0 0)
(8.88047003e-12 0 0)
(9.27084594e-12 0 0)
(9.90078569e-12 0 0)
(9.34520927e-12 0 0)
(8.6986387e-12 0 0)
(9.36148788e-12 0 0)
(9.89682279e-12 0 0)
(9.34075299e-12 0 0)
(9.18198724e-12 0 0)
(1.08929996e-11 0 0)
(1.05929771e-11 0 0)
(1.08897167e-11 0 0)
(9.82037238e-12 0 0)
(9.8719807e-12 0 0)
(1.00562588e-11 0 0)
(9.77373173e-12 0 0)
(9.79805326e-12 0 0)
(1.01481625e-11 0 0)
(1.04236362e-11 0 0)
(9.59795415e-12 0 0)
(1.04656219e-11 0 0)
(1.01925395e-11 0 0)
(9.9075878e-12 0 0)
(1.0625764e-11 0 0)
(1.04343903e-11 0 0)
(1.02696783e-11 0 0)
(9.93019847e-12 0 0)
(1.0124473e-11 0 0)
(1.07042799e-11 0 0)
(1.11196498e-11 0 0)
(1.05109136e-11 0 0)
(1.13124271e-11 0 0)
(1.03535958e-11 0 0)
(1.02489602e-11 0 0)
(1.04621951e-11 0 0)
(1.02234554e-11 0 0)
(1.11654614e-11 0 0)
(1.07905054e-11 0 0)
(9.73787709e-12 0 0)
(1.03260306e-11 0 0)
(9.71444554e-12 0 0)
(9.7296728e-12 0 0)
(1.0152198e-11 0 0)
(9.10489062e-12 0 0)
(9.37588358e-12 0 0)
(8.69478555e-12 0 0)
(9.43368379e-12 0 0)
(9.84346829e-12 0 0)
(1.01424904e-11 0 0)
(9.89357619e-12 0 0)
(1.03504923e-11 0 0)
(1.04586851e-11 0 0)
(1.0276237e-11 0 0)
(9.68840449e-12 0 0)
(9.78199576e-12 0 0)
(9.42399195e-12 0 0)
(8.94891063e-12 0 0)
(9.0712691e-12 0 0)
(8.41659857e-12 0 0)
(9.695295e-12 0 0)
(9.5791328e-12 0 0)
(8.84227041e-12 0 0)
(9.94855378e-12 0 0)
(9.9599634e-12 0 0)
(9.27688851e-12 0 0)
(8.79741264e-12 0 0)
(9.71220935e-12 0 0)
(8.22575936e-12 0 0)
(9.14929638e-12 0 0)
(8.17422287e-12 0 0)
(8.53035119e-12 0 0)
(8.01653052e-12 0 0)
(8.73883038e-12 0 0)
(8.21595104e-12 0 0)
(7.90033679e-12 0 0)
(9.08102431e-12 0 0)
(8.0166013e-12 0 0)
(8.33803644e-12 0 0)
(7.64218439e-12 0 0)
(8.03318768e-12 0 0)
(7.24855567e-12 0 0)
(7.84892847e-12 0 0)
(7.43351541e-12 0 0)
(7.78584664e-12 0 0)
(8.50846565e-12 0 0)
(8.23962652e-12 0 0)
(7.66727174e-12 0 0)
(7.24629183e-12 0 0)
(7.05355548e-12 0 0)
(6.94270896e-12 0 0)
(6.6814034e-12 0 0)
(5.80380112e-12 0 0)
(6.84095987e-12 0 0)
(5.56031278e-12 0 0)
(6.63264949e-12 0 0)
(7.09112896e-12 0 0)
(5.69462248e-12 0 0)
(5.85764579e-12 0 0)
(6.14996596e-12 0 0)
(5.12346777e-12 0 0)
(5.53055794e-12 0 0)
(5.26781856e-12 0 0)
(5.48515768e-12 0 0)
(4.40033901e-12 0 0)
(4.964478e-12 0 0)
(5.51350789e-12 0 0)
(4.23200082e-12 0 0)
(3.67738809e-12 0 0)
(4.92113807e-12 0 0)
(4.28319045e-12 0 0)
(4.32769972e-12 0 0)
(3.98468584e-12 0 0)
(4.0770861e-12 0 0)
(3.88960182e-12 0 0)
(4.06942274e-12 0 0)
(4.44023618e-12 0 0)
(4.27817631e-12 0 0)
(4.49661989e-12 0 0)
(5.07845655e-12 0 0)
(3.71100881e-12 0 0)
(4.25581155e-12 0 0)
(4.40997418e-12 0 0)
(3.74881797e-12 0 0)
(4.06644131e-12 0 0)
(3.42281675e-12 0 0)
(4.31924946e-12 0 0)
(3.86353918e-12 0 0)
(3.35467844e-12 0 0)
(3.16621423e-12 0 0)
(4.76071838e-12 0 0)
(3.63733757e-12 0 0)
(3.44438295e-12 0 0)
(3.93816756e-12 0 0)
(3.59948167e-12 0 0)
(3.24811041e-12 0 0)
(3.15415526e-12 0 0)
(3.29374896e-12 0 0)
(2.93694833e-12 0 0)
(3.6615075e-12 0 0)
(4.01343754e-12 0 0)
(3.72885093e-12 0 0)
(3.0581993e-12 0 0)
(3.46846186e-12 0 0)
(3.9102992e-12 0 0)
(4.00367564e-12 0 0)
(2.71963727e-12 0 0)
(2.98480617e-12 0 0)
(2.48246882e-12 0 0)
(2.32640528e-12 0 0)
(2.04963774e-12 0 0)
(2.91984944e-12 0 0)
(2.78311293e-12 0 0)
(2.57150033e-12 0 0)
(1.4524162e-12 0 0)
(2.2309148e-12 0 0)
(2.22946849e-12 0 0)
(1.66381926e-12 0 0)
(2.47371182e-12 0 0)
(2.41259918e-12 0 0)
(7.9667457e-13 0 0)
(9.16046925e-13 0 0)
(-2.89186867e-13 0 0)
(-1.50161586e-13 0 0)
(-9.36167556e-14 0 0)
(-1.15055049e-13 0 0)
(1.98029351e-13 0 0)
(-5.95739429e-13 0 0)
(-1.56825545e-12 0 0)
(1.90857994e-13 0 0)
(-6.29797796e-13 0 0)
(-9.23077496e-13 0 0)
(-1.89634621e-12 0 0)
(-1.42406119e-12 0 0)
(-2.44830265e-12 0 0)
(-1.20366825e-12 0 0)
(-1.00316227e-12 0 0)
(-1.18827525e-12 0 0)
(-1.42811096e-12 0 0)
(-1.31747279e-12 0 0)
(-1.65249623e-12 0 0)
(-1.13218692e-12 0 0)
(-1.39120892e-12 0 0)
(-1.05601807e-12 0 0)
(-1.57742944e-12 0 0)
(-1.43006676e-12 0 0)
(-1.21944345e-12 0 0)
(-2.42711922e-12 0 0)
(-1.72719924e-12 0 0)
(-3.55777498e-12 0 0)
(-2.1476109e-12 0 0)
(-1.80387211e-12 0 0)
(-2.31652947e-12 0 0)
(-2.85497527e-12 0 0)
(-2.51964613e-12 0 0)
(-2.38484495e-12 0 0)
(-2.9439329e-12 0 0)
(-2.94362087e-12 0 0)
(-2.94893574e-12 0 0)
(-2.37363487e-12 0 0)
(-2.70763088e-12 0 0)
(-3.0087001e-12 0 0)
(-3.69449035e-12 0 0)
(-3.73515631e-12 0 0)
(-3.94450502e-12 0 0)
(-4.15193763e-12 0 0)
(-3.70041938e-12 0 0)
(-4.10735718e-12 0 0)
(-3.32608091e-12 0 0)
(-4.01394114e-12 0 0)
(-3.59354205e-12 0 0)
(-3.37571897e-12 0 0)
(-3.60438231e-12 0 0)
(-3.35004357e-12 0 0)
(-4.47958541e-12 0 0)
(-3.71995254e-12 0 0)
(-3.57005961e-12 0 0)
(-4.3149189e-12 0 0)
(-3.39535814e-12 0 0)
(-2.9204533e-12 0 0)
(-2.77077861e-12 0 0)
(-3.22836034e-12 0 0)
(-3.28819646e-12 0 0)
(-3.22494153e-12 0 0)
(-3.45076831e-12 0 0)
(-3.26308416e-12 0 0)
(-3.7545068e-12 0 0)
(-3.70457879e-12 0 0)
(-3.65079905e-12 0 0)
(-3.85561689e-12 0 0)
(-3.90841379e-12 0 0)
(-3.88624759e-12 0 0)
(-2.94723025e-12 0 0)
(-3.37521402e-12 0 0)
(-3.39281328e-12 0 0)
(-3.3426843e-12 0 0)
(-3.22329066e-12 0 0)
(-4.44572801e-12 0 0)
(-2.71159056e-12 0 0)
(-3.9107071e-12 0 0)
(-4.55811894e-12 0 0)
(-4.63767215e-12 0 0)
(-4.82888545e-12 0 0)
(-5.23303502e-12 0 0)
(-5.39678909e-12 0 0)
(-5.1628443e-12 0 0)
(-5.86561129e-12 0 0)
(-6.1988925e-12 0 0)
(-5.63692421e-12 0 0)
(-5.06172202e-12 0 0)
(-6.33401402e-12 0 0)
(-7.06941105e-12 0 0)
(-6.51317983e-12 0 0)
(-6.39590551e-12 0 0)
(-7.0174743e-12 0 0)
(-7.20240702e-12 0 0)
(-8.07277323e-12 0 0)
(-7.31257748e-12 0 0)
(-7.40693e-12 0 0)
(-7.22303713e-12 0 0)
(-8.37107647e-12 0 0)
(-8.13907764e-12 0 0)
(-7.23919044e-12 0 0)
(-5.67236748e-12 0 0)
(-6.918338e-12 0 0)
(-6.6770862e-12 0 0)
(-7.21282068e-12 0 0)
(-6.27664937e-12 0 0)
(-7.81082904e-12 0 0)
(-6.78395348e-12 0 0)
(-8.41700918e-12 0 0)
(-7.82049132e-12 0 0)
(-9.00792812e-12 0 0)
(-8.15854908e-12 0 0)
(-8.54751534e-12 0 0)
(-8.53734811e-12 0 0)
(-7.72828795e-12 0 0)
(-8.6563627e-12 0 0)
(-9.08605946e-12 0 0)
(-8.12888557e-12 0 0)
(-8.86497615e-12 0 0)
(-9.4307344e-12 0 0)
(-9.06721854e-12 0 0)
(-9.38611053e-12 0 0)
(-9.30168362e-12 0 0)
(-9.450545e-12 0 0)
(-9.0904926e-12 0 0)
(-9.91709273e-12 0 0)
(-9.1114615e-12 0 0)
(-9.10417541e-12 0 0)
(-9.85254925e-12 0 0)
(-1.07596185e-11 0 0)
(-1.00750073e-11 0 0)
(-1.03923817e-11 0 0)
(-1.10767485e-11 0 0)
(-1.08027053e-11 0 0)
(-9.95506707e-12 0 0)
(-1.01483827e-11 0 0)
(-1.03434162e-11 0 0)
(-1.0181064e-11 0 0)
(-1.06056235e-11 0 0)
(-1.13604421e-11 0 0)
(-1.08866752e-11 0 0)
(-1.18400981e-11 0 0)
(-1.27369339e-11 0 0)
(-1.23675614e-11 0 0)
(-1.28888709e-11 0 0)
(-1.21730666e-11 0 0)
(-1.23086103e-11 0 0)
(-1.118739e-11 0 0)
(-1.25623439e-11 0 0)
(-1.13945823e-11 0 0)
(-1.20064696e-11 0 0)
(-1.13024356e-11 0 0)
(-1.14740149e-11 0 0)
(-1.173834e-11 0 0)
(-1.27856364e-11 0 0)
(-1.26977299e-11 0 0)
(-1.26236941e-11 0 0)
(-1.12114854e-11 0 0)
(-1.16238547e-11 0 0)
(-1.20120647e-11 0 0)
(-1.21846803e-11 0 0)
(-1.2565379e-11 0 0)
(-1.17770668e-11 0 0)
(-1.23620335e-11 0 0)
(-1.22852184e-11 0 0)
(-1.21393856e-11 0 0)
(-1.16104614e-11 0 0)
(-1.20515313e-11 0 0)
(-1.24627206e-11 0 0)
(-1.22153229e-11 0 0)
(-1.22100574e-11 0 0)
(-1.29277315e-11 0 0)
(-1.25364725e-11 0 0)
(-1.15587929e-11 0 0)
(-1.24653238e-11 0 0)
(-1.19679482e-11 0 0)
(-1.14830317e-11 0 0)
(-1.23786316e-11 0 0)
(-1.20500629e-11 0 0)
(-1.14628794e-11 0 0)
(-1.19677336e-11 0 0)
(-1.20629743e-11 0 0)
(-1.21039949e-11 0 0)
(-1.23535169e-11 0 0)
(-1.2366296e-11 0 0)
(-1.22946999e-11 0 0)
(-1.21426269e-11 0 0)
(-1.25386234e-11 0 0)
(-1.3439885e-11 0 0)
(-1.26730823e-11 0 0)
(-1.31587913e-11 0 0)
(-1.27298786e-11 0 0)
(-1.22361978e-11 0 0)
(-1.28250852e-11 0 0)
(-1.31160334e-11 0 0)
(-1.32057241e-11 0 0)
(-1.27203588e-11 0 0)
(-1.2110446e-11 0 0)
(-1.24044309e-11 0 0)
(-1.15903194e-11 0 0)
(-1.20050915e-11 0 0)
(-1.20834118e-11 0 0)
(-1.14741331e-11 0 0)
(-1.1580315e-11 0 0)
(-1.13255785e-11 0 0)
(-1.17995716e-11 0 0)
(-1.18790486e-11 0 0)
(-1.18714483e-11 0 0)
(-1.23680273e-11 0 0)
(-1.21338773e-11 0 0)
(-1.28598771e-11 0 0)
(-1.29530914e-11 0 0)
(-1.24621679e-11 0 0)
(-1.26984579e-11 0 0)
(-1.1584348e-11 0 0)
(-1.19143377e-11 0 0)
(-1.23697785e-11 0 0)
(-1.16946612e-11 0 0)
(-1.20991415e-11 0 0)
(-1.22588811e-11 0 0)
(-1.17015375e-11 0 0)
(-1.26947135e-11 0 0)
(-1.25932857e-11 0 0)
(-1.2406544e-11 0 0)
(-1.22726968e-11 0 0)
(-1.2621814e-11 0 0)
(-1.21852944e-11 0 0)
(-1.22041827e-11 0 0)
(-1.26004091e-11 0 0)
(-1.23466805e-11 0 0)
(-1.22096265e-11 0 0)
(-1.18601056e-11 0 0)
(-1.17091916e-11 0 0)
(-1.19572172e-11 0 0)
(-1.2054127e-11 0 0)
(-1.25901015e-11 0 0)
(-1.17858377e-11 0 0)
(-1.16863692e-11 0 0)
(-1.26017967e-11 0 0)
(-1.25272761e-11 0 0)
(-1.18834916e-11 0 0)
(-1.23791386e-11 0 0)
(-1.15908005e-11 0 0)
(-1.09904313e-11 0 0)
(-1.18553513e-11 0 0)
(-1.26659139e-11 0 0)
(-1.1811117e-11 0 0)
(-1.11396217e-11 0 0)
(-1.21793533e-11 0 0)
(-1.18254483e-11 0 0)
(-1.08383946e-11 0 0)
(-1.15960559e-11 0 0)
(-1.1742633e-11 0 0)
(-1.12767557e-11 0 0)
(-1.17723406e-11 0 0)
(-9.1263989e-12 0 0)
(-1.00681508e-11 0 0)
(-1.0479178e-11 0 0)
(-1.14824e-11 0 0)
(-1.01992083e-11 0 0)
(-1.01608677e-11 0 0)