/*--------------------------------*- C++ -*----------------------------------*\
| =========                 |                                                 |
| \\      /  F ield         | OpenFOAM: The Open Source CFD Toolbox           |
|  \\    /   O peration     | Version:  2206                                  |
|   \\  /    A nd           | Website:  www.openfoam.com                      |
|    \\/     M anipulation  |                                                 |
\*---------------------------------------------------------------------------*/
FoamFile
{
    version     2.0;
    format      ascii;
    arch        "LSB;label=32;scalar=64";
    class       surfaceScalarField;
    location    "1.94e-05";
    object      phi;
}
// * * * * * * * * * * * * * * * * * * * * * * * * * * * * * * * * * * * * * //

dimensions      [1 0 -1 0 0 0 0];

oriented        oriented;

internalField   nonuniform List<scalar> 
3182
(
6.84129409e-18
-1.62874629e-18
-4.04731598e-18
-2.63936086e-18
-1.33622616e-20
-5.92239468e-23
-4.07352057e-24
6.88787175e-25
1.80241521e-23
7.12900322e-22
3.96932784e-19
5.65347288e-18
3.892748e-18
2.40262896e-18
8.15407507e-19
-1.75341814e-18
-6.43359262e-18
-4.80789179e-18
-6.57604301e-18
3.88832374e-18
9.55696937e-20
7.65653582e-19
1.69533718e-18
4.50430899e-18
6.49461209e-18
5.46871805e-18
4.57756994e-18
1.13586979e-18
9.65316866e-19
-3.02745062e-19
-3.3853854e-19
-1.42116389e-18
-4.01195449e-18
-4.95680065e-18
-6.2606434e-18
-7.0311271e-18
-4.89271053e-18
-3.96170483e-18
-4.77481449e-18
-8.30693626e-19
8.80431211e-19
3.0882549e-18
4.55857409e-18
8.61347171e-18
5.89700876e-18
4.00701152e-18
7.24739309e-19
-4.04207462e-18
-7.39218326e-18
-1.14909934e-17
-1.66891122e-17
-2.11060559e-17
-2.56919066e-17
-2.96811978e-17
-3.0783586e-17
-3.44477688e-17
-3.6639497e-17
-3.83575629e-17
-3.96856497e-17
-4.12259696e-17
-4.33931099e-17
-4.47601315e-17
-4.69804243e-17
-4.887173e-17
-5.11880311e-17
-5.33716161e-17
-5.51323919e-17
-5.72465554e-17
-5.94447545e-17
-6.08901624e-17
-6.25322083e-17
-6.35975829e-17
-6.50667997e-17
-6.57645583e-17
-6.79981736e-17
-6.87963199e-17
-6.83791574e-17
-6.96779689e-17
-7.07630887e-17
-7.22669736e-17
-7.11828187e-17
-6.98553597e-17
-7.18500911e-17
-7.18758831e-17
-7.16172107e-17
-7.20538394e-17
-7.21422952e-17
-7.08308231e-17
-6.98969942e-17
-7.1456856e-17
-7.4476082e-17
-7.64230766e-17
-7.68079673e-17
-7.68611245e-17
-7.73234924e-17
-7.84006671e-17
-7.82949275e-17
-7.81165551e-17
-7.80735958e-17
-8.00147387e-17
-8.072717e-17
-8.00671402e-17
-8.17997683e-17
-8.1415387e-17
-8.22534007e-17
-8.31570569e-17
-8.37491142e-17
-8.33182749e-17
-8.51402492e-17
-8.45724174e-17
-8.29669853e-17
-8.03511352e-17
-7.95503212e-17
-8.21248754e-17
-8.17675551e-17
-8.23705726e-17
-8.47035665e-17
-8.28548506e-17
-8.29092235e-17
-8.51771983e-17
-8.47853671e-17
-8.39462294e-17
-8.80262163e-17
-9.2741691e-17
-9.27234284e-17
-9.53807206e-17
-9.39552558e-17
-9.52782145e-17
-9.6620941e-17
-1.00260238e-16
-9.84962738e-17
-9.82478442e-17
-9.96933562e-17
-9.85892776e-17
-9.67866064e-17
-9.73687272e-17
-1.01803664e-16
-9.80546449e-17
-1.01190156e-16
-1.00749379e-16
-1.02995438e-16
-1.05217341e-16
-1.06456428e-16
-1.05364575e-16
-1.02395403e-16
-1.02262848e-16
-1.04581816e-16
-1.01352849e-16
-1.03754873e-16
-1.02679157e-16
-1.03563995e-16
-1.0394378e-16
-1.07139735e-16
-1.04497417e-16
-9.94832469e-17
-1.00245556e-16
-9.90605599e-17
-9.96248351e-17
-1.01876746e-16
-9.89167609e-17
-9.95689261e-17
-1.00348012e-16
-9.90979064e-17
-1.0235198e-16
-9.97958239e-17
-9.94685879e-17
-1.03325274e-16
-9.8867906e-17
-1.00334005e-16
-1.00924977e-16
-1.00696228e-16
-1.0232467e-16
-1.01086688e-16
-1.00884936e-16
-1.00412218e-16
-1.01476459e-16
-9.88840378e-17
-1.00126207e-16
-1.01387659e-16
-1.01989421e-16
-1.03459859e-16
-1.045232e-16
-1.07203678e-16
-1.07168458e-16
-1.09339405e-16
-1.0942055e-16
-1.08352806e-16
-1.07955101e-16
-1.06112268e-16
-1.07925275e-16
-1.08988007e-16
-1.09739998e-16
-1.1090219e-16
-1.1500365e-16
-1.11631488e-16
-1.13363047e-16
-1.13599039e-16
-1.16440461e-16
-1.12031182e-16
-1.14755643e-16
-1.17336224e-16
-1.15921087e-16
-1.16565951e-16
-1.17613418e-16
-1.15811853e-16
-1.16185495e-16
-1.15949778e-16
-1.16547081e-16
-1.19071969e-16
-1.187811e-16
-1.19625727e-16
-1.2052553e-16
-1.22551101e-16
-1.20389455e-16
-1.23371899e-16
-1.25754574e-16
-1.25351795e-16
-1.23554329e-16
-1.23808632e-16
-1.23200769e-16
-1.21224838e-16
-1.25386669e-16
-1.23715083e-16
-1.26784329e-16
-1.25600252e-16
-1.23676457e-16
-1.25744318e-16
-1.22997131e-16
-1.23821524e-16
-1.22920379e-16
-1.22593024e-16
-1.25081977e-16
-1.25141067e-16
-1.22601398e-16
-1.20259713e-16
-1.19897585e-16
-1.19184625e-16
-1.18347763e-16
-1.20079654e-16
-1.18934148e-16
-1.19509325e-16
-1.21162347e-16
-1.22225576e-16
-1.24720874e-16
-1.23537768e-16
-1.23463607e-16
-1.1918022e-16
-1.20919995e-16
-1.18796117e-16
-1.19245373e-16
-1.19788891e-16
-1.18236808e-16
-1.18334592e-16
-1.16430579e-16
-1.18180331e-16
-1.1994717e-16
-1.20207975e-16
-1.1860426e-16
-1.20683124e-16
-1.2036992e-16
-1.20970348e-16
-1.20497352e-16
-1.21267379e-16
-1.19898955e-16
-1.20743108e-16
-1.23814086e-16
-1.23025147e-16
-1.22029492e-16
-1.21929878e-16
-1.19677646e-16
-1.20146378e-16
-1.19541054e-16
-1.2121685e-16
-1.23827869e-16
-1.1956595e-16
-1.20817733e-16
-1.22223686e-16
-1.22112721e-16
-1.22899122e-16
-1.25132864e-16
-1.24179728e-16
-1.23439395e-16
-1.25212686e-16
-1.25568312e-16
-1.2515485e-16
-1.26821766e-16
-1.2789799e-16
-1.27514218e-16
-1.30759865e-16
-1.28905889e-16
-1.33031657e-16
-1.31728647e-16
-1.33346504e-16
-1.34767608e-16
-1.32753947e-16
-1.36642037e-16
-1.37865239e-16
-1.38613373e-16
-1.37285793e-16
-1.36093451e-16
-1.33607652e-16
-1.33282524e-16
-1.36856757e-16
-1.39430634e-16
-1.38363188e-16
-1.38079703e-16
-1.3715823e-16
-1.40040993e-16
-1.43183569e-16
-1.44107495e-16
-1.43198626e-16
-1.45231308e-16
-1.44620783e-16
-1.47889446e-16
-1.47557067e-16
-1.48837438e-16
-1.45767838e-16
-1.45725964e-16
-1.4339579e-16
-1.43485363e-16
-1.45203666e-16
-1.43100353e-16
-1.44850985e-16
-1.43792928e-16
-1.43051357e-16
-1.42388352e-16
-1.4077848e-16
-1.40435502e-16
-1.40508266e-16
-1.38429881e-16
-1.38260942e-16
-1.39558596e-16
-1.37859502e-16
-1.33436027e-16
-1.3376831e-16
-1.33059049e-16
-1.34302787e-16
-1.31883526e-16
-1.35486027e-16
-1.32471384e-16
-1.34636967e-16
-1.31527787e-16
-1.3113773e-16
-1.29570872e-16
-1.26982731e-16
-1.2901564e-16
-1.26860554e-16
-1.29590735e-16
-1.28907151e-16
-1.2916855e-16
-1.29331123e-16
-1.29742503e-16
-1.3381486e-16
-1.31988431e-16
-1.30424069e-16
-1.29254799e-16
-1.26262621e-16
-1.26908469e-16
-1.28555869e-16
-1.28516092e-16
-1.28452751e-16
-1.29548345e-16
-1.29092853e-16
-1.29207561e-16
-1.26202153e-16
-1.27466023e-16
-1.26725343e-16
-1.25976202e-16
-1.23102243e-16
-1.25740142e-16
-1.23645569e-16
-1.21746904e-16
-1.22655389e-16
-1.26485988e-16
-1.23837731e-16
-1.24592335e-16
-1.25599575e-16
-1.28427125e-16
-1.26546604e-16
-1.27757076e-16
-1.27210012e-16
-1.23038689e-16
-1.24053416e-16
-1.20681969e-16
-1.22667598e-16
-1.19743865e-16
-1.24508206e-16
-1.21674219e-16
-1.18932623e-16
-1.2186171e-16
-1.1690276e-16
-1.17430203e-16
-1.18864594e-16
-1.18121214e-16
-1.15769141e-16
-1.14651068e-16
-1.16934898e-16
-1.15507091e-16
-1.18140775e-16
-1.19003948e-16
-1.16991628e-16
-1.10413195e-16
-1.13517243e-16
-1.08504372e-16
-1.10675271e-16
-1.07519157e-16
-1.07732928e-16
-1.0668237e-16
-1.06823595e-16
-1.01938578e-16
-1.01138327e-16
-1.00757236e-16
-9.56770303e-17
-9.74145217e-17
-1.0123972e-16
-1.00523228e-16
-9.82761423e-17
-9.8132549e-17
-9.94137879e-17
-9.84401157e-17
-1.00350095e-16
-1.0140727e-16
-9.74246882e-17
-9.62512205e-17
-9.69196379e-17
-9.80491082e-17
-9.6554582e-17
-9.54373126e-17
-9.50042193e-17
-9.51513911e-17
-9.48007929e-17
-9.66367454e-17
-9.6740627e-17
-9.29168478e-17
-9.35094662e-17
-9.28146691e-17
-9.21184993e-17
-8.96792674e-17
-9.02010355e-17
-8.91602459e-17
-8.7791809e-17
-8.79724558e-17
-8.91337419e-17
-8.9077191e-17
-9.09627653e-17
-9.36378005e-17
-9.21821582e-17
-9.2916122e-17
-9.22085928e-17
-9.15131666e-17
-9.16717188e-17
-8.74240034e-17
-8.9322707e-17
-8.59436649e-17
-8.50118598e-17
-8.38454259e-17
-8.06278755e-17
-8.08150625e-17
-8.00913149e-17
-8.03474472e-17
-7.78909597e-17
-7.75494014e-17
-7.33036449e-17
-7.18350444e-17
-7.1815109e-17
-7.00098833e-17
-6.42019176e-17
-6.46264129e-17
-6.54464062e-17
-6.70788763e-17
-6.65613761e-17
-6.55160617e-17
-6.719297e-17
-6.95233883e-17
-7.17463398e-17
-6.96731476e-17
-6.87909384e-17
-6.74642646e-17
-6.7801769e-17
-6.69987863e-17
-6.79792016e-17
-6.68664007e-17
-6.80705502e-17
-6.77509548e-17
-6.62855754e-17
-6.41519698e-17
-6.23655908e-17
-5.75536753e-17
-5.78339198e-17
-6.16934804e-17
-6.01176978e-17
-6.21213155e-17
-6.33311097e-17
-6.29331378e-17
-6.30326072e-17
-6.14461436e-17
-5.93048729e-17
-5.94635672e-17
-6.13820879e-17
-6.23097685e-17
-6.27247114e-17
-6.49925756e-17
-6.52634279e-17
-6.28351023e-17
-5.87431022e-17
-6.12313329e-17
-6.32981708e-17
-6.09648579e-17
-5.85710159e-17
-5.97174173e-17
-6.0657047e-17
-6.18700403e-17
-6.25707294e-17
-5.98705403e-17
-5.73723934e-17
-5.65726921e-17
-5.7499246e-17
-5.4044554e-17
-5.37200958e-17
-5.44829505e-17
-5.27114846e-17
-5.25028615e-17
-5.1940541e-17
-5.2610986e-17
-5.20486694e-17
-5.19047585e-17
-5.14795681e-17
-5.24732328e-17
-5.38042872e-17
-4.99766125e-17
-5.32766289e-17
-5.36757181e-17
-5.37837967e-17
-5.31282828e-17
-5.08377695e-17
-4.65242915e-17
-4.86121597e-17
-4.48319013e-17
-4.61322518e-17
-4.4781147e-17
-4.37628263e-17
-4.15364946e-17
-4.11361914e-17
-3.82975914e-17
-3.61692599e-17
-3.50746646e-17
-3.08532174e-17
-3.22902045e-17
-3.17847663e-17
-3.25474507e-17
-2.98929493e-17
-2.975376e-17
-2.62886649e-17
-2.81223421e-17
-2.34650691e-17
-2.18043385e-17
-2.19825296e-17
-2.38982077e-17
-2.39927831e-17
-2.46303928e-17
-2.50295031e-17
-2.71184892e-17
-2.60211399e-17
-2.44523582e-17
-2.38052565e-17
-2.22116462e-17
-2.13291527e-17
-2.16186359e-17
-2.11580977e-17
-2.07631852e-17
-2.19356948e-17
-1.85040307e-17
-1.94074718e-17
-1.62753577e-17
-1.68307418e-17
-1.80029634e-17
-1.85855716e-17
-2.08569594e-17
-1.96660377e-17
-1.91679097e-17
-2.01272651e-17
-1.4856924e-17
-1.68896687e-17
-1.38177439e-17
-1.43487718e-17
-1.34501375e-17
-1.37453611e-17
-1.3124172e-17
-1.14568298e-17
-1.29012693e-17
-1.21307748e-17
-1.32533745e-17
-1.30451595e-17
-1.38465289e-17
-1.50470634e-17
-1.43502064e-17
-9.27006856e-18
-7.12307796e-18
-6.75273144e-18
-5.70926302e-18
-6.7052851e-18
-8.89142831e-19
-2.31406321e-18
-4.48264644e-18
-5.89012695e-18
-6.16420487e-18
-5.27520391e-18
-1.13776823e-17
-1.1876836e-17
-1.12669894e-17
-8.36645282e-18
-5.60398177e-18
-4.10350005e-18
-5.0538789e-18
-4.79475629e-18
9.28962438e-19
-5.11645077e-19
1.58844932e-18
4.54045202e-18
6.19813963e-18
3.5698502e-18
8.88626509e-18
9.15377607e-18
8.80105938e-18
1.14975058e-17
9.41784867e-18
1.36834535e-17
1.26495216e-17
1.54274876e-17
1.44169415e-17
1.61529797e-17
1.41732454e-17
1.44149193e-17
1.43916112e-17
1.42993091e-17
1.70946018e-17
1.85588628e-17
1.87958668e-17
1.70548506e-17
1.90645792e-17
1.72634585e-17
1.63582302e-17
1.56020607e-17
1.6030578e-17
1.65004126e-17
1.35018463e-17
1.66330262e-17
1.54777623e-17
1.73518987e-17
1.84501148e-17
1.88209522e-17
1.77824222e-17
2.12645137e-17
2.02218282e-17
1.93789541e-17
1.74554339e-17
1.70224519e-17
1.71703515e-17
1.76905907e-17
1.52838729e-17
1.44863958e-17
1.75764911e-17
1.52290634e-17
1.87382105e-17
1.99173631e-17
1.93586176e-17
2.10909367e-17
1.87581403e-17
1.4947349e-17
1.75716667e-17
1.34329511e-17
1.59879527e-17
1.34440421e-17
1.550152e-17
1.31080647e-17
1.05454297e-17
1.50345923e-17
1.45131516e-17
1.3260273e-17
1.29629188e-17
1.69794362e-17
1.62320278e-17
1.83696059e-17
2.12645992e-17
2.15743259e-17
1.77379816e-17
1.97477923e-17
2.19671597e-17
2.22662205e-17
2.57094845e-17
2.60500394e-17
2.66862112e-17
2.66649537e-17
2.85861885e-17
2.86359981e-17
2.52504295e-17
2.47141694e-17
2.62713076e-17
3.1360285e-17
3.02862626e-17
3.07754647e-17
3.08098646e-17
2.838978e-17
2.98759875e-17
2.77657097e-17
3.07446113e-17
3.18068916e-17
3.17821274e-17
3.00874606e-17
2.93916498e-17
3.03486204e-17
3.0140175e-17
3.25843579e-17
3.18715411e-17
3.33251989e-17
3.37827946e-17
3.11100971e-17
3.21318462e-17
2.70269912e-17
3.2164358e-17
3.491478e-17
3.31855127e-17
3.32184794e-17
2.90088696e-17
3.23478965e-17
3.0225537e-17
3.1264867e-17
2.98942543e-17
3.02010156e-17
3.31964538e-17
3.42576162e-17
3.50481886e-17
3.54383661e-17
3.53754615e-17
3.580458e-17
3.49330664e-17
3.5759959e-17
3.48077394e-17
3.8265126e-17
3.71744751e-17
3.41027414e-17
3.24165294e-17
3.36630832e-17
3.34252307e-17
3.41168307e-17
3.45262872e-17
3.78192533e-17
3.80832005e-17
4.01089759e-17
4.05379255e-17
3.87911846e-17
3.96846977e-17
3.92336458e-17
4.08825487e-17
3.56023095e-17
3.90130375e-17
3.75231284e-17
3.68346023e-17
3.43179372e-17
3.5108335e-17
3.41124366e-17
3.54844772e-17
3.70596845e-17
3.77567659e-17
3.62626849e-17
3.87454203e-17
4.03981775e-17
4.15843825e-17
4.09375938e-17
4.00310297e-17
4.05709012e-17
4.09711594e-17
4.2420422e-17
4.3644057e-17
4.43780684e-17
4.17988302e-17
4.47383487e-17
4.28866603e-17
4.29525956e-17
4.71075799e-17
4.52672995e-17
4.84133172e-17
4.89863818e-17
4.90858963e-17
4.98158452e-17
4.60365784e-17
4.39816399e-17
4.40662093e-17
4.18834314e-17
4.38742605e-17
4.47171683e-17
4.44024417e-17
4.51217012e-17
4.2622041e-17
4.04108719e-17
4.13276541e-17
4.02254478e-17
4.12519539e-17
3.76201129e-17
3.73004623e-17
3.92854417e-17
3.87656849e-17
4.20583732e-17
3.92623854e-17
4.59161244e-17
4.39930678e-17
4.45051898e-17
4.22196894e-17
4.44601732e-17
4.46645799e-17
4.5832895e-17
4.26961867e-17
4.528028e-17
4.54235884e-17
4.57952719e-17
4.36540067e-17
4.58103942e-17
4.16561296e-17
3.98135482e-17
4.13313605e-17
4.21238871e-17
3.95543119e-17
4.3843869e-17
4.56739793e-17
4.41996162e-17
4.49813725e-17
4.13256216e-17
4.36834926e-17
4.63754004e-17
4.45586538e-17
4.8548401e-17
4.81906018e-17
4.56256637e-17
4.4998069e-17
4.49507344e-17
4.89139669e-17
4.84425977e-17
4.61891535e-17
4.86807011e-17
5.22988124e-17
4.78003191e-17
4.83439239e-17
4.88547852e-17
4.85645753e-17
5.0011467e-17
4.97973888e-17
5.00902188e-17
4.88311891e-17
4.90908949e-17
5.16416553e-17
5.30282452e-17
5.19147164e-17
5.5599845e-17
5.41319323e-17
5.18917948e-17
5.22042547e-17
5.20404104e-17
5.15306597e-17
4.87487725e-17
4.83744069e-17
5.02114526e-17
5.11760748e-17
4.80056369e-17
5.40478218e-17
5.30168627e-17
5.14318511e-17
5.26162764e-17
5.31746583e-17
5.23083173e-17
5.71114608e-17
5.63872407e-17
5.61080505e-17
5.39966858e-17
5.63956015e-17
5.62426046e-17
5.55543724e-17
5.38368258e-17
5.68833873e-17
5.65447404e-17
5.47491194e-17
5.54122263e-17
5.9698516e-17
5.76009828e-17
6.06332376e-17
5.92291568e-17
5.89849751e-17
6.15132817e-17
6.07471111e-17
6.13667537e-17
6.53069508e-17
6.36013031e-17
6.55485458e-17
6.38396577e-17
6.36251992e-17
6.38877783e-17
6.42167671e-17
6.4231459e-17
6.39558711e-17
6.29190615e-17
6.19915143e-17
5.78484831e-17
5.84110904e-17
5.70711127e-17
5.84915691e-17
6.11013448e-17
6.25490709e-17
6.26085314e-17
6.00307881e-17
6.09620002e-17
6.11559251e-17
6.03774792e-17
6.01377249e-17
6.1756148e-17
5.99542368e-17
5.81406579e-17
6.09792804e-17
5.87510749e-17
6.28939947e-17
6.45985568e-17
6.69967682e-17
6.58996184e-17
6.85516915e-17
6.81180548e-17
7.2205596e-17
7.03391266e-17
6.79657345e-17
6.79719241e-17
6.75902165e-17
6.627419e-17
6.62690094e-17
6.57176382e-17
6.38689617e-17
6.5310107e-17
6.65187823e-17
6.54353114e-17
6.41819205e-17
6.95008989e-17
6.98398679e-17
6.81076115e-17
6.75332013e-17
6.61338312e-17
6.75851589e-17
6.40925083e-17
6.12218764e-17
6.01176956e-17
5.73073644e-17
5.9386465e-17
6.34430703e-17
6.33253261e-17
6.30562523e-17
6.23320242e-17
6.29104464e-17
6.38310643e-17
6.24788883e-17
6.2674276e-17
6.31412473e-17
6.2392037e-17
6.30808651e-17
6.28782153e-17
6.67333104e-17
6.50868207e-17
6.60282266e-17
6.70183763e-17
6.54651962e-17
6.58851563e-17
6.52505364e-17
6.77804984e-17
6.79870823e-17
6.81854032e-17
6.57086919e-17
6.68904247e-17
6.67812208e-17
6.77849761e-17
6.72880874e-17
6.60330507e-17
6.66937207e-17
6.32580446e-17
6.39224216e-17
6.42681531e-17
6.47854968e-17
6.47478816e-17
6.22701506e-17
6.18154178e-17
6.21363499e-17
6.10686761e-17
6.20669181e-17
5.7660967e-17
5.60810454e-17
5.88093482e-17
5.76769278e-17
5.89602817e-17
5.97796089e-17
5.76644972e-17
6.06807613e-17
5.7884237e-17
5.68723874e-17
5.80086457e-17
5.92865467e-17
5.98134774e-17
5.83219173e-17
6.13844492e-17
5.83985459e-17
5.89217914e-17
5.84987523e-17
5.91747792e-17
5.72972289e-17
5.77149394e-17
5.42336548e-17
5.67097067e-17
5.43006707e-17
5.50721622e-17
5.46771318e-17
5.10793569e-17
5.41761181e-17
5.63688171e-17
5.58088354e-17
5.85383553e-17
5.39871794e-17
5.31807635e-17
5.04166684e-17
4.88400143e-17
5.07867849e-17
4.68735192e-17
4.69445712e-17
4.38527408e-17
4.23291423e-17
3.75231142e-17
3.93017696e-17
3.8780945e-17
3.38708748e-17
3.46764432e-17
3.11896794e-17
3.44611398e-17
2.91033955e-17
2.97929769e-17
2.59305895e-17
2.78993671e-17
2.98691679e-17
2.30082197e-17
1.82352108e-17
1.94312865e-17
2.0429972e-17
2.10808259e-17
2.39239756e-17
2.36379061e-17
2.60738808e-17
2.74189002e-17
2.65894059e-17
2.62792281e-17
2.41250553e-17
2.44936992e-17
2.40708568e-17
2.36161636e-17
2.3062895e-17
2.06652263e-17
2.21834959e-17
2.18718391e-17
1.89794018e-17
2.17565589e-17
1.84175783e-17
1.60963451e-17
1.52544884e-17
1.98689204e-17
1.6147832e-17
1.53954808e-17
1.67411537e-17
1.54468507e-17
1.52464125e-17
1.54183956e-17
1.49773267e-17
1.88361694e-17
1.45742168e-17
1.66345546e-17
1.35400042e-17
1.49200549e-17
1.80273129e-17
1.69555057e-17
1.71383938e-17
1.10418866e-17
1.20077356e-17
9.5748606e-18
1.19994282e-17
9.47463435e-18
1.17646729e-17
1.02213307e-17
8.1993858e-18
6.93854141e-18
5.85771726e-18
3.77904839e-18
2.39479857e-18
1.95294007e-18
4.55588047e-19
1.33194395e-19
6.12676586e-20
-3.34814797e-19
-3.4046494e-18
-1.29703136e-18
-3.84779768e-18
-3.71284787e-18
-5.63479485e-18
-7.68096821e-18
-1.0097927e-17
-9.76015355e-18
-1.16303348e-17
-1.31826585e-17
-1.32720817e-17
-1.36250657e-17
-1.63284694e-17
-1.76144544e-17
-2.09186448e-17
-2.14244932e-17
-1.95625727e-17
-1.90225072e-17
-1.79669761e-17
-1.91799741e-17
-1.9364244e-17
-1.92541722e-17
-1.9357948e-17
-2.32629041e-17
-2.560237e-17
-2.20720447e-17
-2.56185344e-17
-2.58288619e-17
-2.94408214e-17
-3.16675991e-17
-3.16738501e-17
-3.31502501e-17
-3.55344988e-17
-3.5231839e-17
-3.47469285e-17
-3.54814259e-17
-3.54565257e-17
-3.62966179e-17
-3.94627477e-17
-4.00649285e-17
-3.61763582e-17
-3.92453822e-17
-3.83972386e-17
-3.73222052e-17
-4.04162672e-17
-3.92348443e-17
-3.85135036e-17
-3.56622162e-17
-3.74488102e-17
-3.33314754e-17
-3.24346199e-17
-3.32507038e-17
-3.52523703e-17
-3.88444256e-17
-3.75008493e-17
-3.58546857e-17
-3.7919501e-17
-4.19512044e-17
-4.10725302e-17
-4.09007084e-17
-3.96262801e-17
-3.74992531e-17
-4.01303421e-17
-3.90969428e-17
-4.22988586e-17
-4.3180488e-17
-4.1359358e-17
-4.28700013e-17
-4.53662034e-17
-4.6491622e-17
-4.73824165e-17
-4.70232937e-17
-4.5451875e-17
-4.53625696e-17
-4.32731932e-17
-4.39590704e-17
-4.41098456e-17
-4.88095131e-17
-4.94488748e-17
-4.81991114e-17
-4.80206355e-17
-5.11409917e-17
-4.82405392e-17
-5.30185347e-17
-5.8068211e-17
-5.76610121e-17
-5.78174583e-17
-5.46104044e-17
-5.74629691e-17
-5.56660703e-17
-5.24087137e-17
-5.49415522e-17
-5.4601116e-17
-5.27986256e-17
-5.70263553e-17
-5.77493069e-17
-5.64427192e-17
-6.08450188e-17
-6.4198647e-17
-6.52030877e-17
-6.28341559e-17
-5.93132864e-17
-6.26326984e-17
-6.25777602e-17
-6.39000959e-17
-6.64686558e-17
-6.87417446e-17
-7.30067043e-17
-6.88820009e-17
-7.20250436e-17
-6.63953872e-17
-6.94443935e-17
-6.4107639e-17
-6.36430284e-17
-6.27255682e-17
-6.41739149e-17
-6.52619933e-17
-6.83247069e-17
-6.99945612e-17
-7.07081293e-17
-6.92573411e-17
-7.24275454e-17
-7.15681801e-17
-7.10778305e-17
-7.26026445e-17
-7.15711313e-17
-6.85687533e-17
-6.44894232e-17
-6.44261787e-17
-6.31304166e-17
-6.46080282e-17
-6.55224269e-17
-6.48272652e-17
-6.33222055e-17
-6.14550091e-17
-6.33622261e-17
-6.09765793e-17
-5.92748209e-17
-6.11633354e-17
-6.23869296e-17
-6.05090841e-17
-6.02415036e-17
-6.01644283e-17
-6.00984418e-17
-5.92656199e-17
-5.8635997e-17
-6.11320263e-17
-5.91577316e-17
-6.05696251e-17
-6.16764571e-17
-6.25462422e-17
-6.4089046e-17
-6.43890049e-17
-6.29465588e-17
-6.40623821e-17
-6.4068339e-17
-6.27854561e-17
-6.07656498e-17
-6.08800321e-17
-5.92261438e-17
-6.16434055e-17
-6.06887745e-17
-6.26595749e-17
-6.28695848e-17
-5.77926728e-17
-5.70693703e-17
-5.68287518e-17
-5.82909793e-17
-5.84427464e-17
-5.87549329e-17
-6.12774054e-17
-6.4115473e-17
-5.8635234e-17
-5.88680502e-17
-5.89956234e-17
-6.1408237e-17
-6.07549689e-17
-6.15892844e-17
-6.40284404e-17
-6.31453596e-17
-6.11061909e-17
-6.16142091e-17
-6.10044742e-17
-5.90791537e-17
-6.0218725e-17
-6.08507984e-17
-6.135805e-17
-6.13416526e-17
-6.01829478e-17
-6.13367547e-17
-6.37496506e-17
-6.56589225e-17
-6.52910327e-17
-6.62904513e-17
-6.41184969e-17
-6.38579051e-17
-6.63397775e-17
-6.30797944e-17
-6.60168293e-17
-6.63709538e-17
-6.54052533e-17
-6.46104851e-17
-6.49615838e-17
-6.75924468e-17
-6.82298894e-17
-6.48856318e-17
-6.72057609e-17
-6.50137805e-17
-6.66799129e-17
-6.78084673e-17
-6.53781501e-17
-6.47142659e-17
-6.6879954e-17
-6.22449486e-17
-6.51096837e-17
-6.77547867e-17
-6.83703593e-17
-6.75232807e-17
-6.71891243e-17
-6.828112e-17
-6.99549442e-17
-6.97443914e-17
-6.94349775e-17
-6.66777045e-17
-6.85148213e-17
-6.65571678e-17
-6.73816091e-17
-6.88929386e-17
-6.95398696e-17
-7.07423665e-17
-6.98459248e-17
-6.85763054e-17
-6.63439534e-17
-6.97110854e-17
-6.6763064e-17
-6.94478262e-17
-7.02905561e-17
-6.9359028e-17
-6.84330405e-17
-6.73590164e-17
-6.61437006e-17
-6.22308352e-17
-6.28576216e-17
-6.1062004e-17
-6.3564411e-17
-6.10267364e-17
-6.00902287e-17
-5.93048434e-17
-6.25954545e-17
-5.91517885e-17
-5.97364415e-17
-6.04928533e-17
-6.11648485e-17
-6.06113202e-17
-6.05592367e-17
-6.34807279e-17
-6.36141914e-17
-6.1923751e-17
-6.06551003e-17
-6.16814249e-17
-6.14173524e-17
-6.54050446e-17
-6.29118547e-17
-6.43209124e-17
-6.28322632e-17
-6.11191808e-17
-6.06152672e-17
-6.15395365e-17
-5.91849378e-17
-5.91877613e-17
-5.78791688e-17
-5.98907661e-17
-6.0276914e-17
-5.83592879e-17
-5.90501778e-17
-5.92357544e-17
-5.6124635e-17
-5.56586468e-17
-5.03821925e-17
-4.95543241e-17
-5.32450045e-17
-5.29562723e-17
-5.38719478e-17
-5.53183051e-17
-5.16900048e-17
-5.20371835e-17
-4.99642884e-17
-4.68439191e-17
-4.86588358e-17
-4.83886802e-17
-4.9216228e-17
-5.00418328e-17
-5.25263095e-17
-5.45128387e-17
-5.50983825e-17
-5.27222406e-17
-5.32654786e-17
-5.39409352e-17
-5.41107895e-17
-5.32505918e-17
-5.2656138e-17
-4.82269149e-17
-4.7692764e-17
-4.59326049e-17
-4.93942086e-17
-4.87596867e-17
-4.57715489e-17
-4.89396991e-17
-4.90349609e-17
-4.7590835e-17
-4.83650809e-17
-4.87245071e-17
-4.80424764e-17
-5.04786991e-17
-4.97780802e-17
-4.85339892e-17
-5.00608439e-17
-5.23734872e-17
-5.49027588e-17
-5.09287446e-17
-5.06814986e-17
-5.1587096e-17
-4.87264334e-17
-4.91113354e-17
-4.7401649e-17
-4.51009849e-17
-4.68114115e-17
-4.31250887e-17
-4.18154217e-17
-4.18103766e-17
-3.92604891e-17
-4.08726397e-17
-3.89338954e-17
-4.13156911e-17
-4.48058021e-17
-4.23973468e-17
-4.11252882e-17
-4.15793908e-17
-4.00318099e-17
-4.00350896e-17
-4.05683657e-17
-3.91205531e-17
-3.80627328e-17
-3.35982577e-17
-3.35528863e-17
-3.16689389e-17
-3.17775752e-17
-3.45147461e-17
-3.38801162e-17
-3.3447948e-17
-3.17566777e-17
-3.24699545e-17
-3.01852602e-17
-3.39204454e-17
-2.97033731e-17
-3.21700726e-17
-3.32971167e-17
-3.09923679e-17
-2.98786436e-17
-2.71232289e-17
-2.57590858e-17
-2.18694772e-17
-2.09266656e-17
-1.80665964e-17
-2.01195863e-17
-2.18638158e-17
-2.28253791e-17
-2.20363005e-17
-2.21062815e-17
-2.36539801e-17
-2.07221347e-17
-2.0880704e-17
-2.00111817e-17
-2.12666796e-17
-1.96093784e-17
-1.89868547e-17
-1.61622291e-17
-1.83217643e-17
-1.34840768e-17
-1.69965099e-17
-1.47006667e-17
-1.19713045e-17
-1.06520702e-17
-9.5435431e-18
-1.06481199e-17
-5.85957769e-18
-8.82637931e-18
-6.66861304e-18
-8.5683188e-18
-5.53980026e-18
-4.47613383e-18
-3.16389466e-18
-5.12939109e-18
-6.18128588e-19
-5.95395399e-19
4.75460124e-18
5.28135649e-18
4.8542797e-18
7.23759027e-18
9.14634585e-18
7.64434344e-18
1.49625141e-17
1.58492607e-17
2.3130387e-17
2.60095099e-17
2.74640169e-17
3.23700105e-17
3.35666975e-17
3.88677005e-17
4.11687506e-17
4.25879744e-17
5.22293845e-17
5.44147823e-17
6.13681324e-17
7.10348046e-17
7.80460934e-17
8.57619045e-17
9.30391443e-17
1.07291504e-16
1.15458516e-16
1.20928895e-16
1.35510641e-16
1.45879552e-16
1.56692041e-16
1.71764242e-16
1.8561534e-16
1.9835744e-16
2.13820203e-16
2.28605139e-16
2.47316705e-16
2.62728936e-16
2.82444712e-16
3.05212354e-16
3.31549091e-16
3.60174327e-16
3.89235004e-16
4.13376924e-16
4.46233183e-16
4.78295258e-16
5.12845015e-16
5.50682581e-16
5.88918728e-16
6.33733253e-16
6.82544084e-16
7.30906019e-16
7.83221968e-16
8.40928684e-16
9.03573277e-16
9.72250668e-16
1.0448749e-15
1.12221577e-15
1.20315108e-15
1.28656806e-15
1.380424e-15
1.4796987e-15
1.58296718e-15
1.69963775e-15
1.82063958e-15
1.95676559e-15
2.09181116e-15
2.24312191e-15
2.40233706e-15
2.57662509e-15
2.75747012e-15
2.95324393e-15
3.16505377e-15
3.39472253e-15
3.6316426e-15
3.88944951e-15
4.16369898e-15
4.46263341e-15
4.78070878e-15
5.11849164e-15
5.48039945e-15
5.86708946e-15
6.277742e-15
6.71946661e-15
7.1900586e-15
7.69432401e-15
8.23365006e-15
8.80583073e-15
9.41808358e-15
1.00792143e-14
1.07796661e-14
1.15293336e-14
1.23249697e-14
1.31782386e-14
1.40917872e-14
1.50661754e-14
1.61081037e-14
1.72195739e-14
1.8403999e-14
1.96716003e-14
2.10217572e-14
2.24629818e-14
2.40057959e-14
2.56477097e-14
2.73941483e-14
2.92549289e-14
3.12535051e-14
3.33782282e-14
3.56474554e-14
3.80632455e-14
4.06372145e-14
4.33831527e-14
4.63071927e-14
4.94277355e-14
5.27520341e-14
5.62974918e-14
6.00732771e-14
6.4096675e-14
6.83874909e-14
7.29507913e-14
7.78146662e-14
8.29984621e-14
8.85154043e-14
9.43920487e-14
1.00649483e-13
1.07310517e-13
1.1440561e-13
1.21952822e-13
1.29985515e-13
1.38536405e-13
1.47631066e-13
1.5731031e-13
1.67614508e-13
1.78571889e-13
1.90230936e-13
2.02630996e-13
2.15814729e-13
2.29833668e-13
2.44737031e-13
2.60581056e-13
2.77428933e-13
2.95334424e-13
3.14369292e-13
3.34596673e-13
3.56089555e-13
3.78927044e-13
4.03187653e-13
4.28952552e-13
4.56328282e-13
4.85397805e-13
5.1626737e-13
5.49049167e-13
5.83853626e-13
6.20798598e-13
6.60016453e-13
7.01644826e-13
7.45821341e-13
7.92697401e-13
8.42433636e-13
8.95203592e-13
9.51181766e-13
1.01055441e-12
1.07352293e-12
1.14029982e-12
1.21110982e-12
1.28618604e-12
1.36577945e-12
1.45014306e-12
1.53955939e-12
1.63432159e-12
1.73474073e-12
1.84113253e-12
1.95384317e-12
2.07324806e-12
2.1997146e-12
2.33365361e-12
2.47549113e-12
2.62566658e-12
2.78466436e-12
2.95297715e-12
3.13113315e-12
3.31968482e-12
3.5192197e-12
3.7303485e-12
3.95372224e-12
4.19002218e-12
4.43997604e-12
4.70433633e-12
4.98389853e-12
5.27950892e-12
5.59204783e-12
5.922449e-12
6.2716929e-12
6.64080536e-12
7.03087998e-12
7.44305673e-12
7.87853761e-12
8.33858357e-12
8.82452471e-12
9.33776106e-12
9.87975772e-12
1.04520606e-11
1.10562906e-11
1.1694159e-11
1.23674505e-11
1.30780552e-11
1.38279486e-11
1.46192059e-11
1.5454006e-11
1.63346478e-11
1.72635308e-11
1.82431797e-11
1.9276243e-11
2.03654987e-11
2.15138715e-11
2.27244129e-11
2.40003363e-11
2.53450117e-11
2.67619621e-11
2.82548944e-11
2.98276857e-11
3.14844042e-11
3.32293074e-11
3.50668668e-11
3.70017588e-11
3.90388765e-11
4.11833599e-11
4.34405857e-11
4.5816175e-11
4.83160235e-11
5.09462945e-11
5.37134452e-11
5.66242187e-11
5.96856908e-11
6.2905246e-11
6.62906125e-11
6.98498701e-11
7.35914754e-11
7.75242568e-11
8.16574507e-11
8.60007028e-11
9.05640933e-11
9.5358156e-11
1.00393892e-10
1.05682792e-10
1.11236848e-10
1.17068589e-10
1.23191086e-10
1.2961799e-10
1.36363531e-10
1.43442565e-10
1.50870593e-10
1.58663775e-10
1.66838957e-10
1.75413718e-10
1.84406372e-10
1.93836008e-10
2.03722518e-10
2.14086631e-10
2.24949936e-10
2.36334922e-10
2.48265004e-10
2.60764565e-10
2.73858977e-10
2.87574665e-10
3.01939106e-10
3.16980904e-10
3.32729802e-10
3.49216741e-10
3.6647388e-10
3.84534684e-10
4.03433901e-10
4.23207679e-10
4.43893538e-10
4.65530493e-10
4.88159049e-10
5.11821277e-10
5.36560854e-10
5.62423119e-10
5.89455135e-10
6.17705732e-10
6.47225569e-10
6.78067207e-10
7.10285143e-10
7.43935876e-10
7.79078002e-10
8.15772227e-10
8.54081468e-10
8.94070917e-10
9.35808087e-10
9.79362902e-10
1.02480776e-09
1.07221761e-09
1.12167004e-09
1.17324528e-09
1.22702639e-09
1.28309926e-09
1.34155268e-09
1.4024785e-09
1.46597163e-09
1.53213015e-09
1.6010554e-09
1.67285209e-09
1.74762831e-09
1.82549571e-09
1.90656952e-09
1.99096867e-09
2.07881588e-09
2.17023773e-09
2.26536479e-09
2.36433167e-09
2.46727716e-09
2.57434429e-09
2.68568041e-09
2.80143736e-09
2.92177147e-09
3.04684374e-09
3.17681988e-09
3.31187044e-09
3.45217088e-09
3.59790171e-09
3.74924853e-09
3.90640218e-09
4.06955879e-09
4.23891993e-09
4.41469262e-09
4.59708955e-09
4.78632904e-09
4.98263524e-09
5.18623814e-09
5.39737371e-09
5.61628398e-09
5.84321713e-09
6.07842753e-09
6.32217588e-09
6.57472927e-09
6.83636125e-09
7.10735192e-09
7.38798797e-09
7.6785628e-09
7.97937654e-09
8.29073613e-09
8.61295538e-09
8.94635503e-09
9.29126279e-09
9.64801336e-09
1.00169485e-08
1.03984172e-08
1.07927753e-08
1.1200386e-08
1.16216197e-08
1.20568538e-08
1.25064729e-08
1.2970869e-08
1.34504411e-08
1.39455953e-08
1.4456745e-08
1.49843107e-08
1.55287198e-08
1.60904069e-08
1.66698135e-08
1.7267388e-08
1.78835855e-08
1.85188682e-08
1.91737045e-08
1.98485697e-08
2.05439453e-08
2.12603191e-08
2.19981854e-08
2.2758044e-08
2.3540401e-08
2.43457679e-08
2.51746618e-08
2.60276051e-08
2.69051253e-08
2.78077546e-08
2.87360301e-08
2.96904931e-08
3.0671689e-08
3.1680167e-08
3.27164801e-08
3.37811841e-08
3.48748381e-08
3.59980036e-08
3.71512442e-08
3.83351255e-08
3.95502146e-08
4.07970795e-08
4.2076289e-08
4.33884121e-08
4.47340174e-08
4.61136731e-08
4.75279461e-08
4.89774016e-08
5.04626027e-08
5.19841099e-08
5.35424803e-08
5.51382673e-08