/*--------------------------------*- C++ -*----------------------------------*\
| =========                 |                                                 |
| \\      /  F ield         | OpenFOAM: The Open Source CFD Toolbox           |
|  \\    /   O peration     | Version:  2206                                  |
|   \\  /    A nd           | Website:  www.openfoam.com                      |
|    \\/     M anipulation  |                                                 |
\*---------------------------------------------------------------------------*/
FoamFile
{
    version     2.0;
    format      ascii;
    arch        "LSB;label=32;scalar=64";
    class       volScalarField;
    location    "1.94e-05";
    object      PVsourcePV;
}
// * * * * * * * * * * * * * * * * * * * * * * * * * * * * * * * * * * * * * //

dimensions      [1 -3 -1 0 0 0 0];

internalField   nonuniform List<scalar> 
3183
(
0
0
0
0
0
0
0
0
0
0
0
0
0
0
0
0
0
0
0
0
0
0
0
0
0
0
0
0
0
0
0
0
0
0
0
0
0
0
0
0
0
0
0
0
0
0
0
0
0
0
0
0
0
0
0
0
0
0
0
0
0
0
0
0
0
0
0
0
0
0
0
0
0
0
0
0
0
0
0
0
0
0
0
0
0
0
0
0
0
0
0
0
0
0
0
0
0
0
0
0
0
0
0
0
0
0
0
0
0
0
0
0
0
0
0
0
0
0
0
0
0
0
0
0
0
0
0
0
0
0
0
0
0
0
0
0
0
0
0
0
0
0
0
0
0
0
0
0
0
0
0
0
0
0
0
0
0
0
0
0
0
0
0
0
0
0
0
0
0
0
0
0
0
0
0
0
0
0
0
0
0
0
0
0
0
0
0
0
0
0
0
0
0
0
0
0
0
0
0
0
0
0
0
0
0
0
0
0
0
0
0
0
0
0
0
0
0
0
0
0
0
0
0
0
0
0
0
0
0
0
0
0
0
0
0
0
0
0
0
0
0
0
0
0
0
0
0
0
0
0
0
0
0
0
0
0
0
0
0
0
0
0
0
0
0
0
0
0
0
0
0
0
0
0
0
0
0
0
0
0
0
0
0
0
0
0
0
0
0
0
0
0
0
0
0
0
0
0
0
0
0
0
0
0
0
0
0
0
0
0
0
0
0
0
0
0
0
0
0
0
0
0
0
0
0
0
0
0
0
0
0
0
0
0
0
0
0
0
0
0
0
0
0
0
0
0
0
0
0
0
0
0
0
0
0
0
0
0
0
0
0
0
0
0
0
0
0
0
0
0
0
0
0
0
0
0
0
0
0
0
0
0
0
0
0
0
0
0
0
0
0
0
0
0
0
0
0
0
0
0
0
0
0
0
0
0
0
0
0
0
0
0
0
0
0
0
0
0
0
0
0
0
0
0
0
0
0
0
0
0
0
0
0
0
0
0
0
0
0
0
0
0
0
0
0
0
0
0
0
0
0
0
0
0
0
0
0
0
0
0
0
0
0
0
0
0
0
0
0
0
0
0
0
0
0
0
0
0
0
0
0
0
0
0
0
0
0
0
0
0
0
0
0
0
0
0
0
0
0
0
0
0
0
0
0
0
0
0
0
0
0
0
0
0
0
0
0
0
0
0
0
0
0
0
0
0
0
0
0
0
0
0
0
0
0
0
0
0
0
0
0
0
0
0
0
0
0
0
0
0
0
0
0
0
0
0
0
0
0
0
0
0
0
0
0
0
0
0
0
0
0
0
0
0
0
0
0
0
0
0
0
0
0
0
0
0
0
0
0
0
0
0
0
0
0
0
0
0
0
0
0
0
0
0
0
0
0
0
0
0
0
0
0
0
0
0
0
0
0
0
0
0
0
0
0
0
0
0
0
0
0
0
0
0
0
0
0
0
0
0
0
0
0
0
0
0
0
0
0
0
0
0
0
0
0
0
0
0
0
0
0
0
0
0
0
0
0
0
0
0
0
0
0
0
0
0
0
0
0
0
0
0
0
0
0
0
0
0
0
0
0
0
0
0
0
0
0
0
0
0
0
0
0
0
0
0
0
0
0
0
0
0
0
0
0
0
0
0
0
0
0
0
0
0
0
0
0
0
0
0
0
0
0
0
0
0
0
0
0
0
0
0
0
0
0
0
0
0
0
0
0
0
0
0
0
0
0
0
0
0
0
0
0
0
0
0
0
0
0
0
0
0
0
0
0
0
0
0
0
0
0
0
0
0
0
0
0
0
0
0
0
0
0
0
0
0
0
0
0
0
0
0
0
0
0
0
0
0
0
0
0
0
0
0
0
0
0
0
0
0
0
0
0
0
0
0
0
0
0
0
0
0
0
0
0
0
0
0
0
0
0
0
0
0
0
0
0
0
0
0
0
0
0
0
0
0
0
0
0
0
0
0
0
0
0
0
0
0
0
0
0
0
0
0
0
0
0
0
0
0
0
0
0
0
0
0
0
0
0
0
0
0
0
0
0
0
0
0
0
0
0
0
0
0
0
0
0
0
0
0
0
0
0
0
0
0
0
0
0
0
0
0
0
0
0
0
0
0
0
0
0
0
0
0
0
0
0
0
0
0
0
0
0
0
0
0
0
0
0
0
0
0
0
0
0
0
0
0
0
0
0
0
0
0
0
0
0
0
0
0
0
0
0
0
0
0
0
0
0
0
0
0
0
0
0
0
0
0
0
0
0
0
0
0
0
0
0
0
0
0
0
0
0
0
0
0
0
0
0
0
0
0
0
0
0
0
0
0
0
0
0
0
0
0
0
0
0
0
0
0
0
0
0
0
0
0
0
0
0
0
0
0
0
0
0
0
0
0
0
0
0
0
0
0
0
0
0
0
0
0
0
0
0
0
0
0
0
0
0
0
0
0
0
0
0
0
0
0
0
0
0
0
0
0
0
0
0
0
0
0
0
0
0
0
0
0
0
0
0
0
0
0
0
0
0
0
0
0
0
0
0
0
0
0
0
0
0
0
0
0
0
0
0
0
0
0
0
0
0
0
0
0
0
0
0
0
0
0
0
0
0
0
0
0
0
0
0
0
0
0
0
0
0
0
0
0
0
0
0
0
0
0
0
0
0
0
0
0
0
0
0
0
0
0
0
0
0
0
0
0
0
0
0
0
0
0
0
0
0
0
0
0
0
0
0
0
0
0
0
0
0
0
0
0
0
0
0
0
0
0
0
0
0
0
0
0
0
0
0
0
0
0
0
0
0
0
0
0
0
0
0
0
0
0
0
0
0
0
0
0
0
0
0
0
0
0
0
0
0
0
0
0
0
0
0
0
0
0
0
0
0
0
0
0
0
0
0
0
0
0
0
0
0
0
0
0
0
0
0
0
0
0
0
0
0
0
0
0
0
0
0
0
0
0
0
0
0
0
0
0
0
0
0
0
0
0
0
0
0
0
0
0
0
0
0
0
0
0
0
0
0
0
0
0
0
0
0
0
0
0
0
0
0
0
0
0
0
0
0
0
0
0
0
0
0
0
0
0
0
0
0
0
0
0
0
0
0
0
0
0
0
0
0
0
0
0
0
0
0
0
0
0
0
0
0
0
0
0
0
0
0
0
0
0
0
0
0
0
0
0
0
0
0
0
0
0
0
0
0
0
0
0
0
0
0
0
0
0
0
0
0
0
0
0
0
0
0
0
0
0
0
0
0
0
0
0
0
0
0
0
0
0
0
0
0
0
0
0
0
0
0
0
0
0
0
0
0
0
0
0
0
0
0
0
0
0
0
0
0
0
0
0
0
0
0
0
0
0
0
0
0
0
0
0
0
0
0
0
0
0
0
0
0
0
0
0
0
0
0
0
0
0
0
0
0
0
0
0
0
0
0
0
0
0
0
0
0
0
0
0
0
0
0
0
0
0
0
0
0
0
0
0
0
0
0
0
0
0
0
0
0
0
0
0
0
0
0
0
0
0
0
0
0
0
0
0
0
0
0
0
0
0
0
0
0
0
0
0
0
0
0
0
0
0
0
0
0
0
0
0
0
0
0
0
0
0
0
0
0
0
0
0
0
0
0
0
0
0
0
0
0
0
0
0
0
0
0
0
0
0
0
0
0
0
0
0
0
0
0
0
0
0
0
0
0
0
0
0
0
0
0
0
0
0
0
0
0
0
0
0
0
0
0
0
0
0
0
0
0
0
0
0
0
0
0
0
0
0
0
0
0
0
0
0
0
0
0
0
0
0
0
0
0
0
0
0
0
0
0
0
0
0
0
0
0
0
0
0
0
0
0
0
0
0
0
0
0
0
0
0
0
0
0
0
0
0
0
0
0
0
0
0
0
0
0
0
0
0
0
0
0
0
0
0
0
0
0
0
0
0
0
0
0
0
0
0
0
0
0
0
0
0
0
0
0
0
0
0
0
0
0
0
0
0
0
0
0
0
0
0
0
0
0
0
0
0
0
0
0
0
0
0
0
0
0
0
0
0
0
0
0
0
0
0
0
0
0
0
0
0
0
0
0
0
0
0
0
0
0
0
0
0
0
0
0
0
0
0
0
0
0
0
0
0
0
0
0
0
0
0
0
0
0
0
0
0
0
0
0
0
0
0
0
0
0
0
0
0
0
0
0
0
0
0
0
0
0
0
0
0
0
0
0
0
0
0
0
0
0
0
0
0
0
0
0
0
0
0
0
0
0
0
0
0
0
0
0
0
0
0
0
0
0
0
0
0
0
0
0
0
0
0
0
0
0
0
0
0
0
0
0
0
0
0
0
0
0
0
0
0
0
0
0
0
0
0
0
0
0
0
0
0
0
0
0
0
0
0
0
0
0
0
0
0
0
0
0
0
0
0
0
0
0
0
0
0
0
0
0
0
0
0
0
0
0
0
0
0
0
0
0
0
0
0
0
0
0
0
0
0
0
0
0
0
0
0
0
0
0
0
0
0
0
0
0
0
0
0
0
0
0
0
0
0
0
0
0
0
0
0
0
0
0
0
0
0
0
0
0
0
0
0
0
0
0
0
0
0
0
0
0
0
0
0
0
0
0
0
0
0
0
0
0
0
0
0
0
0
0
0
0
0
0
0
0
0
0
0
0
0
0
0
0
0
0
0
0
0
0
0
0
0
0
0
0
0
0
0
0
0
0
0
0
0
0
0
0
0
0
0
0
0
0
0
0
0
0
0
0
0
0
0
0
0
0
0
0
0
0
0
0
0
0
0
0
0
0
0
0
0
0
0
0
0
0
0
0
0
0
0
0
0
0
0
0
0
0
0
0
0
0
0
0
0
0
0
0
0
0
0
0
0
0
0
0
0
0
0
0
0
0
0
0
0
0
0
0
0
0
0
0
0
0
0
0
0
0
0
0
0
0
0
0
0
0
0
0
0
0
0
0
0
0
0
0
0
0
0
0
0
0
0
0
0
0
0
0
0
0
0
0
0
0
0
0
0
0
0
0
0
0
0
0
0
0
0
0
0
0
0
0
0
0
0
0
0
0
0
0
0
0
0
0
0
0
0
0
0
0
0
0
0
0
0
0
0
0
0
0
0
0
0
0
0
0
0
0
0
0
0
0
0
0
0
0
0
0
0
0
0
0
0
0
0
0
0
0
0
0
0
0
0
0
0
0
0
0
0
0
0
0
0
0
0
0
0
0
0
0
0
0
0
0
0
0
0
0
0
0
0
0
0
0
0
0
0
0
0
0
0
0
0
0
0
0
0
0
0
0
0
0
0
0
0
0
0
0
0
0
0
0
0
0
0
0
0
0
0
0
0
0
0
0
0
0
0
0
0
0
0
0
0
0
0
0
5.22221891e-300
3.02087957e-300
2.44410567e-297
1.42462624e-297
1.13432797e-294
6.66196248e-295
5.22037437e-292
3.08907436e-292
2.38231465e-289
1.42026783e-289
1.07800479e-286
6.47467139e-287
4.83677075e-284
2.9265822e-284
2.15175195e-281
1.3115617e-281
9.49115217e-279
5.82758343e-279
4.15071896e-276
2.5671465e-276
1.7996684e-273
1.12114976e-273
7.73593827e-271
4.85403367e-271
3.29663513e-268
2.08341868e-268
1.39268095e-265
8.86472844e-266
5.83230434e-263
3.73836281e-263
2.42114535e-260
1.5631319e-260
9.96270919e-258
6.47824675e-258
4.06343318e-255
2.66152364e-255
1.64267039e-252
1.08344462e-252
6.58159735e-250
4.37112253e-250
2.61346726e-247
1.74771478e-247
1.02846221e-244
6.92500718e-245
4.01074558e-242
2.71908057e-242
1.54991072e-239
1.05792649e-239
5.93487591e-237
4.07848752e-237
2.25173804e-234
1.55786906e-234
8.464523e-232
5.89560133e-232
3.15240417e-229
2.21038038e-229
1.1630856e-226
8.20962442e-227
4.25095641e-224
3.02045052e-224
1.53900768e-221
1.1007439e-221
5.51883266e-219
3.97319688e-219
1.9601e-216
1.42038258e-216
6.894538e-214
5.02867254e-214
2.40158793e-211
1.76300896e-211
8.28376354e-209
6.12037792e-209
2.82918461e-206
2.10374423e-206
9.56680176e-204
7.15922495e-204
3.20265836e-201
2.41192494e-201
1.06134891e-198
8.04361963e-199
3.48155879e-196
2.65517613e-196
1.13036937e-193
8.67465418e-194
3.63211874e-191
2.80472171e-191
1.15492392e-188
8.97359886e-189
3.63378972e-186
2.84080877e-186
1.13119468e-183
8.89761657e-184
3.48371604e-181
2.75688207e-181
1.06128308e-178
8.44949087e-179
3.19783911e-176
2.56132262e-176
9.52952138e-174
7.67841193e-174
2.8081824e-171
2.27615734e-171
8.18216533e-169
6.67122509e-169
2.35693242e-166
1.93298417e-166
6.7113112e-164
5.53624769e-164
1.88882851e-161
1.56714964e-161
5.25344462e-159
4.38383718e-159
1.44378254e-156
1.2116761e-156
3.92015097e-154
3.30859704e-154
1.05143472e-151
8.92403369e-152
2.78530747e-149
2.37722856e-149
7.28627608e-147
6.25321052e-147
1.88194758e-144
1.62399584e-144
4.7984825e-142
4.16333347e-142
1.20758317e-139
1.05340104e-139
2.99892915e-137
2.63003423e-137
7.34797272e-135
6.47828271e-135
1.77596299e-132
1.57398889e-132
4.23325809e-130
3.77133978e-130
9.94937533e-128
8.9093745e-128
2.3051492e-125
2.07471184e-125
5.26359295e-123
4.76129154e-123
1.18423847e-120
1.07656757e-120
2.6245732e-118
2.39770588e-118
5.72829166e-116
5.25862719e-116
1.23088538e-113
1.13540128e-113
2.6032143e-111
2.41268239e-111
5.41714002e-109
5.04419911e-109
1.10881718e-106
1.03725846e-106
2.23169582e-104
2.09719752e-104
4.4151322e-102
4.16770745e-102
8.58276423e-100
8.13769094e-100
1.63877227e-97
1.56057207e-97
3.07215217e-95
2.93811798e-95
5.65216979e-93
5.42840608e-93
1.02009816e-90
9.83780455e-91
1.80517153e-88
1.74799897e-88
3.13060957e-86
3.04357449e-86
5.31796245e-84
5.19034462e-84
8.84354496e-82
8.66429248e-82
1.43885443e-79
1.41492371e-79
2.28899996e-77
2.25899037e-77
3.55815992e-75
3.52347556e-75
5.40069775e-73
5.36442308e-73
7.99821908e-71
7.96392637e-71
1.15480431e-68
1.15096586e-68
1.6241493e-66
1.60995546e-66
2.22311059e-64
2.21284079e-64
2.95827438e-62
2.87509376e-62
3.8239451e-60
3.81987901e-60
4.79322089e-58
4.78090988e-58
5.82254561e-56
5.79979473e-56
6.84360989e-54
6.81627428e-54
7.77151484e-52
7.75068142e-52
8.51294533e-50
8.50273937e-50
8.97951593e-48
8.96429441e-48
9.10330132e-46
9.06167513e-46
8.85112267e-44
8.78800438e-44
8.23413533e-42
8.15908157e-42
7.310004e-40
7.23420809e-40
6.17475742e-38
6.10787257e-38
4.94635556e-36
4.894319e-36
3.74352085e-34
3.70841675e-34
2.66523453e-32
2.64654487e-32
1.77619859e-30
1.77439813e-30
1.10158696e-28
1.09791825e-28
6.31594941e-27
6.28304738e-27
3.32011779e-25
3.30126061e-25
1.58437488e-23
1.57723461e-23
6.77995949e-22
6.76124468e-22
2.56168021e-20
2.55662075e-20
8.3745746e-19
8.35797542e-19
2.30457494e-17
2.30213665e-17
5.13170901e-16
5.12689399e-16
2.25911757e-14
2.27928271e-14
2.31705099e-10
2.44261711e-10
0.00160026185
0.00760612155
0.388517132
0.503209185
0.754604299
0.717957321
0.351809739
0.297294102
0.0797408502
0.0658822977
0.0167093912
0.0148697422
0.00401062428
0.00367388668
0.000864599847
0.000818392317
0.000170082436
0.000166051181
3.14484925e-05
3.1302381e-05
5.90599616e-06
5.90732844e-06
1.49554481e-06
1.49564852e-06
7.83509433e-07
7.83528877e-07
6.76052352e-07
6.76069597e-07
6.60838295e-07
6.6083905e-07
6.58802094e-07
6.5880269e-07
6.58543967e-07
6.58545738e-07
6.58512462e-07
6.58514404e-07
6.58510422e-07
6.58508778e-07
6.58510666e-07
6.58507976e-07
6.58510381e-07
6.58508546e-07
6.58509473e-07
6.58509261e-07
6.58510527e-07
6.58508802e-07
6.58510073e-07
6.58509773e-07
6.58509976e-07
6.58509911e-07
6.58510482e-07
6.58510179e-07
6.58510041e-07
6.58509733e-07
6.58510079e-07
6.58509949e-07
6.58509342e-07
6.58510757e-07
6.58509338e-07
6.58510308e-07
6.58508818e-07
6.58509798e-07
6.58509096e-07
6.58509785e-07
6.58508897e-07
6.58509464e-07
6.58508426e-07
6.58510413e-07
6.58508189e-07
6.58510555e-07
6.58508463e-07
6.58509669e-07
6.58509024e-07
6.58510021e-07
6.5850862e-07
6.58511035e-07
6.5850771e-07
6.58510971e-07
6.58509257e-07
6.58510835e-07
6.5850914e-07
6.58509231e-07
6.58509756e-07
6.58508934e-07
6.58510012e-07
6.58509143e-07
6.58509451e-07
6.58508492e-07
6.5851025e-07
6.58508568e-07
6.5851148e-07
6.58508004e-07
6.58510609e-07
6.58508921e-07
6.58511186e-07
6.58508751e-07
6.58510531e-07
6.58508839e-07
6.58509845e-07
6.5850952e-07
6.58510465e-07
6.58508809e-07
6.58510411e-07
6.58509455e-07
6.58509003e-07
6.58510069e-07
6.58509278e-07
6.58509846e-07
6.58510353e-07
6.58509085e-07
6.58510324e-07
6.58508927e-07
6.58509325e-07
6.58509218e-07
6.5850919e-07
6.58509886e-07
6.58507859e-07
6.5851053e-07
6.58508829e-07
6.5851067e-07
6.58508863e-07
6.58510759e-07
6.58508851e-07
6.58510067e-07
6.58509289e-07
6.58510161e-07
6.58508903e-07
6.58510735e-07
6.58508604e-07
6.58511219e-07
6.58509103e-07
6.58510647e-07
6.58509785e-07
6.58510891e-07
6.5851028e-07
6.58510683e-07
6.58509063e-07
6.58510559e-07
6.58509215e-07
6.58509526e-07
6.58509217e-07
6.58509269e-07
6.58508977e-07
6.58510123e-07
6.58508135e-07
6.58509876e-07
6.58508642e-07
6.58509706e-07
6.58509255e-07
6.58508891e-07
6.58510839e-07
6.58507988e-07
6.58510222e-07
6.5850853e-07
6.5851113e-07
6.58508925e-07
6.58510298e-07
6.58508774e-07
6.58510914e-07
6.58508128e-07
6.58511145e-07
6.58508739e-07
6.58511446e-07
6.58509372e-07
6.58511466e-07
6.58509107e-07
6.58510345e-07
6.585094e-07
6.58509608e-07
6.58508871e-07
6.5850961e-07
6.58509268e-07
6.58508697e-07
6.58511023e-07
6.58509444e-07
6.58517145e-07
6.58518036e-07
6.58555132e-07
6.58559155e-07
6.58670168e-07
6.58668868e-07
6.58555456e-07
6.58555029e-07
6.58517371e-07
6.58516093e-07
6.5851103e-07
6.58510307e-07
6.58510089e-07
6.58510161e-07
6.58509273e-07
6.58510298e-07
6.58509433e-07
6.58511111e-07
6.58509369e-07
6.58510421e-07
6.58508954e-07
6.58510086e-07
6.58509322e-07
6.58510663e-07
6.58508727e-07
6.5851081e-07
6.58509167e-07
6.5851173e-07
6.58509349e-07
6.58510917e-07
6.58508907e-07
6.58510879e-07
6.58509322e-07
6.58510803e-07
6.58509344e-07
6.58510032e-07
6.58509575e-07
6.58509797e-07
6.58509569e-07
6.58510321e-07
6.58510028e-07
6.58509266e-07
6.58510561e-07
6.58510039e-07
6.58510969e-07
6.58509605e-07
6.58510636e-07
6.58509943e-07
6.58511207e-07
6.58510453e-07
6.58509464e-07
6.58510882e-07
6.58508951e-07
6.58511375e-07
6.58509229e-07
6.58510401e-07
6.58510159e-07
6.58510613e-07
6.58510025e-07
6.58510352e-07
6.5851052e-07
6.58509939e-07
6.58510969e-07
6.58510023e-07
6.58510472e-07
6.58510744e-07
6.58511432e-07
6.58508977e-07
6.58511636e-07
6.58508973e-07
6.58511072e-07
6.58509852e-07
6.58510341e-07
6.58509857e-07
6.58509133e-07
6.58510629e-07
6.58510674e-07
6.58509483e-07
6.58510307e-07
6.58510276e-07
6.58510037e-07
6.58509593e-07
6.58510448e-07
6.58509974e-07
6.58511311e-07
6.58510166e-07
6.58511245e-07
6.58510516e-07
6.58509694e-07
6.5851112e-07
6.58508546e-07
6.58510939e-07
6.58508759e-07
6.58510073e-07
6.58509303e-07
6.58511605e-07
6.58509159e-07
6.58510606e-07
6.58509764e-07
6.5850997e-07
6.58510591e-07
6.58509706e-07
6.5850991e-07
6.58509744e-07
6.58510029e-07
6.5850983e-07
6.58510031e-07
6.58510139e-07
6.58510472e-07
6.58510032e-07
6.58509293e-07
6.58510028e-07
6.58510621e-07
6.58509841e-07
6.58510548e-07
6.58510288e-07
6.58510137e-07
6.58510825e-07
6.58509102e-07
6.58509956e-07
6.58510169e-07
6.58509509e-07
6.58510676e-07
6.58510723e-07
6.58511095e-07
6.58510279e-07
6.58510621e-07
6.58510713e-07
6.58510728e-07
6.58510162e-07
6.58510682e-07
6.58510015e-07
6.58509997e-07
6.58509553e-07
6.58510695e-07
6.58508586e-07
6.58510494e-07
6.58508981e-07
6.58510597e-07
6.58510419e-07
6.58510308e-07
6.58510672e-07
6.58509035e-07
6.58511718e-07
6.58508986e-07
6.58511363e-07
6.58508623e-07
6.58511515e-07
6.58509445e-07
6.58511151e-07
6.58509974e-07
6.5851087e-07
6.58509873e-07
6.58511011e-07
6.58509724e-07
6.58511439e-07
6.58509937e-07
6.58509856e-07
6.58510493e-07
6.58510597e-07
6.58509996e-07
6.58510323e-07
6.5851137e-07
6.58510024e-07
6.58510305e-07
6.58510976e-07
6.58511167e-07
6.58510094e-07
6.5851072e-07
6.58510976e-07
6.58509775e-07
6.58510729e-07
6.58509819e-07
6.58511389e-07
6.58510013e-07
6.58510376e-07
6.58510951e-07
6.58510348e-07
6.58509893e-07
6.58509727e-07
6.58510089e-07
6.58510804e-07
6.58510205e-07
6.58511125e-07
6.5851005e-07
6.58510971e-07
6.58510172e-07
6.58510575e-07
6.58510586e-07
6.58510732e-07
6.5850986e-07
6.58510963e-07
6.58510875e-07
6.58511742e-07
6.58510121e-07
6.58510886e-07
6.58510683e-07
6.58510801e-07
6.58510716e-07
6.5851204e-07
6.58510235e-07
6.58511208e-07
6.58510261e-07
6.58511618e-07
6.58510296e-07
6.58511271e-07
6.58510629e-07
6.58511605e-07
6.58510114e-07
6.58511237e-07
6.58510509e-07
6.58510162e-07
6.58511107e-07
6.58509799e-07
6.58511068e-07
6.58509714e-07
6.58510558e-07
6.58510023e-07
6.58510578e-07
6.58511111e-07
6.58510981e-07
6.58509904e-07
6.58511117e-07
6.58510858e-07
6.58511061e-07
6.58511048e-07
6.5851054e-07
6.58509903e-07
6.58511473e-07
6.58508976e-07
6.58511463e-07
6.5850961e-07
6.58511392e-07
6.58510352e-07
6.58510695e-07
6.58511307e-07
6.58510087e-07
6.5851192e-07
6.58509784e-07
6.58510857e-07
6.58510643e-07
6.5851014e-07
6.58511474e-07
6.58510822e-07
6.58511546e-07
6.58510819e-07
6.58511152e-07
6.58510546e-07
6.58512142e-07
6.58510688e-07
6.58511977e-07
6.58510826e-07
6.58511274e-07
6.58510895e-07
6.58510922e-07
6.58510602e-07
6.58510937e-07
6.58511363e-07
6.58510927e-07
6.585121e-07
6.58510848e-07
6.5851151e-07
6.5851076e-07
6.58511044e-07
6.58511469e-07
6.58511016e-07
6.58511531e-07
6.58510392e-07
6.58511146e-07
6.58511173e-07
6.5851209e-07
6.58510827e-07
6.58511117e-07
6.58511088e-07
6.58511269e-07
6.58510864e-07
6.58511171e-07
6.58510704e-07
6.58510081e-07
6.58510362e-07
6.58510641e-07
6.58511186e-07
6.58510737e-07
6.58510518e-07
6.58511655e-07
6.58510999e-07
6.58511582e-07
6.58509713e-07
6.58512123e-07
6.58510183e-07
6.58512232e-07
6.58511013e-07
6.58511621e-07
6.58511456e-07
6.58511291e-07
6.58510724e-07
6.58511437e-07
6.58510858e-07
6.58510519e-07
6.58511191e-07
6.58511026e-07
6.58510919e-07
6.58511884e-07
6.58510611e-07
6.58511488e-07
6.58510513e-07
6.58510956e-07
6.58510992e-07
6.5851139e-07
6.58510517e-07
6.5851102e-07
6.58511046e-07
6.5851012e-07
6.58511903e-07
6.58509818e-07
6.58512173e-07
6.58510616e-07
6.5851223e-07
6.58510543e-07
6.58512729e-07
6.58509971e-07
6.5851249e-07
6.58510417e-07
6.58511029e-07
6.58511436e-07
6.5851093e-07
6.58511258e-07
6.58511241e-07
6.58511934e-07
6.58511095e-07
6.58510084e-07
6.58511764e-07
6.58511004e-07
6.58511364e-07
6.5851145e-07
6.58511217e-07
6.58510729e-07
6.58511217e-07
6.58511055e-07
6.58511408e-07
6.58510986e-07
6.58511509e-07
6.58511427e-07
6.58511157e-07
6.58511151e-07
6.58511327e-07
6.58511406e-07
6.58511421e-07
6.58511217e-07
6.58511507e-07
6.58511284e-07
6.58511406e-07
6.58511433e-07
6.58511537e-07
6.58511443e-07
6.58511529e-07
6.58511632e-07
6.58511653e-07
6.58511616e-07
6.58511725e-07
6.5851179e-07
6.58511761e-07
6.58511854e-07
6.58511911e-07
6.58512033e-07
6.58512068e-07
6.58512136e-07
6.58512235e-07
6.58512297e-07
6.58512407e-07
6.58512543e-07
6.58512679e-07
6.58512757e-07
6.58512953e-07
6.5851312e-07
6.58513317e-07
6.58513543e-07
6.58513801e-07
6.58514127e-07
6.58514498e-07
6.58514891e-07
6.58515268e-07
6.58515604e-07
6.58515906e-07
6.5851613e-07
6.58516215e-07
6.58516296e-07
6.58516314e-07
6.58516306e-07
6.58516329e-07
6.58516333e-07
6.58516319e-07
6.5851634e-07
6.58516315e-07
6.58516315e-07
6.58516314e-07
6.58516317e-07
6.58516312e-07
6.58516308e-07
6.58516317e-07
6.58516318e-07
6.58516299e-07
6.5851634e-07
)
;

boundaryField
{
    closed
    {
        type            calculated;
        value           uniform 0;
    }
    open
    {
        type            calculated;
        value           uniform 0;
    }
    sides
    {
        type            empty;
    }
}


// ************************************************************************* //
