/*--------------------------------*- C++ -*----------------------------------*\
| =========                 |                                                 |
| \\      /  F ield         | OpenFOAM: The Open Source CFD Toolbox           |
|  \\    /   O peration     | Version:  2206                                  |
|   \\  /    A nd           | Website:  www.openfoam.com                      |
|    \\/     M anipulation  |                                                 |
\*---------------------------------------------------------------------------*/
FoamFile
{
    version     2.0;
    format      ascii;
    arch        "LSB;label=32;scalar=64";
    class       volScalarField;
    location    "1.94e-05";
    object      rho;
}
// * * * * * * * * * * * * * * * * * * * * * * * * * * * * * * * * * * * * * //

dimensions      [1 -3 0 0 0 0 0];

internalField   nonuniform List<scalar> 
3183
(
1.03926466
1.03926466
1.03926466
1.03926466
1.03926466
1.03926466
1.03926466
1.03926466
1.03926466
1.03926466
1.03926466
1.03926466
1.03926466
1.03926466
1.03926466
1.03926466
1.03926466
1.03926466
1.03926466
1.03926466
1.03926466
1.03926466
1.03926466
1.03926466
1.03926466
1.03926466
1.03926466
1.03926466
1.03926466
1.03926466
1.03926466
1.03926466
1.03926466
1.03926466
1.03926466
1.03926466
1.03926466
1.03926466
1.03926466
1.03926466
1.03926466
1.03926466
1.03926466
1.03926466
1.03926466
1.03926466
1.03926466
1.03926466
1.03926466
1.03926466
1.03926466
1.03926466
1.03926466
1.03926466
1.03926466
1.03926466
1.03926466
1.03926466
1.03926466
1.03926466
1.03926466
1.03926466
1.03926466
1.03926466
1.03926466
1.03926466
1.03926466
1.03926466
1.03926466
1.03926466
1.03926466
1.03926466
1.03926466
1.03926466
1.03926466
1.03926466
1.03926466
1.03926466
1.03926466
1.03926466
1.03926466
1.03926466
1.03926466
1.03926466
1.03926466
1.03926466
1.03926466
1.03926466
1.03926466
1.03926466
1.03926466
1.03926466
1.03926466
1.03926466
1.03926466
1.03926466
1.03926466
1.03926466
1.03926466
1.03926466
1.03926466
1.03926466
1.03926466
1.03926466
1.03926466
1.03926466
1.03926466
1.03926466
1.03926466
1.03926466
1.03926466
1.03926466
1.03926466
1.03926466
1.03926466
1.03926466
1.03926466
1.03926466
1.03926466
1.03926466
1.03926466
1.03926466
1.03926466
1.03926466
1.03926466
1.03926466
1.03926466
1.03926466
1.03926466
1.03926466
1.03926466
1.03926466
1.03926466
1.03926466
1.03926466
1.03926466
1.03926466
1.03926466
1.03926466
1.03926466
1.03926466
1.03926466
1.03926466
1.03926466
1.03926466
1.03926466
1.03926466
1.03926466
1.03926466
1.03926466
1.03926466
1.03926466
1.03926466
1.03926466
1.03926466
1.03926466
1.03926466
1.03926466
1.03926466
1.03926466
1.03926466
1.03926466
1.03926466
1.03926466
1.03926466
1.03926466
1.03926466
1.03926466
1.03926466
1.03926466
1.03926466
1.03926466
1.03926466
1.03926466
1.03926466
1.03926466
1.03926466
1.03926466
1.03926466
1.03926466
1.03926466
1.03926466
1.03926466
1.03926466
1.03926466
1.03926466
1.03926466
1.03926466
1.03926466
1.03926466
1.03926466
1.03926466
1.03926466
1.03926466
1.03926466
1.03926466
1.03926466
1.03926466
1.03926466
1.03926466
1.03926466
1.03926466
1.03926466
1.03926466
1.03926466
1.03926466
1.03926466
1.03926466
1.03926466
1.03926466
1.03926466
1.03926466
1.03926466
1.03926466
1.03926466
1.03926466
1.03926466
1.03926466
1.03926466
1.03926466
1.03926466
1.03926466
1.03926466
1.03926466
1.03926466
1.03926466
1.03926466
1.03926466
1.03926466
1.03926466
1.03926466
1.03926466
1.03926466
1.03926466
1.03926466
1.03926466
1.03926466
1.03926466
1.03926466
1.03926466
1.03926466
1.03926466
1.03926466
1.03926466
1.03926466
1.03926466
1.03926466
1.03926466
1.03926466
1.03926466
1.03926466
1.03926466
1.03926466
1.03926466
1.03926466
1.03926466
1.03926466
1.03926466
1.03926466
1.03926466
1.03926466
1.03926466
1.03926466
1.03926466
1.03926466
1.03926466
1.03926466
1.03926466
1.03926466
1.03926466
1.03926466
1.03926466
1.03926466
1.03926466
1.03926466
1.03926466
1.03926466
1.03926466
1.03926466
1.03926466
1.03926466
1.03926466
1.03926466
1.03926466
1.03926466
1.03926466
1.03926466
1.03926466
1.03926466
1.03926466
1.03926466
1.03926466
1.03926466
1.03926466
1.03926466
1.03926466
1.03926466
1.03926466
1.03926466
1.03926466
1.03926466
1.03926466
1.03926466
1.03926466
1.03926466
1.03926466
1.03926466
1.03926466
1.03926466
1.03926466
1.03926466
1.03926466
1.03926466
1.03926466
1.03926466
1.03926466
1.03926466
1.03926466
1.03926466
1.03926466
1.03926466
1.03926466
1.03926466
1.03926466
1.03926466
1.03926466
1.03926466
1.03926466
1.03926466
1.03926466
1.03926466
1.03926466
1.03926466
1.03926466
1.03926466
1.03926466
1.03926466
1.03926466
1.03926466
1.03926466
1.03926466
1.03926466
1.03926466
1.03926466
1.03926466
1.03926466
1.03926466
1.03926466
1.03926466
1.03926466
1.03926466
1.03926466
1.03926466
1.03926466
1.03926466
1.03926466
1.03926466
1.03926466
1.03926466
1.03926466
1.03926466
1.03926466
1.03926466
1.03926466
1.03926466
1.03926466
1.03926466
1.03926466
1.03926466
1.03926466
1.03926466
1.03926466
1.03926466
1.03926466
1.03926466
1.03926466
1.03926466
1.03926466
1.03926466
1.03926466
1.03926466
1.03926466
1.03926466
1.03926466
1.03926466
1.03926466
1.03926466
1.03926466
1.03926466
1.03926466
1.03926466
1.03926466
1.03926466
1.03926466
1.03926466
1.03926466
1.03926466
1.03926466
1.03926466
1.03926466
1.03926466
1.03926466
1.03926466
1.03926466
1.03926466
1.03926466
1.03926466
1.03926466
1.03926466
1.03926466
1.03926466
1.03926466
1.03926466
1.03926466
1.03926466
1.03926466
1.03926466
1.03926466
1.03926466
1.03926466
1.03926466
1.03926466
1.03926466
1.03926466
1.03926466
1.03926466
1.03926466
1.03926466
1.03926466
1.03926466
1.03926466
1.03926466
1.03926466
1.03926466
1.03926466
1.03926466
1.03926466
1.03926466
1.03926466
1.03926466
1.03926466
1.03926466
1.03926466
1.03926466
1.03926466
1.03926466
1.03926466
1.03926466
1.03926466
1.03926466
1.03926466
1.03926466
1.03926466
1.03926466
1.03926466
1.03926466
1.03926466
1.03926466
1.03926466
1.03926466
1.03926466
1.03926466
1.03926466
1.03926466
1.03926466
1.03926466
1.03926466
1.03926466
1.03926466
1.03926466
1.03926466
1.03926466
1.03926466
1.03926466
1.03926466
1.03926466
1.03926466
1.03926466
1.03926466
1.03926466
1.03926466
1.03926466
1.03926466
1.03926466
1.03926466
1.03926466
1.03926466
1.03926466
1.03926466
1.03926466
1.03926466
1.03926466
1.03926466
1.03926466
1.03926466
1.03926466
1.03926466
1.03926466
1.03926466
1.03926466
1.03926466
1.03926466
1.03926466
1.03926466
1.03926466
1.03926466
1.03926466
1.03926466
1.03926466
1.03926466
1.03926466
1.03926466
1.03926466
1.03926466
1.03926466
1.03926466
1.03926466
1.03926466
1.03926466
1.03926466
1.03926466
1.03926466
1.03926466
1.03926466
1.03926466
1.03926466
1.03926466
1.03926466
1.03926466
1.03926466
1.03926466
1.03926466
1.03926466
1.03926466
1.03926466
1.03926466
1.03926466
1.03926466
1.03926466
1.03926466
1.03926466
1.03926466
1.03926466
1.03926466
1.03926466
1.03926466
1.03926466
1.03926466
1.03926466
1.03926466
1.03926466
1.03926466
1.03926466
1.03926466
1.03926466
1.03926466
1.03926466
1.03926466
1.03926466
1.03926466
1.03926466
1.03926466
1.03926466
1.03926466
1.03926466
1.03926466
1.03926466
1.03926466
1.03926466
1.03926466
1.03926466
1.03926466
1.03926466
1.03926466
1.03926466
1.03926466
1.03926466
1.03926466
1.03926466
1.03926466
1.03926466
1.03926466
1.03926466
1.03926466
1.03926466
1.03926466
1.03926466
1.03926466
1.03926466
1.03926466
1.03926466
1.03926466
1.03926466
1.03926466
1.03926466
1.03926466
1.03926466
1.03926466
1.03926466
1.03926466
1.03926466
1.03926466
1.03926466
1.03926466
1.03926466
1.03926466
1.03926466
1.03926466
1.03926466
1.03926466
1.03926466
1.03926466
1.03926466
1.03926466
1.03926466
1.03926466
1.03926466
1.03926466
1.03926466
1.03926466
1.03926466
1.03926466
1.03926466
1.03926466
1.03926466
1.03926466
1.03926466
1.03926466
1.03926466
1.03926466
1.03926466
1.03926466
1.03926466
1.03926466
1.03926466
1.03926466
1.03926466
1.03926466
1.03926466
1.03926466
1.03926466
1.03926466
1.03926466
1.03926466
1.03926466
1.03926466
1.03926466
1.03926466
1.03926466
1.03926466
1.03926466
1.03926466
1.03926466
1.03926466
1.03926466
1.03926466
1.03926466
1.03926466
1.03926466
1.03926466
1.03926466
1.03926466
1.03926466
1.03926466
1.03926466
1.03926466
1.03926466
1.03926466
1.03926466
1.03926466
1.03926466
1.03926466
1.03926466
1.03926466
1.03926466
1.03926466
1.03926466
1.03926466
1.03926466
1.03926466
1.03926466
1.03926466
1.03926466
1.03926466
1.03926466
1.03926466
1.03926466
1.03926466
1.03926466
1.03926466
1.03926466
1.03926466
1.03926466
1.03926466
1.03926466
1.03926466
1.03926466
1.03926466
1.03926466
1.03926466
1.03926466
1.03926466
1.03926466
1.03926466
1.03926466
1.03926466
1.03926466
1.03926466
1.03926466
1.03926466
1.03926466
1.03926466
1.03926466
1.03926466
1.03926466
1.03926466
1.03926466
1.03926466
1.03926466
1.03926466
1.03926466
1.03926466
1.03926466
1.03926466
1.03926466
1.03926466
1.03926466
1.03926466
1.03926466
1.03926466
1.03926466
1.03926466
1.03926466
1.03926466
1.03926466
1.03926466
1.03926466
1.03926466
1.03926466
1.03926466
1.03926466
1.03926466
1.03926466
1.03926466
1.03926466
1.03926466
1.03926466
1.03926466
1.03926466
1.03926466
1.03926466
1.03926466
1.03926466
1.03926466
1.03926466
1.03926466
1.03926466
1.03926466
1.03926466
1.03926466
1.03926466
1.03926466
1.03926466
1.03926466
1.03926466
1.03926466
1.03926466
1.03926466
1.03926466
1.03926466
1.03926466
1.03926466
1.03926466
1.03926466
1.03926466
1.03926466
1.03926466
1.03926466
1.03926466
1.03926466
1.03926466
1.03926466
1.03926466
1.03926466
1.03926466
1.03926466
1.03926466
1.03926466
1.03926466
1.03926466
1.03926466
1.03926466
1.03926466
1.03926466
1.03926466
1.03926466
1.03926466
1.03926466
1.03926466
1.03926466
1.03926466
1.03926466
1.03926466
1.03926466
1.03926466
1.03926466
1.03926466
1.03926466
1.03926466
1.03926466
1.03926466
1.03926466
1.03926466
1.03926466
1.03926466
1.03926466
1.03926466
1.03926466
1.03926466
1.03926466
1.03926466
1.03926466
1.03926466
1.03926466
1.03926466
1.03926466
1.03926466
1.03926466
1.03926466
1.03926466
1.03926466
1.03926466
1.03926466
1.03926466
1.03926466
1.03926466
1.03926466
1.03926466
1.03926466
1.03926466
1.03926466
1.03926466
1.03926466
1.03926466
1.03926466
1.03926466
1.03926466
1.03926466
1.03926466
1.03926466
1.03926466
1.03926466
1.03926466
1.03926466
1.03926466
1.03926466
1.03926466
1.03926466
1.03926466
1.03926466
1.03926466
1.03926466
1.03926466
1.03926466
1.03926466
1.03926466
1.03926466
1.03926466
1.03926466
1.03926466
1.03926466
1.03926466
1.03926466
1.03926466
1.03926466
1.03926466
1.03926466
1.03926466
1.03926466
1.03926466
1.03926466
1.03926466
1.03926466
1.03926466
1.03926466
1.03926466
1.03926466
1.03926466
1.03926466
1.03926466
1.03926466
1.03926466
1.03926466
1.03926466
1.03926466
1.03926466
1.03926466
1.03926466
1.03926466
1.03926466
1.03926466
1.03926466
1.03926466
1.03926466
1.03926466
1.03926466
1.03926466
1.03926466
1.03926466
1.03926466
1.03926466
1.03926466
1.03926466
1.03926466
1.03926466
1.03926466
1.03926466
1.03926466
1.03926466
1.03926466
1.03926466
1.03926466
1.03926466
1.03926466
1.03926466
1.03926466
1.03926466
1.03926466
1.03926466
1.03926466
1.03926466
1.03926466
1.03926466
1.03926466
1.03926466
1.03926466
1.03926466
1.03926466
1.03926466
1.03926466
1.03926466
1.03926466
1.03926466
1.03926466
1.03926466
1.03926466
1.03926466
1.03926466
1.03926466
1.03926466
1.03926466
1.03926466
1.03926466
1.03926466
1.03926466
1.03926466
1.03926466
1.03926466
1.03926466
1.03926466
1.03926466
1.03926466
1.03926466
1.03926466
1.03926466
1.03926466
1.03926466
1.03926466
1.03926466
1.03926466
1.03926466
1.03926466
1.03926466
1.03926466
1.03926466
1.03926466
1.03926466
1.03926466
1.03926466
1.03926466
1.03926466
1.03926466
1.03926466
1.03926466
1.03926466
1.03926466
1.03926466
1.03926466
1.03926466
1.03926466
1.03926466
1.03926466
1.03926466
1.03926466
1.03926466
1.03926466
1.03926466
1.03926466
1.03926466
1.03926466
1.03926466
1.03926466
1.03926466
1.03926466
1.03926466
1.03926466
1.03926466
1.03926466
1.03926466
1.03926466
1.03926466
1.03926466
1.03926466
1.03926466
1.03926466
1.03926466
1.03926466
1.03926466
1.03926466
1.03926466
1.03926466
1.03926466
1.03926466
1.03926466
1.03926466
1.03926466
1.03926466
1.03926466
1.03926466
1.03926466
1.03926466
1.03926466
1.03926466
1.03926466
1.03926466
1.03926466
1.03926466
1.03926466
1.03926466
1.03926466
1.03926466
1.03926466
1.03926466
1.03926466
1.03926466
1.03926466
1.03926466
1.03926466
1.03926466
1.03926466
1.03926466
1.03926466
1.03926466
1.03926466
1.03926466
1.03926466
1.03926466
1.03926466
1.03926466
1.03926466
1.03926466
1.03926466
1.03926466
1.03926466
1.03926466
1.03926466
1.03926466
1.03926466
1.03926466
1.03926466
1.03926466
1.03926466
1.03926466
1.03926466
1.03926466
1.03926466
1.03926466
1.03926466
1.03926466
1.03926466
1.03926466
1.03926466
1.03926466
1.03926466
1.03926466
1.03926466
1.03926466
1.03926466
1.03926466
1.03926466
1.03926466
1.03926466
1.03926466
1.03926466
1.03926466
1.03926466
1.03926466
1.03926466
1.03926466
1.03926466
1.03926466
1.03926466
1.03926466
1.03926466
1.03926466
1.03926466
1.03926466
1.03926466
1.03926466
1.03926466
1.03926466
1.03926466
1.03926466
1.03926466
1.03926466
1.03926466
1.03926466
1.03926466
1.03926466
1.03926466
1.03926466
1.03926466
1.03926466
1.03926466
1.03926466
1.03926466
1.03926466
1.03926466
1.03926466
1.03926466
1.03926466
1.03926466
1.03926466
1.03926466
1.03926466
1.03926466
1.03926466
1.03926466
1.03926466
1.03926466
1.03926466
1.03926466
1.03926466
1.03926466
1.03926466
1.03926466
1.03926466
1.03926466
1.03926466
1.03926466
1.03926466
1.03926466
1.03926466
1.03926466
1.03926466
1.03926466
1.03926466
1.03926466
1.03926466
1.03926466
1.03926466
1.03926466
1.03926466
1.03926466
1.03926466
1.03926466
1.03926466
1.03926466
1.03926466
1.03926466
1.03926466
1.03926466
1.03926466
1.03926466
1.03926466
1.03926466
1.03926466
1.03926466
1.03926466
1.03926466
1.03926466
1.03926466
1.03926466
1.03926466
1.03926466
1.03926466
1.03926466
1.03926466
1.03926466
1.03926466
1.03926466
1.03926466
1.03926466
1.03926466
1.03926466
1.03926466
1.03926466
1.03926466
1.03926466
1.03926466
1.03926466
1.03926466
1.03926466
1.03926466
1.03926466
1.03926466
1.03926466
1.03926466
1.03926466
1.03926466
1.03926466
1.03926466
1.03926466
1.03926466
1.03926466
1.03926466
1.03926466
1.03926466
1.03926466
1.03926466
1.03926466
1.03926466
1.03926466
1.03926466
1.03926466
1.03926466
1.03926466
1.03926466
1.03926466
1.03926466
1.03926466
1.03926466
1.03926466
1.03926466
1.03926466
1.03926466
1.03926466
1.03926466
1.03926466
1.03926466
1.03926466
1.03926466
1.03926466
1.03926466
1.03926466
1.03926466
1.03926466
1.03926466
1.03926466
1.03926466
1.03926466
1.03926466
1.03926466
1.03926466
1.03926466
1.03926466
1.03926466
1.03926466
1.03926466
1.03926466
1.03926466
1.03926466
1.03926466
1.03926466
1.03926466
1.03926466
1.03926466
1.03926466
1.03926466
1.03926466
1.03926466
1.03926466
1.03926466
1.03926466
1.03926466
1.03926466
1.03926466
1.03926466
1.03926466
1.03926466
1.03926466
1.03926466
1.03926466
1.03926466
1.03926466
1.03926466
1.03926466
1.03926466
1.03926466
1.03926466
1.03926466
1.03926466
1.03926466
1.03926466
1.03926466
1.03926466
1.03926466
1.03926466
1.03926466
1.03926466
1.03926466
1.03926466
1.03926466
1.03926466
1.03926466
1.03926466
1.03926466
1.03926466
1.03926466
1.03926466
1.03926466
1.03926466
1.03926466
1.03926466
1.03926466
1.03926466
1.03926466
1.03926466
1.03926466
1.03926466
1.03926466
1.03926466
1.03926466
1.03926466
1.03926466
1.03926466
1.03926466
1.03926466
1.03926466
1.03926466
1.03926466
1.03926466
1.03926466
1.03926466
1.03926466
1.03926466
1.03926466
1.03926466
1.03926466
1.03926466
1.03926466
1.03926466
1.03926466
1.03926466
1.03926466
1.03926466
1.03926466
1.03926466
1.03926466
1.03926466
1.03926466
1.03926466
1.03926466
1.03926466
1.03926466
1.03926466
1.03926466
1.03926466
1.03926466
1.03926466
1.03926466
1.03926466
1.03926466
1.03926466
1.03926466
1.03926466
1.03926466
1.03926466
1.03926466
1.03926466
1.03926466
1.03926466
1.03926466
1.03926466
1.03926466
1.03926466
1.03926466
1.03926466
1.03926466
1.03926466
1.03926466
1.03926466
1.03926466
1.03926466
1.03926466
1.03926466
1.03926466
1.03926466
1.03926466
1.03926466
1.03926466
1.03926466
1.03926466
1.03926466
1.03926466
1.03926466
1.03926466
1.03926466
1.03926466
1.03926466
1.03926466
1.03926466
1.03926466
1.03926466
1.03926466
1.03926466
1.03926466
1.03926466
1.03926466
1.03926466
1.03926466
1.03926466
1.03926466
1.03926466
1.03926466
1.03926466
1.03926466
1.03926466
1.03926466
1.03926466
1.03926466
1.03926466
1.03926466
1.03926466
1.03926466
1.03926466
1.03926466
1.03926466
1.03926466
1.03926466
1.03926466
1.03926466
1.03926466
1.03926466
1.03926466
1.03926466
1.03926466
1.03926466
1.03926466
1.03926466
1.03926466
1.03926466
1.03926466
1.03926466
1.03926466
1.03926466
1.03926466
1.03926466
1.03926466
1.03926466
1.03926466
1.03926466
1.03926466
1.03926466
1.03926466
1.03926466
1.03926466
1.03926466
1.03926466
1.03926466
1.03926466
1.03926466
1.03926466
1.03926466
1.03926466
1.03926466
1.03926466
1.03926466
1.03926466
1.03926466
1.03926466
1.03926466
1.03926466
1.03926466
1.03926466
1.03926466
1.03926466
1.03926466
1.03926466
1.03926466
1.03926466
1.03926466
1.03926466
1.03926466
1.03926466
1.03926466
1.03926466
1.03926466
1.03926466
1.03926466
1.03926466
1.03926466
1.03926466
1.03926466
1.03926466
1.03926466
1.03926466
1.03926466
1.03926466
1.03926466
1.03926466
1.03926466
1.03926466
1.03926466
1.03926466
1.03926466
1.03926466
1.03926466
1.03926466
1.03926466
1.03926466
1.03926466
1.03926466
1.03926466
1.03926466
1.03926466
1.03926466
1.03926466
1.03926466
1.03926466
1.03926466
1.03926466
1.03926466
1.03926466
1.03926466
1.03926466
1.03926466
1.03926466
1.03926466
1.03926466
1.03926466
1.03926466
1.03926466
1.03926466
1.03926466
1.03926466
1.03926466
1.03926466
1.03926466
1.03926466
1.03926466
1.03926466
1.03926466
1.03926466
1.03926466
1.03926466
1.03926466
1.03926466
1.03926466
1.03926466
1.03926466
1.03926466
1.03926466
1.03926466
1.03926466
1.03926466
1.03926466
1.03926466
1.03926466
1.03926466
1.03926466
1.03926466
1.03926466
1.03926466
1.03926466
1.03926466
1.03926466
1.03926466
1.03926466
1.03926466
1.03926466
1.03926466
1.03926466
1.03926466
1.03926466
1.03926466
1.03926466
1.03926466
1.03926466
1.03926466
1.03926466
1.03926466
1.03926466
1.03926466
1.03926466
1.03926466
1.03926466
1.03926466
1.03926466
1.03926466
1.03926466
1.03926466
1.03926466
1.03926466
1.03926466
1.03926466
1.03926466
1.03926466
1.03926466
1.03926466
1.03926466
1.03926466
1.03926466
1.03926466
1.03926466
1.03926466
1.03926466
1.03926466
1.03926466
1.03926466
1.03926466
1.03926466
1.03926466
1.03926466
1.03926466
1.03926466
1.03926466
1.03926466
1.03926466
1.03926466
1.03926466
1.03926466
1.03926466
1.03926466
1.03926466
1.03926466
1.03926466
1.03926466
1.03926466
1.03926466
1.03926466
1.03926466
1.03926466
1.03926466
1.03926466
1.03926466
1.03926466
1.03926466
1.03926466
1.03926466
1.03926466
1.03926466
1.03926466
1.03926466
1.03926466
1.03926466
1.03926466
1.03926466
1.03926466
1.03926466
1.03926466
1.03926466
1.03926466
1.03926466
1.03926466
1.03926466
1.03926466
1.03926466
1.03926466
1.03926466
1.03926466
1.03926466
1.03926466
1.03926466
1.03926466
1.03926466
1.03926466
1.03926466
1.03926466
1.03926466
1.03926466
1.03926466
1.03926466
1.03926466
1.03926466
1.03926466
1.03926466
1.03926466
1.03926466
1.03926466
1.03926466
1.03926466
1.03926466
1.03926466
1.03926466
1.03926466
1.03926466
1.03926466
1.03926466
1.03926466
1.03926466
1.03926466
1.03926466
1.03926466
1.03926466
1.03926466
1.03926465
1.03926465
1.03926465
1.03926465
1.03926465
1.03926465
1.03926465
1.03926465
1.03926465
1.03926465
1.03926465
1.03926465
1.03926465
1.03926465
1.03926465
1.03926464
1.03926464
1.03926464
1.03926464
1.03926464
1.03926464
1.03926464
1.03926464
1.03926464
1.03926463
1.03926463
1.03926463
1.03926463
1.03926463
1.03926463
1.03926462
1.03926462
1.03926462
1.03926462
1.03926461
1.03926461
1.03926461
1.03926461
1.0392646
1.0392646
1.0392646
1.03926459
1.03926459
1.03926459
1.03926458
1.03926458
1.03926457
1.03926457
1.03926457
1.03926456
1.03926456
1.03926455
1.03926454
1.03926454
1.03926453
1.03926453
1.03926452
1.03926451
1.0392645
1.0392645
1.03926449
1.03926448
1.03926447
1.03926446
1.03926445
1.03926444
1.03926443
1.03926442
1.03926441
1.03926439
1.03926438
1.03926437
1.03926435
1.03926434
1.03926432
1.03926431
1.03926429
1.03926427
1.03926425
1.03926423
1.03926421
1.03926419
1.03926417
1.03926415
1.03926413
1.0392641
1.03926407
1.03926405
1.03926402
1.03926399
1.03926396
1.03926393
1.03926389
1.03926386
1.03926382
1.03926379
1.03926375
1.03926371
1.03926366
1.03926362
1.03926357
1.03926353
1.03926348
1.03926342
1.03926337
1.03926332
1.03926326
1.0392632
1.03926313
1.03926307
1.039263
1.03926293
1.03926286
1.03926278
1.0392627
1.03926262
1.03926253
1.03926245
1.03926235
1.03926226
1.03926216
1.03926206
1.03926195
1.03926184
1.03926173
1.03926161
1.03926149
1.03926136
1.03926123
1.03926109
1.03926095
1.0392608
1.03926065
1.0392605
1.03926033
1.03926017
1.03925999
1.03925981
1.03925963
1.03925943
1.03925923
1.03925903
1.03925882
1.0392586
1.03925837
1.03925814
1.0392579
1.03925765
1.03925739
1.03925712
1.03925685
1.03925656
1.03925627
1.03925597
1.03925566
1.03925534
1.03925501
1.03925467
1.03925432
1.03925395
1.03925358
1.0392532
1.0392528
1.0392524
1.03925198
1.03925155
1.0392511
1.03925065
1.03925018
1.0392497
1.0392492
1.03924869
1.03924817
1.03924763
1.03924708
1.03924651
1.03924593
1.03924533
1.03924471
1.03924408
1.03924343
1.03924277
1.03924209
1.03924139
1.03924068
1.03923994
1.03923919
1.03923842
1.03923763
1.03923682
1.039236
1.03923515
1.03923428
1.0392334
1.03923249
1.03923156
1.03923061
1.03922964
1.03922865
1.03922764
1.0392266
1.03922554
1.03922446
1.03922336
1.03922223
1.03922109
1.03921991
1.03921872
1.0392175
1.03921626
1.03921499
1.0392137
1.03921238
1.03921104
1.03920968
1.03920829
1.03920688
1.03920544
1.03920397
1.03920248
1.03920097
1.03919943
1.03919787
1.03919628
1.03919466
1.03919302
1.03919136
1.03918967
1.03918795
1.03918621
1.03918444
1.03918265
1.03918084
1.039179
1.03917714
1.03917525
1.03917334
1.0391714
1.03916944
1.03916746
1.03916546
1.03916343
1.03916138
1.03915931
1.03915722
1.0391551
1.03915297
1.03915081
1.03914864
1.03914645
1.03914423
1.039142
1.03913975
1.03913749
1.0391352
1.03913291
1.03913059
1.03912826
1.03912592
1.03912356
1.03912119
1.03911881
1.03911642
1.03911402
1.0391116
1.03910918
1.03910675
1.03910431
1.03910187
1.03909942
1.03909697
1.03909451
1.03909205
1.03908959
1.03908713
1.03908466
1.0390822
1.03907974
1.03907728
1.03907483
1.03907238
1.03906994
1.03906751
1.03906508
1.03906266
1.03906025
1.03905786
1.03905547
1.0390531
1.03905075
1.03904841
1.03904608
1.03904378
1.03904149
1.03903922
1.03903698
1.03903475
1.03903255
1.03903037
1.03902822
1.03902609
1.03902399
1.03902192
1.03901987
1.03901786
1.03901588
1.03901393
1.03901201
1.03901013
1.03900828
1.03900646
1.03900469
1.03900295
1.03900124
1.03899958
1.03899795
1.03899637
1.03899483
1.03899332
1.03899186
1.03899044
1.03898907
1.03898774
1.03898645
1.03898521
1.03898402
1.03898287
1.03898176
1.03898071
1.03897969
1.03897873
1.03897781
1.03897695
1.03897612
1.03897535
1.03897463
1.03897395
1.03897332
1.03897274
1.03897221
1.03897172
1.03897128
1.03897089
1.03897055
1.03897026
1.03897001
1.03896981
1.03896965
1.03896955
1.03896948
1.03896947
1.03896949
1.03896957
1.03896968
1.03896984
1.03897004
1.03897029
1.03897057
1.0389709
1.03897126
1.03897167
1.03897211
1.03897259
1.03897311
1.03897367
1.03897426
1.03897489
1.03897554
1.03897624
1.03897696
1.03897772
1.0389785
1.03897932
1.03898016
1.03898103
1.03898193
1.03898285
1.03898379
1.03898476
1.03898576
1.03898677
1.0389878
1.03898886
1.03898993
1.03899102
1.03899212
1.03899324
1.03899438
1.03899553
1.03899669
1.03899787
1.03899905
1.03900024
1.03900145
1.03900266
1.03900387
1.0390051
1.03900633
1.03900756
1.0390088
1.03901004
1.03901128
1.03901252
1.03901376
1.039015
1.03901625
1.03901749
1.03901872
1.03901996
1.03902118
1.03902241
1.03902363
1.03902484
1.03902605
1.03902725
1.03902845
1.03902963
1.03903081
1.03903198
1.03903314
1.03903429
1.03903543
1.03903657
1.03903769
1.0390388
1.03903989
1.03904098
1.03904206
1.03904312
1.03904417
1.03904521
1.03904624
1.03904725
1.03904825
1.03904924
1.03905022
1.03905118
1.03905214
1.03905307
1.039054
1.03905491
1.03905581
1.0390567
1.03905757
1.03905843
1.03905928
1.03906011
1.03906094
1.03906175
1.03906255
1.03906333
1.03906411
1.03906487
1.03906562
1.03906636
1.03906709
1.03906781
1.03906851
1.03906921
1.03906989
1.03907057
1.03907123
1.03907188
1.03907253
1.03907316
1.03907379
1.03907441
1.03907501
1.03907561
1.0390762
1.03907678
1.03907736
1.03907792
1.03907848
1.03907903
1.03907957
1.03908011
1.03908064
1.03908116
1.03908168
1.03908219
1.03908269
1.03908319
1.03908368
1.03908417
1.03908465
1.03908512
1.03908559
1.03908605
1.03908651
1.03908697
1.03908742
1.03908786
1.0390883
1.03908874
1.03908917
1.0390896
1.03909003
1.03909045
1.03909086
1.03909127
1.03909168
1.03909209
1.03909249
1.03909289
1.03909328
1.03909367
1.03909406
1.03909444
1.03909482
1.0390952
1.03909557
1.03909594
1.03909631
1.03909667
1.03909703
1.03909739
1.03909774
1.03909809
1.03909844
1.03909879
1.03909913
1.03909946
1.0390998
1.03910013
1.03910046
1.03910078
1.0391011
1.03910142
1.03910174
1.03910205
1.03910236
1.03910266
1.03910297
1.03910326
1.03910356
1.03910385
1.03910414
1.03910443
1.03910471
1.03910499
1.03910526
1.03910553
1.0391058
1.03910607
1.03910633
1.03910659
1.03910685
1.0391071
1.03910735
1.0391076
1.03910785
1.03910809
1.03910833
1.03910856
1.0391088
1.03910903
1.03910925
1.03910948
1.0391097
1.03910992
1.03911014
1.03911035
1.03911057
1.03911078
1.03911098
1.03911119
1.03911139
1.0391116
1.0391118
1.039112
1.03911219
1.03911239
1.03911258
1.03911278
1.03911297
1.03911316
1.03911335
1.03911353
1.03911372
1.03911391
1.03911409
1.03911427
1.03911446
1.03911464
1.03911482
1.039115
1.03911519
1.03911537
1.03911555
1.03911573
1.03911591
1.03911609
1.03911627
1.03911645
1.03911663
1.03911681
1.039117
1.03911718
1.03911736
1.03911754
1.03911773
1.03911791
1.03911809
1.03911828
1.03911846
1.03911865
1.03911883
1.03911902
1.0391192
1.03911939
1.03911958
1.03911977
1.03911995
1.03912014
1.03912033
1.03912052
1.03912071
1.0391209
1.03912109
1.03912128
1.03912147
1.03912166
1.03912186
1.03912205
1.03912224
1.03912243
1.03912262
1.03912281
1.039123
1.03912319
1.03912338
1.03912357
1.03912376
1.03912395
1.03912414
1.03912433
1.03912451
1.0391247
1.03912488
1.03912507
1.03912525
1.03912543
1.03912562
1.0391258
1.03912598
1.03912615
1.03912633
1.03912651
1.03912668
1.03912685
1.03912702
1.03912719
1.03912736
1.03912753
1.03912769
1.03912786
1.03912802
1.03912818
1.03912834
1.0391285
1.03912865
1.03912881
1.03912896
1.03912911
1.03912926
1.03912941
1.03912955
1.0391297
1.03912984
1.03912998
1.03913012
1.03913026
1.03913039
1.03913053
1.03913066
1.03913079
1.03913092
1.03913105
1.03913118
1.03913131
1.03913143
1.03913156
1.03913168
1.0391318
1.03913192
1.03913204
1.03913215
1.03913227
1.03913239
1.0391325
1.03913261
1.03913273
1.03913284
1.03913295
1.03913306
1.03913317
1.03913328
1.03913339
1.03913349
1.0391336
1.0391337
1.03913381
1.03913391
1.03913402
1.03913412
1.03913423
1.03913433
1.03913443
1.03913453
1.03913463
1.03913474
1.03913484
1.03913494
1.03913504
1.03913514
1.03913524
1.03913534
1.03913544
1.03913555
1.03913565
1.03913575
1.03913585
1.03913595
1.03913606
1.03913616
1.03913626
1.03913637
1.03913647
1.03913658
1.03913668
1.03913679
1.0391369
1.03913701
1.03913712
1.03913723
1.03913735
1.03913746
1.03913758
1.0391377
1.03913782
1.03913794
1.03913807
1.03913819
1.03913832
1.03913846
1.03913859
1.03913873
1.03913888
1.03913902
1.03913917
1.03913933
1.03913949
1.03913965
1.03913982
1.03913999
1.03914017
1.03914035
1.03914054
1.03914074
1.03914094
1.03914115
1.03914137
1.03914159
1.03914182
1.03914206
1.03914231
1.03914256
1.03914283
1.0391431
1.03914339
1.03914368
1.03914398
1.0391443
1.03914462
1.03914496
1.03914531
1.03914567
1.03914604
1.03914642
1.03914682
1.03914723
1.03914765
1.03914808
1.03914853
1.03914899
1.03914947
1.03914996
1.03915046
1.03915097
1.0391515
1.03915205
1.0391526
1.03915317
1.03915375
1.03915435
1.03915495
1.03915557
1.0391562
1.03915684
1.03915749
1.03915816
1.03915883
1.03915951
1.0391602
1.03916089
1.0391616
1.0391623
1.03916302
1.03916373
1.03916445
1.03916518
1.0391659
1.03916663
1.03916735
1.03916807
1.03916879
1.03916951
1.03917022
1.03917093
1.03917163
1.03917232
1.039173
1.03917368
1.03917435
1.03917501
1.03917566
1.03917629
1.03917692
1.03917754
1.03917814
1.03917873
1.03917932
1.03917989
1.03918045
1.039181
1.03918154
1.03918207
1.03918259
1.0391831
1.03918361
1.03918411
1.0391846
1.03918509
1.03918557
1.03918605
1.03918653
1.039187
1.03918747
1.03918794
1.03918841
1.03918888
1.03918934
1.03918981
1.03919027
1.03919073
1.03919118
1.03919163
1.03919208
1.03919251
1.03919294
1.03919335
1.03919375
1.03919413
1.0391945
1.03919483
1.03919515
1.03919543
1.03919568
1.03919589
1.03919607
1.0391962
1.03919629
1.03919633
1.03919633
1.03919628
1.03919617
1.03919602
1.03919582
1.03919557
1.03919527
1.03919494
1.03919457
1.03919416
1.03919374
1.03919329
1.03919283
1.03919237
1.03919191
1.03919146
1.03919103
1.03919062
1.03919024
1.0391899
1.0391896
1.03918935
1.03918913
1.03918897
1.03918884
1.03918924
1.03918918
1.03920277
1.03920276
1.03950325
1.03950309
1.03873277
1.03867744
0.852538855
0.850954617
0.451981577
0.423955987
0.329259905
0.31978437
0.288430261
0.284937938
0.272270946
0.270995116
0.265812314
0.265420979
0.263615612
0.26352616
0.262997944
0.262981585
0.262844946
0.262842716
0.262811197
0.262811021
0.262804495
0.262804511
0.262803302
0.262803331
0.262803148
0.262803182
0.262803184
0.262803223
0.26280326
0.262803304
0.26280335
0.262803398
0.262803448
0.262803499
0.262803552
0.262803606
0.262803661
0.262803716
0.262803771
0.262803826
0.262803881
0.262803935
0.262803988
0.26280404
0.262804091
0.262804139
0.262804186