/*--------------------------------*- C++ -*----------------------------------*\
| =========                 |                                                 |
| \\      /  F ield         | OpenFOAM: The Open Source CFD Toolbox           |
|  \\    /   O peration     | Version:  2206                                  |
|   \\  /    A nd           | Website:  www.openfoam.com                      |
|    \\/     M anipulation  |                                                 |
\*---------------------------------------------------------------------------*/
FoamFile
{
    version     2.0;
    format      ascii;
    arch        "LSB;label=32;scalar=64";
    class       volScalarField;
    location    "1.94e-05";
    object      sourcePV;
}
// * * * * * * * * * * * * * * * * * * * * * * * * * * * * * * * * * * * * * //

dimensions      [1 -3 -1 0 0 0 0];

internalField   nonuniform List<scalar> 
3183
(
0
0
0
0
0
0
0
0
0
0
0
0
0
0
0
0
0
0
0
0
0
0
0
0
0
0
0
0
0
0
0
0
0
0
0
0
0
0
0
0
0
0
0
0
0
0
0
0
0
0
0
0
0
0
0
0
0
0
0
0
0
0
0
0
0
0
0
0
0
0
0
0
0
0
0
0
0
0
0
0
0
0
0
0
0
0
0
0
0
0
0
0
0
0
0
0
0
0
0
0
0
0
0
0
0
0
0
0
0
0
0
0
0
0
0
0
0
0
0
0
0
0
0
0
0
0
0
0
0
0
0
0
0
0
0
0
0
0
0
0
0
0
0
0
0
0
0
0
0
0
0
0
0
0
0
0
0
0
0
0
0
0
0
0
0
0
0
0
0
0
0
0
0
0
0
0
0
0
0
0
0
0
0
0
0
0
0
0
0
0
0
0
0
0
0
0
0
0
0
0
0
0
0
0
0
0
0
0
0
0
0
0
0
0
0
0
0
0
0
0
0
0
0
0
0
0
0
0
0
0
0
0
0
0
0
0
0
0
0
0
0
0
0
0
0
0
0
0
0
0
0
0
0
0
0
0
0
0
0
0
0
0
0
0
0
0
0
0
0
0
0
0
0
0
0
0
0
0
0
0
0
0
0
0
0
0
0
0
0
0
0
0
0
0
0
0
0
0
0
0
0
0
0
0
0
0
0
0
0
0
0
0
0
0
0
0
0
0
0
0
0
0
0
0
0
0
0
0
0
0
0
0
0
0
0
0
0
0
0
0
0
0
0
0
0
0
0
0
0
0
0
0
0
0
0
0
0
0
0
0
0
0
0
0
0
0
0
0
0
0
0
0
0
0
0
0
0
0
0
0
0
0
0
0
0
0
0
0
0
0
0
0
0
0
0
0
0
0
0
0
0
0
0
0
0
0
0
0
0
0
0
0
0
0
0
0
0
0
0
0
0
0
0
0
0
0
0
0
0
0
0
0
0
0
0
0
0
0
0
0
0
0
0
0
0
0
0
0
0
0
0
0
0
0
0
0
0
0
0
0
0
0
0
0
0
0
0
0
0
0
0
0
0
0
0
0
0
0
0
0
0
0
0
0
0
0
0
0
0
0
0
0
0
0
0
0
0
0
0
0
0
0
0
0
0
0
0
0
0
0
0
0
0
0
0
0
0
0
0
0
0
0
0
0
0
0
0
0
0
0
0
0
0
0
0
0
0
0
0
0
0
0
0
0
0
0
0
0
0
0
0
0
0
0
0
0
0
0
0
0
0
0
0
0
0
0
0
0
0
0
0
0
0
0
0
0
0
0
0
0
0
0
0
0
0
0
0
0
0
0
0
0
0
0
0
0
0
0
0
0
0
0
0
0
0
0
0
0
0
0
0
0
0
0
0
0
0
0
0
0
0
0
0
0
0
0
0
0
0
0
0
0
0
0
0
0
0
0
0
0
0
0
0
0
0
0
0
0
0
0
0
0
0
0
0
0
0
0
0
0
0
0
0
0
0
0
0
0
0
0
0
0
0
0
0
0
0
0
0
0
0
0
0
0
0
0
0
0
0
0
0
0
0
0
0
0
0
0
0
0
0
0
0
0
0
0
0
0
0
0
0
0
0
0
0
0
0
0
0
0
0
0
0
0
0
0
0
0
0
0
0
0
0
0
0
0
0
0
0
0
0
0
0
0
0
0
0
0
0
0
0
0
0
0
0
0
0
0
0
0
0
0
0
0
0
0
0
0
0
0
0
0
0
0
0
0
0
0
0
0
0
0
0
0
0
0
0
0
0
0
0
0
0
0
0
0
0
0
0
0
0
0
0
0
0
0
0
0
0
0
0
0
0
0
0
0
0
0
0
0
0
0
0
0
0
0
0
0
0
0
0
0
0
0
0
0
0
0
0
0
0
0
0
0
0
0
0
0
0
0
0
0
0
0
0
0
0
0
0
0
0
0
0
0
0
0
0
0
0
0
0
0
0
0
0
0
0
0
0
0
0
0
0
0
0
0
0
0
0
0
0
0
0
0
0
0
0
0
0
0
0
0
0
0
0
0
0
0
0
0
0
0
0
0
0
0
0
0
0
0
0
0
0
0
0
0
0
0
0
0
0
0
0
0
0
0
0
0
0
0
0
0
0
0
0
0
0
0
0
0
0
0
0
0
0
0
0
0
0
0
0
0
0
0
0
0
0
0
0
0
0
0
0
0
0
0
0
0
0
0
0
0
0
0
0
0
0
0
0
0
0
0
0
0
0
0
0
0
0
0
0
0
0
0
0
0
0
0
0
0
0
0
0
0
0
0
0
0
0
0
0
0
0
0
0
0
0
0
0
0
0
0
0
0
0
0
0
0
0
0
0
0
0
0
0
0
0
0
0
0
0
0
0
0
0
0
0
0
0
0
0
0
0
0
0
0
0
0
0
0
0
0
0
0
0
0
0
0
0
0
0
0
0
0
0
0
0
0
0
0
0
0
0
0
0
0
0
0
0
0
0
0
0
0
0
0
0
0
0
0
0
0
0
0
0
0
0
0
0
0
0
0
0
0
0
0
0
0
0
0
0
0
0
0
0
0
0
0
0
0
0
0
0
0
0
0
0
0
0
0
0
0
0
0
0
0
0
0
0
0
0
0
0
0
0
0
0
0
0
0
0
0
0
0
0
0
0
0
0
0
0
0
0
0
0
0
0
0
0
0
0
0
0
0
0
0
0
0
0
0
0
0
0
0
0
0
0
0
0
0
0
0
0
0
0
0
0
0
0
0
0
0
0
0
0
0
0
0
0
0
0
0
0
0
0
0
0
0
0
0
0
0
0
0
0
0
0
0
0
0
0
0
0
0
0
0
0
0
0
0
0
0
0
0
0
0
0
0
0
0
0
0
0
0
0
0
0
0
0
0
0
0
0
0
0
0
0
0
0
0
0
0
0
0
0
0
0
0
0
0
0
0
0
0
0
0
0
0
0
0
0
0
0
0
0
0
0
0
0
0
0
0
0
0
0
0
0
0
0
0
0
0
0
0
0
0
0
0
0
0
0
0
0
0
0
0
0
0
0
0
0
0
0
0
0
0
0
0
0
0
0
0
0
0
0
0
0
0
0
0
0
0
0
0
0
0
0
0
0
0
0
0
0
0
0
0
0
0
0
0
0
0
0
0
0
0
0
0
0
0
0
0
0
0
0
0
0
0
0
0
0
0
0
0
0
0
0
0
0
0
0
0
0
0
0
0
0
0
0
0
0
0
0
0
0
0
0
0
0
0
0
0
0
0
0
0
0
0
0
0
0
0
0
0
0
0
0
0
0
0
0
0
0
0
0
0
0
0
0
0
0
0
0
0
0
0
0
0
0
0
0
0
0
0
0
0
0
0
0
0
0
0
0
0
0
0
0
0
0
0
0
0
0
0
0
0
0
0
0
0
0
0
0
0
0
0
0
0
0
0
0
0
0
0
0
0
0
0
0
0
0
0
0
0
0
0
0
0
0
0
0
0
0
0
0
0
0
0
0
0
0
0
0
0
0
0
0
0
0
0
0
0
0
0
0
0
0
0
0
0
0
0
0
0
0
0
0
0
0
0
0
0
0
0
0
0
0
0
0
0
0
0
0
0
0
0
0
0
0
0
0
0
0
0
0
0
0
0
0
0
0
0
0
0
0
0
0
0
0
0
0
0
0
0
0
0
0
0
0
0
0
0
0
0
0
0
0
0
0
0
0
0
0
0
0
0
0
0
0
0
0
0
0
0
0
0
0
0
0
0
0
0
0
0
0
0
0
0
0
0
0
0
0
0
0
0
0
0
0
0
0
0
0
0
0
0
0
0
0
0
0
0
0
0
0
0
0
0
0
0
0
0
0
0
0
0
0
0
0
0
0
0
0
0
0
0
0
0
0
0
0
0
0
0
0
0
0
0
0
0
0
0
0
0
0
0
0
0
0
0
0
0
0
0
0
0
0
0
0
0
0
0
0
0
0
0
0
0
0
0
0
0
0
0
0
0
0
0
0
0
0
0
0
0
0
0
0
0
0
0
0
0
0
0
0
0
0
0
0
0
0
0
0
0
0
0
0
0
0
0
0
0
0
0
0
0
0
0
0
0
0
0
0
0
0
0
0
0
0
0
0
0
0
0
0
0
0
0
0
0
0
0
0
0
0
0
0
0
0
0
0
0
0
0
0
0
0
0
0
0
0
0
0
0
0
0
0
0
0
0
0
0
0
0
0
0
0
0
0
0
0
0
0
0
0
0
0
0
0
0
0
0
0
0
0
0
0
0
0
0
0
0
0
0
0
0
0
0
0
0
0
0
0
0
0
0
0
0
0
0
0
0
0
0
0
0
0
0
0
0
0
0
0
0
0
0
0
0
0
0
0
0
0
0
0
0
0
0
0
0
0
0
0
0
0
0
0
0
0
0
0
0
0
0
0
0
0
0
0
0
0
0
0
0
0
0
0
0
0
0
0
0
0
0
0
0
0
0
0
0
0
0
0
0
0
0
0
0
0
0
0
0
0
0
0
0
0
0
0
0
0
0
0
0
0
0
0
0
0
0
0
0
0
0
0
0
0
0
0
0
0
0
0
0
0
0
0
0
0
0
0
0
0
0
0
0
0
0
0
0
0
0
0
0
0
0
0
0
0
0
0
0
0
0
0
0
0
0
0
0
0
0
0
0
0
0
0
0
0
0
0
0
0
0
0
0
0
0
0
0
0
0
0
0
0
0
0
0
0
0
0
0
0
0
0
0
0
0
0
0
0
0
0
0
0
0
0
0
0
0
0
0
0
0
0
0
0
0
0
0
0
0
0
0
0
0
0
0
0
0
0
0
0
0
0
0
0
0
0
0
0
0
0
0
0
0
0
0
0
0
0
0
0
0
0
0
0
0
0
0
0
0
0
0
0
0
0
0
0
0
0
0
0
0
0
0
0
0
0
0
0
0
0
0
0
0
0
0
0
0
0
0
0
0
0
0
0
0
0
0
0
0
0
0
0
0
0
0
0
0
0
0
0
0
0
0
0
0
0
0
0
0
0
0
0
0
0
0
0
0
0
0
0
0
0
0
0
0
0
0
0
0
0
0
0
0
0
0
0
0
0
0
0
0
0
0
0
0
0
0
0
0
0
0
0
0
0
0
0
0
0
0
0
0
0
0
0
0
0
0
0
0
0
0
0
0
0
0
0
0
0
0
0
0
0
0
0
0
0
0
0
0
0
0
0
0
0
0
0
0
0
0
0
0
0
0
0
0
0
0
0
0
0
0
0
0
0
0
0
0
0
0
0
0
0
0
0
0
0
0
0
0
0
0
0
0
0
0
0
0
0
0
0
1.93184424e-299
1.10898887e-299
9.11746948e-297
5.27415218e-297
4.26716292e-294
2.48725426e-294
1.98042265e-291
1.16311171e-291
9.11424911e-289
5.39321343e-289
4.15928201e-286
2.47964492e-286
1.88208805e-283
1.13041257e-283
8.44451573e-281
5.10951846e-281
3.75674269e-278
2.28985493e-278
1.6570598e-275
1.01743751e-275
7.24673824e-273
4.48197984e-273
3.14204018e-270
1.95741482e-270
1.35061709e-267
8.47465505e-268
5.75559369e-265
3.63743966e-265
2.431481e-262
1.54769251e-262
1.01826173e-259
6.52680582e-260
4.2270765e-257
2.72907124e-257
1.73938892e-254
1.13103679e-254
7.09434604e-252
4.64675284e-252
2.86793744e-249
1.89158545e-249
1.14908076e-246
7.63154072e-247
4.56285122e-244
3.05133439e-244
1.79559168e-241
1.20903667e-241
7.00235877e-239
4.74724146e-239
2.70598839e-236
1.84703335e-236
1.0361697e-233
7.1206294e-234
3.93130837e-231
2.71988283e-231
1.47782066e-228
1.02931275e-228
5.50378093e-226
3.85910204e-226
2.0306306e-223
1.43331793e-223
7.42174275e-221
5.2734031e-221
2.68695277e-218
1.92178825e-218
9.63532728e-216
6.93680252e-216
3.42213765e-213
2.47984526e-213
1.20371706e-210
8.77955697e-211
4.19293121e-208
3.07803649e-208
1.44626188e-205
1.06855649e-205
4.93947205e-203
3.67292604e-203
1.67026746e-200
1.24992874e-200
5.59151969e-198
4.2109786e-198
1.85300856e-195
1.40433516e-195
6.07845182e-193
4.63567073e-193
1.97351135e-190
1.51450746e-190
6.34131436e-188
4.89676229e-188
2.01638112e-185
1.56670019e-185
6.34423172e-183
4.95976666e-183
1.97495224e-180
1.55343445e-180
6.08221816e-178
4.81323907e-178
1.85289362e-175
1.4751962e-175
5.58310576e-173
4.47181193e-173
1.66375868e-170
1.34057357e-170
4.9028043e-168
3.973942e-168
1.42852385e-165
1.16472887e-165
4.11496718e-163
3.37479613e-163
1.1717275e-160
9.66573217e-161
3.29770478e-158
2.73608581e-158
9.17198643e-156
7.65373922e-156
2.52069925e-153
2.11546472e-153
6.8441897e-151
5.77647798e-151
1.83569937e-148
1.55804661e-148
4.86286697e-146
4.1504022e-146
1.27211059e-143
1.09174772e-143
3.28569137e-141
2.83533355e-141
8.37766829e-139
7.26876191e-139
2.10831887e-136
1.83913237e-136
5.23582896e-134
4.59177549e-134
1.2828822e-131
1.13104307e-131
3.10065293e-129
2.74802644e-129
7.39084327e-127
6.58438031e-127
1.73706096e-124
1.55548727e-124
4.02455888e-122
3.6222384e-122
9.18970439e-120
8.31273661e-120
2.06756137e-117
1.8795788e-117
4.58224109e-115
4.18615355e-115
1.00010217e-112
9.18103467e-113
2.1490022e-110
1.98229654e-110
4.5449506e-108
4.21230101e-108
9.45778215e-106
8.80666481e-106
1.93588339e-103
1.81094904e-103
3.89631666e-101
3.66149614e-101
7.70837719e-99
7.27639843e-99
1.49846439e-96
1.42075907e-96
2.86113172e-94
2.72460203e-94
5.363669e-92
5.12965876e-92
9.86812052e-90
9.47745157e-90
1.78098888e-87
1.71758182e-87
3.1516481e-85
3.05183057e-85
5.46572974e-83
5.31377524e-83
9.28462807e-81
9.06182018e-81
1.54399409e-78
1.51269841e-78
2.51209525e-76
2.47031462e-76
3.99636393e-74
3.9439702e-74
6.2121897e-72
6.15163428e-72
9.4290756e-70
9.36574367e-70
1.39640868e-67
1.39042152e-67
2.01617229e-65
2.00947074e-65
2.83560148e-63
2.81082045e-63
3.88132771e-61
3.86339768e-61
5.16484981e-59
5.01962482e-59
6.67622391e-57
6.66912492e-57
8.36848204e-55
8.34698826e-55
1.01655796e-52
1.01258588e-52
1.19482552e-50
1.190053e-50
1.3568284e-48
1.3531911e-48
1.48627472e-46
1.48449286e-46
1.56773325e-44
1.56507573e-44
1.58934494e-42
1.58207743e-42
1.54531708e-40
1.53429726e-40
1.43759729e-38
1.42449366e-38
1.27625325e-36
1.26302004e-36
1.0780506e-34
1.06637318e-34
8.6358398e-33
8.54498918e-33
6.53581125e-31
6.47452302e-31
4.65323168e-29
4.62060141e-29
3.10106426e-27
3.09792085e-27
1.92326014e-25
1.91685495e-25
1.1027013e-23
1.09695694e-23
5.79659205e-22
5.76366931e-22
2.76615934e-20
2.75369314e-20
1.1837128e-18
1.18044538e-18
4.47243624e-17
4.46360294e-17
1.46211658e-15
1.45921853e-15
4.02355628e-14
4.01929926e-14
8.95944828e-13
8.95104175e-13
2.34275736e-11
2.35794326e-11
2.65361989e-08
2.77055415e-08
0.0395236844
0.170273002
6.05134597
7.52585633
9.8045206
9.18221592
4.2589603
3.58046413
0.941899337
0.777394432
0.196253983
0.174647064
0.0471053032
0.043150276
0.0101548345
0.00961212099
0.00199763657
0.00195028895
0.000369362758
0.000367646659
6.93627955e-05
6.93784434e-05
1.75614672e-05
1.75626853e-05
9.19851845e-06
9.19874682e-06
7.93642097e-06
7.93662352e-06
7.75772988e-06
7.75773875e-06
7.73381444e-06
7.73382144e-06
7.7307827e-06
7.7308035e-06
7.73041266e-06
7.73043548e-06
7.73038871e-06
7.7303694e-06
7.73039158e-06
7.73035997e-06
7.73038823e-06
7.73036668e-06
7.73037757e-06
7.73037508e-06
7.73038995e-06
7.73036968e-06
7.73038461e-06
7.73038108e-06
7.73038347e-06
7.7303827e-06
7.73038942e-06
7.73038585e-06
7.73038424e-06
7.73038062e-06
7.73038468e-06
7.73038316e-06
7.73037602e-06
7.73039265e-06
7.73037598e-06
7.73038737e-06
7.73036987e-06
7.73038138e-06
7.73037313e-06
7.73038123e-06
7.7303708e-06
7.73037746e-06
7.73036527e-06
7.7303886e-06
7.73036248e-06
7.73039026e-06
7.7303657e-06
7.73037986e-06
7.73037229e-06
7.73038399e-06
7.73036755e-06
7.73039591e-06
7.73035686e-06
7.73039516e-06
7.73037502e-06
7.73039356e-06
7.73037365e-06
7.73037472e-06
7.73038088e-06
7.73037123e-06
7.73038389e-06
7.73037369e-06
7.7303773e-06
7.73036604e-06
7.73038668e-06
7.73036693e-06
7.73040113e-06
7.73036031e-06
7.7303909e-06
7.73037108e-06
7.73039768e-06
7.73036908e-06
7.73038999e-06
7.73037012e-06
7.73038193e-06
7.73037812e-06
7.73038922e-06
7.73036976e-06
7.73038858e-06
7.73037735e-06
7.73037204e-06
7.73038457e-06
7.73037527e-06
7.73038194e-06
7.7303879e-06
7.730373e-06
7.73038755e-06
7.73037115e-06
7.73037582e-06
7.73037457e-06
7.73037424e-06
7.73038242e-06
7.73035861e-06
7.73038998e-06
7.73037e-06
7.73039162e-06
7.7303704e-06
7.73039267e-06
7.73037026e-06
7.73038453e-06
7.73037541e-06
7.73038565e-06
7.73037087e-06
7.73039238e-06
7.73036736e-06
7.73039807e-06
7.73037321e-06
7.73039134e-06
7.73038123e-06
7.73039422e-06
7.73038703e-06
7.73039177e-06
7.73037275e-06
7.73039032e-06
7.73037453e-06
7.73037818e-06
7.73037456e-06
7.73037516e-06
7.73037174e-06
7.73038519e-06
7.73036185e-06
7.73038229e-06
7.7303678e-06
7.7303803e-06
7.730375e-06
7.73037072e-06
7.7303936e-06
7.73036012e-06
7.73038636e-06
7.73036649e-06
7.73039702e-06
7.73037113e-06
7.73038726e-06
7.73036935e-06
7.73039449e-06
7.73036176e-06
7.7303972e-06
7.73036894e-06
7.73040074e-06
7.73037638e-06
7.73040097e-06
7.73037327e-06
7.73038781e-06
7.73037671e-06
7.73037914e-06
7.73037049e-06
7.73037917e-06
7.73037515e-06
7.73036845e-06
7.73039576e-06
7.73037723e-06
7.73046766e-06
7.73047814e-06
7.73091384e-06
7.73096109e-06
7.73226494e-06
7.73224968e-06
7.73091764e-06
7.73091262e-06
7.73047032e-06
7.73045532e-06
7.73039585e-06
7.73038736e-06
7.7303848e-06
7.73038565e-06
7.73037521e-06
7.73038726e-06
7.73037709e-06
7.7303968e-06
7.73037634e-06
7.7303887e-06
7.73037147e-06
7.73038476e-06
7.73037579e-06
7.73039154e-06
7.7303688e-06
7.73039326e-06
7.73037396e-06
7.73040408e-06
7.7303761e-06
7.73039452e-06
7.73037091e-06
7.73039408e-06
7.73037579e-06
7.73039318e-06
7.73037605e-06
7.73038413e-06
7.73037876e-06
7.73038137e-06
7.73037869e-06
7.73038752e-06
7.73038408e-06
7.73037513e-06
7.73039034e-06
7.73038421e-06
7.73039514e-06
7.73037911e-06
7.73039122e-06
7.73038308e-06
7.73039793e-06
7.73038907e-06
7.73037746e-06
7.73039411e-06
7.73037143e-06
7.7303999e-06
7.7303747e-06
7.73038846e-06
7.73038562e-06
7.73039095e-06
7.73038405e-06
7.73038788e-06
7.73038986e-06
7.73038303e-06
7.73039514e-06
7.73038402e-06
7.7303893e-06
7.73039249e-06
7.73040057e-06
7.73037174e-06
7.73040296e-06
7.73037169e-06
7.73039634e-06
7.73038201e-06
7.73038775e-06
7.73038208e-06
7.73037357e-06
7.73039114e-06
7.73039166e-06
7.73037768e-06
7.73038736e-06
7.73038699e-06
7.73038419e-06
7.73037897e-06
7.73038901e-06
7.73038344e-06
7.73039915e-06
7.7303857e-06
7.73039838e-06
7.73038981e-06
7.73038016e-06
7.73039691e-06
7.73036668e-06
7.73039478e-06
7.73036918e-06
7.73038461e-06
7.73037556e-06
7.7304026e-06
7.73037387e-06
7.73039087e-06
7.73038098e-06
7.7303834e-06
7.73039069e-06
7.7303803e-06
7.73038269e-06
7.73038074e-06
7.73038409e-06
7.73038175e-06
7.73038411e-06
7.73038538e-06
7.73038929e-06
7.73038413e-06
7.73037545e-06
7.73038408e-06
7.73039105e-06
7.73038189e-06
7.73039019e-06
7.73038713e-06
7.73038536e-06
7.73039344e-06
7.7303732e-06
7.73038323e-06
7.73038573e-06
7.73037799e-06
7.73039169e-06
7.73039225e-06
7.73039661e-06
7.73038702e-06
7.73039105e-06
7.73039213e-06
7.7303923e-06
7.73038566e-06
7.73039176e-06
7.73038393e-06
7.73038372e-06
7.7303785e-06
7.73039192e-06
7.73036714e-06
7.73038956e-06
7.73037178e-06
7.73039076e-06
7.73038868e-06
7.73038737e-06
7.73039164e-06
7.73037242e-06
7.73040393e-06
7.73037185e-06
7.73039976e-06
7.73036758e-06
7.73040154e-06
7.73037724e-06
7.73039728e-06
7.73038344e-06
7.73039397e-06
7.73038226e-06
7.73039562e-06
7.73038051e-06
7.73040065e-06
7.73038301e-06
7.73038206e-06
7.73038954e-06
7.73039076e-06
7.73038371e-06
7.73038754e-06
7.73039984e-06
7.73038404e-06
7.73038733e-06
7.73039521e-06
7.73039746e-06
7.73038485e-06
7.7303922e-06
7.73039521e-06
7.7303811e-06
7.73039232e-06
7.73038162e-06
7.73040006e-06
7.7303839e-06
7.73038817e-06
7.73039492e-06
7.73038784e-06
7.73038249e-06
7.73038054e-06
7.7303848e-06
7.7303932e-06
7.73038616e-06
7.73039697e-06
7.73038434e-06
7.73039516e-06
7.73038577e-06
7.73039051e-06
7.73039064e-06
7.73039235e-06
7.73038211e-06
7.73039506e-06
7.73039402e-06
7.73040421e-06
7.73038517e-06
7.73039416e-06
7.73039177e-06
7.73039316e-06
7.73039216e-06
7.73040771e-06
7.73038652e-06
7.73039794e-06
7.73038681e-06
7.73040275e-06
7.73038723e-06
7.73039868e-06
7.73039114e-06
7.7304026e-06
7.73038509e-06
7.73039828e-06
7.73038974e-06
7.73038566e-06
7.73039676e-06
7.73038139e-06
7.73039629e-06
7.73038039e-06
7.73039031e-06
7.73038402e-06
7.73039054e-06
7.7303968e-06
7.73039527e-06
7.73038263e-06
7.73039687e-06
7.73039382e-06
7.73039622e-06
7.73039606e-06
7.7303901e-06
7.73038261e-06
7.73040106e-06
7.73037172e-06
7.73040093e-06
7.73037918e-06
7.7304001e-06
7.73038788e-06
7.73039192e-06
7.7303991e-06
7.73038478e-06
7.7304063e-06
7.73038121e-06
7.73039381e-06
7.7303913e-06
7.73038539e-06
7.73040107e-06
7.73039341e-06
7.73040191e-06
7.73039337e-06
7.73039729e-06
7.73039016e-06
7.73040891e-06
7.73039183e-06
7.73040697e-06
7.73039345e-06
7.73039872e-06
7.73039426e-06
7.73039459e-06
7.73039083e-06
7.73039476e-06
7.73039976e-06
7.73039464e-06
7.73040842e-06
7.73039371e-06
7.73040149e-06
7.73039268e-06
7.73039602e-06
7.730401e-06
7.73039569e-06
7.73040173e-06
7.73038836e-06
7.73039721e-06
7.73039753e-06
7.7304083e-06
7.73039346e-06
7.73039687e-06
7.73039653e-06
7.73039865e-06
7.7303939e-06
7.73039751e-06
7.73039202e-06
7.7303847e-06
7.73038801e-06
7.73039128e-06
7.73039768e-06
7.7303924e-06
7.73038983e-06
7.73040319e-06
7.73039549e-06
7.73040233e-06
7.73038038e-06
7.73040868e-06
7.7303859e-06
7.73040996e-06
7.73039564e-06
7.73040279e-06
7.73040086e-06
7.73039892e-06
7.73039226e-06
7.73040063e-06
7.73039382e-06
7.73038985e-06
7.73039774e-06
7.7303958e-06
7.73039454e-06
7.73040588e-06
7.73039093e-06
7.73040123e-06
7.73038978e-06
7.73039498e-06
7.7303954e-06
7.73040008e-06
7.73038982e-06
7.73039573e-06
7.73039604e-06
7.73038516e-06
7.7304061e-06
7.73038161e-06
7.73040928e-06
7.73039098e-06
7.73040994e-06
7.73039013e-06
7.7304158e-06
7.73038341e-06
7.73041299e-06
7.73038864e-06
7.73039584e-06
7.73040061e-06
7.73039467e-06
7.73039853e-06
7.73039832e-06
7.73040647e-06
7.73039661e-06
7.73038474e-06
7.73040447e-06
7.73039554e-06
7.73039978e-06
7.73040078e-06
7.73039805e-06
7.73039232e-06
7.73039805e-06
7.73039614e-06
7.73040028e-06
7.73039534e-06
7.73040148e-06
7.73040052e-06
7.73039734e-06
7.73039727e-06
7.73039934e-06
7.73040026e-06
7.73040044e-06
7.73039805e-06
7.73040145e-06
7.73039883e-06
7.73040026e-06
7.73040058e-06
7.7304018e-06
7.7304007e-06
7.73040171e-06
7.73040292e-06
7.73040316e-06
7.73040273e-06
7.73040401e-06
7.73040477e-06
7.73040444e-06
7.73040553e-06
7.73040619e-06
7.73040762e-06
7.73040804e-06
7.73040884e-06
7.73041001e-06
7.73041073e-06
7.73041202e-06
7.73041362e-06
7.73041522e-06
7.73041613e-06
7.73041844e-06
7.7304204e-06
7.73042271e-06
7.73042536e-06
7.73042839e-06
7.73043223e-06
7.73043658e-06
7.7304412e-06
7.73044562e-06
7.73044958e-06
7.73045312e-06
7.73045575e-06
7.73045675e-06
7.7304577e-06
7.73045791e-06
7.73045782e-06
7.73045809e-06
7.73045813e-06
7.73045796e-06
7.73045822e-06
7.73045792e-06
7.73045792e-06
7.73045791e-06
7.73045794e-06
7.73045789e-06
7.73045784e-06
7.73045794e-06
7.73045795e-06
7.73045773e-06
7.73045822e-06
)
;

boundaryField
{
    closed
    {
        type            calculated;
        value           uniform 0;
    }
    open
    {
        type            calculated;
        value           uniform 0;
    }
    sides
    {
        type            empty;
    }
}


// ************************************************************************* //
