/*--------------------------------*- C++ -*----------------------------------*\
| =========                 |                                                 |
| \\      /  F ield         | OpenFOAM: The Open Source CFD Toolbox           |
|  \\    /   O peration     | Version:  2206                                  |
|   \\  /    A nd           | Website:  www.openfoam.com                      |
|    \\/     M anipulation  |                                                 |
\*---------------------------------------------------------------------------*/
FoamFile
{
    version     2.0;
    format      ascii;
    arch        "LSB;label=32;scalar=64";
    class       volVectorField;
    location    "1.94e-05";
    object      U;
}
// * * * * * * * * * * * * * * * * * * * * * * * * * * * * * * * * * * * * * //

dimensions      [0 1 -1 0 0 0 0];

internalField   nonuniform List<vector> 
3183
(
(5.92421254e-13 0 0)
(3.17132174e-13 0 0)
(-4.37974758e-13 0 0)
(-5.785988e-13 0 0)
(-2.05749277e-13 0 0)
(-1.73580219e-17 0 0)
(-1.28691037e-18 0 0)
(-1.3788029e-22 0 0)
(2.06948449e-19 0 0)
(5.21531945e-18 0 0)
(7.69908801e-14 0 0)
(3.86934216e-13 0 0)
(8.67677513e-13 0 0)
(3.88572986e-13 0 0)
(2.3765099e-13 0 0)
(-4.78321106e-14 0 0)
(-5.06942076e-13 0 0)
(-8.02085236e-13 0 0)
(-1.13903423e-12 0 0)
(-3.83310228e-13 0 0)
(3.59988448e-13 0 0)
(9.51068316e-14 0 0)
(1.78705695e-13 0 0)
(5.6925606e-13 0 0)
(7.910817e-13 0 0)
(1.04638823e-12 0 0)
(7.98166941e-13 0 0)
(4.87528463e-13 0 0)
(2.07529825e-13 0 0)
(1.94505671e-13 0 0)
(4.92567686e-16 0 0)
(7.41114352e-14 0 0)
(-3.58175712e-13 0 0)
(-6.89091976e-13 0 0)
(-9.00205334e-13 0 0)
(-1.00931651e-12 0 0)
(-9.53554097e-13 0 0)
(-7.54838339e-13 0 0)
(-6.65420079e-13 0 0)
(-5.37104345e-13 0 0)
(-1.03851468e-13 0 0)
(3.7498687e-13 0 0)
(8.54666881e-13 0 0)
(8.15122162e-13 0 0)
(1.07851565e-12 0 0)
(1.03143288e-12 0 0)
(2.50305802e-13 0 0)
(-3.58214738e-13 0 0)
(-9.65406932e-13 0 0)
(-1.47732691e-12 0 0)
(-2.18496805e-12 0 0)
(-2.65413693e-12 0 0)
(-3.79273155e-12 0 0)
(-4.05391425e-12 0 0)
(-4.51381436e-12 0 0)
(-4.95839044e-12 0 0)
(-5.40666718e-12 0 0)
(-5.68903e-12 0 0)
(-6.01088355e-12 0 0)
(-6.02647218e-12 0 0)
(-6.37417664e-12 0 0)
(-7.14977104e-12 0 0)
(-6.87124699e-12 0 0)
(-7.73137129e-12 0 0)
(-7.46851933e-12 0 0)
(-8.13874217e-12 0 0)
(-8.46819275e-12 0 0)
(-8.49124496e-12 0 0)
(-8.80680576e-12 0 0)
(-9.42282967e-12 0 0)
(-9.66447489e-12 0 0)
(-9.68613226e-12 0 0)
(-9.34527774e-12 0 0)
(-1.00688868e-11 0 0)
(-1.08623124e-11 0 0)
(-1.03787442e-11 0 0)
(-1.08175901e-11 0 0)
(-1.03640709e-11 0 0)
(-1.04839218e-11 0 0)
(-1.09028321e-11 0 0)
(-1.18615446e-11 0 0)
(-1.043049e-11 0 0)
(-1.06931852e-11 0 0)
(-1.13998065e-11 0 0)
(-1.10473397e-11 0 0)
(-1.08432049e-11 0 0)
(-1.07146228e-11 0 0)
(-1.13286182e-11 0 0)
(-1.01662948e-11 0 0)
(-1.10396571e-11 0 0)
(-1.16035685e-11 0 0)
(-1.16276588e-11 0 0)
(-1.15971416e-11 0 0)
(-1.17105654e-11 0 0)
(-1.19172943e-11 0 0)
(-1.25748057e-11 0 0)
(-1.10633722e-11 0 0)
(-1.23432174e-11 0 0)
(-1.18281801e-11 0 0)
(-1.25275768e-11 0 0)
(-1.16378192e-11 0 0)
(-1.27937692e-11 0 0)
(-1.24300093e-11 0 0)
(-1.23837443e-11 0 0)
(-1.16421375e-11 0 0)
(-1.2848079e-11 0 0)
(-1.30689207e-11 0 0)
(-1.29200574e-11 0 0)
(-1.35343408e-11 0 0)
(-1.32562705e-11 0 0)
(-1.20490526e-11 0 0)
(-1.22281463e-11 0 0)
(-1.19938945e-11 0 0)
(-1.33818292e-11 0 0)
(-1.20088016e-11 0 0)
(-1.29474192e-11 0 0)
(-1.34993044e-11 0 0)
(-1.20784664e-11 0 0)
(-1.25445755e-11 0 0)
(-1.3561114e-11 0 0)
(-1.35754418e-11 0 0)
(-1.24771382e-11 0 0)
(-1.24257066e-11 0 0)
(-1.37041742e-11 0 0)
(-1.41483526e-11 0 0)
(-1.50631409e-11 0 0)
(-1.46164065e-11 0 0)
(-1.55683819e-11 0 0)
(-1.39753115e-11 0 0)
(-1.48395887e-11 0 0)
(-1.530514e-11 0 0)
(-1.45506498e-11 0 0)
(-1.54625883e-11 0 0)
(-1.62146649e-11 0 0)
(-1.41846877e-11 0 0)
(-1.52700778e-11 0 0)
(-1.58936239e-11 0 0)
(-1.55361449e-11 0 0)
(-1.52855289e-11 0 0)
(-1.49785019e-11 0 0)
(-1.55853962e-11 0 0)
(-1.64384235e-11 0 0)
(-1.7224223e-11 0 0)
(-1.60671635e-11 0 0)
(-1.51294189e-11 0 0)
(-1.6353328e-11 0 0)
(-1.54843071e-11 0 0)
(-1.66242506e-11 0 0)
(-1.55786223e-11 0 0)
(-1.56684611e-11 0 0)
(-1.61238019e-11 0 0)
(-1.59211312e-11 0 0)
(-1.66232147e-11 0 0)
(-1.62325897e-11 0 0)
(-1.56664024e-11 0 0)
(-1.51160254e-11 0 0)
(-1.58775636e-11 0 0)
(-1.58623868e-11 0 0)
(-1.5823928e-11 0 0)
(-1.5953662e-11 0 0)
(-1.48798173e-11 0 0)
(-1.54111666e-11 0 0)
(-1.53537449e-11 0 0)
(-1.56171925e-11 0 0)
(-1.5810551e-11 0 0)
(-1.54183859e-11 0 0)
(-1.52052582e-11 0 0)
(-1.54331557e-11 0 0)
(-1.54294049e-11 0 0)
(-1.56513216e-11 0 0)
(-1.57214928e-11 0 0)
(-1.49178204e-11 0 0)
(-1.60637332e-11 0 0)
(-1.58588956e-11 0 0)
(-1.51177245e-11 0 0)
(-1.58144852e-11 0 0)
(-1.60402381e-11 0 0)
(-1.45826479e-11 0 0)
(-1.58809942e-11 0 0)
(-1.69282896e-11 0 0)
(-1.5192224e-11 0 0)
(-1.55224155e-11 0 0)
(-1.59419552e-11 0 0)
(-1.63095447e-11 0 0)
(-1.73491751e-11 0 0)
(-1.77719222e-11 0 0)
(-1.62245411e-11 0 0)
(-1.6281294e-11 0 0)
(-1.683188e-11 0 0)
(-1.55787459e-11 0 0)
(-1.71059844e-11 0 0)
(-1.74352131e-11 0 0)
(-1.74968213e-11 0 0)
(-1.73825867e-11 0 0)
(-1.74914968e-11 0 0)
(-1.72342491e-11 0 0)
(-1.72436e-11 0 0)
(-1.75290177e-11 0 0)
(-1.72300212e-11 0 0)
(-1.80771405e-11 0 0)
(-1.78916718e-11 0 0)
(-1.79159119e-11 0 0)
(-1.83168972e-11 0 0)
(-1.75372728e-11 0 0)
(-1.76745914e-11 0 0)
(-1.75696506e-11 0 0)
(-1.73702024e-11 0 0)
(-1.84072101e-11 0 0)
(-1.83871869e-11 0 0)
(-1.81248712e-11 0 0)
(-1.76560646e-11 0 0)
(-1.91788146e-11 0 0)
(-1.90130089e-11 0 0)
(-1.8448569e-11 0 0)
(-1.88804934e-11 0 0)
(-1.92874834e-11 0 0)
(-1.92799626e-11 0 0)
(-1.8609246e-11 0 0)
(-1.88821171e-11 0 0)
(-1.857964e-11 0 0)
(-1.95079301e-11 0 0)
(-1.90788487e-11 0 0)
(-1.9939901e-11 0 0)
(-1.90358885e-11 0 0)
(-1.87227092e-11 0 0)
(-1.96121186e-11 0 0)
(-1.91082731e-11 0 0)
(-1.88671239e-11 0 0)
(-1.90526131e-11 0 0)
(-1.86921498e-11 0 0)
(-1.90429287e-11 0 0)
(-1.96885333e-11 0 0)
(-1.88065836e-11 0 0)
(-1.98240769e-11 0 0)
(-1.85631922e-11 0 0)
(-1.8528536e-11 0 0)
(-1.8040241e-11 0 0)
(-1.84472592e-11 0 0)
(-1.83238247e-11 0 0)
(-1.84387352e-11 0 0)
(-1.88247865e-11 0 0)
(-1.82367996e-11 0 0)
(-1.90923674e-11 0 0)
(-1.81310297e-11 0 0)
(-1.98580712e-11 0 0)
(-1.92831779e-11 0 0)
(-1.74695687e-11 0 0)
(-1.91153214e-11 0 0)
(-1.75459344e-11 0 0)
(-1.91846145e-11 0 0)
(-1.8935606e-11 0 0)
(-1.77168371e-11 0 0)
(-1.88465835e-11 0 0)
(-1.88052348e-11 0 0)
(-1.75976914e-11 0 0)
(-1.83315481e-11 0 0)
(-1.8219555e-11 0 0)
(-1.82558239e-11 0 0)
(-1.82767981e-11 0 0)
(-1.89903698e-11 0 0)
(-1.83479592e-11 0 0)
(-1.89437158e-11 0 0)
(-1.87078727e-11 0 0)
(-1.88555813e-11 0 0)
(-1.82685968e-11 0 0)
(-1.95454278e-11 0 0)
(-1.84586103e-11 0 0)
(-1.92598423e-11 0 0)
(-1.92646552e-11 0 0)
(-1.7601088e-11 0 0)
(-1.8604668e-11 0 0)
(-1.8396256e-11 0 0)
(-1.8703044e-11 0 0)
(-1.8931236e-11 0 0)
(-1.86104195e-11 0 0)
(-1.81791749e-11 0 0)
(-1.8518502e-11 0 0)
(-1.95121999e-11 0 0)
(-1.87201803e-11 0 0)
(-1.83387782e-11 0 0)
(-1.95398798e-11 0 0)
(-1.85025389e-11 0 0)
(-1.95361614e-11 0 0)
(-2.03001869e-11 0 0)
(-1.90578126e-11 0 0)
(-1.91603687e-11 0 0)
(-1.88444003e-11 0 0)
(-2.01856169e-11 0 0)
(-2.00851708e-11 0 0)
(-1.97746418e-11 0 0)
(-2.03665536e-11 0 0)
(-2.0293674e-11 0 0)
(-2.0668174e-11 0 0)
(-1.97876726e-11 0 0)
(-2.03207307e-11 0 0)
(-2.07461497e-11 0 0)
(-2.1100652e-11 0 0)
(-2.17624239e-11 0 0)
(-2.06010355e-11 0 0)
(-2.1764639e-11 0 0)
(-2.07686031e-11 0 0)
(-2.03874936e-11 0 0)
(-2.07457165e-11 0 0)
(-2.12416857e-11 0 0)
(-2.19181024e-11 0 0)
(-2.13708768e-11 0 0)
(-2.08119282e-11 0 0)
(-2.11432493e-11 0 0)
(-2.21412202e-11 0 0)
(-2.20811896e-11 0 0)
(-2.24120593e-11 0 0)
(-2.23609831e-11 0 0)
(-2.12919047e-11 0 0)
(-2.30285885e-11 0 0)
(-2.20735567e-11 0 0)
(-2.35446253e-11 0 0)
(-2.19491874e-11 0 0)
(-2.34725966e-11 0 0)
(-2.2372914e-11 0 0)
(-2.17221427e-11 0 0)
(-2.22725188e-11 0 0)
(-2.20119336e-11 0 0)
(-2.27551192e-11 0 0)
(-2.17416591e-11 0 0)
(-2.17795717e-11 0 0)
(-2.19723178e-11 0 0)
(-2.18854209e-11 0 0)
(-2.21230916e-11 0 0)
(-2.1381352e-11 0 0)
(-2.1358793e-11 0 0)
(-2.11974965e-11 0 0)
(-2.15317032e-11 0 0)
(-2.1591289e-11 0 0)
(-2.0712441e-11 0 0)
(-2.07414974e-11 0 0)
(-2.01537545e-11 0 0)
(-2.04751833e-11 0 0)
(-2.04319372e-11 0 0)
(-2.07030861e-11 0 0)
(-2.11566086e-11 0 0)
(-2.05958295e-11 0 0)
(-2.06811314e-11 0 0)
(-2.02550127e-11 0 0)
(-1.96746981e-11 0 0)
(-1.96166746e-11 0 0)
(-1.99298928e-11 0 0)
(-1.97740363e-11 0 0)
(-1.92773878e-11 0 0)
(-2.02642056e-11 0 0)
(-1.99918983e-11 0 0)
(-2.04459096e-11 0 0)
(-1.97425113e-11 0 0)
(-2.04850194e-11 0 0)
(-2.02831473e-11 0 0)
(-1.97745502e-11 0 0)
(-1.94391225e-11 0 0)
(-2.03966766e-11 0 0)
(-1.99348538e-11 0 0)
(-1.94889406e-11 0 0)
(-1.87935989e-11 0 0)
(-1.96921983e-11 0 0)
(-2.06630542e-11 0 0)
(-2.01888566e-11 0 0)
(-1.98033195e-11 0 0)
(-1.892913e-11 0 0)
(-1.98463034e-11 0 0)
(-1.9478577e-11 0 0)
(-1.9846689e-11 0 0)
(-1.89395577e-11 0 0)
(-1.94616894e-11 0 0)
(-1.90217565e-11 0 0)
(-1.86040412e-11 0 0)
(-1.91174292e-11 0 0)
(-1.87158255e-11 0 0)
(-1.94249906e-11 0 0)
(-1.96743361e-11 0 0)
(-1.92928093e-11 0 0)
(-1.92695681e-11 0 0)
(-1.92757565e-11 0 0)
(-2.07560353e-11 0 0)
(-1.91221414e-11 0 0)
(-1.88249904e-11 0 0)
(-1.90099352e-11 0 0)
(-1.87877357e-11 0 0)
(-1.88084876e-11 0 0)
(-1.92244719e-11 0 0)
(-1.8645046e-11 0 0)
(-1.91532065e-11 0 0)
(-1.89029179e-11 0 0)
(-1.80291818e-11 0 0)
(-1.83846219e-11 0 0)
(-1.76061164e-11 0 0)
(-1.85023352e-11 0 0)
(-1.85373214e-11 0 0)
(-1.77920021e-11 0 0)
(-1.82718062e-11 0 0)
(-1.82169686e-11 0 0)
(-1.74405505e-11 0 0)
(-1.80608343e-11 0 0)
(-1.74451516e-11 0 0)
(-1.78523736e-11 0 0)
(-1.85863855e-11 0 0)
(-1.64325756e-11 0 0)
(-1.7708818e-11 0 0)
(-1.65869965e-11 0 0)
(-1.63976563e-11 0 0)
(-1.66725461e-11 0 0)
(-1.64156115e-11 0 0)
(-1.63890745e-11 0 0)
(-1.64649963e-11 0 0)
(-1.61124874e-11 0 0)
(-1.53767709e-11 0 0)
(-1.48885425e-11 0 0)
(-1.36872376e-11 0 0)
(-1.64343349e-11 0 0)
(-1.56964551e-11 0 0)
(-1.56163678e-11 0 0)
(-1.49224809e-11 0 0)
(-1.50607983e-11 0 0)
(-1.61799121e-11 0 0)
(-1.47059589e-11 0 0)
(-1.55586978e-11 0 0)
(-1.49796258e-11 0 0)
(-1.45040587e-11 0 0)
(-1.49598623e-11 0 0)
(-1.57803745e-11 0 0)
(-1.46404127e-11 0 0)
(-1.44571556e-11 0 0)
(-1.47902474e-11 0 0)
(-1.44769701e-11 0 0)
(-1.47869258e-11 0 0)
(-1.48997807e-11 0 0)
(-1.48990423e-11 0 0)
(-1.43678078e-11 0 0)
(-1.34424651e-11 0 0)
(-1.47828408e-11 0 0)
(-1.53260335e-11 0 0)
(-1.36343396e-11 0 0)
(-1.33792638e-11 0 0)
(-1.41223542e-11 0 0)
(-1.30615822e-11 0 0)
(-1.40337896e-11 0 0)
(-1.33640376e-11 0 0)
(-1.46495874e-11 0 0)
(-1.38596031e-11 0 0)
(-1.43238095e-11 0 0)
(-1.42279509e-11 0 0)
(-1.44922246e-11 0 0)
(-1.43525323e-11 0 0)
(-1.32164819e-11 0 0)
(-1.45129014e-11 0 0)
(-1.40547839e-11 0 0)
(-1.36661142e-11 0 0)
(-1.41372571e-11 0 0)
(-1.28508726e-11 0 0)
(-1.27469523e-11 0 0)
(-1.31198605e-11 0 0)
(-1.19403979e-11 0 0)
(-1.29350678e-11 0 0)
(-1.26351114e-11 0 0)
(-1.18120837e-11 0 0)
(-1.1136672e-11 0 0)
(-1.13048258e-11 0 0)
(-1.15710725e-11 0 0)
(-1.06650855e-11 0 0)
(-1.17559671e-11 0 0)
(-9.91244063e-12 0 0)
(-9.70853939e-12 0 0)
(-9.83600112e-12 0 0)
(-1.04474552e-11 0 0)
(-1.09301974e-11 0 0)
(-9.79344982e-12 0 0)
(-1.04195794e-11 0 0)
(-1.06208954e-11 0 0)
(-1.01398406e-11 0 0)
(-1.07706107e-11 0 0)
(-1.10922463e-11 0 0)
(-1.06690899e-11 0 0)
(-1.02322497e-11 0 0)
(-1.05061345e-11 0 0)
(-1.03141153e-11 0 0)
(-1.07225382e-11 0 0)
(-1.03757624e-11 0 0)
(-1.06049286e-11 0 0)
(-9.79383049e-12 0 0)
(-1.006083e-11 0 0)
(-1.05516154e-11 0 0)
(-9.26048377e-12 0 0)
(-8.66108686e-12 0 0)
(-9.12661025e-12 0 0)
(-9.51542038e-12 0 0)
(-9.14383339e-12 0 0)
(-9.56676344e-12 0 0)
(-9.93373938e-12 0 0)
(-9.93693223e-12 0 0)
(-9.15626629e-12 0 0)
(-9.41552012e-12 0 0)
(-8.94423735e-12 0 0)
(-9.65361162e-12 0 0)
(-8.98504078e-12 0 0)
(-1.02063173e-11 0 0)
(-1.00548304e-11 0 0)
(-9.57663973e-12 0 0)
(-9.7073089e-12 0 0)
(-9.17158793e-12 0 0)
(-9.68524596e-12 0 0)
(-9.99701077e-12 0 0)
(-8.61659618e-12 0 0)
(-9.91698859e-12 0 0)
(-8.4203414e-12 0 0)
(-9.55090724e-12 0 0)
(-1.02783148e-11 0 0)
(-9.63103229e-12 0 0)
(-8.9721889e-12 0 0)
(-9.25577102e-12 0 0)
(-9.0039827e-12 0 0)
(-9.03368561e-12 0 0)
(-8.1337736e-12 0 0)
(-8.21164882e-12 0 0)
(-8.3993347e-12 0 0)
(-8.54067781e-12 0 0)
(-9.09976103e-12 0 0)
(-7.20206055e-12 0 0)
(-8.16551607e-12 0 0)
(-8.08101704e-12 0 0)
(-8.23340662e-12 0 0)
(-8.06308751e-12 0 0)
(-8.10113814e-12 0 0)
(-7.55881288e-12 0 0)
(-8.37857421e-12 0 0)
(-8.84569511e-12 0 0)
(-7.4355999e-12 0 0)
(-8.34234895e-12 0 0)
(-8.8308767e-12 0 0)
(-8.18258192e-12 0 0)
(-7.05684591e-12 0 0)
(-6.93070323e-12 0 0)
(-7.5032234e-12 0 0)
(-7.2842009e-12 0 0)
(-6.63558337e-12 0 0)
(-6.46110334e-12 0 0)
(-6.72914045e-12 0 0)
(-6.29058783e-12 0 0)
(-6.6041737e-12 0 0)
(-6.21017687e-12 0 0)
(-4.92032266e-12 0 0)
(-5.38320999e-12 0 0)
(-4.89829529e-12 0 0)
(-4.82728195e-12 0 0)
(-4.3924527e-12 0 0)
(-4.96897488e-12 0 0)
(-4.54439121e-12 0 0)
(-4.65944478e-12 0 0)
(-3.93050183e-12 0 0)
(-4.2324163e-12 0 0)
(-3.66018291e-12 0 0)
(-2.59396937e-12 0 0)
(-2.89991049e-12 0 0)
(-4.24550261e-12 0 0)
(-3.74141807e-12 0 0)
(-3.31515619e-12 0 0)
(-4.40616463e-12 0 0)
(-4.09892678e-12 0 0)
(-3.90153476e-12 0 0)
(-3.94584253e-12 0 0)
(-2.56971185e-12 0 0)
(-3.04648668e-12 0 0)
(-3.26039225e-12 0 0)
(-3.58771568e-12 0 0)
(-2.80355233e-12 0 0)
(-4.17628836e-12 0 0)
(-3.59127268e-12 0 0)
(-2.49327968e-12 0 0)
(-2.62950841e-12 0 0)
(-2.4837839e-12 0 0)
(-1.90651552e-12 0 0)
(-3.93067472e-12 0 0)
(-2.38804742e-12 0 0)
(-3.11796863e-12 0 0)
(-2.64840953e-12 0 0)
(-4.16238686e-12 0 0)
(-2.53615367e-12 0 0)
(-1.7433953e-12 0 0)
(-2.42668213e-12 0 0)
(-2.96568851e-12 0 0)
(-1.34599891e-12 0 0)
(-1.92607967e-12 0 0)
(-2.50902457e-12 0 0)
(-1.69718687e-12 0 0)
(-2.23733151e-12 0 0)
(-1.6729255e-12 0 0)
(-1.34684286e-12 0 0)
(-2.38933587e-12 0 0)
(-2.01128939e-12 0 0)
(-1.74827872e-12 0 0)
(-2.81292709e-12 0 0)
(-1.42431967e-12 0 0)
(-1.38673236e-12 0 0)
(-1.08279522e-12 0 0)
(-1.50360637e-13 0 0)
(-1.30382234e-12 0 0)
(-9.97422661e-13 0 0)
(-6.55515078e-13 0 0)
(-1.19112895e-12 0 0)
(1.34695904e-13 0 0)
(-4.86134726e-13 0 0)
(-1.14956971e-12 0 0)
(-8.87797765e-13 0 0)
(-2.1933843e-12 0 0)
(-1.95370872e-12 0 0)
(-1.43419405e-12 0 0)
(-1.24588614e-12 0 0)
(-1.06205567e-13 0 0)
(-7.08900557e-13 0 0)
(-1.1446132e-12 0 0)
(-5.83826815e-13 0 0)
(1.51873767e-13 0 0)
(3.0083541e-13 0 0)
(-3.88966423e-13 0 0)
(1.14156536e-12 0 0)
(4.1112247e-13 0 0)
(1.15706894e-12 0 0)
(1.18104734e-12 0 0)
(1.04012015e-12 0 0)
(2.25230354e-12 0 0)
(9.8997018e-13 0 0)
(1.81845808e-12 0 0)
(2.03114248e-12 0 0)
(1.86734858e-12 0 0)
(2.82138856e-12 0 0)
(1.99646824e-12 0 0)
(2.56777256e-12 0 0)
(2.1394432e-12 0 0)
(2.33394365e-12 0 0)
(2.45561549e-12 0 0)
(2.27572121e-12 0 0)
(2.47824861e-12 0 0)
(3.15090316e-12 0 0)
(2.24554836e-12 0 0)
(3.06858722e-12 0 0)
(2.77105044e-12 0 0)
(2.55098454e-12 0 0)
(2.57124905e-12 0 0)
(2.89397893e-12 0 0)
(2.75490223e-12 0 0)
(1.89180432e-12 0 0)
(2.55716011e-12 0 0)
(2.1965172e-12 0 0)
(2.382004e-12 0 0)
(2.51339953e-12 0 0)
(3.25843312e-12 0 0)
(2.79175065e-12 0 0)
(2.62998184e-12 0 0)
(3.16975636e-12 0 0)
(3.2343174e-12 0 0)
(3.14676469e-12 0 0)
(2.67535924e-12 0 0)
(2.76550203e-12 0 0)
(2.85198522e-12 0 0)
(1.58227339e-12 0 0)
(2.42514504e-12 0 0)
(3.41950802e-12 0 0)
(2.47592652e-12 0 0)
(2.63474488e-12 0 0)
(3.15947995e-12 0 0)
(2.66265218e-12 0 0)
(2.63718187e-12 0 0)
(3.40149919e-12 0 0)
(3.22962973e-12 0 0)
(1.79772869e-12 0 0)
(3.22298822e-12 0 0)
(1.49788199e-12 0 0)
(2.17438484e-12 0 0)
(2.53194798e-12 0 0)
(1.22127909e-12 0 0)
(2.62492058e-12 0 0)
(2.06091956e-12 0 0)
(2.61921639e-12 0 0)
(1.73123847e-12 0 0)
(2.05490822e-12 0 0)
(2.2201319e-12 0 0)
(2.56310748e-12 0 0)
(2.05786662e-12 0 0)
(3.61251276e-12 0 0)
(2.84574775e-12 0 0)
(3.07445868e-12 0 0)
(2.60418486e-12 0 0)
(3.75337499e-12 0 0)
(2.69416005e-12 0 0)
(3.66632938e-12 0 0)
(4.04393631e-12 0 0)
(4.71966521e-12 0 0)
(2.94781555e-12 0 0)
(4.57568116e-12 0 0)
(4.66942156e-12 0 0)
(4.61417272e-12 0 0)
(3.01690874e-12 0 0)
(3.45374427e-12 0 0)
(4.71830522e-12 0 0)
(5.43564078e-12 0 0)
(4.85410196e-12 0 0)
(4.10998408e-12 0 0)
(4.33964186e-12 0 0)
(4.51719724e-12 0 0)
(4.64200209e-12 0 0)
(4.56911807e-12 0 0)
(5.09101031e-12 0 0)
(5.23649065e-12 0 0)
(4.22196033e-12 0 0)
(5.0424539e-12 0 0)
(4.13836432e-12 0 0)
(4.64855784e-12 0 0)
(4.4806576e-12 0 0)
(5.08640011e-12 0 0)
(5.17645844e-12 0 0)
(4.60040859e-12 0 0)
(4.78978124e-12 0 0)
(4.72889074e-12 0 0)
(5.00661144e-12 0 0)
(4.85810184e-12 0 0)
(5.62677931e-12 0 0)
(3.93671772e-12 0 0)
(5.73671894e-12 0 0)
(4.58462882e-12 0 0)
(5.07427145e-12 0 0)
(4.57910531e-12 0 0)
(4.6545041e-12 0 0)
(4.86303044e-12 0 0)
(4.18486225e-12 0 0)
(5.22559806e-12 0 0)
(5.6423508e-12 0 0)
(5.13089686e-12 0 0)
(5.97826854e-12 0 0)
(4.61070688e-12 0 0)
(5.37184517e-12 0 0)
(6.07089442e-12 0 0)
(4.99033399e-12 0 0)
(4.81193315e-12 0 0)
(5.42713676e-12 0 0)
(6.60161686e-12 0 0)
(5.44498138e-12 0 0)
(5.03360604e-12 0 0)
(4.87060485e-12 0 0)
(5.15734113e-12 0 0)
(5.50710877e-12 0 0)
(4.78598352e-12 0 0)
(6.08292866e-12 0 0)
(5.50696171e-12 0 0)
(6.43974858e-12 0 0)
(5.94399381e-12 0 0)
(5.96429283e-12 0 0)
(6.2129859e-12 0 0)
(6.07370669e-12 0 0)
(5.6968645e-12 0 0)
(6.67442833e-12 0 0)
(5.07911265e-12 0 0)
(5.6670015e-12 0 0)
(5.11054361e-12 0 0)
(5.83900567e-12 0 0)
(5.70152477e-12 0 0)
(5.06239298e-12 0 0)
(5.791023e-12 0 0)
(5.10619111e-12 0 0)
(5.73330172e-12 0 0)
(5.41523162e-12 0 0)
(6.22947195e-12 0 0)
(5.86629151e-12 0 0)
(6.12084034e-12 0 0)
(7.48304646e-12 0 0)
(5.84940675e-12 0 0)
(5.97252192e-12 0 0)
(6.27061058e-12 0 0)
(6.1325944e-12 0 0)
(6.32738403e-12 0 0)
(6.42068224e-12 0 0)
(7.16927085e-12 0 0)
(7.01764081e-12 0 0)
(5.96221297e-12 0 0)
(6.71000969e-12 0 0)
(6.9564084e-12 0 0)
(6.7571941e-12 0 0)
(7.32289694e-12 0 0)
(8.11469219e-12 0 0)
(6.8371817e-12 0 0)
(7.41025934e-12 0 0)
(7.32088503e-12 0 0)
(7.1198906e-12 0 0)
(6.53862743e-12 0 0)
(6.59535065e-12 0 0)
(6.58371569e-12 0 0)
(7.15987574e-12 0 0)
(6.68570732e-12 0 0)
(6.99199969e-12 0 0)
(6.47503391e-12 0 0)
(6.44518005e-12 0 0)
(6.74296808e-12 0 0)
(6.08960258e-12 0 0)
(6.95150202e-12 0 0)
(5.35361261e-12 0 0)
(5.82741713e-12 0 0)
(5.18924974e-12 0 0)
(6.34393132e-12 0 0)
(6.24180435e-12 0 0)
(5.6973235e-12 0 0)
(6.9829458e-12 0 0)
(6.99912978e-12 0 0)
(6.59934765e-12 0 0)
(6.65685285e-12 0 0)
(6.80592685e-12 0 0)
(7.03381507e-12 0 0)
(7.21281011e-12 0 0)
(6.82537748e-12 0 0)
(6.07410105e-12 0 0)
(8.0692951e-12 0 0)
(6.16355831e-12 0 0)
(6.57337093e-12 0 0)
(7.93659757e-12 0 0)
(6.32618589e-12 0 0)
(6.09634202e-12 0 0)
(6.56564873e-12 0 0)
(5.63272706e-12 0 0)
(6.01455368e-12 0 0)
(7.34694345e-12 0 0)
(6.51766972e-12 0 0)
(7.01499563e-12 0 0)
(6.56149139e-12 0 0)
(6.67999516e-12 0 0)
(6.4365768e-12 0 0)
(6.77624413e-12 0 0)
(7.19402195e-12 0 0)
(7.13349726e-12 0 0)
(6.93259755e-12 0 0)
(7.05348414e-12 0 0)
(6.84469782e-12 0 0)
(7.16276065e-12 0 0)
(7.20470645e-12 0 0)
(7.92343469e-12 0 0)
(6.83789975e-12 0 0)
(7.62780272e-12 0 0)
(7.67506493e-12 0 0)
(7.35164634e-12 0 0)
(6.7778219e-12 0 0)
(8.25359039e-12 0 0)
(7.24640816e-12 0 0)
(7.13758973e-12 0 0)
(7.50126919e-12 0 0)
(8.20277959e-12 0 0)
(7.29945227e-12 0 0)
(8.20454229e-12 0 0)
(7.31358775e-12 0 0)
(8.22048378e-12 0 0)
(8.13767548e-12 0 0)
(8.98699003e-12 0 0)
(8.35327595e-12 0 0)
(8.749506e-12 0 0)
(7.91496394e-12 0 0)
(8.01585429e-12 0 0)
(7.62794191e-12 0 0)
(8.39177489e-12 0 0)
(7.76144595e-12 0 0)
(7.33320719e-12 0 0)
(8.08620405e-12 0 0)
(7.33467926e-12 0 0)
(8.29912397e-12 0 0)
(7.84866622e-12 0 0)
(8.0529405e-12 0 0)
(8.482201e-12 0 0)
(8.12296441e-12 0 0)
(7.88828327e-12 0 0)
(9.30929503e-12 0 0)
(9.23962454e-12 0 0)
(6.99266454e-12 0 0)
(8.56075351e-12 0 0)
(8.85185909e-12 0 0)
(9.24744991e-12 0 0)
(7.77933789e-12 0 0)
(8.19859121e-12 0 0)
(8.63367469e-12 0 0)
(9.24247765e-12 0 0)
(8.32551089e-12 0 0)
(7.66627185e-12 0 0)
(9.11991603e-12 0 0)
(9.22543679e-12 0 0)
(9.06370961e-12 0 0)
(8.70907255e-12 0 0)
(9.0858042e-12 0 0)
(9.34969261e-12 0 0)
(9.61707238e-12 0 0)
(1.01033848e-11 0 0)
(8.99031952e-12 0 0)
(9.94675475e-12 0 0)
(1.0643905e-11 0 0)
(1.01477521e-11 0 0)
(1.03227673e-11 0 0)
(9.0348178e-12 0 0)
(1.00398993e-11 0 0)
(9.33635256e-12 0 0)
(1.04829345e-11 0 0)
(9.92657622e-12 0 0)
(9.40677256e-12 0 0)
(8.83615139e-12 0 0)
(8.338795e-12 0 0)
(9.00996276e-12 0 0)
(9.36748066e-12 0 0)
(9.37361618e-12 0 0)
(1.00404724e-11 0 0)
(8.74237399e-12 0 0)
(8.69936134e-12 0 0)
(9.14074582e-12 0 0)
(9.51376337e-12 0 0)
(9.76476092e-12 0 0)
(9.31808804e-12 0 0)
(9.44813634e-12 0 0)
(8.94219671e-12 0 0)
(9.50375289e-12 0 0)
(8.89606722e-12 0 0)
(9.8623039e-12 0 0)
(9.23472363e-12 0 0)
(1.02082759e-11 0 0)
(1.01518631e-11 0 0)
(1.05353744e-11 0 0)
(1.02899035e-11 0 0)
(1.0345249e-11 0 0)
(1.07165292e-11 0 0)
(1.14619569e-11 0 0)
(1.04157911e-11 0 0)
(1.09308943e-11 0 0)
(1.05706928e-11 0 0)
(9.49575623e-12 0 0)
(1.09375448e-11 0 0)
(9.818294e-12 0 0)
(9.692724e-12 0 0)
(1.01905444e-11 0 0)
(1.02741334e-11 0 0)
(1.05349335e-11 0 0)
(9.87707028e-12 0 0)
(9.81488828e-12 0 0)
(1.07610689e-11 0 0)
(1.09864153e-11 0 0)
(1.03548335e-11 0 0)
(1.00134293e-11 0 0)
(1.01466915e-11 0 0)
(1.08308769e-11 0 0)
(9.77998778e-12 0 0)
(8.64054529e-12 0 0)
(9.42599789e-12 0 0)
(9.50874082e-12 0 0)
(9.26495368e-12 0 0)
(9.71482188e-12 0 0)
(9.65051771e-12 0 0)
(9.78640038e-12 0 0)
(9.98124628e-12 0 0)
(9.56255508e-12 0 0)
(9.588005e-12 0 0)
(9.56754555e-12 0 0)
(9.45231866e-12 0 0)
(9.78950614e-12 0 0)
(1.01200245e-11 0 0)
(8.53769163e-12 0 0)
(9.96424805e-12 0 0)
(1.03083411e-11 0 0)
(1.0742836e-11 0 0)
(9.86443916e-12 0 0)
(1.05517462e-11 0 0)
(1.03077259e-11 0 0)
(9.47984626e-12 0 0)
(1.07034517e-11 0 0)
(9.71328039e-12 0 0)
(1.09723578e-11 0 0)
(1.06731699e-11 0 0)
(9.22988131e-12 0 0)
(1.04902196e-11 0 0)
(1.04174375e-11 0 0)
(1.03538068e-11 0 0)
(1.00983923e-11 0 0)
(9.9742528e-12 0 0)
(1.02934952e-11 0 0)
(9.43188459e-12 0 0)
(9.61934064e-12 0 0)
(9.82439433e-12 0 0)
(1.05656374e-11 0 0)
(1.00700765e-11 0 0)
(9.43971379e-12 0 0)
(9.57014052e-12 0 0)
(9.51465312e-12 0 0)
(9.77307939e-12 0 0)
(8.95450022e-12 0 0)
(8.42849951e-12 0 0)
(9.37541821e-12 0 0)
(8.82280797e-12 0 0)
(9.34542087e-12 0 0)
(8.73110863e-12 0 0)
(8.90415852e-12 0 0)
(8.66641515e-12 0 0)
(9.72229279e-12 0 0)
(9.10792385e-12 0 0)
(8.36704762e-12 0 0)
(9.65534899e-12 0 0)
(9.18435987e-12 0 0)
(8.68598613e-12 0 0)
(8.9794015e-12 0 0)
(9.67637522e-12 0 0)
(8.46696328e-12 0 0)
(9.03043653e-12 0 0)
(9.12265648e-12 0 0)
(8.78684802e-12 0 0)
(9.32889992e-12 0 0)
(8.61706941e-12 0 0)
(8.58990328e-12 0 0)
(8.19589452e-12 0 0)
(8.3116733e-12 0 0)
(8.82327557e-12 0 0)
(8.39797768e-12 0 0)
(8.0578926e-12 0 0)
(8.62836534e-12 0 0)
(8.39578798e-12 0 0)
(8.76743391e-12 0 0)
(8.5627815e-12 0 0)
(8.8574926e-12 0 0)
(7.81789373e-12 0 0)
(7.65096537e-12 0 0)
(7.80429909e-12 0 0)
(7.28760552e-12 0 0)
(6.81951867e-12 0 0)
(7.17391916e-12 0 0)
(6.11641405e-12 0 0)
(6.81037041e-12 0 0)
(5.71722735e-12 0 0)
(6.0506869e-12 0 0)
(5.03868182e-12 0 0)
(5.07726381e-12 0 0)
(6.01823282e-12 0 0)
(4.53144363e-12 0 0)
(5.30459249e-12 0 0)
(4.16274041e-12 0 0)
(4.37270264e-12 0 0)
(4.35645822e-12 0 0)
(4.47261841e-12 0 0)
(3.38933521e-12 0 0)
(2.92236489e-12 0 0)
(2.60037214e-12 0 0)
(3.44093818e-12 0 0)
(4.03592614e-12 0 0)
(3.23348509e-12 0 0)
(3.64538258e-12 0 0)
(3.18400704e-12 0 0)
(4.34884077e-12 0 0)
(4.2392266e-12 0 0)
(4.46985043e-12 0 0)
(3.36184584e-12 0 0)
(4.39659295e-12 0 0)
(3.41340564e-12 0 0)
(3.77555621e-12 0 0)
(3.86038457e-12 0 0)
(3.04931819e-12 0 0)
(3.64564717e-12 0 0)
(3.20546836e-12 0 0)
(3.67121119e-12 0 0)
(2.98603132e-12 0 0)
(2.61152832e-12 0 0)
(2.5843332e-12 0 0)
(2.7164493e-12 0 0)
(2.79232497e-12 0 0)
(2.59340563e-12 0 0)
(1.94440289e-12 0 0)
(2.73531409e-12 0 0)
(2.18223897e-12 0 0)
(2.36498155e-12 0 0)
(2.32818008e-12 0 0)
(2.59213448e-12 0 0)
(2.62116934e-12 0 0)
(2.6395435e-12 0 0)
(2.65596417e-12 0 0)
(2.31921207e-12 0 0)
(2.19783299e-12 0 0)
(2.52991955e-12 0 0)
(2.49421906e-12 0 0)
(2.49574405e-12 0 0)
(2.3864471e-12 0 0)
(1.56101848e-12 0 0)
(1.85852026e-12 0 0)
(1.39699609e-12 0 0)
(1.82123079e-12 0 0)
(1.61449607e-12 0 0)
(1.30304288e-12 0 0)
(1.3117957e-12 0 0)
(1.58815967e-12 0 0)
(6.10362285e-13 0 0)
(4.8093147e-13 0 0)
(1.60284334e-12 0 0)
(8.73614964e-14 0 0)
(4.31424684e-14 0 0)
(2.39961436e-13 0 0)
(4.86500802e-13 0 0)
(-8.18360104e-13 0 0)
(-1.55632269e-13 0 0)
(-9.84906852e-14 0 0)
(-7.61781031e-13 0 0)
(-8.47274961e-13 0 0)
(-1.0827519e-12 0 0)
(-7.36825539e-13 0 0)
(-1.15468669e-12 0 0)
(-1.24360725e-12 0 0)
(-2.18529966e-12 0 0)
(-1.55013525e-12 0 0)
(-2.68636305e-12 0 0)
(-1.27325339e-12 0 0)
(-1.95278188e-12 0 0)
(-3.35247307e-12 0 0)
(-2.62747228e-12 0 0)
(-4.2720691e-12 0 0)
(-2.3845328e-12 0 0)
(-2.69006234e-12 0 0)
(-2.95542848e-12 0 0)
(-3.24045227e-12 0 0)
(-2.56368458e-12 0 0)
(-2.6594654e-12 0 0)
(-3.10708204e-12 0 0)
(-3.33934895e-12 0 0)
(-3.71971283e-12 0 0)
(-4.11435389e-12 0 0)
(-3.77777298e-12 0 0)
(-3.91930275e-12 0 0)
(-3.99833352e-12 0 0)
(-5.15671626e-12 0 0)
(-4.40192283e-12 0 0)
(-4.55714297e-12 0 0)
(-5.04663043e-12 0 0)
(-6.85620554e-12 0 0)
(-5.4634525e-12 0 0)
(-4.59825034e-12 0 0)
(-5.07667381e-12 0 0)
(-5.59673376e-12 0 0)
(-5.9833973e-12 0 0)
(-6.44472395e-12 0 0)
(-5.82340998e-12 0 0)
(-5.72537348e-12 0 0)
(-5.41687461e-12 0 0)
(-6.47226213e-12 0 0)
(-6.31992805e-12 0 0)
(-5.83815689e-12 0 0)
(-5.44229381e-12 0 0)
(-5.68017136e-12 0 0)
(-5.46740996e-12 0 0)
(-5.46545631e-12 0 0)
(-5.23509562e-12 0 0)
(-5.17975769e-12 0 0)
(-6.02456717e-12 0 0)
(-4.75290701e-12 0 0)
(-5.65159912e-12 0 0)
(-5.37229582e-12 0 0)
(-5.82944755e-12 0 0)
(-6.82835707e-12 0 0)
(-5.99967392e-12 0 0)
(-6.054226e-12 0 0)
(-6.12360775e-12 0 0)
(-6.19202508e-12 0 0)
(-5.68227927e-12 0 0)
(-5.9163591e-12 0 0)
(-6.59536917e-12 0 0)
(-6.3372456e-12 0 0)
(-6.85007999e-12 0 0)
(-6.41052642e-12 0 0)
(-6.97115451e-12 0 0)
(-6.90759029e-12 0 0)
(-7.1190784e-12 0 0)
(-7.07796534e-12 0 0)
(-6.95685943e-12 0 0)
(-6.76297868e-12 0 0)
(-7.74263066e-12 0 0)
(-6.25071324e-12 0 0)
(-7.06642405e-12 0 0)
(-7.23217623e-12 0 0)
(-7.15991525e-12 0 0)
(-8.1030175e-12 0 0)
(-7.08498119e-12 0 0)
(-7.30704802e-12 0 0)
(-7.97284483e-12 0 0)
(-7.60443799e-12 0 0)
(-9.11614954e-12 0 0)
(-8.97346657e-12 0 0)
(-8.92681971e-12 0 0)
(-8.5612251e-12 0 0)
(-7.98342115e-12 0 0)
(-8.88648748e-12 0 0)
(-7.94979283e-12 0 0)
(-8.23191069e-12 0 0)
(-9.12928565e-12 0 0)
(-8.07930351e-12 0 0)
(-7.62591418e-12 0 0)
(-9.28330154e-12 0 0)
(-8.45646764e-12 0 0)
(-9.47859127e-12 0 0)
(-9.47675969e-12 0 0)
(-8.46964473e-12 0 0)
(-1.02359676e-11 0 0)
(-9.19322271e-12 0 0)
(-9.16889233e-12 0 0)
(-9.21687739e-12 0 0)
(-1.03341437e-11 0 0)
(-9.63574753e-12 0 0)
(-1.01393936e-11 0 0)
(-1.1374349e-11 0 0)
(-1.10381548e-11 0 0)
(-1.10562822e-11 0 0)
(-1.1081693e-11 0 0)
(-9.62172822e-12 0 0)
(-9.77795204e-12 0 0)
(-1.01011451e-11 0 0)
(-1.04029996e-11 0 0)
(-9.31787936e-12 0 0)
(-9.84545815e-12 0 0)
(-1.03902103e-11 0 0)
(-1.0390949e-11 0 0)
(-1.07882409e-11 0 0)
(-1.12432524e-11 0 0)
(-1.10992177e-11 0 0)
(-1.08292549e-11 0 0)
(-1.09269484e-11 0 0)
(-1.09648185e-11 0 0)
(-1.09153803e-11 0 0)
(-1.0968724e-11 0 0)
(-1.09253324e-11 0 0)
(-9.33978821e-12 0 0)
(-9.7453316e-12 0 0)
(-1.06301032e-11 0 0)
(-9.89150022e-12 0 0)
(-9.78760301e-12 0 0)
(-9.6544148e-12 0 0)
(-1.02555878e-11 0 0)
(-9.44996647e-12 0 0)
(-9.88113912e-12 0 0)
(-9.4461938e-12 0 0)
(-9.06120045e-12 0 0)
(-1.02738886e-11 0 0)
(-9.12354588e-12 0 0)
(-8.8642305e-12 0 0)
(-9.15999535e-12 0 0)
(-9.35206501e-12 0 0)
(-9.19051462e-12 0 0)
(-8.82550972e-12 0 0)
(-8.98106867e-12 0 0)
(-9.60204691e-12 0 0)
(-9.20998646e-12 0 0)
(-8.90963981e-12 0 0)
(-9.69908475e-12 0 0)
(-9.84515881e-12 0 0)
(-1.01190973e-11 0 0)
(-9.67958203e-12 0 0)
(-1.02205988e-11 0 0)
(-1.02241775e-11 0 0)
(-9.25499673e-12 0 0)
(-9.36971566e-12 0 0)
(-9.327389e-12 0 0)
(-8.93876001e-12 0 0)
(-9.22942486e-12 0 0)
(-1.00919449e-11 0 0)
(-9.50406951e-12 0 0)
(-9.67616853e-12 0 0)
(-9.52721817e-12 0 0)
(-8.62691084e-12 0 0)
(-8.3832791e-12 0 0)
(-9.3575053e-12 0 0)
(-8.55064058e-12 0 0)
(-9.01919333e-12 0 0)
(-9.36850441e-12 0 0)
(-9.82321565e-12 0 0)
(-9.46152238e-12 0 0)
(-8.17211193e-12 0 0)
(-9.76016188e-12 0 0)
(-9.34931191e-12 0 0)
(-9.19999262e-12 0 0)
(-9.3606025e-12 0 0)
(-1.01024621e-11 0 0)
(-9.21146886e-12 0 0)
(-9.19239594e-12 0 0)
(-8.95731919e-12 0 0)
(-1.00439943e-11 0 0)
(-9.31315139e-12 0 0)
(-8.43383838e-12 0 0)
(-9.31015196e-12 0 0)
(-9.08751311e-12 0 0)
(-9.32960052e-12 0 0)
(-9.56454661e-12 0 0)
(-9.99070396e-12 0 0)
(-9.77913824e-12 0 0)
(-9.82939849e-12 0 0)
(-1.01993278e-11 0 0)
(-1.06666334e-11 0 0)
(-9.17441406e-12 0 0)
(-1.02185899e-11 0 0)
(-1.01472815e-11 0 0)
(-1.01461974e-11 0 0)
(-1.00778988e-11 0 0)
(-9.46182578e-12 0 0)
(-1.0295355e-11 0 0)
(-9.63349068e-12 0 0)
(-9.60719664e-12 0 0)
(-1.05257926e-11 0 0)
(-1.02145942e-11 0 0)
(-1.0635625e-11 0 0)
(-1.02858884e-11 0 0)
(-8.67157225e-12 0 0)
(-1.0404267e-11 0 0)
(-1.05677103e-11 0 0)
(-9.60486364e-12 0 0)
(-9.92895593e-12 0 0)
(-1.00798262e-11 0 0)
(-1.00018952e-11 0 0)
(-9.8069224e-12 0 0)
(-1.02644446e-11 0 0)
(-9.95500663e-12 0 0)
(-1.09354491e-11 0 0)
(-1.01633675e-11 0 0)
(-1.1409353e-11 0 0)
(-1.03820645e-11 0 0)
(-1.04016331e-11 0 0)
(-1.10953434e-11 0 0)
(-1.01841135e-11 0 0)
(-9.67803047e-12 0 0)
(-1.07662608e-11 0 0)
(-1.01817049e-11 0 0)
(-1.10038743e-11 0 0)
(-1.08936195e-11 0 0)
(-1.06741465e-11 0 0)
(-1.05777019e-11 0 0)
(-1.01828221e-11 0 0)
(-1.18683331e-11 0 0)
(-9.90520844e-12 0 0)
(-1.01632998e-11 0 0)
(-1.03105388e-11 0 0)
(-1.09304138e-11 0 0)
(-1.09016375e-11 0 0)
(-1.02654639e-11 0 0)
(-1.15674562e-11 0 0)
(-1.02878522e-11 0 0)
(-9.28491909e-12 0 0)
(-9.23726952e-12 0 0)
(-1.05357474e-11 0 0)
(-9.29222557e-12 0 0)
(-9.29064686e-12 0 0)
(-1.01601189e-11 0 0)
(-9.43006205e-12 0 0)
(-8.27440812e-12 0 0)
(-9.26388861e-12 0 0)
(-9.94761845e-12 0 0)
(-9.41754769e-12 0 0)
(-9.68364405e-12 0 0)
(-8.78473792e-12 0 0)
(-9.23011632e-12 0 0)
(-9.62073731e-12 0 0)
(-9.8643779e-12 0 0)
(-9.6322776e-12 0 0)