/*--------------------------------*- C++ -*----------------------------------*\
| =========                 |                                                 |
| \\      /  F ield         | OpenFOAM: The Open Source CFD Toolbox           |
|  \\    /   O peration     | Version:  2206                                  |
|   \\  /    A nd           | Website:  www.openfoam.com                      |
|    \\/     M anipulation  |                                                 |
\*---------------------------------------------------------------------------*/
FoamFile
{
    version     2.0;
    format      ascii;
    arch        "LSB;label=32;scalar=64";
    class       volScalarField;
    location    "9.6e-06";
    object      p;
}
// * * * * * * * * * * * * * * * * * * * * * * * * * * * * * * * * * * * * * //

dimensions      [1 -1 -2 0 0 0 0];

internalField   nonuniform List<scalar> 
3183
(
101325
101325
101325
101325
101325
101325
101325
101325
101325
101325
101325
101325
101325
101325
101325
101325
101325
101325
101325
101325
101325
101325
101325
101325
101325
101325
101325
101325
101325
101325
101325
101325
101325
101325
101325
101325
101325
101325
101325
101325
101325
101325
101325
101325
101325
101325
101325
101325
101325
101325
101325
101325
101325
101325
101325
101325
101325
101325
101325
101325
101325
101325
101325
101325
101325
101325
101325
101325
101325
101325
101325
101325
101325
101325
101325
101325
101325
101325
101325
101325
101325
101325
101325
101325
101325
101325
101325
101325
101325
101325
101325
101325
101325
101325
101325
101325
101325
101325
101325
101325
101325
101325
101325
101325
101325
101325
101325
101325
101325
101325
101325
101325
101325
101325
101325
101325
101325
101325
101325
101325
101325
101325
101325
101325
101325
101325
101325
101325
101325
101325
101325
101325
101325
101325
101325
101325
101325
101325
101325
101325
101325
101325
101325
101325
101325
101325
101325
101325
101325
101325
101325
101325
101325
101325
101325
101325
101325
101325
101325
101325
101325
101325
101325
101325
101325
101325
101325
101325
101325
101325
101325
101325
101325
101325
101325
101325
101325
101325
101325
101325
101325
101325
101325
101325
101325
101325
101325
101325
101325
101325
101325
101325
101325
101325
101325
101325
101325
101325
101325
101325
101325
101325
101325
101325
101325
101325
101325
101325
101325
101325
101325
101325
101325
101325
101325
101325
101325
101325
101325
101325
101325
101325
101325
101325
101325
101325
101325
101325
101325
101325
101325
101325
101325
101325
101325
101325
101325
101325
101325
101325
101325
101325
101325
101325
101325
101325
101325
101325
101325
101325
101325
101325
101325
101325
101325
101325
101325
101325
101325
101325
101325
101325
101325
101325
101325
101325
101325
101325
101325
101325
101325
101325
101325
101325
101325
101325
101325
101325
101325
101325
101325
101325
101325
101325
101325
101325
101325
101325
101325
101325
101325
101325
101325
101325
101325
101325
101325
101325
101325
101325
101325
101325
101325
101325
101325
101325
101325
101325
101325
101325
101325
101325
101325
101325
101325
101325
101325
101325
101325
101325
101325
101325
101325
101325
101325
101325
101325
101325
101325
101325
101325
101325
101325
101325
101325
101325
101325
101325
101325
101325
101325
101325
101325
101325
101325
101325
101325
101325
101325
101325
101325
101325
101325
101325
101325
101325
101325
101325
101325
101325
101325
101325
101325
101325
101325
101325
101325
101325
101325
101325
101325
101325
101325
101325
101325
101325
101325
101325
101325
101325
101325
101325
101325
101325
101325
101325
101325
101325
101325
101325
101325
101325
101325
101325
101325
101325
101325
101325
101325
101325
101325
101325
101325
101325
101325
101325
101325
101325
101325
101325
101325
101325
101325
101325
101325
101325
101325
101325
101325
101325
101325
101325
101325
101325
101325
101325
101325
101325
101325
101325
101325
101325
101325
101325
101325
101325
101325
101325
101325
101325
101325
101325
101325
101325
101325
101325
101325
101325
101325
101325
101325
101325
101325
101325
101325
101325
101325
101325
101325
101325
101325
101325
101325
101325
101325
101325
101325
101325
101325
101325
101325
101325
101325
101325
101325
101325
101325
101325
101325
101325
101325
101325
101325
101325
101325
101325
101325
101325
101325
101325
101325
101325
101325
101325
101325
101325
101325
101325
101325
101325
101325
101325
101325
101325
101325
101325
101325
101325
101325
101325
101325
101325
101325
101325
101325
101325
101325
101325
101325
101325
101325
101325
101325
101325
101325
101325
101325
101325
101325
101325
101325
101325
101325
101325
101325
101325
101325
101325
101325
101325
101325
101325
101325
101325
101325
101325
101325
101325
101325
101325
101325
101325
101325
101325
101325
101325
101325
101325
101325
101325
101325
101325
101325
101325
101325
101325
101325
101325
101325
101325
101325
101325
101325
101325
101325
101325
101325
101325
101325
101325
101325
101325
101325
101325
101325
101325
101325
101325
101325
101325
101325
101325
101325
101325
101325
101325
101325
101325
101325
101325
101325
101325
101325
101325
101325
101325
101325
101325
101325
101325
101325
101325
101325
101325
101325
101325
101325
101325
101325
101325
101325
101325
101325
101325
101325
101325
101325
101325
101325
101325
101325
101325
101325
101325
101325
101325
101325
101325
101325
101325
101325
101325
101325
101325
101325
101325
101325
101325
101325
101325
101325
101325
101325
101325
101325
101325
101325
101325
101325
101325
101325
101325
101325
101325
101325
101325
101325
101325
101325
101325
101325
101325
101325
101325
101325
101325
101325
101325
101325
101325
101325
101325
101325
101325
101325
101325
101325
101325
101325
101325
101325
101325
101325
101325
101325
101325
101325
101325
101325
101325
101325
101325
101325
101325
101325
101325
101325
101325
101325
101325
101325
101325
101325
101325
101325
101325
101325
101325
101325
101325
101325
101325
101325
101325
101325
101325
101325
101325
101325
101325
101325
101325
101325
101325
101325
101325
101325
101325
101325
101325
101325
101325
101325
101325
101325
101325
101325
101325
101325
101325
101325
101325
101325
101325
101325
101325
101325
101325
101325
101325
101325
101325
101325
101325
101325
101325
101325
101325
101325
101325
101325
101325
101325
101325
101325
101325
101325
101325
101325
101325
101325
101325
101325
101325
101325
101325
101325
101325
101325
101325
101325
101325
101325
101325
101325
101325
101325
101325
101325
101325
101325
101325
101325
101325
101325
101325
101325
101325
101325
101325
101325
101325
101325
101325
101325
101325
101325
101325
101325
101325
101325
101325
101325
101325
101325
101325
101325
101325
101325
101325
101325
101325
101325
101325
101325
101325
101325
101325
101325
101325
101325
101325
101325
101325
101325
101325
101325
101325
101325
101325
101325
101325
101325
101325
101325
101325
101325
101325
101325
101325
101325
101325
101325
101325
101325
101325
101325
101325
101325
101325
101325
101325
101325
101325
101325
101325
101325
101325
101325
101325
101325
101325
101325
101325
101325
101325
101325
101325
101325
101325
101325
101325
101325
101325
101325
101325
101325
101325
101325
101325
101325
101325
101325
101325
101325
101325
101325
101325
101325
101325
101325
101325
101325
101325
101325
101325
101325
101325
101325
101325
101325
101325
101325
101325
101325
101325
101325
101325
101325
101325
101325
101325
101325
101325
101325
101325
101325
101325
101325
101325
101325
101325
101325
101325
101325
101325
101325
101325
101325
101325
101325
101325
101325
101325
101325
101325
101325
101325
101325
101325
101325
101325
101325
101325
101325
101325
101325
101325
101325
101325
101325
101325
101325
101325
101325
101325
101325
101325
101325
101325
101325
101325
101325
101325
101325
101325
101325
101325
101325
101325
101325
101325
101325
101325
101325
101325
101325
101325
101325
101325
101325
101325
101325
101325
101325
101325
101325
101325
101325
101325
101325
101325
101325
101325
101325
101325
101325
101325
101325
101325
101325
101325
101325
101325
101325
101325
101325
101325
101325
101325
101325
101325
101325
101325
101325
101325
101325
101325
101325
101325
101325
101325
101325
101325
101325
101325
101325
101325
101325
101325
101325
101325
101325
101325
101325
101325
101325
101325
101325
101325
101325
101325
101325
101325
101325
101325
101325
101325
101325
101325
101325
101325
101325
101325
101325
101325
101325
101325
101325
101325
101325
101325
101325
101325
101325
101325
101325
101325
101325
101325
101325
101325
101325
101325
101325
101325
101325
101325
101325
101325
101325
101325
101325
101325
101325
101325
101325
101325
101325
101325
101325
101325
101325
101325
101325
101325
101325
101325
101325
101325
101325
101325
101325
101325
101325
101325
101325
101325
101325
101325
101325
101325
101325
101325
101325
101325
101325
101325
101325
101325
101325
101325
101325
101325
101325
101325
101325
101325
101325
101325
101325
101325
101325
101325
101325
101325
101325
101325
101325
101325
101325
101325
101325
101325
101325
101325
101325
101325
101325
101325
101325
101325
101325
101325
101325
101325
101325
101325
101325
101325
101325
101325
101325
101325
101325
101325
101325
101325
101325
101325
101325
101325
101325
101325
101325
101325
101325
101325
101325
101325
101325
101325
101325
101325
101325
101325
101325
101325
101325
101325
101325
101325
101325
101325
101325
101325
101325
101325
101325
101325
101325
101325
101325
101325
101325
101325
101325
101325
101325
101325
101325
101325
101325
101325
101325
101325
101325
101325
101325
101325
101325
101325
101325
101325
101325
101325
101325
101325
101325
101325
101325
101325
101325
101325
101325
101325
101325
101325
101325
101325
101325
101325
101325
101325
101325
101325
101325
101325
101325
101325
101325
101325
101325
101325
101325
101325
101325
101325
101325
101325
101325
101325
101325
101325
101325
101325
101325
101325
101325
101325
101325
101325
101325
101325
101325
101325
101325
101325
101325
101325
101325
101325
101325
101325
101325
101325
101325
101325
101325
101325
101325
101325
101325
101325
101325
101325
101325
101325
101325
101325
101325
101325
101325
101325
101325
101325
101325
101325
101325
101325
101325
101325
101325
101325
101325
101325
101325
101325
101325
101325
101325
101325
101325
101325
101325
101325
101325
101325
101325
101325
101325
101325
101325
101325
101325
101325
101325
101325
101325
101325
101325
101325
101325
101325
101325
101325
101325
101325
101325
101325
101325
101325
101325
101325
101325
101325
101325
101325
101325
101325
101325
101325
101325
101325
101325
101325
101325
101325
101325
101325
101325
101325
101325
101325
101325
101325
101325
101325
101325
101325
101325
101325
101325
101325
101325
101325
101325
101325
101325
101325
101325
101325
101325
101325
101325
101325
101325
101325
101325
101325
101325
101325
101325
101325
101325
101325
101325
101325
101325
101325
101325
101325
101325
101325
101325
101325
101325
101325
101325
101325
101325
101325
101325
101325
101325
101325
101325
101325
101325
101325
101325
101325
101325
101325
101325
101325
101325
101325
101325
101325
101325
101325
101325
101325
101325
101325
101325
101325
101325
101325
101325
101325
101325
101325
101325
101325
101325
101325
101325
101325
101325
101325
101325
101325
101325
101325
101325
101325
101325
101325
101325
101325
101325
101325
101325
101325
101325
101325
101325
101325
101325
101325
101325
101325
101325
101325
101325
101325
101325
101325
101325
101325
101325
101325
101325
101325
101325
101325
101325
101325
101325
101325
101325
101325
101325
101325
101325
101325
101325
101325
101325
101325
101325
101325
101325
101325
101325
101325
101325
101325
101325
101325
101325
101325
101325
101325
101325
101325
101325
101325
101325
101325
101325
101325
101325
101325
101325
101325
101325
101325
101325
101325
101325
101325
101325
101325
101325
101325
101325
101325
101325
101325
101325
101325
101325
101325
101325
101325
101325
101325
101325
101325
101325
101325
101325
101325
101325
101325
101325
101325
101325
101325
101325
101325
101325
101325
101325
101325
101325
101325
101325
101325
101325
101325
101325
101325
101325
101325
101325
101325
101325
101325
101325
101325
101325
101325
101325
101325
101325
101325
101325
101325
101325
101325
101325
101325
101325
101325
101325
101325
101325
101325
101325
101325
101325
101325
101325
101325
101325
101325
101325
101325
101325
101325
101325
101325
101325
101325
101325
101325
101325
101325
101325
101325
101325
101325
101325
101325
101325
101325
101325
101325
101325
101325
101325
101325
101325
101325
101325
101325
101325
101325
101325
101325
101325
101325
101325
101325
101325
101325
101325
101325
101325
101325
101325
101325
101325
101325
101325
101325
101325
101325
101325
101325
101325
101325
101325
101325
101325
101325
101325
101325
101325
101325
101325
101325
101325
101325
101325
101325
101325
101325
101325
101325
101325
101325
101325
101325
101325
101325
101325
101325
101325
101325
101325
101325
101325
101325
101325
101325
101325
101325
101325
101325
101325
101325
101325
101325
101325
101325
101325
101325
101325
101325
101325
101325
101325
101325
101325
101325
101325
101325
101325
101325
101325
101325
101325
101325
101325
101325
101325
101325
101325
101325
101325
101325
101325
101325
101325
101325
101325
101325
101325
101325
101325
101325
101325
101325
101325
101325
101325
101325
101325
101325
101325
101325
101325
101325
101325
101325
101325
101325
101325
101325
101325
101325
101325
101325
101325
101325
101325
101325
101325
101325
101325
101325
101325
101325
101325
101325
101325
101325
101325
101325
101325
101325
101325
101325
101325
101325
101325
101325
101325
101325
101325
101325
101325
101325
101325
101325
101325
101325
101325
101325
101325
101325
101325
101325
101325
101325
101325
101325
101325
101325
101325
101325
101325
101325
101325
101325
101325
101325
101325
101325
101325
101325
101325
101325
101325
101325
101325
101325
101325
101325
101325
101325
101325
101325
101325
101325
101325
101325
101325
101325
101325
101325
101325
101325
101325
101325
101325
101325
101325
101325
101325
101325
101325
101325
101325
101325
101325
101325
101325
101325
101325
101325
101325
101325
101325
101325
101325
101325
101325
101325
101325
101325
101325
101325
101325
101325
101325
101325
101325
101325
101325
101325
101325
101325
101325
101325
101325
101325
101325
101325
101325
101325
101325
101325
101325
101325
101325
101325
101325
101325
101325
101325
101325
101325
101325
101325
101325
101325
101325
101325
101325
101325
101325
101325
101325
101325
101325
101325
101325
101325
101325
101325
101325
101325
101325
101325
101325
101325
101325
101325
101325
101325
101325
101325
101325
101325
101325
101325
101325
101325
101325
101325
101325
101325
101325
101325
101325
101325
101325
101325
101325
101325
101325
101325
101325
101325
101325
101325
101325
101325
101325
101325
101325
101325
101325
101325
101325
101325
101325
101325
101325
101325
101325
101325
101325
101325
101325
101325
101325
101325
101325
101325
101325
101325
101325
101325
101325
101325
101325
101325
101325
101325
101325
101325
101325
101325
101325
101325
101325
101325
101325
101325
101325
101325
101325
101325
101325
101325
101325
101325
101325
101325
101325
101325
101325
101325
101325
101325
101325
101325
101325
101325
101325
101325
101325
101325
101325
101325
101325
101325
101325
101325
101325
101325
101325
101325
101325
101325
101325
101325
101324.999
101324.999
101324.999
101324.999
101324.999
101324.999
101324.999
101324.999
101324.999
101324.999
101324.999
101324.999
101324.999
101324.999
101324.999
101324.998
101324.998
101324.998
101324.998
101324.998
101324.998
101324.998
101324.998
101324.997
101324.997
101324.997
101324.997
101324.997
101324.996
101324.996
101324.996
101324.995
101324.995
101324.995
101324.994
101324.994
101324.994
101324.993
101324.993
101324.992
101324.992
101324.991
101324.99
101324.99
101324.989
101324.988
101324.988
101324.987
101324.986
101324.985
101324.984
101324.983
101324.982
101324.981
101324.979
101324.978
101324.977
101324.975
101324.973
101324.972
101324.97
101324.968
101324.966
101324.964
101324.961
101324.959
101324.956
101324.954
101324.951
101324.948
101324.944
101324.941
101324.937
101324.934
101324.93
101324.925
101324.921
101324.916
101324.911
101324.906
101324.9
101324.894
101324.888
101324.881
101324.874
101324.867
101324.859
101324.851
101324.842
101324.833
101324.823
101324.813
101324.803
101324.791
101324.78
101324.767
101324.754
101324.74
101324.726
101324.711
101324.695
101324.678
101324.661
101324.642
101324.623
101324.603
101324.582
101324.559
101324.536
101324.512
101324.486
101324.459
101324.431
101324.402
101324.371
101324.339
101324.305
101324.27
101324.233
101324.195
101324.155
101324.113
101324.069
101324.024
101323.976
101323.927
101323.875
101323.821
101323.765
101323.707
101323.646
101323.582
101323.516
101323.448
101323.377
101323.303
101323.226
101323.146
101323.063
101322.976
101322.887
101322.794
101322.698
101322.598
101322.495
101322.388
101322.277
101322.162
101322.044
101321.921
101321.794
101321.663
101321.527
101321.387
101321.243
101321.093
101320.94
101320.781
101320.617
101320.449
101320.275
101320.097
101319.913
101319.724
101319.529
101319.329
101319.124
101318.913
101318.696
101318.474
101318.246
101318.012
101317.773
101317.528
101317.277
101317.02
101316.757
101316.488
101316.213
101315.933
101315.646
101315.354
101315.056
101314.752
101314.443
101314.127
101313.806
101313.48
101313.148
101312.81
101312.467
101312.119
101311.766
101311.408
101311.045
101310.677
101310.305
101309.928
101309.547
101309.162
101308.774
101308.381
101307.986
101307.587
101307.185
101306.78
101306.373
101305.964
101305.553
101305.14
101304.726
101304.311
101303.895
101303.479
101303.062
101302.646
101302.231
101301.816
101301.403
101300.991
101300.581
101300.174
101299.77
101299.368
101298.97
101298.576
101298.186
101297.801
101297.421
101297.046
101296.677
101296.314
101295.958
101295.608
101295.266
101294.931
101294.604
101294.286
101293.976
101293.675
101293.383
101293.101
101292.828
101292.566
101292.314
101292.073
101291.843
101291.624
101291.416
101291.22
101291.035
101290.863
101290.703
101290.554
101290.418
101290.295
101290.184
101290.085
101289.999
101289.926
101289.865
101289.817
101289.782
101289.758
101289.748
101289.749
101289.763
101289.789
101289.827
101289.876
101289.937
101290.01
101290.093
101290.187
101290.292
101290.408
101290.533
101290.668
101290.812
101290.966
101291.128
101291.299
101291.477
101291.664
101291.857
101292.058
101292.265
101292.478
101292.697
101292.921
101293.15
101293.384
101293.621
101293.863
101294.107
101294.355
101294.605
101294.857
101295.11
101295.365
101295.621
101295.877
101296.134
101296.39
101296.646
101296.901
101297.155
101297.407
101297.658
101297.907
101298.153
101298.397
101298.638
101298.875
101299.11
101299.341
101299.569
101299.792
101300.012
101300.228
101300.439
101300.647
101300.849
101301.048
101301.242
101301.431
101301.615
101301.795
101301.97
101302.141
101302.307
101302.468
101302.625
101302.777
101302.924
101303.067
101303.206
101303.341
101303.471
101303.597
101303.719
101303.837
101303.951
101304.062
101304.169
101304.272
101304.372
101304.469
101304.563
101304.653
101304.741
101304.825
101304.907
101304.986
101305.063
101305.137
101305.209
101305.279
101305.346
101305.412
101305.475
101305.537
101305.596
101305.654
101305.71
101305.764
101305.817
101305.868
101305.918
101305.966
101306.012
101306.057
101306.101
101306.144
101306.185
101306.225
101306.263
101306.301
101306.337
101306.372
101306.406
101306.439
101306.471
101306.501
101306.531
101306.56
101306.588
101306.616
101306.643
101306.669
101306.694
101306.719
101306.744
101306.768
101306.792
101306.816
101306.84
101306.865
101306.889
101306.914
101306.939
101306.964
101306.991
101307.018
101307.046
101307.075
101307.105
101307.136
101307.169
101307.203
101307.239
101307.276
101307.315
101307.355
101307.398
101307.442
101307.488
101307.536
101307.586
101307.638
101307.691
101307.747
101307.804
101307.863
101307.923
101307.985
101308.049
101308.113
101308.179
101308.246
101308.313
101308.381
101308.45
101308.519
101308.588
101308.657
101308.726
101308.794
101308.862
101308.929
101308.994
101309.059
101309.122
101309.183
101309.243
101309.301
101309.357
101309.41
101309.462
101309.511
101309.558
101309.602
101309.644
101309.683
101309.72
101309.755
101309.787
101309.817
101309.844
101309.87
101309.893
101309.914
101309.934
101309.952
101309.968
101309.983
101309.997
101310.01
101310.021
101310.032
101310.043
101310.053
101310.062
101310.071
101310.08
101310.09
101310.099
101310.108
101310.118
101310.128
101310.139
101310.149
101310.161
101310.173
101310.185
101310.198
101310.211
101310.225
101310.24
101310.255
101310.271
101310.287
101310.303
101310.32
101310.337
101310.355
101310.373
101310.391
101310.41
101310.429
101310.448
101310.467
101310.486
101310.506
101310.525
101310.545
101310.564
101310.584
101310.604
101310.623
101310.642
101310.661
101310.68
101310.698
101310.717
101310.735
101310.753
101310.77
101310.788
101310.805
101310.822
101310.84
101310.858
101310.877
101310.899
101310.925
101310.955
101310.98
101311.005
101311.398
101311.595
101311.545
101310.603
101310.523
101310.536
101310.704
101310.754
101310.86
101310.886
101310.919
101310.915
101310.912
101310.899
101310.888
101310.875
101310.862
101310.849
101310.837
101310.825
101310.812
101310.8
101310.788
101310.775
101310.763
101310.751
101310.739
101310.726
101310.714
101310.702
101310.69
101310.678
101310.666
101310.653
101310.641
101310.629
101310.617
101310.606
101310.594
101310.582
101310.57
101310.558
101310.547
101310.535
101310.523
101310.512
101310.5
101310.489
101310.477
101310.466
101310.455
101310.444
101310.433
101310.421
101310.41
101310.4
101310.389
101310.378
101310.367
101310.356
101310.346
101310.335
101310.325
101310.314
101310.304
101310.293
101310.283
101310.273
101310.262
101310.252
101310.242
101310.232
101310.222
101310.212
101310.202
101310.193
101310.183
101310.173
101310.164
101310.154
101310.144
101310.135
101310.126
101310.116
101310.107
101310.098
101310.089
101310.08
101310.071
101310.062
101310.053
101310.045
101310.036
101310.028
101310.019
101310.011
101310.003
101309.994
101309.986
101309.978
101309.97
101309.962
101309.955
101309.947
101309.939
101309.932
101309.924
101309.917
101309.909
101309.902
101309.895
101309.887
101309.88
101309.872
101309.865
101309.858
101309.85
101309.843
101309.835
101309.827
101309.819
101309.811
101309.803
101309.795
101309.787
101309.778
101309.769
101309.76
101309.751
101309.741
101309.731
101309.721
101309.71
101309.7
101309.688
101309.677
101309.665
101309.652
101309.639
101309.626
101309.612
101309.598
101309.583
101309.568
101309.552
101309.536
101309.519
101309.502
101309.484
101309.465
101309.446
101309.427
101309.407
101309.386
101309.364
101309.342
101309.32
101309.297
101309.273
101309.249
101309.224
101309.198
101309.172
101309.146
101309.119
101309.091
101309.063
101309.035
101309.006
101308.976
101308.946
101308.916
101308.885
101308.854
101308.823
101308.791
101308.759
101308.726
101308.693
101308.66
101308.626
101308.592
101308.558
101308.523
101308.489
101308.454
101308.42
101308.385
101308.351
101308.316
101308.282
101308.247
101308.213
101308.179
101308.144
101308.11
101308.076
101308.042
101308.008
101307.975
101307.941
101307.908
101307.875
101307.842
101307.81
101307.778
101307.746
101307.715
101307.684
101307.653
101307.623
101307.593
101307.564
101307.534
101307.506
101307.477
101307.45
101307.422
101307.395
101307.369
101307.343
101307.317
101307.292
101307.267
101307.243
101307.219
101307.196
101307.173
101307.151
101307.128
101307.107
101307.086
101307.065
101307.045
101307.025
101307.005
101306.986
101306.967
101306.949
101306.931
101306.913
101306.896
101306.878
101306.862
101306.845
101306.829
101306.813
101306.797
101306.782
101306.767
101306.752
101306.737
101306.722
101306.708
101306.694
101306.679
101306.665
101306.651
101306.638
101306.624
101306.61
101306.596
101306.583
101306.569
101306.556
101306.542
101306.529
101306.515
101306.501
101306.488
101306.474
101306.46
101306.446
101306.432
101306.418
101306.404
101306.389
101306.375
101306.36
101306.346
101306.331
101306.315
101306.3
101306.285
101306.269
101306.253
101306.237
101306.221
101306.204
101306.187
101306.17
101306.153
101306.136
101306.118
101306.1
101306.082
101306.063
101306.044
101306.025
101306.006
101305.986
101305.966
101305.946
101305.926
101305.905
101305.884
101305.863
101305.841
101305.819
101305.797
101305.774
101305.751
101305.728
101305.705
101305.681
101305.657
101305.632
101305.607
101305.582
101305.557
101305.531
101305.505
101305.478
101305.451
101305.424
101305.396
101305.368
101305.34
101305.311
101305.282
101305.252
101305.222
101305.192
101305.161
101305.13
101305.098
101305.066
101305.034
101305.001
101304.967
101304.933
101304.899
101304.864
101304.828
101304.792
101304.756
101304.719
101304.681
101304.643
101304.604
101304.565
101304.525
101304.484
101304.443
101304.401
101304.358
101304.315
101304.271
101304.227
101304.181
101304.135
101304.089
101304.041
101303.993
101303.944
101303.894
101303.843
101303.792
101303.739
101303.686
101303.632
101303.577
101303.521
101303.464
101303.406
101303.348
101303.288
101303.227
101303.166
101303.103
101303.039
101302.975
101302.909
101302.842
101302.774
101302.705
101302.635
101302.564
101302.491
101302.418
101302.343
101302.267
101302.19
101302.112
101302.033
101301.952
101301.871
101301.788
101301.704
101301.618
101301.532
101301.444
101301.355
101301.265
101301.173
101301.08
101300.986
101300.891
101300.795
101300.697
101300.598
101300.498
101300.396
101300.294
101300.19
101300.085
101299.978
101299.871
101299.762
101299.652
101299.541
101299.429
101299.316
101299.202
101299.086
101298.969
101298.852
101298.733
101298.613
101298.492
101298.37
101298.248
101298.124
101297.999
101297.873
101297.747
101297.62
101297.491
101297.362
101297.233
101297.102
101296.971
101296.839
101296.707
101296.573
101296.44
101296.306
101296.171
101296.036
101295.9
101295.764
101295.628
101295.491
101295.354
101295.217
101295.08
101294.942
101294.805
101294.668
101294.53
101294.393
101294.255
101294.118
101293.981
101293.845
101293.708
101293.572
101293.437
101293.301
101293.167
101293.033
101292.899
101292.766
101292.634
101292.503
101292.373
101292.243
101292.114
101291.987
101291.86
101291.735
101291.61
101291.487
101291.365
101291.245
101291.126
101291.008
101290.892
101290.777
101290.664
101290.552
101290.442
101290.334
101290.227
101290.123
101290.02
101289.919
101289.82
101289.723
101289.628
101289.535
101289.444
101289.355
101289.265
101289.173
101289.077
101288.978
101288.878
101288.775
101288.671
101288.568
101288.465
101288.365
101288.27
101288.183
101288.105
101288.041
101287.996
101287.973
101287.979
101288.022
101288.109
101288.25
101288.456
101288.74
101289.114
101289.595
101290.198
101290.94
101291.839
101292.909
101294.166
101295.62
101297.277
101299.134
101301.182
101303.396
101305.743
101308.176
101310.633
101313.049
101315.349
101317.464
101319.336
101320.92
101322.199
101323.176
101323.88
101324.356
101324.655
101324.829
101324.922
101324.967
101324.988
101324.996
101324.999
101325
101325
101325
101325
101325
101325
101325
101325
101325
101325
101325
101325
101325
101325
101325
101325
101325
101325
101325
101325
101325
101325
101325
101325
)
;

boundaryField
{
    closed
    {
        type            zeroGradient;
    }
    open
    {
        type            waveTransmissive;
        gamma           1.25;
        fieldInf        101325;
        lInf            1;
        value           uniform 101325;
    }
    sides
    {
        type            empty;
    }
}


// ************************************************************************* //
