/*--------------------------------*- C++ -*----------------------------------*\
| =========                 |                                                 |
| \\      /  F ield         | OpenFOAM: The Open Source CFD Toolbox           |
|  \\    /   O peration     | Version:  2206                                  |
|   \\  /    A nd           | Website:  www.openfoam.com                      |
|    \\/     M anipulation  |                                                 |
\*---------------------------------------------------------------------------*/
FoamFile
{
    version     2.0;
    format      ascii;
    arch        "LSB;label=32;scalar=64";
    class       volScalarField;
    location    "9.6e-06";
    object      PVsourcePV;
}
// * * * * * * * * * * * * * * * * * * * * * * * * * * * * * * * * * * * * * //

dimensions      [1 -3 -1 0 0 0 0];

internalField   nonuniform List<scalar> 
3183
(
0
0
0
0
0
0
0
0
0
0
0
0
0
0
0
0
0
0
0
0
0
0
0
0
0
0
0
0
0
0
0
0
0
0
0
0
0
0
0
0
0
0
0
0
0
0
0
0
0
0
0
0
0
0
0
0
0
0
0
0
0
0
0
0
0
0
0
0
0
0
0
0
0
0
0
0
0
0
0
0
0
0
0
0
0
0
0
0
0
0
0
0
0
0
0
0
0
0
0
0
0
0
0
0
0
0
0
0
0
0
0
0
0
0
0
0
0
0
0
0
0
0
0
0
0
0
0
0
0
0
0
0
0
0
0
0
0
0
0
0
0
0
0
0
0
0
0
0
0
0
0
0
0
0
0
0
0
0
0
0
0
0
0
0
0
0
0
0
0
0
0
0
0
0
0
0
0
0
0
0
0
0
0
0
0
0
0
0
0
0
0
0
0
0
0
0
0
0
0
0
0
0
0
0
0
0
0
0
0
0
0
0
0
0
0
0
0
0
0
0
0
0
0
0
0
0
0
0
0
0
0
0
0
0
0
0
0
0
0
0
0
0
0
0
0
0
0
0
0
0
0
0
0
0
0
0
0
0
0
0
0
0
0
0
0
0
0
0
0
0
0
0
0
0
0
0
0
0
0
0
0
0
0
0
0
0
0
0
0
0
0
0
0
0
0
0
0
0
0
0
0
0
0
0
0
0
0
0
0
0
0
0
0
0
0
0
0
0
0
0
0
0
0
0
0
0
0
0
0
0
0
0
0
0
0
0
0
0
0
0
0
0
0
0
0
0
0
0
0
0
0
0
0
0
0
0
0
0
0
0
0
0
0
0
0
0
0
0
0
0
0
0
0
0
0
0
0
0
0
0
0
0
0
0
0
0
0
0
0
0
0
0
0
0
0
0
0
0
0
0
0
0
0
0
0
0
0
0
0
0
0
0
0
0
0
0
0
0
0
0
0
0
0
0
0
0
0
0
0
0
0
0
0
0
0
0
0
0
0
0
0
0
0
0
0
0
0
0
0
0
0
0
0
0
0
0
0
0
0
0
0
0
0
0
0
0
0
0
0
0
0
0
0
0
0
0
0
0
0
0
0
0
0
0
0
0
0
0
0
0
0
0
0
0
0
0
0
0
0
0
0
0
0
0
0
0
0
0
0
0
0
0
0
0
0
0
0
0
0
0
0
0
0
0
0
0
0
0
0
0
0
0
0
0
0
0
0
0
0
0
0
0
0
0
0
0
0
0
0
0
0
0
0
0
0
0
0
0
0
0
0
0
0
0
0
0
0
0
0
0
0
0
0
0
0
0
0
0
0
0
0
0
0
0
0
0
0
0
0
0
0
0
0
0
0
0
0
0
0
0
0
0
0
0
0
0
0
0
0
0
0
0
0
0
0
0
0
0
0
0
0
0
0
0
0
0
0
0
0
0
0
0
0
0
0
0
0
0
0
0
0
0
0
0
0
0
0
0
0
0
0
0
0
0
0
0
0
0
0
0
0
0
0
0
0
0
0
0
0
0
0
0
0
0
0
0
0
0
0
0
0
0
0
0
0
0
0
0
0
0
0
0
0
0
0
0
0
0
0
0
0
0
0
0
0
0
0
0
0
0
0
0
0
0
0
0
0
0
0
0
0
0
0
0
0
0
0
0
0
0
0
0
0
0
0
0
0
0
0
0
0
0
0
0
0
0
0
0
0
0
0
0
0
0
0
0
0
0
0
0
0
0
0
0
0
0
0
0
0
0
0
0
0
0
0
0
0
0
0
0
0
0
0
0
0
0
0
0
0
0
0
0
0
0
0
0
0
0
0
0
0
0
0
0
0
0
0
0
0
0
0
0
0
0
0
0
0
0
0
0
0
0
0
0
0
0
0
0
0
0
0
0
0
0
0
0
0
0
0
0
0
0
0
0
0
0
0
0
0
0
0
0
0
0
0
0
0
0
0
0
0
0
0
0
0
0
0
0
0
0
0
0
0
0
0
0
0
0
0
0
0
0
0
0
0
0
0
0
0
0
0
0
0
0
0
0
0
0
0
0
0
0
0
0
0
0
0
0
0
0
0
0
0
0
0
0
0
0
0
0
0
0
0
0
0
0
0
0
0
0
0
0
0
0
0
0
0
0
0
0
0
0
0
0
0
0
0
0
0
0
0
0
0
0
0
0
0
0
0
0
0
0
0
0
0
0
0
0
0
0
0
0
0
0
0
0
0
0
0
0
0
0
0
0
0
0
0
0
0
0
0
0
0
0
0
0
0
0
0
0
0
0
0
0
0
0
0
0
0
0
0
0
0
0
0
0
0
0
0
0
0
0
0
0
0
0
0
0
0
0
0
0
0
0
0
0
0
0
0
0
0
0
0
0
0
0
0
0
0
0
0
0
0
0
0
0
0
0
0
0
0
0
0
0
0
0
0
0
0
0
0
0
0
0
0
0
0
0
0
0
0
0
0
0
0
0
0
0
0
0
0
0
0
0
0
0
0
0
0
0
0
0
0
0
0
0
0
0
0
0
0
0
0
0
0
0
0
0
0
0
0
0
0
0
0
0
0
0
0
0
0
0
0
0
0
0
0
0
0
0
0
0
0
0
0
0
0
0
0
0
0
0
0
0
0
0
0
0
0
0
0
0
0
0
0
0
0
0
0
0
0
0
0
0
0
0
0
0
0
0
0
0
0
0
0
0
0
0
0
0
0
0
0
0
0
0
0
0
0
0
0
0
0
0
0
0
0
0
0
0
0
0
0
0
0
0
0
0
0
0
0
0
0
0
0
0
0
0
0
0
0
0
0
0
0
0
0
0
0
0
0
0
0
0
0
0
0
0
0
0
0
0
0
0
0
0
0
0
0
0
0
0
0
0
0
0
0
0
0
0
0
0
0
0
0
0
0
0
0
0
0
0
0
0
0
0
0
0
0
0
0
0
0
0
0
0
0
0
0
0
0
0
0
0
0
0
0
0
0
0
0
0
0
0
0
0
0
0
0
0
0
0
0
0
0
0
0
0
0
0
0
0
0
0
0
0
0
0
0
0
0
0
0
0
0
0
0
0
0
0
0
0
0
0
0
0
0
0
0
0
0
0
0
0
0
0
0
0
0
0
0
0
0
0
0
0
0
0
0
0
0
0
0
0
0
0
0
0
0
0
0
0
0
0
0
0
0
0
0
0
0
0
0
0
0
0
0
0
0
0
0
0
0
0
0
0
0
0
0
0
0
0
0
0
0
0
0
0
0
0
0
0
0
0
0
0
0
0
0
0
0
0
0
0
0
0
0
0
0
0
0
0
0
0
0
0
0
0
0
0
0
0
0
0
0
0
0
0
0
0
0
0
0
0
0
0
0
0
0
0
0
0
0
0
0
0
0
0
0
0
0
0
0
0
0
0
0
0
0
0
0
0
0
0
0
0
0
0
0
0
0
0
0
0
0
0
0
0
0
0
0
0
0
0
0
0
0
0
0
0
0
0
0
0
0
0
0
0
0
0
0
0
0
0
0
0
0
0
0
0
0
0
0
0
0
0
0
0
0
0
0
0
0
0
0
0
0
0
0
0
0
0
0
0
0
0
0
0
0
0
0
0
0
0
0
0
0
0
0
0
0
0
0
0
0
0
0
0
0
0
0
0
0
0
0
0
0
0
0
0
0
0
0
0
0
0
0
0
0
0
0
0
0
0
0
0
0
0
0
0
0
0
0
0
0
0
0
0
0
0
0
0
0
0
0
0
0
0
0
0
0
0
0
0
0
0
0
0
0
0
0
0
0
0
0
0
0
0
0
0
0
0
0
0
0
0
0
0
0
0
0
0
0
0
0
0
0
0
0
0
0
0
0
0
0
0
0
0
0
0
0
0
0
0
0
0
0
0
0
0
0
0
0
0
0
0
0
0
0
0
0
0
0
0
0
0
0
0
0
0
0
0
0
0
0
0
0
0
0
0
0
0
0
0
0
0
0
0
0
0
0
0
0
0
0
0
0
0
0
0
0
0
0
0
0
0
0
0
0
0
0
0
0
0
0
0
0
0
0
0
0
0
0
0
0
0
0
0
0
0
0
0
0
0
0
0
0
0
0
0
0
0
0
0
0
0
0
0
0
0
0
0
0
0
0
0
0
0
0
0
0
0
0
0
0
0
0
0
0
0
0
0
0
0
0
0
0
0
0
0
0
0
0
0
0
0
0
0
0
0
0
0
0
0
0
0
0
0
0
0
0
0
0
0
0
0
0
0
0
0
0
0
0
0
0
0
0
0
0
0
0
0
0
0
0
0
0
0
0
0
0
0
0
0
0
0
0
0
0
0
0
0
0
0
0
0
0
0
0
0
0
0
0
0
0
0
0
0
0
0
0
0
0
0
0
0
0
0
0
0
0
0
0
0
0
0
0
0
0
0
0
0
0
0
0
0
0
0
0
0
0
0
0
0
0
0
0
0
0
0
0
0
0
0
0
0
0
0
0
0
0
0
0
0
0
0
0
0
0
0
0
0
0
0
0
0
0
0
0
0
0
0
0
0
0
0
0
0
0
0
0
0
0
0
0
0
0
0
0
0
0
0
0
0
0
0
0
0
0
0
0
0
0
0
0
0
0
0
0
0
0
0
0
0
0
0
0
0
0
0
0
0
0
0
0
0
0
0
0
0
0
0
0
0
0
0
0
0
0
0
0
0
0
0
0
0
0
0
0
0
0
0
0
0
0
0
0
0
0
0
0
0
0
0
0
0
0
0
0
0
0
0
0
0
0
0
0
0
0
0
0
0
0
0
0
0
0
0
0
0
0
0
0
0
0
0
0
0
0
0
0
0
0
0
0
0
0
0
0
0
0
0
0
0
0
0
0
0
0
0
0
0
0
0
0
0
0
0
0
0
0
0
0
0
0
0
0
0
0
0
0
0
0
0
0
0
0
0
0
0
0
0
0
0
0
0
0
0
0
0
0
0
0
0
0
0
0
0
0
0
0
0
0
0
0
0
0
0
0
0
0
0
0
0
0
0
0
0
0
0
0
0
0
0
0
0
0
0
0
0
0
0
0
0
0
0
0
0
0
0
0
0
0
0
0
0
0
0
0
0
0
0
0
0
0
0
0
0
0
0
0
0
0
0
0
0
0
0
0
0
0
0
0
0
0
0
0
0
0
0
0
0
0
0
0
0
0
0
0
0
0
0
0
0
0
0
0
0
0
0
0
0
0
0
0
0
0
0
0
0
0
0
0
0
0
0
0
0
0
0
0
0
0
0
0
0
0
0
0
0
0
0
0
0
0
0
0
0
0
0
0
0
0
0
0
0
0
0
0
0
0
0
0
0
0
0
0
0
0
0
0
0
0
0
0
0
0
0
0
0
0
0
0
0
0
0
0
0
0
0
0
0
0
0
0
0
0
0
0
0
0
6.56031056e-299
0
7.69732414e-296
0
8.81063658e-293
0
9.84436186e-290
0
1.07429442e-286
0
1.14562072e-283
0
1.19440472e-280
0
1.21801543e-277
0
1.21542881e-274
0
1.1872845e-271
0
1.13577116e-268
0
1.06436302e-265
1.93382633e-269
9.77449602e-263
1.98111625e-264
8.79910769e-260
3.46958192e-261
7.76691175e-257
4.48494826e-258
6.7242172e-254
5.06172034e-255
5.71123007e-251
5.25940176e-252
4.76010225e-248
5.15235345e-249
3.89403043e-245
4.82018929e-246
3.12730681e-242
4.33973031e-243
2.46612806e-239
3.77910444e-240
1.90991992e-236
3.1941588e-237
1.45292861e-233
2.6270111e-234
1.08585831e-230
2.10633765e-231
7.97383439e-228
1.64888568e-228
5.75423008e-225
1.26168991e-225
4.08121582e-222
9.44539609e-223
2.84528854e-219
6.92350673e-220
1.95004861e-216
4.97218479e-217
1.3139864e-213
3.50038893e-214
8.70567922e-211
2.41674402e-211
5.67174973e-208
1.63703891e-208
3.63384677e-205
1.08829411e-205
2.28970872e-202
7.10260197e-203
1.419003e-199
4.55177352e-200
8.64963373e-197
2.86503027e-197
5.18611204e-194
1.77151113e-194
3.05865786e-191
1.07620281e-191
1.77450177e-188
6.42450043e-189
1.01271415e-185
3.76903381e-186
5.68548226e-183
2.17324327e-183
3.1399267e-180
1.23171141e-180
1.70585451e-177
6.8621401e-178
9.11653836e-175
3.7582127e-175
4.79264605e-172
2.02343523e-172
2.47837359e-169
1.07100777e-169
1.26063532e-166
5.57307537e-167
6.3070362e-164
2.85098183e-164
3.10350734e-161
1.43378582e-161
1.50191993e-158
7.08846854e-159
7.14790432e-156
3.44494185e-156
3.34515603e-153
1.64570075e-153
1.53930171e-150
7.72738637e-151
6.96403654e-148
3.5661174e-148
3.09730867e-145
1.61734811e-145
1.35408602e-142
7.20800317e-143
5.81827552e-140
3.15634027e-140
2.45681319e-137
1.35787196e-137
1.01933941e-134
5.73830495e-135
4.15497666e-132
2.38175241e-132
1.66360709e-129
9.70802214e-130
6.54168255e-127
3.88520049e-127
2.52582579e-124
1.52639246e-124
9.57426724e-122
5.88578799e-122
3.56207384e-119
2.22709043e-119
1.30045757e-116
8.26739181e-117
4.65778402e-114
3.01017856e-114
1.63621109e-111
1.07472506e-111
5.63580009e-109
3.76152922e-109
1.90282814e-106
1.29022603e-106
6.29555879e-104
4.33575846e-104
2.04039232e-101
1.42697585e-101
6.47562989e-99
4.5979562e-99
2.01174614e-96
1.44991815e-96
6.11518878e-94
4.47275346e-94
1.81803727e-91
1.3491783e-91
5.28383934e-89
3.97762187e-89
1.50049287e-86
1.14556546e-86
4.16125263e-84
3.2212583e-84
1.12634561e-81
8.83874188e-82
2.97378881e-79
2.36508187e-79
7.65337314e-77
6.16742788e-77
1.91863109e-74
1.56622194e-74
4.68158805e-72
3.87042396e-72
1.11096036e-69
9.29945345e-70
2.56164148e-67
2.17048899e-67
5.73363644e-65
4.91624163e-65
1.24444143e-62
1.07949619e-62
2.61607407e-60
2.29517624e-60
5.31996184e-58
4.71916706e-58
1.04507651e-55
9.37049685e-56
1.98018582e-53
1.79407284e-53
3.61284498e-51
3.30643208e-51
6.33526393e-49
5.85466353e-49
1.06547859e-46
9.93924703e-47
1.71463668e-44
1.61395064e-44
2.63329745e-42
2.50010322e-42
3.84792617e-40
3.68338444e-40
5.33169518e-38
5.14352838e-38
6.97754039e-36
6.78071866e-36
8.58511344e-34
8.40007837e-34
9.87771178e-32
9.72561422e-32
1.05596813e-29
1.04553354e-29
1.04081533e-27
1.03528481e-27
9.36935204e-26
9.34685934e-26
7.61217616e-24
7.59291947e-24
5.49750621e-22
5.45478766e-22
3.45886043e-20
3.39769065e-20
1.84378339e-18
1.82076464e-18
7.99141492e-17
7.91046464e-17
2.64000346e-15
2.64217871e-15
1.65288096e-11
1.66023824e-11
0.024989761
0.0881500472
0.752137937
0.768496264
0.346285865
0.284176574
0.0429298373
0.0353106947
0.00693639794
0.00636616185
0.0010264565
0.000990624606
0.000136754397
0.000136133035
1.7332772e-05
1.73155617e-05
2.53080749e-06
2.5353719e-06
8.66936049e-07
8.67898543e-07
6.95578922e-07
6.95586777e-07
6.79103887e-07
6.79106755e-07
6.77637199e-07
6.77638037e-07
6.77515744e-07
6.77515972e-07
6.77504537e-07
6.77506256e-07
6.7750504e-07
6.77505485e-07
6.77504092e-07
6.77506738e-07
6.77502943e-07
6.77505684e-07
6.77504965e-07
6.77504073e-07
6.77505056e-07
6.77504137e-07
6.77505046e-07
6.77504133e-07
6.77505681e-07
6.77504276e-07
6.77505253e-07
6.77505097e-07
6.77505244e-07
6.77504722e-07
6.7750491e-07
6.77504686e-07
6.7750535e-07
6.77504204e-07
6.77505777e-07
6.77504652e-07
6.7750508e-07
6.77505503e-07
6.77504183e-07
6.77505559e-07
6.77504444e-07
6.77505036e-07
6.77504804e-07
6.77505412e-07
6.7750476e-07
6.77504966e-07
6.77504878e-07
6.77504692e-07
6.77505578e-07
6.7750493e-07
6.77505026e-07
6.77503666e-07
6.77504822e-07
6.77504622e-07
6.77503983e-07
6.77505762e-07
6.7750407e-07
6.77506224e-07
6.77504498e-07
6.77506036e-07
6.77504918e-07
6.77505711e-07
6.77504244e-07
6.77505781e-07
6.77504222e-07
6.77505587e-07
6.77504589e-07
6.77505397e-07
6.77505026e-07
6.77504122e-07
6.77505182e-07
6.77504013e-07
6.77505889e-07
6.77504505e-07
6.77505114e-07
6.77504916e-07
6.77505642e-07
6.77505628e-07
6.77504435e-07
6.77505455e-07
6.7750558e-07
6.77505573e-07
6.77504723e-07
6.77505587e-07
6.77505393e-07
6.77506201e-07
6.77504836e-07
6.77505441e-07
6.77504831e-07
6.77505314e-07
6.77504537e-07
6.7750552e-07
6.77504587e-07
6.77504516e-07
6.77504804e-07
6.77505056e-07
6.77504457e-07
6.77505009e-07
6.7750467e-07
6.77505735e-07
6.77504947e-07
6.77505677e-07
6.77504629e-07
6.77505898e-07
6.77504492e-07
6.77506165e-07
6.7750451e-07
6.77505816e-07
6.77504524e-07
6.77505886e-07
6.77504544e-07
6.7750605e-07
6.77504486e-07
6.77505641e-07
6.7750632e-07
6.77505935e-07
6.77505801e-07
6.77504988e-07
6.77507074e-07
6.77504724e-07
6.77505842e-07
6.77504976e-07
6.77505103e-07
6.77504954e-07
6.77504716e-07
6.77504772e-07
6.7750526e-07
6.77504637e-07
6.77504858e-07
6.77504996e-07
6.77505555e-07
6.77504715e-07
6.77506486e-07
6.77503585e-07
6.77506743e-07
6.77504404e-07
6.77505833e-07
6.77505617e-07
6.77504943e-07
6.77505005e-07
6.77505881e-07
6.77505868e-07
6.77506382e-07
6.77504847e-07
6.77506486e-07
6.77504679e-07
6.77506359e-07
6.77505289e-07
6.77504976e-07
6.77505301e-07
6.77505481e-07
6.77504531e-07
6.77506119e-07
6.775046e-07
6.775049e-07
6.77504958e-07
6.77506131e-07
6.77505335e-07
6.77505999e-07
6.77506109e-07
6.77505268e-07
6.77506678e-07
6.7750611e-07
6.77506642e-07
6.77506293e-07
6.77505969e-07
6.77505685e-07
6.77505621e-07
6.77505138e-07
6.77505545e-07
6.7750526e-07
6.77506126e-07
6.77506087e-07
6.77504479e-07
6.77506725e-07
6.77505539e-07
6.7750628e-07
6.77505448e-07
6.77505347e-07
6.77505209e-07
6.775059e-07
6.77504811e-07
6.77506651e-07
6.77505357e-07
6.77506359e-07
6.77504873e-07
6.77506227e-07
6.77505753e-07
6.77505676e-07
6.77505659e-07
6.77506889e-07
6.77505639e-07
6.77506554e-07
6.7750531e-07
6.77506409e-07
6.77506004e-07
6.77505899e-07
6.77506304e-07
6.77505604e-07
6.77506244e-07
6.77505836e-07
6.77506102e-07
6.77505641e-07
6.77506297e-07
6.77505275e-07
6.77505635e-07
6.7750549e-07
6.77505032e-07
6.77506387e-07
6.77505566e-07
6.7750577e-07
6.77506592e-07
6.77505535e-07
6.77505743e-07
6.77506125e-07
6.77506193e-07
6.77505826e-07
6.77506267e-07
6.77506083e-07
6.7750621e-07
6.77506572e-07
6.77506798e-07
6.77505739e-07
6.7750677e-07
6.77506191e-07
6.77506207e-07
6.77505628e-07
6.77506623e-07
6.77505586e-07
6.77506266e-07
6.77505218e-07
6.77505493e-07
6.77506275e-07
6.77506086e-07
6.77506487e-07
6.77505884e-07
6.77505591e-07
6.77506467e-07
6.77505713e-07
6.77507152e-07
6.77506348e-07
6.77505687e-07
6.77506487e-07
6.77506513e-07
6.77506449e-07
6.77505806e-07
6.7750742e-07
6.77505601e-07
6.7750598e-07
6.77505486e-07
6.77506643e-07
6.77504999e-07
6.77507303e-07
6.77505058e-07
6.7750563e-07
6.77506516e-07
6.77505973e-07
6.77507049e-07
6.77505987e-07
6.77506617e-07
6.77506258e-07
6.77506159e-07
6.77506173e-07
6.7750575e-07
6.77505876e-07
6.77506313e-07
6.77506085e-07
6.77505742e-07
6.77505845e-07
6.77505589e-07
6.77506162e-07
6.77506192e-07
6.7750601e-07
6.7750661e-07
6.77505991e-07
6.77505992e-07
6.77506653e-07
6.77505593e-07
6.77505478e-07
6.77506421e-07
6.77506482e-07
6.77506661e-07
6.77506187e-07
6.775061e-07
6.77506354e-07
6.77506929e-07
6.77506029e-07
6.77506791e-07
6.77506447e-07
6.77506081e-07
6.77506112e-07
6.77507342e-07
6.7750662e-07
6.77506672e-07
6.77506245e-07
6.77506351e-07
6.77505925e-07
6.77506299e-07
6.7750708e-07
6.77505376e-07
6.7750738e-07
6.77506033e-07
6.77506791e-07
6.77506045e-07
6.77506682e-07
6.77506354e-07
6.77506679e-07
6.77506127e-07
6.77506599e-07
6.77506691e-07
6.77506555e-07
6.77506879e-07
6.77506141e-07
6.77506853e-07
6.77506273e-07
6.77506163e-07
6.7750678e-07
6.77506234e-07
6.77506678e-07
6.77506253e-07
6.77505553e-07
6.77506895e-07
6.77506229e-07
6.77506594e-07
6.77505884e-07
6.77506757e-07
6.77506733e-07
6.77506917e-07
6.77506317e-07
6.77506806e-07
6.77506277e-07
6.77506267e-07
6.77507232e-07
6.77507284e-07
6.77505938e-07
6.77506424e-07
6.77507302e-07
6.77505794e-07
6.77507687e-07
6.77506219e-07
6.77506264e-07
6.77506533e-07
6.77507298e-07
6.77506361e-07
6.77506887e-07
6.7750663e-07
6.77506549e-07
6.77507091e-07
6.77506746e-07
6.77507826e-07
6.77507041e-07
6.77507681e-07
6.77507158e-07
6.77507321e-07
6.77506901e-07
6.77507348e-07
6.77506271e-07
6.7750703e-07
6.77506356e-07
6.77506938e-07
6.77506931e-07
6.77507006e-07
6.77507064e-07
6.77506891e-07
6.77507346e-07
6.77506512e-07
6.77507354e-07
6.77505813e-07
6.77506876e-07
6.77506396e-07
6.77506513e-07
6.77506931e-07
6.77506535e-07
6.77506684e-07
6.77506544e-07
6.77506602e-07
6.77507318e-07
6.77507014e-07
6.77507578e-07
6.77507121e-07
6.77506943e-07
6.77507146e-07
6.77506623e-07
6.77506979e-07
6.7750618e-07
6.77507759e-07
6.77506457e-07
6.77507185e-07
6.77506571e-07
6.77507559e-07
6.77507246e-07
6.77507031e-07
6.77507235e-07
6.77507323e-07
6.77506614e-07
6.77507415e-07
6.7750742e-07
6.77506916e-07
6.77507115e-07
6.77507237e-07
6.77506878e-07
6.77507177e-07
6.77506759e-07
6.77507513e-07
6.77506486e-07
6.77507779e-07
6.77507787e-07
6.77507194e-07
6.77507491e-07
6.77507775e-07
6.77506676e-07
6.77507851e-07
6.77507334e-07
6.77507459e-07
6.77507581e-07
6.77507964e-07
6.77507232e-07
6.77507687e-07
6.7750696e-07
6.77508528e-07
6.77506891e-07
6.77508471e-07
6.77507187e-07
6.77507829e-07
6.77506631e-07
6.77507921e-07
6.77507498e-07
6.77507634e-07
6.77507372e-07
6.77508506e-07
6.77507586e-07
6.77507201e-07
6.77507569e-07
6.7750729e-07
6.77507513e-07
6.77507136e-07
6.77507921e-07
6.77507889e-07
6.77507021e-07
6.77507999e-07
6.77507254e-07
6.77507175e-07
6.77507743e-07
6.77508125e-07
6.77506695e-07
6.77508287e-07
6.77507024e-07
6.77508449e-07
6.77507589e-07
6.77507642e-07
6.77507645e-07
6.77507598e-07
6.77508591e-07
6.77507067e-07
6.77507358e-07
6.77508561e-07
6.77506064e-07
6.77509123e-07
6.77506398e-07
6.77508827e-07
6.77506754e-07
6.77508102e-07
6.77506946e-07
6.7750821e-07
6.77507182e-07
6.77507738e-07
6.77507052e-07
6.775079e-07
6.77507527e-07
6.77506872e-07
6.77508651e-07
6.77507338e-07
6.77508598e-07
6.77507678e-07
6.77508079e-07
6.77507697e-07
6.77509357e-07
6.77506391e-07
6.77508573e-07
6.77506901e-07
6.7750914e-07
6.77506567e-07
6.77508665e-07
6.77506975e-07
6.77509251e-07
6.77507937e-07
6.77508062e-07
6.77508357e-07
6.77507949e-07
6.77508411e-07
6.77508027e-07
6.77508045e-07
6.77508073e-07
6.77507928e-07
6.77508238e-07
6.77508247e-07
6.77508513e-07
6.77508308e-07
6.77508029e-07
6.77508399e-07
6.77508252e-07
6.77508174e-07
6.77508535e-07
6.77508516e-07
6.77508553e-07
6.77508574e-07
6.77508569e-07
6.77508596e-07
6.77508746e-07
6.7750879e-07
6.77508811e-07
6.77508908e-07
6.77508947e-07
6.77509064e-07
6.77509128e-07
6.77509147e-07
6.77509266e-07
6.7750932e-07
6.7750932e-07
6.77509385e-07
6.77509448e-07
6.77509514e-07
6.77509525e-07
6.77509538e-07
6.77509586e-07
6.77509575e-07
6.77509591e-07
6.77509607e-07
6.77509619e-07
6.77509577e-07
6.77509625e-07
6.775096e-07
6.77509603e-07
6.77509605e-07
6.7750961e-07
6.77509611e-07
6.77509622e-07
6.77509612e-07
6.77509613e-07
6.77509599e-07
6.77509587e-07
6.77509617e-07
6.77509602e-07
6.77509605e-07
6.77509613e-07
6.77509606e-07
6.77509618e-07
6.77509613e-07
6.77509609e-07
6.77509622e-07
6.77509601e-07
6.77509611e-07
6.775096e-07
6.77509618e-07
6.77509613e-07
6.77509605e-07
6.77509615e-07
6.77509596e-07
6.7750959e-07
6.77509623e-07
)
;

boundaryField
{
    closed
    {
        type            calculated;
        value           uniform 0;
    }
    open
    {
        type            calculated;
        value           uniform 0;
    }
    sides
    {
        type            empty;
    }
}


// ************************************************************************* //
