/*--------------------------------*- C++ -*----------------------------------*\
| =========                 |                                                 |
| \\      /  F ield         | OpenFOAM: The Open Source CFD Toolbox           |
|  \\    /   O peration     | Version:  2206                                  |
|   \\  /    A nd           | Website:  www.openfoam.com                      |
|    \\/     M anipulation  |                                                 |
\*---------------------------------------------------------------------------*/
FoamFile
{
    version     2.0;
    format      ascii;
    arch        "LSB;label=32;scalar=64";
    class       volScalarField;
    location    "9.6e-06";
    object      sourcePV;
}
// * * * * * * * * * * * * * * * * * * * * * * * * * * * * * * * * * * * * * //

dimensions      [1 -3 -1 0 0 0 0];

internalField   nonuniform List<scalar> 
3183
(
0
0
0
0
0
0
0
0
0
0
0
0
0
0
0
0
0
0
0
0
0
0
0
0
0
0
0
0
0
0
0
0
0
0
0
0
0
0
0
0
0
0
0
0
0
0
0
0
0
0
0
0
0
0
0
0
0
0
0
0
0
0
0
0
0
0
0
0
0
0
0
0
0
0
0
0
0
0
0
0
0
0
0
0
0
0
0
0
0
0
0
0
0
0
0
0
0
0
0
0
0
0
0
0
0
0
0
0
0
0
0
0
0
0
0
0
0
0
0
0
0
0
0
0
0
0
0
0
0
0
0
0
0
0
0
0
0
0
0
0
0
0
0
0
0
0
0
0
0
0
0
0
0
0
0
0
0
0
0
0
0
0
0
0
0
0
0
0
0
0
0
0
0
0
0
0
0
0
0
0
0
0
0
0
0
0
0
0
0
0
0
0
0
0
0
0
0
0
0
0
0
0
0
0
0
0
0
0
0
0
0
0
0
0
0
0
0
0
0
0
0
0
0
0
0
0
0
0
0
0
0
0
0
0
0
0
0
0
0
0
0
0
0
0
0
0
0
0
0
0
0
0
0
0
0
0
0
0
0
0
0
0
0
0
0
0
0
0
0
0
0
0
0
0
0
0
0
0
0
0
0
0
0
0
0
0
0
0
0
0
0
0
0
0
0
0
0
0
0
0
0
0
0
0
0
0
0
0
0
0
0
0
0
0
0
0
0
0
0
0
0
0
0
0
0
0
0
0
0
0
0
0
0
0
0
0
0
0
0
0
0
0
0
0
0
0
0
0
0
0
0
0
0
0
0
0
0
0
0
0
0
0
0
0
0
0
0
0
0
0
0
0
0
0
0
0
0
0
0
0
0
0
0
0
0
0
0
0
0
0
0
0
0
0
0
0
0
0
0
0
0
0
0
0
0
0
0
0
0
0
0
0
0
0
0
0
0
0
0
0
0
0
0
0
0
0
0
0
0
0
0
0
0
0
0
0
0
0
0
0
0
0
0
0
0
0
0
0
0
0
0
0
0
0
0
0
0
0
0
0
0
0
0
0
0
0
0
0
0
0
0
0
0
0
0
0
0
0
0
0
0
0
0
0
0
0
0
0
0
0
0
0
0
0
0
0
0
0
0
0
0
0
0
0
0
0
0
0
0
0
0
0
0
0
0
0
0
0
0
0
0
0
0
0
0
0
0
0
0
0
0
0
0
0
0
0
0
0
0
0
0
0
0
0
0
0
0
0
0
0
0
0
0
0
0
0
0
0
0
0
0
0
0
0
0
0
0
0
0
0
0
0
0
0
0
0
0
0
0
0
0
0
0
0
0
0
0
0
0
0
0
0
0
0
0
0
0
0
0
0
0
0
0
0
0
0
0
0
0
0
0
0
0
0
0
0
0
0
0
0
0
0
0
0
0
0
0
0
0
0
0
0
0
0
0
0
0
0
0
0
0
0
0
0
0
0
0
0
0
0
0
0
0
0
0
0
0
0
0
0
0
0
0
0
0
0
0
0
0
0
0
0
0
0
0
0
0
0
0
0
0
0
0
0
0
0
0
0
0
0
0
0
0
0
0
0
0
0
0
0
0
0
0
0
0
0
0
0
0
0
0
0
0
0
0
0
0
0
0
0
0
0
0
0
0
0
0
0
0
0
0
0
0
0
0
0
0
0
0
0
0
0
0
0
0
0
0
0
0
0
0
0
0
0
0
0
0
0
0
0
0
0
0
0
0
0
0
0
0
0
0
0
0
0
0
0
0
0
0
0
0
0
0
0
0
0
0
0
0
0
0
0
0
0
0
0
0
0
0
0
0
0
0
0
0
0
0
0
0
0
0
0
0
0
0
0
0
0
0
0
0
0
0
0
0
0
0
0
0
0
0
0
0
0
0
0
0
0
0
0
0
0
0
0
0
0
0
0
0
0
0
0
0
0
0
0
0
0
0
0
0
0
0
0
0
0
0
0
0
0
0
0
0
0
0
0
0
0
0
0
0
0
0
0
0
0
0
0
0
0
0
0
0
0
0
0
0
0
0
0
0
0
0
0
0
0
0
0
0
0
0
0
0
0
0
0
0
0
0
0
0
0
0
0
0
0
0
0
0
0
0
0
0
0
0
0
0
0
0
0
0
0
0
0
0
0
0
0
0
0
0
0
0
0
0
0
0
0
0
0
0
0
0
0
0
0
0
0
0
0
0
0
0
0
0
0
0
0
0
0
0
0
0
0
0
0
0
0
0
0
0
0
0
0
0
0
0
0
0
0
0
0
0
0
0
0
0
0
0
0
0
0
0
0
0
0
0
0
0
0
0
0
0
0
0
0
0
0
0
0
0
0
0
0
0
0
0
0
0
0
0
0
0
0
0
0
0
0
0
0
0
0
0
0
0
0
0
0
0
0
0
0
0
0
0
0
0
0
0
0
0
0
0
0
0
0
0
0
0
0
0
0
0
0
0
0
0
0
0
0
0
0
0
0
0
0
0
0
0
0
0
0
0
0
0
0
0
0
0
0
0
0
0
0
0
0
0
0
0
0
0
0
0
0
0
0
0
0
0
0
0
0
0
0
0
0
0
0
0
0
0
0
0
0
0
0
0
0
0
0
0
0
0
0
0
0
0
0
0
0
0
0
0
0
0
0
0
0
0
0
0
0
0
0
0
0
0
0
0
0
0
0
0
0
0
0
0
0
0
0
0
0
0
0
0
0
0
0
0
0
0
0
0
0
0
0
0
0
0
0
0
0
0
0
0
0
0
0
0
0
0
0
0
0
0
0
0
0
0
0
0
0
0
0
0
0
0
0
0
0
0
0
0
0
0
0
0
0
0
0
0
0
0
0
0
0
0
0
0
0
0
0
0
0
0
0
0
0
0
0
0
0
0
0
0
0
0
0
0
0
0
0
0
0
0
0
0
0
0
0
0
0
0
0
0
0
0
0
0
0
0
0
0
0
0
0
0
0
0
0
0
0
0
0
0
0
0
0
0
0
0
0
0
0
0
0
0
0
0
0
0
0
0
0
0
0
0
0
0
0
0
0
0
0
0
0
0
0
0
0
0
0
0
0
0
0
0
0
0
0
0
0
0
0
0
0
0
0
0
0
0
0
0
0
0
0
0
0
0
0
0
0
0
0
0
0
0
0
0
0
0
0
0
0
0
0
0
0
0
0
0
0
0
0
0
0
0
0
0
0
0
0
0
0
0
0
0
0
0
0
0
0
0
0
0
0
0
0
0
0
0
0
0
0
0
0
0
0
0
0
0
0
0
0
0
0
0
0
0
0
0
0
0
0
0
0
0
0
0
0
0
0
0
0
0
0
0
0
0
0
0
0
0
0
0
0
0
0
0
0
0
0
0
0
0
0
0
0
0
0
0
0
0
0
0
0
0
0
0
0
0
0
0
0
0
0
0
0
0
0
0
0
0
0
0
0
0
0
0
0
0
0
0
0
0
0
0
0
0
0
0
0
0
0
0
0
0
0
0
0
0
0
0
0
0
0
0
0
0
0
0
0
0
0
0
0
0
0
0
0
0
0
0
0
0
0
0
0
0
0
0
0
0
0
0
0
0
0
0
0
0
0
0
0
0
0
0
0
0
0
0
0
0
0
0
0
0
0
0
0
0
0
0
0
0
0
0
0
0
0
0
0
0
0
0
0
0
0
0
0
0
0
0
0
0
0
0
0
0
0
0
0
0
0
0
0
0
0
0
0
0
0
0
0
0
0
0
0
0
0
0
0
0
0
0
0
0
0
0
0
0
0
0
0
0
0
0
0
0
0
0
0
0
0
0
0
0
0
0
0
0
0
0
0
0
0
0
0
0
0
0
0
0
0
0
0
0
0
0
0
0
0
0
0
0
0
0
0
0
0
0
0
0
0
0
0
0
0
0
0
0
0
0
0
0
0
0
0
0
0
0
0
0
0
0
0
0
0
0
0
0
0
0
0
0
0
0
0
0
0
0
0
0
0
0
0
0
0
0
0
0
0
0
0
0
0
0
0
0
0
0
0
0
0
0
0
0
0
0
0
0
0
0
0
0
0
0
0
0
0
0
0
0
0
0
0
0
0
0
0
0
0
0
0
0
0
0
0
0
0
0
0
0
0
0
0
0
0
0
0
0
0
0
0
0
0
0
0
0
0
0
0
0
0
0
0
0
0
0
0
0
0
0
0
0
0
0
0
0
0
0
0
0
0
0
0
0
0
0
0
0
0
0
0
0
0
0
0
0
0
0
0
0
0
0
0
0
0
0
0
0
0
0
0
0
0
0
0
0
0
0
0
0
0
0
0
0
0
0
0
0
0
0
0
0
0
0
0
0
0
0
0
0
0
0
0
0
0
0
0
0
0
0
0
0
0
0
0
0
0
0
0
0
0
0
0
0
0
0
0
0
0
0
0
0
0
0
0
0
0
0
0
0
0
0
0
0
0
0
0
0
0
0
0
0
0
0
0
0
0
0
0
0
0
0
0
0
0
0
0
0
0
0
0
0
0
0
0
0
0
0
0
0
0
0
0
0
0
0
0
0
0
0
0
0
0
0
0
0
0
0
0
0
0
0
0
0
0
0
0
0
0
0
0
0
0
0
0
0
0
0
0
0
0
0
0
0
0
0
0
0
0
0
0
0
0
0
0
0
0
0
0
0
0
0
0
0
0
0
0
0
0
0
0
0
0
0
0
0
0
0
0
0
0
0
0
0
0
0
0
0
0
0
0
0
0
0
0
0
0
0
0
0
0
0
0
0
0
0
0
0
0
0
0
0
0
0
0
0
0
0
0
0
0
0
0
0
0
0
0
0
0
0
0
0
0
0
0
0
0
0
0
0
0
0
0
0
0
0
0
0
0
0
0
0
0
0
0
0
0
0
0
0
0
0
0
0
0
0
0
0
0
0
0
0
0
0
0
0
0
0
0
0
0
0
0
0
0
0
0
0
0
0
0
0
0
0
0
0
0
0
0
0
0
0
0
0
0
0
0
0
0
0
0
0
0
0
0
0
0
0
0
0
0
0
0
0
0
0
0
0
0
0
0
0
0
0
0
0
0
0
0
0
0
0
0
0
0
0
0
0
0
0
0
0
0
0
0
0
0
0
0
0
0
0
0
0
0
0
0
0
0
0
0
0
0
0
0
0
0
0
0
0
0
0
0
0
0
0
0
0
0
0
0
0
0
0
0
0
0
0
0
0
0
0
0
0
0
0
0
0
0
0
0
0
0
0
0
0
0
0
0
0
0
0
0
0
0
0
0
0
0
0
0
0
0
0
0
0
0
0
0
0
0
0
0
0
0
0
0
0
0
0
0
0
0
0
0
0
0
0
0
0
0
0
0
0
0
0
0
0
0
0
0
0
0
0
0
0
0
0
0
0
0
0
0
0
0
0
9.51700094e-299
0
1.1453643e-295
0
1.34387545e-292
0
1.53824862e-289
0
1.71872666e-286
0
1.87561011e-283
0
2.00013867e-280
0
2.08531062e-277
0
2.12653256e-274
0
2.12201657e-271
0
2.07287944e-268
0
1.98294232e-265
0
1.85827088e-262
3.37626646e-266
1.70652879e-259
3.45882991e-261
1.53623579e-256
6.0575414e-258
1.35602475e-253
7.83026902e-255
1.17398076e-250
8.8372551e-252
9.97123382e-248
9.182387e-249
8.31066022e-245
8.9954914e-246
6.79858585e-242
8.41556615e-243
5.45996345e-239
7.57673307e-240
4.3056118e-236
6.59793662e-237
3.33452827e-233
5.57668031e-234
2.53666736e-230
4.58649742e-231
1.89579951e-227
3.67745389e-228
1.39215136e-224
2.87878872e-225
1.00463075e-221
2.20278381e-222
7.12539273e-219
1.64907125e-219
4.96758789e-216
1.20877471e-216
3.40458893e-213
8.68093503e-214
2.29408822e-210
6.11132734e-211
1.51992412e-207
4.21939223e-208
9.90230512e-205
2.85810544e-205
6.34433133e-202
1.90005216e-202
3.99760136e-199
1.24004294e-199
2.47743666e-196
7.9469392e-197
1.51013914e-193
5.00205497e-194
9.05443051e-191
3.09288043e-191
5.34010929e-188
1.87894196e-188
3.09810178e-185
1.12165322e-185
1.76809715e-182
6.58035432e-183
9.92628074e-180
3.79426439e-180
5.48199652e-177
2.15044436e-177
2.97825057e-174
1.19806071e-174
1.59165599e-171
6.56146174e-172
8.36747843e-169
3.53271459e-169
4.32699125e-166
1.86987195e-166
2.20094259e-163
9.73002961e-164
1.10114515e-160
4.9775278e-161
5.41841197e-158
2.50324597e-158
2.62220129e-155
1.23757538e-155
1.24795227e-152
6.01452232e-153
5.8403063e-150
2.87322815e-150
2.68746612e-147
1.34912401e-147
1.21585081e-144
6.22608265e-145
5.40758971e-142
2.82372729e-142
2.36409813e-139
1.25844493e-139
1.01581244e-136
5.51065297e-137
4.28934896e-134
2.370708e-134
1.77966419e-131
1.00185039e-131
7.25417175e-129
4.15830038e-129
2.90449082e-126
1.69492312e-126
1.14211204e-123
6.78316966e-124
4.40983804e-121
2.66492786e-121
1.67157086e-118
1.02759944e-118
6.219023e-116
3.88827612e-116
2.27046824e-113
1.44340354e-113
8.13202288e-111
5.2554693e-111
2.85666016e-108
1.87636197e-108
9.83954067e-106
6.56725205e-106
3.32214673e-103
2.252605e-103
1.09914131e-100
7.56979862e-101
3.56231998e-98
2.49135644e-98
1.13057991e-95
8.02756952e-96
3.51230661e-93
2.5314114e-93
1.06765051e-90
7.80897811e-91
3.1741104e-88
2.35552975e-88
9.22505257e-86
6.9445281e-86
2.61970979e-83
2.00004218e-83
7.26512897e-81
5.62399331e-81
1.96648627e-78
1.54315552e-78
5.19193645e-76
4.12919529e-76
1.33620205e-73
1.07677094e-73
3.3497371e-71
2.73446614e-71
8.17358233e-69
6.75737132e-69
1.93962516e-66
1.62359113e-66
4.47236862e-64
3.78945569e-64
1.00103531e-61
8.5832639e-62
2.1726697e-59
1.88469187e-59
4.56740246e-57
4.00714708e-57
9.28811882e-55
8.2391915e-55
1.82459858e-52
1.63599459e-52
3.45720546e-50
3.13227091e-50
6.30766431e-48
5.77269818e-48
1.10607342e-45
1.02216542e-45
1.86021855e-43
1.73529266e-43
2.99358336e-41
2.81779564e-41
4.59747275e-39
4.36492901e-39
6.71809245e-37
6.43081912e-37
9.30860404e-35
8.98008372e-35
1.21820844e-32
1.18384535e-32
1.49887454e-30
1.46656928e-30
1.72454922e-28
1.69799452e-28
1.84361425e-26
1.82539651e-26
1.81715899e-24
1.80750325e-24
1.63579472e-22
1.63186772e-22
1.32900947e-20
1.32564744e-20
9.59809345e-19
9.52351115e-19
6.03882276e-17
5.93202647e-17
3.21906053e-15
3.17887211e-15
1.39522075e-13
1.38108764e-13
4.60918078e-12
4.61297854e-12
3.16637899e-09
3.17701631e-09
0.514191671
1.6297822
10.2029424
10.1408171
4.18968106
3.41847164
0.504942289
0.414728727
0.0814688978
0.0747714003
0.012055862
0.0116350118
0.00160619439
0.00159889641
0.000203571773
0.000203369636
2.97207629e-05
2.97743725e-05
1.0178375e-05
1.01896796e-05
8.16576309e-06
8.16585535e-06
7.97226166e-06
7.97229534e-06
7.95503521e-06
7.95504505e-06
7.9536087e-06
7.95361138e-06
7.95347707e-06
7.95349727e-06
7.95348298e-06
7.9534882e-06
7.95347185e-06
7.95350293e-06
7.95345836e-06
7.95349054e-06
7.9534821e-06
7.95347163e-06
7.95348317e-06
7.95347238e-06
7.95348306e-06
7.95347233e-06
7.95349051e-06
7.95347401e-06
7.95348548e-06
7.95348365e-06
7.95348538e-06
7.95347924e-06
7.95348146e-06
7.95347882e-06
7.95348663e-06
7.95347316e-06
7.95349164e-06
7.95347843e-06
7.95348345e-06
7.95348842e-06
7.95347292e-06
7.95348908e-06
7.95347598e-06
7.95348294e-06
7.95348021e-06
7.95348736e-06
7.9534797e-06
7.95348211e-06
7.95348108e-06
7.95347889e-06
7.95348931e-06
7.95348169e-06
7.95348281e-06
7.95346684e-06
7.95348042e-06
7.95347807e-06
7.95347057e-06
7.95349147e-06
7.95347159e-06
7.95349689e-06
7.95347662e-06
7.95349469e-06
7.95348155e-06
7.95349086e-06
7.95347363e-06
7.95349169e-06
7.95347338e-06
7.95348941e-06
7.95347769e-06
7.95348718e-06
7.95348281e-06
7.9534722e-06
7.95348466e-06
7.95347092e-06
7.95349295e-06
7.9534767e-06
7.95348385e-06
7.95348153e-06
7.95349006e-06
7.95348989e-06
7.95347588e-06
7.95348785e-06
7.95348933e-06
7.95348924e-06
7.95347925e-06
7.95348941e-06
7.95348712e-06
7.95349662e-06
7.95348059e-06
7.9534877e-06
7.95348053e-06
7.9534862e-06
7.95347707e-06
7.95348862e-06
7.95347767e-06
7.95347683e-06
7.95348021e-06
7.95348317e-06
7.95347614e-06
7.95348262e-06
7.95347864e-06
7.95349115e-06
7.95348189e-06
7.95349047e-06
7.95347815e-06
7.95349305e-06
7.95347654e-06
7.9534962e-06
7.95347675e-06
7.9534921e-06
7.95347692e-06
7.95349292e-06
7.95347716e-06
7.95349484e-06
7.95347648e-06
7.95349005e-06
7.95349801e-06
7.9534935e-06
7.95349192e-06
7.95348237e-06
7.95350688e-06
7.95347928e-06
7.9534924e-06
7.95348223e-06
7.95348372e-06
7.95348198e-06
7.95347918e-06
7.95347984e-06
7.95348557e-06
7.95347825e-06
7.95348084e-06
7.95348246e-06
7.95348903e-06
7.95347917e-06
7.95349997e-06
7.95346589e-06
7.95350299e-06
7.95347552e-06
7.9534923e-06
7.95348976e-06
7.95348185e-06
7.95348257e-06
7.95349286e-06
7.9534927e-06
7.95349874e-06
7.95348072e-06
7.95349997e-06
7.95347875e-06
7.95349848e-06
7.95348591e-06
7.95348223e-06
7.95348604e-06
7.95348816e-06
7.95347701e-06
7.95349566e-06
7.95347781e-06
7.95348134e-06
7.95348202e-06
7.9534958e-06
7.95348645e-06
7.95349424e-06
7.95349554e-06
7.95348566e-06
7.95350223e-06
7.95349555e-06
7.9535018e-06
7.9534977e-06
7.95349389e-06
7.95349055e-06
7.9534898e-06
7.95348414e-06
7.95348891e-06
7.95348557e-06
7.95349573e-06
7.95349528e-06
7.95347639e-06
7.95350278e-06
7.95348884e-06
7.95349754e-06
7.95348778e-06
7.95348658e-06
7.95348496e-06
7.95349309e-06
7.95348029e-06
7.95350191e-06
7.95348671e-06
7.95349848e-06
7.95348102e-06
7.95349692e-06
7.95349136e-06
7.95349045e-06
7.95349025e-06
7.95350469e-06
7.95349001e-06
7.95350076e-06
7.95348615e-06
7.95349906e-06
7.9534943e-06
7.95349308e-06
7.95349783e-06
7.9534896e-06
7.95349712e-06
7.95349233e-06
7.95349546e-06
7.95349004e-06
7.95349775e-06
7.95348575e-06
7.95348997e-06
7.95348827e-06
7.95348289e-06
7.95349881e-06
7.95348916e-06
7.95349156e-06
7.95350121e-06
7.9534888e-06
7.95349124e-06
7.95349572e-06
7.95349653e-06
7.95349222e-06
7.9534974e-06
7.95349524e-06
7.95349672e-06
7.95350098e-06
7.95350363e-06
7.95349119e-06
7.95350331e-06
7.9534965e-06
7.95349669e-06
7.95348989e-06
7.95350157e-06
7.95348939e-06
7.95349739e-06
7.95348507e-06
7.9534883e-06
7.95349749e-06
7.95349527e-06
7.95349998e-06
7.9534929e-06
7.95348945e-06
7.95349974e-06
7.95349088e-06
7.95350779e-06
7.95349835e-06
7.95349059e-06
7.95349998e-06
7.95350029e-06
7.95349954e-06
7.95349197e-06
7.95351093e-06
7.95348957e-06
7.95349402e-06
7.95348822e-06
7.95350181e-06
7.95348251e-06
7.95350957e-06
7.95348319e-06
7.95348991e-06
7.95350032e-06
7.95349394e-06
7.95350658e-06
7.9534941e-06
7.95350151e-06
7.95349729e-06
7.95349613e-06
7.95349628e-06
7.95349132e-06
7.9534928e-06
7.95349794e-06
7.95349526e-06
7.95349123e-06
7.95349244e-06
7.95348943e-06
7.95349616e-06
7.95349652e-06
7.95349438e-06
7.95350142e-06
7.95349416e-06
7.95349417e-06
7.95350193e-06
7.95348947e-06
7.95348813e-06
7.9534992e-06
7.95349992e-06
7.95350203e-06
7.95349645e-06
7.95349544e-06
7.95349841e-06
7.95350517e-06
7.9534946e-06
7.95350355e-06
7.9534995e-06
7.95349521e-06
7.95349558e-06
7.95351002e-06
7.95350154e-06
7.95350215e-06
7.95349713e-06
7.95349838e-06
7.95349337e-06
7.95349777e-06
7.95350694e-06
7.95348693e-06
7.95351047e-06
7.95349464e-06
7.95350355e-06
7.95349478e-06
7.95350227e-06
7.95349841e-06
7.95350224e-06
7.95349576e-06
7.95350129e-06
7.95350237e-06
7.95350078e-06
7.95350458e-06
7.95349591e-06
7.95350428e-06
7.95349746e-06
7.95349617e-06
7.95350342e-06
7.953497e-06
7.95350223e-06
7.95349723e-06
7.95348901e-06
7.95350477e-06
7.95349695e-06
7.95350123e-06
7.9534929e-06
7.95350315e-06
7.95350286e-06
7.95350503e-06
7.95349798e-06
7.95350373e-06
7.95349751e-06
7.9534974e-06
7.95350873e-06
7.95350933e-06
7.95349353e-06
7.95349924e-06
7.95350954e-06
7.95349184e-06
7.95351408e-06
7.95349682e-06
7.95349735e-06
7.95350052e-06
7.9535095e-06
7.9534985e-06
7.95350467e-06
7.95350165e-06
7.9535007e-06
7.95350707e-06
7.95350302e-06
7.95351571e-06
7.95350648e-06
7.953514e-06
7.95350786e-06
7.95350978e-06
7.95350484e-06
7.95351008e-06
7.95349744e-06
7.95350636e-06
7.95349843e-06
7.95350528e-06
7.95350519e-06
7.95350607e-06
7.95350676e-06
7.95350473e-06
7.95351006e-06
7.95350027e-06
7.95351016e-06
7.95349206e-06
7.95350455e-06
7.95349891e-06
7.95350029e-06
7.95350519e-06
7.95350054e-06
7.95350229e-06
7.95350065e-06
7.95350133e-06
7.95350974e-06
7.95350617e-06
7.9535128e-06
7.95350743e-06
7.95350533e-06
7.95350771e-06
7.95350158e-06
7.95350575e-06
7.95349637e-06
7.95351491e-06
7.95349962e-06
7.95350818e-06
7.95350097e-06
7.95351256e-06
7.95350889e-06
7.95350637e-06
7.95350876e-06
7.9535098e-06
7.95350146e-06
7.95351088e-06
7.95351093e-06
7.95350502e-06
7.95350735e-06
7.95350878e-06
7.95350457e-06
7.95350808e-06
7.95350317e-06
7.95351202e-06
7.95349997e-06
7.95351516e-06
7.95351524e-06
7.95350828e-06
7.95351177e-06
7.95351511e-06
7.95350219e-06
7.95351599e-06
7.95350993e-06
7.9535114e-06
7.95351283e-06
7.95351733e-06
7.95350873e-06
7.95351407e-06
7.95350553e-06
7.95352395e-06
7.95350473e-06
7.95352328e-06
7.9535082e-06
7.95351574e-06
7.95350166e-06
7.95351682e-06
7.95351185e-06
7.95351345e-06
7.95351037e-06
7.95352369e-06
7.95351289e-06
7.95350836e-06
7.95351269e-06
7.95350941e-06
7.95351203e-06
7.9535076e-06
7.95351682e-06
7.95351645e-06
7.95350625e-06
7.95351774e-06
7.95350898e-06
7.95350806e-06
7.95351473e-06
7.95351921e-06
7.95350242e-06
7.95352112e-06
7.95350628e-06
7.95352303e-06
7.95351292e-06
7.95351355e-06
7.95351358e-06
7.95351303e-06
7.95352469e-06
7.95350679e-06
7.95351021e-06
7.95352434e-06
7.95349501e-06
7.95353094e-06
7.95349893e-06
7.95352747e-06
7.95350312e-06
7.95351895e-06
7.95350537e-06
7.95352021e-06
7.95350814e-06
7.95351467e-06
7.95350661e-06
7.95351658e-06
7.95351219e-06
7.9535045e-06
7.9535254e-06
7.95350997e-06
7.95352477e-06
7.95351397e-06
7.95351867e-06
7.95351419e-06
7.95353368e-06
7.95349885e-06
7.95352448e-06
7.95350484e-06
7.95353114e-06
7.95350091e-06
7.95352556e-06
7.95350571e-06
7.95353244e-06
7.95351701e-06
7.95351847e-06
7.95352194e-06
7.95351715e-06
7.95352257e-06
7.95351807e-06
7.95351828e-06
7.95351861e-06
7.95351691e-06
7.95352055e-06
7.95352064e-06
7.95352377e-06
7.95352136e-06
7.95351809e-06
7.95352243e-06
7.95352071e-06
7.95351979e-06
7.95352403e-06
7.95352381e-06
7.95352425e-06
7.95352449e-06
7.95352444e-06
7.95352475e-06
7.95352651e-06
7.95352703e-06
7.95352727e-06
7.95352841e-06
7.95352887e-06
7.95353025e-06
7.953531e-06
7.95353122e-06
7.95353262e-06
7.95353325e-06
7.95353325e-06
7.95353402e-06
7.95353475e-06
7.95353554e-06
7.95353566e-06
7.95353581e-06
7.95353637e-06
7.95353625e-06
7.95353644e-06
7.95353663e-06
7.95353676e-06
7.95353627e-06
7.95353684e-06
7.95353654e-06
7.95353657e-06
7.95353659e-06
7.95353666e-06
7.95353667e-06
7.9535368e-06
7.95353668e-06
7.95353669e-06
7.95353653e-06
7.95353639e-06
7.95353674e-06
7.95353656e-06
7.95353659e-06
7.95353669e-06
7.95353662e-06
7.95353675e-06
7.95353669e-06
7.95353665e-06
7.9535368e-06
7.95353655e-06
7.95353667e-06
7.95353654e-06
7.95353675e-06
7.95353669e-06
7.95353659e-06
7.95353671e-06
7.9535365e-06
7.95353643e-06
7.95353681e-06
)
;

boundaryField
{
    closed
    {
        type            calculated;
        value           uniform 0;
    }
    open
    {
        type            calculated;
        value           uniform 0;
    }
    sides
    {
        type            empty;
    }
}


// ************************************************************************* //
