/*--------------------------------*- C++ -*----------------------------------*\
| =========                 |                                                 |
| \\      /  F ield         | OpenFOAM: The Open Source CFD Toolbox           |
|  \\    /   O peration     | Version:  2206                                  |
|   \\  /    A nd           | Website:  www.openfoam.com                      |
|    \\/     M anipulation  |                                                 |
\*---------------------------------------------------------------------------*/
FoamFile
{
    version     2.0;
    format      ascii;
    arch        "LSB;label=32;scalar=64";
    class       volVectorField;
    location    "7.6e-06";
    object      U;
}
// * * * * * * * * * * * * * * * * * * * * * * * * * * * * * * * * * * * * * //

dimensions      [0 1 -1 0 0 0 0];

internalField   nonuniform List<vector> 
3183
(
(1.88357927e-13 0 0)
(-2.16218398e-14 0 0)
(-1.13765217e-13 0 0)
(-7.58187799e-14 0 0)
(-7.97788713e-14 0 0)
(-2.50267355e-18 0 0)
(-1.97709557e-19 0 0)
(-9.50588364e-24 0 0)
(3.49134091e-24 0 0)
(2.36579199e-20 0 0)
(1.706656e-18 0 0)
(3.30077883e-14 0 0)
(3.06087605e-13 0 0)
(1.32818089e-13 0 0)
(-7.68476755e-14 0 0)
(-6.61506224e-14 0 0)
(3.08851623e-14 0 0)
(-1.83254026e-13 0 0)
(-6.59594154e-13 0 0)
(3.15136353e-14 0 0)
(3.60392475e-13 0 0)
(6.60143975e-17 0 0)
(9.77122491e-18 0 0)
(4.97670906e-14 0 0)
(2.0939593e-13 0 0)
(3.12161614e-13 0 0)
(4.44119764e-13 0 0)
(3.18402258e-13 0 0)
(-1.77974832e-13 0 0)
(-3.01498034e-14 0 0)
(-2.83992409e-13 0 0)
(-3.98915441e-13 0 0)
(-4.37290767e-13 0 0)
(-2.66492596e-13 0 0)
(-1.3553444e-13 0 0)
(3.01790423e-14 0 0)
(-9.6266863e-14 0 0)
(-2.13942337e-13 0 0)
(-2.42782793e-14 0 0)
(-8.76462768e-14 0 0)
(-2.88649012e-13 0 0)
(-3.86295811e-13 0 0)
(-1.55099788e-14 0 0)
(-3.21040846e-13 0 0)
(-9.70149606e-14 0 0)
(-1.67476447e-14 0 0)
(3.46627818e-14 0 0)
(-1.12611294e-13 0 0)
(-1.96790693e-13 0 0)
(-1.24349505e-13 0 0)
(-1.09880049e-13 0 0)
(4.59738723e-14 0 0)
(7.38164384e-14 0 0)
(7.73780526e-14 0 0)
(5.32399551e-13 0 0)
(2.29415821e-13 0 0)
(6.5181293e-13 0 0)
(7.81162343e-13 0 0)
(7.88839889e-13 0 0)
(8.97740549e-13 0 0)
(7.66843557e-13 0 0)
(8.04340976e-13 0 0)
(8.44709652e-13 0 0)
(6.83214606e-13 0 0)
(8.92316415e-13 0 0)
(1.12419902e-12 0 0)
(1.08915718e-12 0 0)
(1.35605335e-12 0 0)
(1.73166169e-12 0 0)
(1.46484659e-12 0 0)
(1.99059647e-12 0 0)
(2.21763623e-12 0 0)
(2.2378415e-12 0 0)
(2.51419006e-12 0 0)
(2.6728105e-12 0 0)
(2.21383857e-12 0 0)
(2.41632516e-12 0 0)
(2.81451818e-12 0 0)
(3.10717633e-12 0 0)
(2.96136819e-12 0 0)
(2.83158281e-12 0 0)
(3.25904994e-12 0 0)
(3.13370978e-12 0 0)
(2.27796261e-12 0 0)
(2.80342488e-12 0 0)
(2.18648805e-12 0 0)
(2.44225451e-12 0 0)
(1.89403991e-12 0 0)
(2.45159354e-12 0 0)
(2.39417191e-12 0 0)
(1.67799806e-12 0 0)
(1.30811725e-12 0 0)
(1.7031076e-12 0 0)
(9.58790266e-13 0 0)
(1.28186842e-12 0 0)
(2.09697229e-12 0 0)
(-9.42616593e-14 0 0)
(1.3010825e-12 0 0)
(7.26073112e-13 0 0)
(5.66663961e-13 0 0)
(1.61133845e-12 0 0)
(1.66428769e-12 0 0)
(1.92207717e-12 0 0)
(5.90300717e-13 0 0)
(7.60846297e-13 0 0)
(1.61513255e-12 0 0)
(1.45769986e-12 0 0)
(9.83622853e-13 0 0)
(6.59054016e-14 0 0)
(1.43639253e-13 0 0)
(1.18009167e-12 0 0)
(7.5500494e-13 0 0)
(5.50751037e-13 0 0)
(3.14805129e-13 0 0)
(8.12671712e-13 0 0)
(1.36899937e-12 0 0)
(1.35445329e-13 0 0)
(4.9724749e-13 0 0)
(3.12734878e-13 0 0)
(-4.9464369e-14 0 0)
(1.16521057e-13 0 0)
(7.15109242e-14 0 0)
(3.67445602e-13 0 0)
(-4.93500345e-14 0 0)
(-1.2321461e-12 0 0)
(-7.03051784e-13 0 0)
(5.74035053e-13 0 0)
(-1.0405167e-12 0 0)
(5.44493125e-14 0 0)
(-9.82690543e-13 0 0)
(-7.50980036e-13 0 0)
(-7.69741335e-13 0 0)
(-1.19948283e-12 0 0)
(-1.18887305e-12 0 0)
(-6.16536713e-13 0 0)
(-7.50899554e-13 0 0)
(-9.8971151e-13 0 0)
(-1.01673495e-12 0 0)
(-1.20255677e-12 0 0)
(-6.39299349e-13 0 0)
(-1.31730272e-12 0 0)
(-1.5940325e-12 0 0)
(-2.12191565e-12 0 0)
(-2.14990124e-12 0 0)
(-1.01162446e-12 0 0)
(-1.29601978e-12 0 0)
(-2.26592372e-12 0 0)
(-2.09281817e-12 0 0)
(-1.17310135e-12 0 0)
(-2.00340458e-12 0 0)
(-1.98834811e-12 0 0)
(-2.62788965e-12 0 0)
(-1.86070776e-12 0 0)
(-2.18828353e-12 0 0)
(-3.6136244e-12 0 0)
(-3.14672038e-12 0 0)
(-2.80368479e-12 0 0)
(-2.95974969e-12 0 0)
(-2.32733482e-12 0 0)
(-4.22753091e-12 0 0)
(-3.22989564e-12 0 0)
(-3.35763569e-12 0 0)
(-2.58000746e-12 0 0)
(-2.99881537e-12 0 0)
(-2.74448118e-12 0 0)
(-3.45139042e-12 0 0)
(-3.35447475e-12 0 0)
(-3.43433034e-12 0 0)
(-3.62049971e-12 0 0)
(-3.60489851e-12 0 0)
(-3.68032991e-12 0 0)
(-3.81625071e-12 0 0)
(-4.83064423e-12 0 0)
(-3.28732492e-12 0 0)
(-4.5265965e-12 0 0)
(-3.25429869e-12 0 0)
(-3.95775738e-12 0 0)
(-4.15348483e-12 0 0)
(-2.94778327e-12 0 0)
(-4.85400444e-12 0 0)
(-3.28786228e-12 0 0)
(-5.30498344e-12 0 0)
(-3.69507115e-12 0 0)
(-3.40067775e-12 0 0)
(-5.22565386e-12 0 0)
(-4.35576013e-12 0 0)
(-4.78316233e-12 0 0)
(-3.79151076e-12 0 0)
(-5.64901094e-12 0 0)
(-3.82463425e-12 0 0)
(-4.24688739e-12 0 0)
(-5.0754592e-12 0 0)
(-4.75399802e-12 0 0)
(-3.99780746e-12 0 0)
(-5.56251572e-12 0 0)
(-4.26707998e-12 0 0)
(-4.88843972e-12 0 0)
(-5.02762105e-12 0 0)
(-4.4971352e-12 0 0)
(-5.8264145e-12 0 0)
(-5.57116395e-12 0 0)
(-5.31080183e-12 0 0)
(-5.05304706e-12 0 0)
(-4.95526973e-12 0 0)
(-5.79338367e-12 0 0)
(-4.24770546e-12 0 0)
(-5.62460764e-12 0 0)
(-5.35427118e-12 0 0)
(-4.73141614e-12 0 0)
(-4.86975289e-12 0 0)
(-5.52345789e-12 0 0)
(-6.27535214e-12 0 0)
(-4.86605462e-12 0 0)
(-5.57374773e-12 0 0)
(-5.24292714e-12 0 0)
(-4.88215896e-12 0 0)
(-5.6430842e-12 0 0)
(-5.96836224e-12 0 0)
(-4.82290311e-12 0 0)
(-5.05289526e-12 0 0)
(-6.27266487e-12 0 0)
(-6.36260925e-12 0 0)
(-6.22930744e-12 0 0)
(-4.83705754e-12 0 0)
(-6.31729494e-12 0 0)
(-6.93115593e-12 0 0)
(-7.63349935e-12 0 0)
(-7.30663545e-12 0 0)
(-8.10118635e-12 0 0)
(-6.35841034e-12 0 0)
(-7.11551687e-12 0 0)
(-7.17775927e-12 0 0)
(-6.7383854e-12 0 0)
(-8.05531503e-12 0 0)
(-7.31189945e-12 0 0)
(-7.12400376e-12 0 0)
(-7.33827021e-12 0 0)
(-7.60016928e-12 0 0)
(-7.60982565e-12 0 0)
(-7.4953244e-12 0 0)
(-8.81473738e-12 0 0)
(-7.9961272e-12 0 0)
(-8.01485193e-12 0 0)
(-7.46144169e-12 0 0)
(-8.18101809e-12 0 0)
(-8.86212274e-12 0 0)
(-7.76886806e-12 0 0)
(-6.97639398e-12 0 0)
(-8.29549619e-12 0 0)
(-8.49524743e-12 0 0)
(-7.34270862e-12 0 0)
(-7.18813166e-12 0 0)
(-8.40159809e-12 0 0)
(-8.67242132e-12 0 0)
(-8.27632688e-12 0 0)
(-8.06960296e-12 0 0)
(-8.77939878e-12 0 0)
(-8.33437285e-12 0 0)
(-8.8556191e-12 0 0)
(-9.30627363e-12 0 0)
(-8.92333404e-12 0 0)
(-9.77060835e-12 0 0)
(-1.04847739e-11 0 0)
(-8.06510315e-12 0 0)
(-1.03530759e-11 0 0)
(-8.91576301e-12 0 0)
(-1.10372273e-11 0 0)
(-1.00348165e-11 0 0)
(-1.13594009e-11 0 0)
(-1.00094683e-11 0 0)
(-9.0033433e-12 0 0)
(-1.04468345e-11 0 0)
(-1.03815451e-11 0 0)
(-9.43034203e-12 0 0)
(-1.0367997e-11 0 0)
(-8.51772406e-12 0 0)
(-1.00552707e-11 0 0)
(-9.87527945e-12 0 0)
(-8.95101147e-12 0 0)
(-8.64715871e-12 0 0)
(-1.06178177e-11 0 0)
(-1.04486421e-11 0 0)
(-1.00753772e-11 0 0)
(-9.72305604e-12 0 0)
(-9.07465944e-12 0 0)
(-9.79959269e-12 0 0)
(-9.5878695e-12 0 0)
(-9.67918245e-12 0 0)
(-9.18095467e-12 0 0)
(-9.77808283e-12 0 0)
(-9.34349397e-12 0 0)
(-9.96180283e-12 0 0)
(-1.0044422e-11 0 0)
(-1.04755742e-11 0 0)
(-9.57564454e-12 0 0)
(-1.01049986e-11 0 0)
(-1.07899689e-11 0 0)
(-1.05164339e-11 0 0)
(-1.00215754e-11 0 0)
(-1.09016312e-11 0 0)
(-1.06428568e-11 0 0)
(-1.03918634e-11 0 0)
(-1.04106933e-11 0 0)
(-1.11311244e-11 0 0)
(-1.20522476e-11 0 0)
(-1.1871537e-11 0 0)
(-1.04152922e-11 0 0)
(-1.13362521e-11 0 0)
(-1.18576944e-11 0 0)
(-1.05546789e-11 0 0)
(-1.15893307e-11 0 0)
(-1.09486997e-11 0 0)
(-1.07010055e-11 0 0)
(-1.04886036e-11 0 0)
(-1.07978788e-11 0 0)
(-1.1646142e-11 0 0)
(-1.18985249e-11 0 0)
(-1.19092712e-11 0 0)
(-1.11513343e-11 0 0)
(-1.26334452e-11 0 0)
(-1.24886092e-11 0 0)
(-1.30083236e-11 0 0)
(-1.27671865e-11 0 0)
(-1.16473924e-11 0 0)
(-1.34543387e-11 0 0)
(-1.16503156e-11 0 0)
(-1.2099259e-11 0 0)
(-1.30966498e-11 0 0)
(-1.31786403e-11 0 0)
(-1.20359454e-11 0 0)
(-1.16789593e-11 0 0)
(-1.30930961e-11 0 0)
(-1.21214987e-11 0 0)
(-1.07607568e-11 0 0)
(-9.85590866e-12 0 0)
(-1.15609403e-11 0 0)
(-1.05042082e-11 0 0)
(-1.2617827e-11 0 0)
(-1.19813904e-11 0 0)
(-1.11149039e-11 0 0)
(-1.17685814e-11 0 0)
(-1.25835113e-11 0 0)
(-1.14864997e-11 0 0)
(-1.09162997e-11 0 0)
(-1.14275665e-11 0 0)
(-1.11938131e-11 0 0)
(-1.29757774e-11 0 0)
(-1.06873671e-11 0 0)
(-1.22458037e-11 0 0)
(-1.14638828e-11 0 0)
(-1.09898132e-11 0 0)
(-1.17015702e-11 0 0)
(-1.16358485e-11 0 0)
(-1.17021386e-11 0 0)
(-1.00064502e-11 0 0)
(-1.06183454e-11 0 0)
(-1.21322198e-11 0 0)
(-1.15312441e-11 0 0)
(-1.24071769e-11 0 0)
(-1.05561216e-11 0 0)
(-1.09115256e-11 0 0)
(-1.13272328e-11 0 0)
(-1.1824709e-11 0 0)
(-1.07259303e-11 0 0)
(-1.09281571e-11 0 0)
(-1.16291995e-11 0 0)
(-1.11616665e-11 0 0)
(-1.19355632e-11 0 0)
(-1.07980756e-11 0 0)
(-1.11741971e-11 0 0)
(-9.68440897e-12 0 0)
(-1.10458387e-11 0 0)
(-9.13154846e-12 0 0)
(-1.00814711e-11 0 0)
(-9.10877381e-12 0 0)
(-8.95579898e-12 0 0)
(-9.72906198e-12 0 0)
(-8.69410853e-12 0 0)
(-9.35059493e-12 0 0)
(-9.40274494e-12 0 0)
(-8.55906355e-12 0 0)
(-8.46682203e-12 0 0)
(-8.53450859e-12 0 0)
(-8.88813404e-12 0 0)
(-7.54733055e-12 0 0)
(-8.87958465e-12 0 0)
(-8.72690444e-12 0 0)
(-8.20255256e-12 0 0)
(-7.84504547e-12 0 0)
(-7.73705418e-12 0 0)
(-7.54374557e-12 0 0)
(-9.46048219e-12 0 0)
(-7.46203814e-12 0 0)
(-8.34964297e-12 0 0)
(-7.53434107e-12 0 0)
(-7.44066576e-12 0 0)
(-8.12720276e-12 0 0)
(-7.5907577e-12 0 0)
(-7.64997965e-12 0 0)
(-7.44873242e-12 0 0)
(-6.87947468e-12 0 0)
(-8.48825877e-12 0 0)
(-7.76102815e-12 0 0)
(-8.97100084e-12 0 0)
(-7.36905163e-12 0 0)
(-6.48690712e-12 0 0)
(-7.30209473e-12 0 0)
(-7.65024315e-12 0 0)
(-7.55755912e-12 0 0)
(-6.87728611e-12 0 0)
(-7.87087282e-12 0 0)
(-6.58673508e-12 0 0)
(-7.30322495e-12 0 0)
(-7.03983376e-12 0 0)
(-7.44295035e-12 0 0)
(-6.07955481e-12 0 0)
(-6.32962323e-12 0 0)
(-6.33179937e-12 0 0)
(-6.61331425e-12 0 0)
(-6.39096316e-12 0 0)
(-6.24638174e-12 0 0)
(-5.06336115e-12 0 0)
(-6.73931879e-12 0 0)
(-5.81656897e-12 0 0)
(-7.15801248e-12 0 0)
(-5.59447915e-12 0 0)
(-4.42111384e-12 0 0)
(-5.42189403e-12 0 0)
(-5.02344672e-12 0 0)
(-4.64665404e-12 0 0)
(-4.33284588e-12 0 0)
(-6.37799413e-12 0 0)
(-5.93867976e-12 0 0)
(-5.83810038e-12 0 0)
(-4.77833273e-12 0 0)
(-5.10322025e-12 0 0)
(-5.0526856e-12 0 0)
(-4.65693909e-12 0 0)
(-4.76318185e-12 0 0)
(-5.5017698e-12 0 0)
(-4.65515217e-12 0 0)
(-5.65896383e-12 0 0)
(-4.87371329e-12 0 0)
(-4.36013534e-12 0 0)
(-5.65048956e-12 0 0)
(-4.77075271e-12 0 0)
(-5.63074653e-12 0 0)
(-5.0723399e-12 0 0)
(-5.44910218e-12 0 0)
(-4.00865081e-12 0 0)
(-5.06192802e-12 0 0)
(-4.2541275e-12 0 0)
(-5.45999511e-12 0 0)
(-5.69640195e-12 0 0)
(-5.31032211e-12 0 0)
(-4.04443607e-12 0 0)
(-4.57610496e-12 0 0)
(-5.13502965e-12 0 0)
(-4.85343786e-12 0 0)
(-3.58413867e-12 0 0)
(-5.2937411e-12 0 0)
(-5.03555088e-12 0 0)
(-4.25883184e-12 0 0)
(-3.93262393e-12 0 0)
(-5.14805763e-12 0 0)
(-4.0276601e-12 0 0)
(-3.9679081e-12 0 0)
(-3.73327596e-12 0 0)
(-3.67646197e-12 0 0)
(-4.17956945e-12 0 0)
(-2.45993975e-12 0 0)
(-2.88769935e-12 0 0)
(-2.92094743e-12 0 0)
(-3.7542124e-12 0 0)
(-2.56890465e-12 0 0)
(-2.41227976e-12 0 0)
(-2.47264285e-12 0 0)
(-1.80661701e-12 0 0)
(-2.99850897e-12 0 0)
(-3.22604836e-12 0 0)
(-1.99052074e-12 0 0)
(-2.27655622e-12 0 0)
(-1.97048757e-12 0 0)
(-2.59040602e-12 0 0)
(-1.96883429e-12 0 0)
(-1.78810039e-12 0 0)
(-2.18725033e-12 0 0)
(-2.55416232e-12 0 0)
(-2.49386347e-12 0 0)
(-2.84711446e-12 0 0)
(-2.38850284e-12 0 0)
(-2.51041427e-12 0 0)
(-3.17147044e-12 0 0)
(-1.60617558e-12 0 0)
(-2.33152454e-12 0 0)
(-2.47281884e-12 0 0)
(-1.76922235e-12 0 0)
(-2.24288315e-12 0 0)
(-1.90848843e-12 0 0)
(-2.19992482e-12 0 0)
(-1.75687996e-12 0 0)
(-1.61035587e-12 0 0)
(-1.98567473e-12 0 0)
(-2.11703926e-12 0 0)
(-2.02117086e-12 0 0)
(-2.66159896e-12 0 0)
(-1.6459527e-12 0 0)
(-1.76442226e-12 0 0)
(-1.67287182e-12 0 0)
(-1.83511056e-12 0 0)
(-1.86004445e-12 0 0)
(-2.69445472e-12 0 0)
(-1.40355904e-12 0 0)
(-9.09861284e-13 0 0)
(-1.19044589e-12 0 0)
(-1.0045794e-12 0 0)
(-7.775158e-13 0 0)
(-6.37730171e-13 0 0)
(-6.56955809e-13 0 0)
(-4.88946716e-13 0 0)
(-3.81315685e-13 0 0)
(-3.76171364e-13 0 0)
(1.57038128e-13 0 0)
(-8.40804162e-13 0 0)
(9.03559197e-13 0 0)
(1.76339657e-13 0 0)
(-1.2868517e-13 0 0)
(9.43036436e-13 0 0)
(3.14229848e-13 0 0)
(-1.09102551e-12 0 0)
(-1.89602619e-13 0 0)
(2.04002635e-13 0 0)
(5.39970249e-13 0 0)
(2.86912985e-13 0 0)
(2.68620218e-13 0 0)
(5.45409563e-13 0 0)
(3.89303397e-13 0 0)
(1.27868705e-12 0 0)
(9.58868204e-13 0 0)
(9.31899837e-13 0 0)
(7.01901722e-13 0 0)
(6.92424648e-13 0 0)
(7.43870141e-13 0 0)
(1.16975598e-12 0 0)
(1.38848215e-12 0 0)
(8.50411657e-13 0 0)
(-2.58597014e-14 0 0)
(1.28036889e-12 0 0)
(1.24841249e-12 0 0)
(3.17878851e-13 0 0)
(1.54023484e-12 0 0)
(1.73297437e-12 0 0)
(1.50823375e-12 0 0)
(1.62846875e-12 0 0)
(1.98380532e-12 0 0)
(2.00928202e-12 0 0)
(2.54828887e-12 0 0)
(2.38796109e-12 0 0)
(2.98523288e-12 0 0)
(1.39829312e-12 0 0)
(1.99516247e-12 0 0)
(2.117704e-12 0 0)
(1.9483447e-12 0 0)
(2.18443549e-12 0 0)
(2.001162e-12 0 0)
(1.56344152e-12 0 0)
(2.34434574e-12 0 0)
(3.31704316e-12 0 0)
(3.24127124e-12 0 0)
(3.25995273e-12 0 0)
(2.96682967e-12 0 0)
(3.01527361e-12 0 0)
(3.20351166e-12 0 0)
(4.27638408e-12 0 0)
(3.24214344e-12 0 0)
(3.29898051e-12 0 0)
(3.85344483e-12 0 0)
(3.71047145e-12 0 0)
(3.76246194e-12 0 0)
(3.70726106e-12 0 0)
(3.5355872e-12 0 0)
(2.91622804e-12 0 0)
(4.30193795e-12 0 0)
(3.01647548e-12 0 0)
(4.17995038e-12 0 0)
(3.2589104e-12 0 0)
(4.48520319e-12 0 0)
(5.02220025e-12 0 0)
(3.23089174e-12 0 0)
(4.70079746e-12 0 0)
(3.95803455e-12 0 0)
(4.07879485e-12 0 0)
(4.36883518e-12 0 0)
(4.23553114e-12 0 0)
(4.57083484e-12 0 0)
(4.01731552e-12 0 0)
(3.98939176e-12 0 0)
(4.17466574e-12 0 0)
(4.3024212e-12 0 0)
(3.6811984e-12 0 0)
(3.81028838e-12 0 0)
(3.8834506e-12 0 0)
(3.55382941e-12 0 0)
(3.6714258e-12 0 0)
(4.82248726e-12 0 0)
(3.61260241e-12 0 0)
(4.5771922e-12 0 0)
(4.69885848e-12 0 0)
(3.9727628e-12 0 0)
(4.04022066e-12 0 0)
(3.52172544e-12 0 0)
(3.33620269e-12 0 0)
(3.39539414e-12 0 0)
(2.99633271e-12 0 0)
(4.00748554e-12 0 0)
(3.79297624e-12 0 0)
(3.7969834e-12 0 0)
(3.23752836e-12 0 0)
(2.98456508e-12 0 0)
(3.25839927e-12 0 0)
(4.16747963e-12 0 0)
(2.53872566e-12 0 0)
(2.58937119e-12 0 0)
(2.7813071e-12 0 0)
(2.98601461e-12 0 0)
(4.0248122e-12 0 0)
(2.86476558e-12 0 0)
(2.0491027e-12 0 0)
(3.24461975e-12 0 0)
(2.98719207e-12 0 0)
(2.83387899e-12 0 0)
(3.05257151e-12 0 0)
(2.81048398e-12 0 0)
(3.18699235e-12 0 0)
(2.92926193e-12 0 0)
(3.01075038e-12 0 0)
(2.23796923e-12 0 0)
(3.27687823e-12 0 0)
(2.8858468e-12 0 0)
(2.95854374e-12 0 0)
(1.51653414e-12 0 0)
(2.09125204e-12 0 0)
(3.72037785e-12 0 0)
(2.37469784e-12 0 0)
(2.91569595e-12 0 0)
(2.90690633e-12 0 0)
(3.42693636e-12 0 0)
(2.7641403e-12 0 0)
(2.83919425e-12 0 0)
(3.45229154e-12 0 0)
(3.61549977e-12 0 0)
(2.40951602e-12 0 0)
(2.98663364e-12 0 0)
(2.62682186e-12 0 0)
(2.23499875e-12 0 0)
(2.53370819e-12 0 0)
(2.13080756e-12 0 0)
(2.05964763e-12 0 0)
(1.6873341e-12 0 0)
(1.21717007e-12 0 0)
(1.23482223e-12 0 0)
(1.71384254e-12 0 0)
(1.99893841e-12 0 0)
(2.2934584e-12 0 0)
(7.62018067e-13 0 0)
(1.79048312e-12 0 0)
(2.68480718e-12 0 0)
(1.28006056e-12 0 0)
(2.21468542e-12 0 0)
(2.81212955e-12 0 0)
(1.56526942e-12 0 0)
(1.76400981e-12 0 0)
(2.74835543e-12 0 0)
(2.84311948e-12 0 0)
(2.94511355e-12 0 0)
(1.63667268e-12 0 0)
(2.6145833e-12 0 0)
(2.56781446e-12 0 0)
(2.84890436e-12 0 0)
(2.84746778e-12 0 0)
(2.26602411e-12 0 0)
(2.02051639e-12 0 0)
(1.94483385e-12 0 0)
(3.19669143e-12 0 0)
(3.17157623e-12 0 0)
(2.74733845e-12 0 0)
(3.45217948e-12 0 0)
(2.17034541e-12 0 0)
(3.84467752e-12 0 0)
(3.76492988e-12 0 0)
(3.5196481e-12 0 0)
(3.85629925e-12 0 0)
(3.7806717e-12 0 0)
(4.29631691e-12 0 0)
(4.36436001e-12 0 0)
(4.42768664e-12 0 0)
(4.38688586e-12 0 0)
(5.28266262e-12 0 0)
(3.72683038e-12 0 0)
(4.99882101e-12 0 0)
(5.03208568e-12 0 0)
(3.98896154e-12 0 0)
(4.71016141e-12 0 0)
(4.84376011e-12 0 0)
(4.48301929e-12 0 0)
(5.22122653e-12 0 0)
(5.17132454e-12 0 0)
(5.08142777e-12 0 0)
(5.50242201e-12 0 0)
(4.56298845e-12 0 0)
(4.50892804e-12 0 0)
(5.07642952e-12 0 0)
(5.36496546e-12 0 0)
(5.44038383e-12 0 0)
(4.54032689e-12 0 0)
(5.65982859e-12 0 0)
(3.48449952e-12 0 0)
(5.39495623e-12 0 0)
(4.37636742e-12 0 0)
(3.77379796e-12 0 0)
(3.50486009e-12 0 0)
(4.10914163e-12 0 0)
(4.40348824e-12 0 0)
(3.09401729e-12 0 0)
(3.54650651e-12 0 0)
(3.26254466e-12 0 0)
(2.85542878e-12 0 0)
(2.49941123e-12 0 0)
(3.00525376e-12 0 0)
(3.5086901e-12 0 0)
(3.0101799e-12 0 0)
(3.13441386e-12 0 0)
(2.86755988e-12 0 0)
(3.30725646e-12 0 0)
(3.74372499e-12 0 0)
(3.62589883e-12 0 0)
(3.50319295e-12 0 0)
(3.87041918e-12 0 0)
(4.06562669e-12 0 0)
(4.67732471e-12 0 0)
(3.93233183e-12 0 0)
(3.67419506e-12 0 0)
(3.45927412e-12 0 0)
(3.58535998e-12 0 0)
(3.31520184e-12 0 0)
(3.50018772e-12 0 0)
(2.76011099e-12 0 0)
(2.91992957e-12 0 0)
(2.56294287e-12 0 0)
(3.23850785e-12 0 0)
(2.48932067e-12 0 0)
(3.70656806e-12 0 0)
(3.3764922e-12 0 0)
(3.11079477e-12 0 0)
(2.88024059e-12 0 0)
(2.76556519e-12 0 0)
(4.10754648e-12 0 0)
(3.19618167e-12 0 0)
(3.35137479e-12 0 0)
(3.27880981e-12 0 0)
(3.55780968e-12 0 0)
(3.11110291e-12 0 0)
(3.36152096e-12 0 0)
(3.01739982e-12 0 0)
(3.32011949e-12 0 0)
(3.32096835e-12 0 0)
(3.26614502e-12 0 0)
(3.2350442e-12 0 0)
(3.62736088e-12 0 0)
(2.85143746e-12 0 0)
(3.17580136e-12 0 0)
(3.90413937e-12 0 0)
(3.39123937e-12 0 0)
(3.92265952e-12 0 0)
(3.24842158e-12 0 0)
(2.86886367e-12 0 0)
(3.05593576e-12 0 0)
(3.57317911e-12 0 0)
(3.35460104e-12 0 0)
(4.25836929e-12 0 0)
(4.38144079e-12 0 0)
(4.15315599e-12 0 0)
(3.49843362e-12 0 0)
(4.33723026e-12 0 0)
(3.86791495e-12 0 0)
(3.68524338e-12 0 0)
(3.84551977e-12 0 0)
(3.90206789e-12 0 0)
(3.96586626e-12 0 0)
(3.36222459e-12 0 0)
(3.38288103e-12 0 0)
(3.90237012e-12 0 0)
(4.18947405e-12 0 0)
(3.01359306e-12 0 0)
(2.21560823e-12 0 0)
(2.85369738e-12 0 0)
(3.48670709e-12 0 0)
(2.95640801e-12 0 0)
(2.70571656e-12 0 0)
(2.82267042e-12 0 0)
(1.50292576e-12 0 0)
(3.07703893e-12 0 0)
(1.80794412e-12 0 0)
(2.57495871e-12 0 0)
(2.52732134e-12 0 0)
(2.5634729e-12 0 0)
(3.62798822e-12 0 0)
(2.99616252e-12 0 0)
(2.8205936e-12 0 0)
(1.98753213e-12 0 0)
(2.80967351e-12 0 0)
(1.69227464e-12 0 0)
(1.69933053e-12 0 0)
(2.00062063e-12 0 0)
(2.82564332e-12 0 0)
(2.87529374e-12 0 0)
(2.28087929e-12 0 0)
(2.515069e-12 0 0)
(2.52197306e-12 0 0)
(2.20512172e-12 0 0)
(2.63333314e-12 0 0)
(2.56143917e-12 0 0)
(3.21072025e-12 0 0)
(2.7632542e-12 0 0)
(2.41053194e-12 0 0)
(2.53500023e-12 0 0)
(2.12450788e-12 0 0)
(2.22464183e-12 0 0)
(2.18204757e-12 0 0)
(2.18926047e-12 0 0)
(2.86311385e-12 0 0)
(2.46215935e-12 0 0)
(1.61946683e-12 0 0)
(2.95252714e-12 0 0)
(2.05948933e-12 0 0)
(2.14690378e-12 0 0)
(1.95792542e-12 0 0)
(3.33669033e-12 0 0)
(2.10167078e-12 0 0)
(3.05809203e-12 0 0)
(2.03967572e-12 0 0)
(1.88287304e-12 0 0)
(2.81581569e-12 0 0)
(2.60583561e-12 0 0)
(2.35992775e-12 0 0)
(2.90005728e-12 0 0)
(3.25897282e-12 0 0)
(3.6740586e-12 0 0)
(2.17048221e-12 0 0)
(2.34836068e-12 0 0)
(3.6247494e-12 0 0)
(2.36707339e-12 0 0)
(2.4781544e-12 0 0)
(3.45626493e-12 0 0)
(2.80305383e-12 0 0)
(3.30771071e-12 0 0)
(2.69775551e-12 0 0)
(3.69897438e-12 0 0)
(3.11533754e-12 0 0)
(3.49661431e-12 0 0)
(3.38472761e-12 0 0)
(3.57310151e-12 0 0)
(4.15868323e-12 0 0)
(3.34902316e-12 0 0)
(4.37144158e-12 0 0)
(4.27331299e-12 0 0)
(5.77202916e-12 0 0)
(4.07049381e-12 0 0)
(4.74241945e-12 0 0)
(3.54039534e-12 0 0)
(4.82214923e-12 0 0)
(4.92051425e-12 0 0)
(4.7521598e-12 0 0)
(5.6734868e-12 0 0)
(4.35438304e-12 0 0)
(5.6620034e-12 0 0)
(5.70886006e-12 0 0)
(4.90920558e-12 0 0)
(5.31327174e-12 0 0)
(7.24007439e-12 0 0)
(5.14279468e-12 0 0)
(5.41065467e-12 0 0)
(4.96617295e-12 0 0)
(5.58946622e-12 0 0)
(5.38337914e-12 0 0)
(6.128967e-12 0 0)
(5.02160729e-12 0 0)
(5.62894971e-12 0 0)
(5.35180751e-12 0 0)
(5.48280229e-12 0 0)
(6.31407058e-12 0 0)
(5.23737985e-12 0 0)
(5.54410726e-12 0 0)
(5.81233537e-12 0 0)
(5.57950505e-12 0 0)
(5.5983994e-12 0 0)
(6.51169642e-12 0 0)
(5.79357779e-12 0 0)
(5.8224401e-12 0 0)
(5.45269006e-12 0 0)
(5.94090557e-12 0 0)
(6.12087119e-12 0 0)
(6.16269914e-12 0 0)
(5.43271234e-12 0 0)
(5.76182749e-12 0 0)
(5.77669187e-12 0 0)
(5.77574369e-12 0 0)
(6.42675091e-12 0 0)
(6.23504003e-12 0 0)
(6.07587249e-12 0 0)
(5.66109444e-12 0 0)
(7.49252317e-12 0 0)
(5.93835302e-12 0 0)
(7.134237e-12 0 0)
(4.89641511e-12 0 0)
(6.35520994e-12 0 0)
(7.23074647e-12 0 0)
(6.29079543e-12 0 0)
(6.36220313e-12 0 0)
(6.73741728e-12 0 0)
(7.08230624e-12 0 0)
(7.43592482e-12 0 0)
(7.22374415e-12 0 0)
(5.94355592e-12 0 0)
(6.47522256e-12 0 0)
(6.81958884e-12 0 0)
(6.91482275e-12 0 0)
(5.90855254e-12 0 0)
(6.27560707e-12 0 0)
(6.09236488e-12 0 0)
(5.87561987e-12 0 0)
(6.01363766e-12 0 0)
(6.04013874e-12 0 0)
(6.5578887e-12 0 0)
(5.78846544e-12 0 0)
(6.14666661e-12 0 0)
(6.78763657e-12 0 0)
(5.98999936e-12 0 0)
(7.07084486e-12 0 0)
(6.49797968e-12 0 0)
(7.13960654e-12 0 0)
(5.80733329e-12 0 0)
(7.04781344e-12 0 0)
(5.19970273e-12 0 0)
(6.4805749e-12 0 0)
(5.71735939e-12 0 0)
(6.23604897e-12 0 0)
(6.20543436e-12 0 0)
(6.1079287e-12 0 0)
(6.71015569e-12 0 0)
(5.78440087e-12 0 0)
(5.91680965e-12 0 0)
(5.81422467e-12 0 0)
(5.75028233e-12 0 0)
(5.88887716e-12 0 0)
(5.4526042e-12 0 0)
(6.03068923e-12 0 0)
(6.33240666e-12 0 0)
(4.87937239e-12 0 0)
(4.8546578e-12 0 0)
(5.5116934e-12 0 0)
(6.55763154e-12 0 0)
(5.93065469e-12 0 0)
(5.16623945e-12 0 0)
(5.23358634e-12 0 0)
(5.51109039e-12 0 0)
(6.07804811e-12 0 0)
(4.90430124e-12 0 0)
(5.560903e-12 0 0)
(5.43438017e-12 0 0)
(4.9020339e-12 0 0)
(4.96894018e-12 0 0)
(4.99638988e-12 0 0)
(5.15278807e-12 0 0)
(5.04388063e-12 0 0)
(5.55901712e-12 0 0)
(4.92833089e-12 0 0)
(5.13395179e-12 0 0)
(4.71360116e-12 0 0)
(5.25642516e-12 0 0)
(5.20997079e-12 0 0)
(5.72312565e-12 0 0)
(5.19514443e-12 0 0)
(5.13735118e-12 0 0)
(5.10440568e-12 0 0)
(4.61701227e-12 0 0)
(4.39595246e-12 0 0)
(5.29154182e-12 0 0)
(5.76489015e-12 0 0)
(4.84469485e-12 0 0)
(5.25327648e-12 0 0)
(5.09323631e-12 0 0)
(6.25348412e-12 0 0)
(4.60211928e-12 0 0)
(4.89122846e-12 0 0)
(5.49025122e-12 0 0)
(4.45572135e-12 0 0)
(5.12865483e-12 0 0)
(5.37444306e-12 0 0)
(6.40597653e-12 0 0)
(6.33539751e-12 0 0)
(5.424591e-12 0 0)
(6.26014299e-12 0 0)
(6.19139286e-12 0 0)
(6.55594055e-12 0 0)
(5.40541131e-12 0 0)
(5.78419986e-12 0 0)
(6.4311956e-12 0 0)
(5.73448143e-12 0 0)
(6.87302258e-12 0 0)
(6.99694086e-12 0 0)
(6.03104938e-12 0 0)
(5.49784841e-12 0 0)
(5.82950767e-12 0 0)
(6.22031925e-12 0 0)
(5.24054085e-12 0 0)
(6.68004121e-12 0 0)
(5.9218907e-12 0 0)
(6.8201592e-12 0 0)
(6.55884835e-12 0 0)
(5.65680595e-12 0 0)
(6.22349761e-12 0 0)
(6.39309277e-12 0 0)
(5.40143822e-12 0 0)
(6.72670951e-12 0 0)
(5.70239375e-12 0 0)
(5.44985772e-12 0 0)
(5.11071444e-12 0 0)
(5.30097789e-12 0 0)
(5.13052545e-12 0 0)
(6.26627279e-12 0 0)
(4.81998391e-12 0 0)
(5.971859e-12 0 0)
(5.74225996e-12 0 0)
(5.9777768e-12 0 0)
(4.99659501e-12 0 0)
(4.81430519e-12 0 0)
(4.64290105e-12 0 0)
(4.22996257e-12 0 0)
(4.06374221e-12 0 0)
(4.22589995e-12 0 0)
(3.98040975e-12 0 0)
(3.87115774e-12 0 0)
(3.94954744e-12 0 0)
(3.43282081e-12 0 0)
(4.24593119e-12 0 0)
(2.84510439e-12 0 0)
(3.07459317e-12 0 0)
(2.60321969e-12 0 0)
(1.80480426e-12 0 0)
(1.87835951e-12 0 0)
(2.40181774e-12 0 0)
(1.34731092e-12 0 0)
(2.04866335e-12 0 0)
(2.96577218e-12 0 0)
(2.33789175e-12 0 0)
(2.56201235e-12 0 0)
(2.41091158e-12 0 0)
(2.38221076e-12 0 0)
(2.06985795e-12 0 0)
(1.74121203e-12 0 0)
(2.05239334e-12 0 0)
(1.67405833e-12 0 0)
(2.86339884e-12 0 0)
(2.07678459e-12 0 0)
(1.96620906e-12 0 0)
(1.51956173e-12 0 0)
(2.47670347e-12 0 0)
(1.77176815e-12 0 0)
(2.06323403e-12 0 0)
(2.50696473e-12 0 0)
(2.42919805e-12 0 0)
(2.49512352e-12 0 0)
(1.97491438e-12 0 0)
(2.80163638e-12 0 0)
(1.30509289e-12 0 0)
(1.95611506e-12 0 0)
(1.49478145e-12 0 0)
(1.40507705e-12 0 0)
(1.93325434e-12 0 0)
(8.50315079e-13 0 0)
(4.96298009e-13 0 0)
(8.71848571e-13 0 0)
(1.27709613e-12 0 0)
(-8.38949076e-14 0 0)
(1.09706767e-12 0 0)
(1.44548305e-12 0 0)
(5.64569746e-13 0 0)
(2.86340808e-13 0 0)
(1.13607484e-13 0 0)
(-1.06320806e-13 0 0)
(2.7304432e-13 0 0)
(-8.34292212e-13 0 0)
(1.93783163e-13 0 0)
(-1.03308572e-12 0 0)
(-1.16466694e-12 0 0)
(7.05775582e-14 0 0)
(-3.15685374e-13 0 0)
(1.32718073e-13 0 0)
(-7.76770144e-13 0 0)
(-7.58003051e-13 0 0)
(-1.10979293e-12 0 0)
(-6.04058902e-13 0 0)
(-1.12198214e-12 0 0)
(-1.43176624e-12 0 0)
(-9.0069562e-13 0 0)
(-1.14603493e-12 0 0)
(-1.27316773e-12 0 0)
(-6.48888067e-13 0 0)
(-1.2913242e-12 0 0)
(-8.51310509e-13 0 0)
(-1.4179782e-12 0 0)
(-9.97327636e-13 0 0)
(-1.2001499e-12 0 0)
(-1.61829383e-12 0 0)
(-1.90188042e-12 0 0)
(-2.13681126e-12 0 0)
(-1.67331343e-12 0 0)
(-2.32974146e-12 0 0)
(-1.40810844e-12 0 0)
(-2.37728774e-12 0 0)
(-2.25616363e-12 0 0)
(-3.5101036e-12 0 0)
(-1.75306352e-12 0 0)
(-2.05026036e-12 0 0)
(-3.28032302e-12 0 0)
(-1.91290263e-12 0 0)
(-1.16972267e-12 0 0)
(-1.63249039e-12 0 0)
(-1.93834396e-12 0 0)
(-6.19289861e-13 0 0)
(-2.66148479e-12 0 0)
(-1.98411528e-12 0 0)
(-2.20876452e-12 0 0)
(-2.22823896e-12 0 0)
(-2.19940773e-12 0 0)
(-2.26879807e-12 0 0)
(-2.71603485e-12 0 0)
(-2.77036231e-12 0 0)
(-3.53917974e-12 0 0)
(-2.89110985e-12 0 0)
(-2.28596576e-12 0 0)
(-2.75537003e-12 0 0)
(-2.98812147e-12 0 0)
(-3.07389228e-12 0 0)
(-3.31134883e-12 0 0)
(-4.83929338e-12 0 0)
(-4.16774986e-12 0 0)
(-4.00169338e-12 0 0)
(-2.52696329e-12 0 0)
(-2.89789813e-12 0 0)
(-4.04525256e-12 0 0)
(-2.70174102e-12 0 0)
(-3.55267768e-12 0 0)
(-3.56735683e-12 0 0)
(-2.7275059e-12 0 0)
(-1.86141314e-12 0 0)
(-2.91839035e-12 0 0)
(-2.45272641e-12 0 0)
(-2.7467686e-12 0 0)
(-3.37538481e-12 0 0)
(-2.87675921e-12 0 0)
(-3.56643226e-12 0 0)
(-3.88175733e-12 0 0)
(-3.07768436e-12 0 0)
(-3.24193992e-12 0 0)
(-2.7090529e-12 0 0)
(-3.098736e-12 0 0)
(-3.32075572e-12 0 0)
(-2.80426109e-12 0 0)
(-2.75922583e-12 0 0)
(-3.19306355e-12 0 0)
(-3.59102559e-12 0 0)
(-3.17291039e-12 0 0)
(-3.19198732e-12 0 0)
(-3.46019181e-12 0 0)
(-4.47041667e-12 0 0)
(-3.64583324e-12 0 0)
(-3.81084186e-12 0 0)
(-3.58226587e-12 0 0)
(-4.45902742e-12 0 0)
(-3.69397338e-12 0 0)
(-3.62610306e-12 0 0)
(-4.49844214e-12 0 0)
(-4.60358604e-12 0 0)
(-4.91516476e-12 0 0)
(-4.30538438e-12 0 0)
(-4.60709112e-12 0 0)
(-5.55030564e-12 0 0)
(-4.82996328e-12 0 0)
(-3.59725025e-12 0 0)
(-4.75163008e-12 0 0)
(-4.86918613e-12 0 0)
(-4.54212246e-12 0 0)
(-2.49647603e-12 0 0)
(-3.78209173e-12 0 0)
(-4.38632216e-12 0 0)
(-4.67832909e-12 0 0)
(-5.59542919e-12 0 0)
(-6.21059993e-12 0 0)
(-4.92159453e-12 0 0)
(-6.79432291e-12 0 0)
(-6.68127383e-12 0 0)
(-6.8002259e-12 0 0)
(-6.52222068e-12 0 0)
(-7.65030322e-12 0 0)
(-6.10436504e-12 0 0)
(-7.03944531e-12 0 0)
(-6.39888634e-12 0 0)
(-5.83161678e-12 0 0)
(-6.23755361e-12 0 0)
(-7.12941245e-12 0 0)
(-6.36067869e-12 0 0)
(-7.33178576e-12 0 0)
(-7.08233702e-12 0 0)
(-6.5845563e-12 0 0)
(-6.61513576e-12 0 0)
(-8.07033475e-12 0 0)
(-7.61472826e-12 0 0)
(-7.19063649e-12 0 0)
(-7.35527721e-12 0 0)
(-7.43147712e-12 0 0)
(-8.60041745e-12 0 0)
(-8.00392034e-12 0 0)
(-7.36988879e-12 0 0)
(-8.51830612e-12 0 0)
(-8.52930263e-12 0 0)
(-7.54379736e-12 0 0)
(-7.9177183e-12 0 0)
(-7.08804301e-12 0 0)
(-8.7049529e-12 0 0)
(-7.8352108e-12 0 0)
(-7.29766153e-12 0 0)
(-7.34439379e-12 0 0)
(-7.50015554e-12 0 0)
(-6.89399936e-12 0 0)
(-7.33043721e-12 0 0)
(-6.7607406e-12 0 0)
(-5.99427258e-12 0 0)
(-7.11366157e-12 0 0)
(-7.4813376e-12 0 0)
(-8.01781987e-12 0 0)
(-5.87035681e-12 0 0)
(-7.14239099e-12 0 0)
(-5.41460146e-12 0 0)
(-6.37486483e-12 0 0)
(-5.86670165e-12 0 0)
(-5.99851755e-12 0 0)
(-6.21492962e-12 0 0)
(-6.89678074e-12 0 0)
(-5.08805749e-12 0 0)
(-5.85303535e-12 0 0)
(-6.61112741e-12 0 0)
(-6.43636942e-12 0 0)
(-6.53769455e-12 0 0)
(-5.48467416e-12 0 0)
(-5.70589578e-12 0 0)
(-6.79166062e-12 0 0)
(-7.11487657e-12 0 0)
(-5.56128607e-12 0 0)
(-5.71519246e-12 0 0)
(-6.31540163e-12 0 0)
(-5.50854936e-12 0 0)
(-5.43188093e-12 0 0)
(-5.5869402e-12 0 0)
(-5.679603e-12 0 0)
(-4.748682e-12 0 0)
(-5.91213895e-12 0 0)
(-4.774485e-12 0 0)
(-4.89981802e-12 0 0)
(-5.73869656e-12 0 0)
(-4.85535978e-12 0 0)
(-4.28240396e-12 0 0)
(-5.20757374e-12 0 0)
(-4.14590626e-12 0 0)
(-4.9369193e-12 0 0)
(-5.73157518e-12 0 0)
(-4.87212938e-12 0 0)
(-3.39854033e-12 0 0)
(-4.29679309e-12 0 0)
(-5.07133891e-12 0 0)
(-4.65104521e-12 0 0)
(-4.00700287e-12 0 0)
(-5.30227712e-12 0 0)
(-4.20365177e-12 0 0)
(-4.18985816e-12 0 0)
(-4.23252784e-12 0 0)
(-4.49505676e-12 0 0)
(-4.27813327e-12 0 0)
(-4.43541747e-12 0 0)
(-3.75177191e-12 0 0)
(-4.09921079e-12 0 0)
(-4.08923349e-12 0 0)
(-3.72288707e-12 0 0)
(-4.48004025e-12 0 0)
(-4.20357342e-12 0 0)
(-3.37619615e-12 0 0)
(-3.88920943e-12 0 0)
(-3.67253033e-12 0 0)
(-3.79445889e-12 0 0)
(-3.48680618e-12 0 0)
(-3.01220257e-12 0 0)
(-3.88874136e-12 0 0)
(-4.04725465e-12 0 0)
(-3.58851884e-12 0 0)
(-2.83909532e-12 0 0)
(-4.29374631e-12 0 0)
(-3.29299918e-12 0 0)
(-3.89863722e-12 0 0)
(-3.78986068e-12 0 0)
(-3.05473252e-12 0 0)
(-4.31403927e-12 0 0)
(-3.39248048e-12 0 0)
(-3.37186586e-12 0 0)
(-3.42045627e-12 0 0)
(-4.05652068e-12 0 0)
(-4.25485966e-12 0 0)
(-3.81971403e-12 0 0)
(-4.04943076e-12 0 0)
(-3.46392102e-12 0 0)
(-3.51069128e-12 0 0)
(-3.26602194e-12 0 0)
(-3.88418729e-12 0 0)
(-2.49063937e-12 0 0)
(-3.7821834e-12 0 0)
(-3.48005524e-12 0 0)
(-2.46184935e-12 0 0)
(-3.00698837e-12 0 0)
(-2.74498202e-12 0 0)
(-2.47558254e-12 0 0)
(-3.29856952e-12 0 0)
(-3.1999435e-12 0 0)
(-2.80565624e-12 0 0)
(-3.15848332e-12 0 0)
(-2.45802025e-12 0 0)
(-2.6926584e-12 0 0)
(-2.95617604e-12 0 0)
(-2.42165763e-12 0 0)
(-2.82735392e-12 0 0)
(-3.0186449e-12 0 0)
(-2.00200969e-12 0 0)
(-2.35516489e-12 0 0)
(-3.13892963e-12 0 0)
(-3.79907742e-12 0 0)
(-3.30438692e-12 0 0)
(-2.78827468e-12 0 0)
(-3.23508715e-12 0 0)
(-3.63137211e-12 0 0)
(-3.96624523e-12 0 0)
(-4.22795004e-12 0 0)
(-2.50495442e-12 0 0)
(-3.72547591e-12 0 0)
(-3.29812055e-12 0 0)
(-3.22312827e-12 0 0)
(-3.07397766e-12 0 0)
(-3.72433508e-12 0 0)
(-3.77958253e-12 0 0)
(-3.21610479e-12 0 0)
(-3.40522039e-12 0 0)