/*--------------------------------*- C++ -*----------------------------------*\
| =========                 |                                                 |
| \\      /  F ield         | OpenFOAM: The Open Source CFD Toolbox           |
|  \\    /   O peration     | Version:  2206                                  |
|   \\  /    A nd           | Website:  www.openfoam.com                      |
|    \\/     M anipulation  |                                                 |
\*---------------------------------------------------------------------------*/
FoamFile
{
    version     2.0;
    format      ascii;
    arch        "LSB;label=32;scalar=64";
    class       volScalarField;
    location    "4.2e-06";
    object      p;
}
// * * * * * * * * * * * * * * * * * * * * * * * * * * * * * * * * * * * * * //

dimensions      [1 -1 -2 0 0 0 0];

internalField   nonuniform List<scalar> 
3183
(
101325
101325
101325
101325
101325
101325
101325
101325
101325
101325
101325
101325
101325
101325
101325
101325
101325
101325
101325
101325
101325
101325
101325
101325
101325
101325
101325
101325
101325
101325
101325
101325
101325
101325
101325
101325
101325
101325
101325
101325
101325
101325
101325
101325
101325
101325
101325
101325
101325
101325
101325
101325
101325
101325
101325
101325
101325
101325
101325
101325
101325
101325
101325
101325
101325
101325
101325
101325
101325
101325
101325
101325
101325
101325
101325
101325
101325
101325
101325
101325
101325
101325
101325
101325
101325
101325
101325
101325
101325
101325
101325
101325
101325
101325
101325
101325
101325
101325
101325
101325
101325
101325
101325
101325
101325
101325
101325
101325
101325
101325
101325
101325
101325
101325
101325
101325
101325
101325
101325
101325
101325
101325
101325
101325
101325
101325
101325
101325
101325
101325
101325
101325
101325
101325
101325
101325
101325
101325
101325
101325
101325
101325
101325
101325
101325
101325
101325
101325
101325
101325
101325
101325
101325
101325
101325
101325
101325
101325
101325
101325
101325
101325
101325
101325
101325
101325
101325
101325
101325
101325
101325
101325
101325
101325
101325
101325
101325
101325
101325
101325
101325
101325
101325
101325
101325
101325
101325
101325
101325
101325
101325
101325
101325
101325
101325
101325
101325
101325
101325
101325
101325
101325
101325
101325
101325
101325
101325
101325
101325
101325
101325
101325
101325
101325
101325
101325
101325
101325
101325
101325
101325
101325
101325
101325
101325
101325
101325
101325
101325
101325
101325
101325
101325
101325
101325
101325
101325
101325
101325
101325
101325
101325
101325
101325
101325
101325
101325
101325
101325
101325
101325
101325
101325
101325
101325
101325
101325
101325
101325
101325
101325
101325
101325
101325
101325
101325
101325
101325
101325
101325
101325
101325
101325
101325
101325
101325
101325
101325
101325
101325
101325
101325
101325
101325
101325
101325
101325
101325
101325
101325
101325
101325
101325
101325
101325
101325
101325
101325
101325
101325
101325
101325
101325
101325
101325
101325
101325
101325
101325
101325
101325
101325
101325
101325
101325
101325
101325
101325
101325
101325
101325
101325
101325
101325
101325
101325
101325
101325
101325
101325
101325
101325
101325
101325
101325
101325
101325
101325
101325
101325
101325
101325
101325
101325
101325
101325
101325
101325
101325
101325
101325
101325
101325
101325
101325
101325
101325
101325
101325
101325
101325
101325
101325
101325
101325
101325
101325
101325
101325
101325
101325
101325
101325
101325
101325
101325
101325
101325
101325
101325
101325
101325
101325
101325
101325
101325
101325
101325
101325
101325
101325
101325
101325
101325
101325
101325
101325
101325
101325
101325
101325
101325
101325
101325
101325
101325
101325
101325
101325
101325
101325
101325
101325
101325
101325
101325
101325
101325
101325
101325
101325
101325
101325
101325
101325
101325
101325
101325
101325
101325
101325
101325
101325
101325
101325
101325
101325
101325
101325
101325
101325
101325
101325
101325
101325
101325
101325
101325
101325
101325
101325
101325
101325
101325
101325
101325
101325
101325
101325
101325
101325
101325
101325
101325
101325
101325
101325
101325
101325
101325
101325
101325
101325
101325
101325
101325
101325
101325
101325
101325
101325
101325
101325
101325
101325
101325
101325
101325
101325
101325
101325
101325
101325
101325
101325
101325
101325
101325
101325
101325
101325
101325
101325
101325
101325
101325
101325
101325
101325
101325
101325
101325
101325
101325
101325
101325
101325
101325
101325
101325
101325
101325
101325
101325
101325
101325
101325
101325
101325
101325
101325
101325
101325
101325
101325
101325
101325
101325
101325
101325
101325
101325
101325
101325
101325
101325
101325
101325
101325
101325
101325
101325
101325
101325
101325
101325
101325
101325
101325
101325
101325
101325
101325
101325
101325
101325
101325
101325
101325
101325
101325
101325
101325
101325
101325
101325
101325
101325
101325
101325
101325
101325
101325
101325
101325
101325
101325
101325
101325
101325
101325
101325
101325
101325
101325
101325
101325
101325
101325
101325
101325
101325
101325
101325
101325
101325
101325
101325
101325
101325
101325
101325
101325
101325
101325
101325
101325
101325
101325
101325
101325
101325
101325
101325
101325
101325
101325
101325
101325
101325
101325
101325
101325
101325
101325
101325
101325
101325
101325
101325
101325
101325
101325
101325
101325
101325
101325
101325
101325
101325
101325
101325
101325
101325
101325
101325
101325
101325
101325
101325
101325
101325
101325
101325
101325
101325
101325
101325
101325
101325
101325
101325
101325
101325
101325
101325
101325
101325
101325
101325
101325
101325
101325
101325
101325
101325
101325
101325
101325
101325
101325
101325
101325
101325
101325
101325
101325
101325
101325
101325
101325
101325
101325
101325
101325
101325
101325
101325
101325
101325
101325
101325
101325
101325
101325
101325
101325
101325
101325
101325
101325
101325
101325
101325
101325
101325
101325
101325
101325
101325
101325
101325
101325
101325
101325
101325
101325
101325
101325
101325
101325
101325
101325
101325
101325
101325
101325
101325
101325
101325
101325
101325
101325
101325
101325
101325
101325
101325
101325
101325
101325
101325
101325
101325
101325
101325
101325
101325
101325
101325
101325
101325
101325
101325
101325
101325
101325
101325
101325
101325
101325
101325
101325
101325
101325
101325
101325
101325
101325
101325
101325
101325
101325
101325
101325
101325
101325
101325
101325
101325
101325
101325
101325
101325
101325
101325
101325
101325
101325
101325
101325
101325
101325
101325
101325
101325
101325
101325
101325
101325
101325
101325
101325
101325
101325
101325
101325
101325
101325
101325
101325
101325
101325
101325
101325
101325
101325
101325
101325
101325
101325
101325
101325
101325
101325
101325
101325
101325
101325
101325
101325
101325
101325
101325
101325
101325
101325
101325
101325
101325
101325
101325
101325
101325
101325
101325
101325
101325
101325
101325
101325
101325
101325
101325
101325
101325
101325
101325
101325
101325
101325
101325
101325
101325
101325
101325
101325
101325
101325
101325
101325
101325
101325
101325
101325
101325
101325
101325
101325
101325
101325
101325
101325
101325
101325
101325
101325
101325
101325
101325
101325
101325
101325
101325
101325
101325
101325
101325
101325
101325
101325
101325
101325
101325
101325
101325
101325
101325
101325
101325
101325
101325
101325
101325
101325
101325
101325
101325
101325
101325
101325
101325
101325
101325
101325
101325
101325
101325
101325
101325
101325
101325
101325
101325
101325
101325
101325
101325
101325
101325
101325
101325
101325
101325
101325
101325
101325
101325
101325
101325
101325
101325
101325
101325
101325
101325
101325
101325
101325
101325
101325
101325
101325
101325
101325
101325
101325
101325
101325
101325
101325
101325
101325
101325
101325
101325
101325
101325
101325
101325
101325
101325
101325
101325
101325
101325
101325
101325
101325
101325
101325
101325
101325
101325
101325
101325
101325
101325
101325
101325
101325
101325
101325
101325
101325
101325
101325
101325
101325
101325
101325
101325
101325
101325
101325
101325
101325
101325
101325
101325
101325
101325
101325
101325
101325
101325
101325
101325
101325
101325
101325
101325
101325
101325
101325
101325
101325
101325
101325
101325
101325
101325
101325
101325
101325
101325
101325
101325
101325
101325
101325
101325
101325
101325
101325
101325
101325
101325
101325
101325
101325
101325
101325
101325
101325
101325
101325
101325
101325
101325
101325
101325
101325
101325
101325
101325
101325
101325
101325
101325
101325
101325
101325
101325
101325
101325
101325
101325
101325
101325
101325
101325
101325
101325
101325
101325
101325
101325
101325
101325
101325
101325
101325
101325
101325
101325
101325
101325
101325
101325
101325
101325
101325
101325
101325
101325
101325
101325
101325
101325
101325
101325
101325
101325
101325
101325
101325
101325
101325
101325
101325
101325
101325
101325
101325
101325
101325
101325
101325
101325
101325
101325
101325
101325
101325
101325
101325
101325
101325
101325
101325
101325
101325
101325
101325
101325
101325
101325
101325
101325
101325
101325
101325
101325
101325
101325
101325
101325
101325
101325
101325
101325
101325
101325
101325
101325
101325
101325
101325
101325
101325
101325
101325
101325
101325
101325
101325
101325
101325
101325
101325
101325
101325
101325
101325
101325
101325
101325
101325
101325
101325
101325
101325
101325
101325
101325
101325
101325
101325
101325
101325
101325
101325
101325
101325
101325
101325
101325
101325
101325
101325
101325
101325
101325
101325
101325
101325
101325
101325
101325
101325
101325
101325
101325
101325
101325
101325
101325
101325
101325
101325
101325
101325
101325
101325
101325
101325
101325
101325
101325
101325
101325
101325
101325
101325
101325
101325
101325
101325
101325
101325
101325
101325
101325
101325
101325
101325
101325
101325
101325
101325
101325
101325
101325
101325
101325
101325
101325
101325
101325
101325
101325
101325
101325
101325
101325
101325
101325
101325
101325
101325
101325
101325
101325
101325
101325
101325
101325
101325
101325
101325
101325
101325
101325
101325
101325
101325
101325
101325
101325
101325
101325
101325
101325
101325
101325
101325
101325
101325
101325
101325
101325
101325
101325
101325
101325
101325
101325
101325
101325
101325
101325
101325
101325
101325
101325
101325
101325
101325
101325
101325
101325
101325
101325
101325
101325
101325
101325
101325
101325
101325
101325
101325
101325
101325
101325
101325
101325
101325
101325
101325
101325
101325
101325
101325
101325
101325
101325
101325
101325
101325
101325
101325
101325
101325
101325
101325
101325
101325
101325
101325
101325
101325
101325
101325
101325
101325
101325
101325
101325
101325
101325
101325
101325
101325
101325
101325
101325
101325
101325
101325
101325
101325
101325
101325
101325
101325
101325
101325
101325
101325
101325
101325
101325
101325
101325
101325
101325
101325
101325
101325
101325
101325
101325
101325
101325
101325
101325
101325
101325
101325
101325
101325
101325
101325
101325
101325
101325
101325
101325
101325
101325
101325
101325
101325
101325
101325
101325
101325
101325
101325
101325
101325
101325
101325
101325
101325
101325
101325
101325
101325
101325
101325
101325
101325
101325
101325
101325
101325
101325
101325
101325
101325
101325
101325
101325
101325
101325
101325
101325
101325
101325
101325
101325
101325
101325
101325
101325
101325
101325
101325
101325
101325
101325
101325
101325
101325
101325
101325
101325
101325
101325
101325
101325
101325
101325
101325
101325
101325
101325
101325
101325
101325
101325
101325
101325
101325
101325
101325
101325
101325
101325
101325
101325
101325
101325
101325
101325
101325
101325
101325
101325
101325
101325
101325
101325
101325
101325
101325
101325
101325
101325
101325
101325
101325
101325
101325
101325
101325
101325
101325
101325
101325
101325
101325
101325
101325
101325
101325
101325
101325
101325
101325
101325
101325
101325
101325
101325
101325
101325
101325
101325
101325
101325
101325
101325
101325
101325
101325
101325
101325
101325
101325
101325
101325
101325
101325
101325
101325
101325
101325
101325
101325
101325
101325
101325
101325
101325
101325
101325
101325
101325
101325
101325
101325
101325
101325
101325
101325
101325
101325
101325
101325
101325
101325
101325
101325
101325
101325
101325
101325
101325
101325
101325
101325
101325
101325
101325
101325
101325
101325
101325
101325
101325
101325
101325
101325
101325
101325
101325
101325
101325
101325
101325
101325
101325
101325
101325
101325
101325
101325
101325
101325
101325
101325
101325
101325
101325
101325
101325
101325
101325
101325
101325
101325
101325
101325
101325
101325
101325
101325
101325
101325
101325
101325
101325
101325
101325
101325
101325
101325
101325
101325
101325
101325
101325
101325
101325
101325
101325
101325
101325
101325
101325
101325
101325
101325
101325
101325
101325
101325
101325
101325
101325
101325
101325
101325
101325
101325
101325
101325
101325
101325
101325
101325
101325
101325
101325
101325
101325
101325
101325
101325
101325
101325
101325
101325
101325
101325
101325
101325
101325
101325
101325
101325
101325
101325
101325
101325
101325
101325
101325
101325
101325
101325
101325
101325
101325
101325
101325
101325
101325
101325
101325
101325
101325
101325
101325
101325
101325
101325
101325
101325
101325
101325
101325
101325
101325
101325
101325
101325
101325
101325
101325
101325
101325
101325
101325
101325
101325
101325
101325
101325
101325
101325
101325
101325
101325
101325
101325
101325
101325
101325
101325
101325
101325
101325
101325
101325
101325
101325
101325
101325
101325
101325
101325
101325
101325
101325
101325
101325
101325
101325
101325
101325
101325
101325
101325
101325
101325
101325
101325
101325
101325
101325
101325
101325
101325
101325
101325
101325
101325
101325
101325
101325
101325
101325
101325
101325
101325
101325
101325
101325
101325
101325
101325
101325
101325
101325
101325
101325
101325
101325
101325
101325
101325
101325
101325
101325
101325
101325
101325
101325
101325
101325
101325
101325
101325
101325
101325
101325
101325
101325
101325
101325
101325
101325
101325
101325
101325
101325
101325
101325
101325
101325
101325
101325
101325
101325
101325
101325
101325
101325
101325
101325
101325
101325
101325
101325
101325
101325
101325
101325
101325
101325
101325
101325
101325
101325
101325
101325
101325
101325
101325
101325
101325
101325
101325
101325
101325
101325
101325
101325
101325
101325
101325
101325
101325
101325
101325
101325
101325
101325
101325
101325
101325
101325
101325
101325
101325
101325
101325
101325
101325
101325
101325
101325
101325
101325
101325
101325
101325
101325
101325
101325
101325
101325
101325
101325
101325
101325
101325
101325
101325
101325
101325
101325
101325
101325
101325
101325
101325
101325
101325
101325
101325
101325
101325
101325
101325
101325
101325
101325
101325
101325
101325
101325
101325
101325
101325
101325
101325
101325
101325
101325
101325
101325
101325
101325
101325
101325
101325
101325
101325
101325
101325
101325
101325
101325
101325
101325
101325
101325
101325
101325
101325
101325
101325
101325
101325
101325
101325
101325
101325
101325
101325
101325
101325
101325
101325
101325
101325
101325
101325
101325
101325
101325
101325
101325
101325
101325
101325
101325
101325
101325
101325
101325
101325
101325
101325
101325
101325
101325
101325
101325
101325
101325
101325
101325
101325
101325
101325
101325
101325
101325
101325
101325
101325
101325
101325
101325
101325
101325
101325
101325
101325
101325
101325
101325
101325
101325
101325
101325
101325
101325
101325
101325
101325
101325
101325
101325
101325
101325
101325
101325
101325
101325
101325
101325
101325
101325
101325
101325
101325
101325
101325
101325
101325
101325
101325
101325
101325
101325
101325
101325
101325
101325
101325
101325
101325
101325
101325
101325
101325
101325
101325
101325
101325
101325
101325
101325
101325
101325
101325
101325
101325
101325
101325
101325
101325
101325
101325
101325
101325
101325
101325
101325
101325
101325
101325
101325
101325
101325
101325
101325
101325
101325
101325
101325
101325
101325
101325
101325
101325
101325
101325
101325
101325
101325
101325
101325
101325
101325
101325
101325
101325
101325
101325
101325
101325
101325
101325
101325
101325
101325
101325
101325
101325
101325
101325
101325
101325
101325
101325
101325
101325
101325
101325
101325
101325
101325
101325
101325
101325
101325
101325
101325
101325
101325
101325
101325
101325
101325
101325
101325
101325
101325
101325
101325
101325
101325
101325
101325
101325
101325
101325
101325
101325
101325
101325
101325
101325
101325
101325
101325
101325
101325
101325
101325
101325
101325
101325
101325
101325
101325
101325
101325
101325
101325
101325
101325
101325
101325
101325
101325
101325
101325
101325
101325
101325
101325
101325
101325
101325
101325
101325
101325
101325
101325
101325
101325
101325
101325
101325
101325
101325
101325
101325
101325
101325
101325
101325
101325
101325
101325
101325
101324.999
101324.999
101324.999
101324.999
101324.999
101324.999
101324.999
101324.999
101324.999
101324.999
101324.999
101324.999
101324.998
101324.998
101324.998
101324.998
101324.998
101324.997
101324.997
101324.997
101324.997
101324.996
101324.996
101324.996
101324.995
101324.995
101324.994
101324.994
101324.993
101324.993
101324.992
101324.991
101324.99
101324.99
101324.989
101324.988
101324.987
101324.985
101324.984
101324.983
101324.981
101324.979
101324.977
101324.976
101324.973
101324.971
101324.969
101324.966
101324.963
101324.96
101324.956
101324.952
101324.948
101324.944
101324.939
101324.934
101324.929
101324.923
101324.916
101324.91
101324.902
101324.894
101324.885
101324.876
101324.866
101324.855
101324.844
101324.831
101324.818
101324.803
101324.788
101324.771
101324.753
101324.734
101324.714
101324.692
101324.668
101324.643
101324.616
101324.587
101324.556
101324.523
101324.488
101324.451
101324.41
101324.367
101324.322
101324.273
101324.221
101324.166
101324.107
101324.044
101323.978
101323.907
101323.832
101323.752
101323.668
101323.578
101323.483
101323.382
101323.275
101323.162
101323.043
101322.917
101322.783
101322.643
101322.494
101322.338
101322.173
101321.999
101321.816
101321.624
101321.422
101321.209
101320.986
101320.752
101320.507
101320.251
101319.982
101319.7
101319.407
101319.099
101318.779
101318.445
101318.096
101317.733
101317.356
101316.963
101316.556
101316.132
101315.693
101315.238
101314.767
101314.28
101313.777
101313.257
101312.721
101312.168
101311.599
101311.014
101310.413
101309.796
101309.163
101308.515
101307.852
101307.175
101306.483
101305.779
101305.061
101304.331
101303.59
101302.837
101302.076
101301.305
101300.527
101299.742
101298.951
101298.156
101297.358
101296.558
101295.758
101294.958
101294.162
101293.369
101292.582
101291.802
101291.032
101290.272
101289.524
101288.79
101288.072
101287.371
101286.69
101286.03
101285.391
101284.778
101284.189
101283.629
101283.096
101282.595
101282.124
101281.686
101281.283
101280.914
101280.581
101280.285
101280.026
101279.806
101279.624
101279.48
101279.376
101279.311
101279.285
101279.297
101279.348
101279.437
101279.562
101279.724
101279.922
101280.154
101280.418
101280.715
101281.042
101281.399
101281.782
101282.192
101282.625
101283.081
101283.558
101284.053
101284.566
101285.093
101285.634
101286.187
101286.749
101287.32
101287.897
101288.479
101289.065
101289.652
101290.241
101290.829
101291.415
101291.999
101292.578
101293.154
101293.723
101294.287
101294.844
101295.393
101295.935
101296.468
101296.992
101297.508
101298.013
101298.509
101298.994
101299.468
101299.932
101300.383
101300.823
101301.25
101301.664
101302.064
101302.449
101302.82
101303.174
101303.511
101303.831
101304.131
101304.412
101304.672
101304.911
101305.126
101305.317
101305.484
101305.624
101305.738
101305.824
101305.882
101305.911
101305.911
101305.881
101305.822
101305.734
101305.616
101305.471
101305.298
101305.099
101304.875
101304.629
101304.363
101304.079
101303.78
101303.47
101303.152
101302.831
101302.51
101302.194
101301.888
101301.597
101301.324
101301.073
101300.847
101300.645
101300.466
101300.301
101300.137
101299.952
101299.711
101299.361
101298.83
101298.013
101296.765
101294.89
101292.106
101288.018
101282.868
101277.616
101283.177
101284.694
101287.933
101291.018
101293.879
101296.051
101297.789
101299.053
101299.965
101300.581
101300.974
101301.197
101301.298
101301.313
101301.273
101301.2
101301.112
101301.022
101300.938
101300.867
101300.813
101300.778
101300.764
101300.771
101300.797
101300.843
101300.906
101300.986
101301.08
101301.186
101301.304
101301.432
101301.567
101301.709
101301.857
101302.008
101302.162
101302.319
101302.476
101302.633
101302.79
101302.945
101303.098
101303.249
101303.397
101303.541
101303.682
101303.818
101303.95
101304.076
101304.198
101304.314
101304.425
101304.53
101304.628
101304.721
101304.807
101304.887
101304.961
101305.028
101305.088
101305.141
101305.188
101305.228
101305.261
101305.287
101305.306
101305.319
101305.324
101305.323
101305.316
101305.301
101305.28
101305.253
101305.219
101305.179
101305.133
101305.081
101305.022
101304.958
101304.888
101304.812
101304.731
101304.645
101304.553
101304.456
101304.354
101304.248
101304.136
101304.02
101303.9
101303.775
101303.645
101303.512
101303.375
101303.233
101303.088
101302.94
101302.787
101302.631
101302.472
101302.309
101302.143
101301.974
101301.801
101301.626
101301.447
101301.266
101301.081
101300.894
101300.703
101300.51
101300.314
101300.115
101299.914
101299.71
101299.503
101299.293
101299.08
101298.865
101298.647
101298.426
101298.202
101297.975
101297.746
101297.514
101297.279
101297.041
101296.801
101296.557
101296.311
101296.062
101295.809
101295.555
101295.297
101295.036
101294.773
101294.506
101294.237
101293.965
101293.691
101293.414
101293.134
101292.851
101292.566
101292.279
101291.989
101291.697
101291.402
101291.106
101290.807
101290.507
101290.205
101289.901
101289.596
101289.289
101288.981
101288.672
101288.363
101288.052
101287.742
101287.431
101287.119
101286.808
101286.498
101286.188
101285.879
101285.57
101285.264
101284.958
101284.655
101284.354
101284.055
101283.758
101283.465
101283.174
101282.886
101282.601
101282.319
101282.041
101281.767
101281.497
101281.234
101280.976
101280.724
101280.479
101280.239
101280.006
101279.78
101279.56
101279.347
101279.141
101278.943
101278.752
101278.569
101278.395
101278.228
101278.071
101277.921
101277.781
101277.65
101277.529
101277.416
101277.314
101277.221
101277.138
101277.065
101277.002
101276.949
101276.907
101276.875
101276.853
101276.842
101276.842
101276.852
101276.873
101276.905
101276.948
101277.001
101277.064
101277.139
101277.224
101277.32
101277.426
101277.543
101277.67
101277.808
101277.956
101278.114
101278.282
101278.46
101278.648
101278.846
101279.053
101279.27
101279.495
101279.73
101279.974
101280.227
101280.488
101280.758
101281.036
101281.322
101281.615
101281.917
101282.225
101282.541
101282.864
101283.194
101283.53
101283.872
101284.221
101284.575
101284.935
101285.301
101285.671
101286.047
101286.427
101286.812
101287.201
101287.593
101287.99
101288.39
101288.793
101289.2
101289.609
101290.021
101290.435
101290.851
101291.269
101291.689
101292.11
101292.533
101292.957
101293.381
101293.806
101294.231
101294.657
101295.083
101295.508
101295.933
101296.358
101296.782
101297.205
101297.626
101298.047
101298.466
101298.884
101299.3
101299.714
101300.126
101300.536
101300.943
101301.348
101301.751
101302.151
101302.548
101302.942
101303.333
101303.721
101304.106
101304.488
101304.866
101305.241
101305.612
101305.979
101306.343
101306.703
101307.059
101307.411
101307.759
101308.103
101308.443
101308.779
101309.111
101309.438
101309.762
101310.081
101310.395
101310.706
101311.012
101311.314
101311.611
101311.904
101312.193
101312.477
101312.757
101313.033
101313.304
101313.571
101313.833
101314.091
101314.345
101314.594
101314.84
101315.08
101315.317
101315.549
101315.778
101316.002
101316.222
101316.437
101316.649
101316.857
101317.06
101317.26
101317.456
101317.647
101317.835
101318.02
101318.2
101318.377
101318.549
101318.719
101318.884
101319.047
101319.205
101319.36
101319.512
101319.661
101319.806
101319.948
101320.086
101320.222
101320.354
101320.483
101320.609
101320.733
101320.853
101320.971
101321.085
101321.197
101321.306
101321.413
101321.517
101321.618
101321.717
101321.813
101321.907
101321.998
101322.087
101322.174
101322.258
101322.341
101322.421
101322.499
101322.575
101322.649
101322.721
101322.791
101322.859
101322.925
101322.99
101323.052
101323.113
101323.173
101323.23
101323.286
101323.341
101323.393
101323.445
101323.495
101323.543
101323.59
101323.636
101323.68
101323.723
101323.765
101323.805
101323.845
101323.883
101323.92
101323.956
101323.991
101324.024
101324.057
101324.089
101324.12
101324.149
101324.178
101324.206
101324.233
101324.26
101324.285
101324.31
101324.333
101324.357
101324.379
101324.401
101324.422
101324.442
101324.461
101324.48
101324.499
101324.516
101324.534
101324.55
101324.566
101324.582
101324.597
101324.611
101324.625
101324.639
101324.652
101324.665
101324.677
101324.689
101324.7
101324.711
101324.722
101324.732
101324.742
101324.752
101324.761
101324.77
101324.778
101324.787
101324.795
101324.802
101324.81
101324.817
101324.824
101324.831
101324.837
101324.843
101324.849
101324.855
101324.861
101324.866
101324.871
101324.876
101324.881
101324.885
101324.89
101324.894
101324.898
101324.902
101324.906
101324.91
101324.913
101324.917
101324.92
101324.923
101324.926
101324.929
101324.932
101324.935
101324.937
101324.94
101324.942
101324.945
101324.947
101324.949
101324.951
101324.953
101324.955
101324.957
101324.959
101324.96
101324.962
101324.964
101324.965
101324.967
101324.968
101324.97
101324.972
101324.973
101324.975
101324.977
101324.979
101324.98
101324.982
101324.984
101324.985
101324.987
101324.988
101324.99
101324.991
101324.992
101324.993
101324.995
101324.995
101324.996
101324.997
101324.998
101324.998
101324.999
101324.999
101324.999
101325
101325
101325
101325
101325
101325
101325
101325
101325
101325
101325
101325
101325
101325
101325
101325
101325
101325
101325
101325
101325
101325
101325
101325
101325
101325
101325
101325
101325
101325
101325
101325
101325
101325
101325
101325
101325
101325
101325
101325
101325
101325
101325
101325
101325
101325
101325
101325
101325
)
;

boundaryField
{
    closed
    {
        type            zeroGradient;
    }
    open
    {
        type            waveTransmissive;
        gamma           1.25;
        fieldInf        101325;
        lInf            1;
        value           uniform 101325;
    }
    sides
    {
        type            empty;
    }
}


// ************************************************************************* //
