/*--------------------------------*- C++ -*----------------------------------*\
| =========                 |                                                 |
| \\      /  F ield         | OpenFOAM: The Open Source CFD Toolbox           |
|  \\    /   O peration     | Version:  2206                                  |
|   \\  /    A nd           | Website:  www.openfoam.com                      |
|    \\/     M anipulation  |                                                 |
\*---------------------------------------------------------------------------*/
FoamFile
{
    version     2.0;
    format      ascii;
    arch        "LSB;label=32;scalar=64";
    class       surfaceScalarField;
    location    "4.2e-06";
    object      phi;
}
// * * * * * * * * * * * * * * * * * * * * * * * * * * * * * * * * * * * * * //

dimensions      [1 0 -1 0 0 0 0];

oriented        oriented;

internalField   nonuniform List<scalar> 
3182
(
1.30901155e-18
-1.12021965e-18
2.82727601e-19
-5.8212143e-19
-1.31127868e-22
-2.65260215e-24
-1.93308907e-25
-3.45552082e-30
5.50859441e-29
1.46809535e-24
2.00242114e-23
2.22519618e-21
2.35758867e-18
-9.72579553e-19
-1.67667405e-18
-3.05719443e-23
1.72339914e-18
-1.81500419e-18
-3.22658123e-18
4.03068563e-18
5.47745024e-21
8.11310905e-23
1.20362976e-23
5.7936681e-23
2.17969636e-19
1.84504008e-18
3.43010058e-18
-1.60497942e-18
-1.95105189e-18
-2.54971752e-18
-8.56508377e-19
6.42776077e-19
-2.16596148e-19
-1.07740711e-18
3.24589705e-19
4.83307668e-19
-4.8757976e-19
-5.38141684e-19
3.2234236e-19
-3.89293508e-19
-2.49296633e-18
-2.15434993e-18
-2.2112551e-21
5.4227073e-19
8.71018154e-19
1.72868114e-18
1.29972675e-18
3.21894261e-19
2.18815243e-19
-4.34489931e-19
2.14836661e-19
-8.55377618e-19
-6.48519303e-19
-1.19598187e-18
-1.08527381e-18
-8.62047233e-19
-2.14100609e-19
4.32189786e-19
6.49363677e-19
4.33867592e-19
2.22389068e-19
-2.14717234e-19
-6.2800015e-21
1.08718267e-18
1.32627855e-18
2.18181922e-18
3.04340291e-18
3.89947656e-18
4.35458382e-18
5.19124382e-18
4.33212805e-18
4.37509201e-18
4.78094364e-18
3.4689253e-18
2.62175722e-18
3.06105263e-18
3.46715033e-18
4.36891387e-18
4.40109446e-18
4.00088371e-18
4.82952413e-18
5.13572319e-18
5.09827996e-18
5.11678123e-18
7.55716439e-18
5.9143212e-18
6.13220842e-18
6.0198124e-18
7.75821357e-18
7.63254267e-18
6.8912419e-18
7.02963288e-18
5.5112198e-18
7.54254172e-18
4.66199851e-18
5.55233446e-18
5.59931805e-18
5.58559512e-18
5.50190799e-18
6.82084704e-18
3.55928849e-18
2.17937168e-18
2.91940483e-18
6.77824969e-18
1.70869758e-18
3.69191331e-19
5.71664778e-19
2.29472883e-18
3.96386601e-18
5.9216347e-18
3.26974878e-18
1.94720067e-18
1.36438203e-18
2.4073237e-18
2.19850701e-18
2.76722465e-18
4.68213858e-18
4.18424707e-18
3.9659398e-18
5.6061121e-18
2.21564513e-18
2.14159285e-18
6.91753724e-18
9.64820565e-18
9.92427623e-18
7.41713495e-18
9.05354463e-18
9.99234364e-18
7.41146261e-18
6.81079687e-18
8.25198873e-18
8.94678644e-18
8.16686277e-18
9.35739071e-18
7.45896052e-18
9.4389402e-18
1.10884366e-17
9.29350226e-18
1.10435802e-17
1.50205926e-17
1.0114311e-17
1.06487998e-17
1.01242237e-17
9.16350104e-18
8.93852969e-18
9.63831525e-18
8.33186721e-18
7.64649924e-18
8.78475574e-18
8.87883686e-18
9.84966668e-18
6.92342815e-18
7.61100877e-18
6.09317462e-18
4.26389516e-18
6.03225051e-19
-9.08326322e-19
-2.81583408e-18
-1.84700764e-18
1.05723899e-18
4.27988253e-18
3.50999604e-18
5.90519917e-18
8.27771272e-18
9.14307073e-18
8.26232699e-18
1.01176623e-17
8.008158e-18
7.36009397e-18
9.07297047e-18
6.79024616e-18
6.27340431e-18
6.55009377e-18
4.4786986e-18
5.48450456e-18
3.86354629e-18
1.7427424e-18
1.73095337e-19
1.29028333e-18
-1.08315052e-18
3.22851195e-18
1.21174951e-18
-2.16264687e-19
-1.22094289e-18
9.32711637e-19
1.43336241e-18
2.27046728e-18
7.55114591e-19
2.75900415e-18
-6.03891968e-19
3.04911217e-19
-8.32758404e-19
-3.09060247e-19
9.15359455e-19
8.82947768e-19
-2.39239504e-18
-3.45810845e-18
-3.51646612e-19
-1.48183474e-18
-3.0414838e-18
-4.93315892e-18
-3.97449157e-18
-5.90279895e-18
-6.88579158e-18
-4.72418091e-18
-8.90974426e-18
-7.74391722e-18
-8.12024474e-18
-3.38635917e-18
-2.41829011e-18
-6.37170721e-18
-5.25428085e-18
-2.80054919e-18
-4.99263757e-18
-7.50030632e-18
-4.09663651e-18
-7.04662752e-18
-4.67552619e-18
-6.01213068e-18
-9.25932818e-18
-7.95368539e-18
-9.68257022e-18
-1.10580954e-17
-1.07227875e-17
-9.40296711e-18
-1.02007068e-17
-1.19841349e-17
-1.12796623e-17
-1.16679763e-17
-7.90609368e-18
-7.40766815e-18
-8.09774555e-18
-1.25088174e-17
-1.15324719e-17
-1.55654803e-17
-1.29031835e-17
-1.49061821e-17
-1.25474742e-17
-1.27304896e-17
-1.55514239e-17
-1.57659101e-17
-1.73119342e-17
-1.94526061e-17
-1.83435629e-17
-1.90336637e-17
-2.05522084e-17
-1.92479899e-17
-1.79058908e-17
-1.8432578e-17
-1.85742504e-17
-1.79678962e-17
-1.79906448e-17
-1.99765786e-17
-1.60525898e-17
-1.78210592e-17
-1.97581572e-17
-1.97138722e-17
-1.9433949e-17
-1.62448223e-17
-1.66088381e-17
-1.78937136e-17
-1.51497211e-17
-1.4968585e-17
-2.01159612e-17
-2.0190219e-17
-2.17327705e-17
-2.40145616e-17
-2.40222924e-17
-2.43207214e-17
-2.67563595e-17
-2.27086925e-17
-2.61805734e-17
-2.52834747e-17
-2.80893394e-17
-3.0099416e-17
-3.03192315e-17
-2.82540688e-17
-2.79980423e-17
-2.65567134e-17
-2.68779221e-17
-2.84947764e-17
-3.10141256e-17
-2.9022882e-17
-3.07254314e-17
-3.0089493e-17
-2.93961995e-17
-2.86856697e-17
-3.04342687e-17
-2.91515343e-17
-2.55206008e-17
-2.7842168e-17
-2.61114474e-17
-2.65872136e-17
-2.86895365e-17
-2.72253325e-17
-2.99305489e-17
-2.94410399e-17
-3.09696286e-17
-3.04558089e-17
-2.96167717e-17
-3.31571736e-17
-3.3686009e-17
-3.35464804e-17
-3.38871462e-17
-3.60115429e-17
-3.56994305e-17
-3.68446516e-17
-3.68987698e-17
-3.83491327e-17
-3.7145441e-17
-3.86028593e-17
-3.7585277e-17
-4.20828651e-17
-4.3633054e-17
-4.4956114e-17
-4.69056105e-17
-4.54677919e-17
-4.60395498e-17
-4.40973187e-17
-4.88731086e-17
-4.66876066e-17
-4.82695284e-17
-4.71617793e-17
-4.52424003e-17
-4.67018323e-17
-4.47371697e-17
-4.53555003e-17
-4.64299288e-17
-4.49402142e-17
-4.72868777e-17
-4.69313099e-17
-4.71977047e-17
-4.75886713e-17
-4.55569535e-17
-4.42439668e-17
-4.61447834e-17
-4.19107109e-17
-4.49356286e-17
-4.56443012e-17
-4.32237907e-17
-4.52879301e-17
-4.67856912e-17
-4.48015059e-17
-4.46795591e-17
-4.6939149e-17
-4.93068978e-17
-5.29316766e-17
-5.00239606e-17
-4.60767585e-17
-4.68039142e-17
-4.72741785e-17
-4.71140053e-17
-4.76903635e-17
-4.40289812e-17
-4.23750492e-17
-4.05550087e-17
-4.24314196e-17
-4.340134e-17
-4.22754448e-17
-4.21428669e-17
-3.65152957e-17
-3.54025121e-17
-3.61034849e-17
-3.51542682e-17
-3.5006616e-17
-3.32785221e-17
-3.13138442e-17
-2.83841718e-17
-2.74185852e-17
-3.00922694e-17
-3.02370138e-17
-2.87365635e-17
-2.68489118e-17
-2.59917312e-17
-2.64974373e-17
-2.47259403e-17
-2.2747285e-17
-2.36912468e-17
-2.20553938e-17
-2.33573693e-17
-2.38629715e-17
-2.28834985e-17
-2.26907312e-17
-2.21253993e-17
-2.18969814e-17
-2.23692866e-17
-2.49478813e-17
-2.12050707e-17
-2.00813968e-17
-2.02598367e-17
-1.80744399e-17
-1.90799748e-17
-1.71119142e-17
-1.36128998e-17
-1.10897947e-17
-1.48210791e-17
-1.97960922e-17
-1.5001969e-17
-1.79675608e-17
-1.65570294e-17
-1.55689112e-17
-1.48352192e-17
-1.66203356e-17
-1.98675071e-17
-1.6205508e-17
-1.70540553e-17
-1.51873266e-17
-1.66261068e-17
-1.69224623e-17
-1.8771308e-17
-1.89094308e-17
-1.7466501e-17
-1.83034892e-17
-1.94427088e-17
-1.86762373e-17
-1.91218503e-17
-1.8967493e-17
-1.84173912e-17
-1.61508677e-17
-1.3002828e-17
-1.65129635e-17
-1.40570537e-17
-1.2580552e-17
-1.24004319e-17
-1.51261671e-17
-1.31025986e-17
-1.24993577e-17
-1.01770379e-17
-1.09965576e-17
-1.13874817e-17
-1.10427872e-17
-1.1220392e-17
-8.04698805e-18
-9.32680028e-18
-4.86454381e-18
-6.9015282e-18
-3.29768406e-18
-2.79440534e-18
-2.64821119e-18
-2.91583518e-18
-4.93967759e-18
-4.88925714e-18
-1.97565953e-18
-4.24824324e-18
1.08648281e-18
-2.3645396e-18
-2.3701509e-18
-2.72913188e-18
-2.03338881e-18
-2.62352617e-18
-1.82946533e-18
-3.39138032e-18
-4.74045589e-18
-6.47777514e-18
-4.27577271e-18
-1.90934054e-18
-3.50521929e-19
-1.98108142e-18
-2.7401519e-18
-3.54247925e-18
-2.1269197e-18
-1.28037891e-18
1.5655285e-18
-2.53595952e-18
-3.36648236e-18
-2.18659428e-18
3.58077436e-18
4.8635402e-18
6.42664894e-18
7.46958334e-18
9.336223e-18
4.25275168e-18
5.13884289e-18
8.42232157e-18
6.37756249e-18
6.38313259e-18
3.16978789e-18
4.64205232e-18
4.12543689e-18
3.18948707e-18
4.49116708e-18
2.50564175e-18
4.68017555e-18
4.01353568e-18
8.75832695e-19
2.37501784e-18
3.22954915e-18
3.58394843e-19
-5.85725319e-19
1.52649327e-18
8.60938149e-19
9.54328575e-19
-9.17844123e-19
1.81076012e-18
-2.81565711e-18
-2.03666419e-18
-4.25420487e-18
-1.93443625e-18
-6.51752564e-18
-4.02439131e-18
-3.74997402e-18
-1.70244581e-18
-1.96965861e-18
-2.22289712e-18
-2.40547785e-18
-2.53248914e-18
-1.24040941e-18
3.2088502e-19
-8.2072181e-19
-3.29905167e-18
-2.75577064e-18
-1.22629609e-18
1.69585595e-19
-6.16311325e-19
-4.24574947e-19
-1.81231736e-18
1.04816569e-18
-6.83047281e-19
7.7931616e-19
3.00205811e-18
-2.77920976e-19
-1.01144021e-18
-5.49342898e-19
-1.57834904e-20
-4.72479699e-19
-1.02764104e-18
3.05423278e-18
4.84768592e-18
7.12957237e-18
4.21458228e-18
2.94825445e-18
2.12287189e-18
-9.61117214e-19
1.87925236e-18
1.9179008e-18
7.14322969e-19
3.37253829e-19
2.86189236e-18
3.90454764e-19
1.94640889e-18
1.27928261e-18
4.07596962e-18
3.75623579e-18
4.2105733e-18
3.21210134e-18
1.71645571e-18
-3.9785933e-19
-1.76013413e-18
-7.39671709e-19
-2.42669906e-18
-1.71507991e-18
-3.66516431e-19
3.44708476e-19
-1.42616025e-18
-8.46117245e-19
-2.85009557e-18
4.87326409e-19
-1.49669392e-18
-2.06612886e-18
-1.57022231e-18
-4.81695205e-20
-4.70865612e-19
-1.1128494e-18
2.53542118e-18
1.23332669e-19
-2.77857842e-18
1.67287854e-18
1.89988714e-18
2.14466147e-18
5.91114835e-18
7.90126477e-18
8.24069254e-18
1.13074364e-17
1.08295528e-17
8.45051973e-18
6.98476833e-18
7.07108509e-18
6.27248719e-18
1.04285627e-17
1.33670619e-17
1.44683597e-17
1.42719487e-17
1.41208078e-17
1.23628693e-17
9.80846459e-18
1.13363274e-17
1.10363575e-17
1.34816245e-17
1.48818883e-17
1.40629956e-17
1.38980062e-17
1.20400845e-17
1.40172862e-17
1.37210037e-17
1.3140335e-17
1.56066971e-17
1.38090936e-17
1.48752332e-17
1.52369785e-17
1.19218304e-17
1.08583578e-17
1.22858123e-17
9.98741982e-18
8.99156821e-18
8.59744029e-18
8.23588347e-18
7.23637368e-18
6.18069904e-18
3.14511313e-18
3.29778796e-18
6.21308906e-18
2.9462367e-18
7.04778241e-18
9.42762306e-18
6.7611589e-18
8.41818164e-18
1.07647912e-17
1.04795686e-17
8.02381599e-18
1.08870343e-17
6.88273564e-18
5.96511606e-18
3.64868744e-18
5.83247755e-18
6.4490803e-18
7.42976908e-18
7.06522322e-18
6.30045695e-18
5.95697082e-18
5.27984959e-18
8.18806234e-18
8.53023323e-18
9.28037039e-18
9.60414173e-18
8.71033531e-18
1.01267223e-17
1.20246977e-17
7.17196575e-18
8.40793233e-18
7.09699853e-18
6.68632472e-18
4.37776083e-18
7.1051425e-18
8.52311865e-18
1.02281864e-17
8.20080514e-18
1.01785385e-17
1.04173243e-17
1.12279735e-17
1.10010875e-17
9.02735937e-18
7.60645305e-18
7.73007749e-18
5.40628872e-18
4.21435619e-18
4.32572433e-18
4.04760822e-18
7.61238996e-19
4.67518495e-18
2.75330208e-18
6.51763753e-18
4.98968978e-18
1.77144565e-18
3.98802619e-18
1.04311711e-18
4.72575326e-18
4.03736442e-18
4.98474092e-18
3.14737062e-18
6.95442873e-18
9.51135926e-18
1.03505166e-17
1.10892919e-17
1.25111949e-17
1.19005607e-17
1.15650179e-17
1.53209607e-17
1.44540502e-17
1.36759579e-17
1.22398376e-17
1.17098179e-17
1.5639269e-17
1.24973903e-17
1.19833298e-17
1.32964329e-17
1.42293229e-17
1.3196117e-17
1.22297398e-17
1.30761339e-17
1.29284737e-17
1.17798631e-17
1.04413259e-17
9.04702679e-18
9.22221209e-18
1.06557394e-17
1.16508948e-17
1.30364096e-17
1.25737498e-17
1.24875494e-17
1.4052129e-17
1.31573843e-17
1.70116713e-17
1.48630595e-17
1.58097785e-17
1.5662693e-17
1.69335805e-17
1.51023179e-17
1.53746896e-17
1.82476714e-17
1.7657575e-17
1.6834644e-17
1.46104607e-17
1.4178314e-17
1.49851153e-17
1.59491654e-17
1.76979649e-17
1.79795516e-17
1.78373539e-17
1.94927028e-17
2.03281954e-17
2.00580559e-17
2.04319727e-17
2.16448622e-17
1.84757127e-17
1.72978106e-17
1.74799857e-17
1.73004002e-17
1.47103724e-17
1.50214302e-17
1.88412047e-17
1.38142774e-17
1.35414712e-17
1.02982485e-17
1.3083262e-17
1.04636668e-17
8.0619811e-18
1.0685026e-17
6.37516095e-18
7.29103726e-18
5.85396897e-18
1.8792799e-18
2.6468589e-18
1.39955007e-18
3.6174568e-18
3.16561171e-18
5.7400302e-18
5.28012948e-18
4.94585646e-18
1.92944522e-18
4.48978906e-19
-1.06643517e-18
7.06057935e-19
1.26686436e-18
3.68709765e-19
9.92144386e-19
-6.42286116e-19
-8.82528686e-19
3.07403943e-18
2.27487738e-18
1.53796082e-18
2.52443423e-18
7.18401052e-18
7.92638079e-18
7.87911881e-18
7.78241715e-18
7.29505099e-18
7.37202976e-18
6.59686434e-18
8.45015013e-18
6.11577273e-18
7.64143732e-18
9.20441976e-18
1.25499856e-17
9.78820235e-18
1.05917343e-17
9.66861845e-18
7.78126464e-18
1.26101081e-17
1.1661286e-17
1.10629638e-17
1.22431472e-17
1.36029362e-17
1.31670848e-17
8.51202884e-18
1.12656211e-17
1.16475907e-17
1.54470637e-17
1.43369622e-17
1.55508403e-17
1.70649763e-17
1.70499006e-17
1.67828574e-17
1.36355668e-17
1.39806645e-17
1.26529535e-17
1.56999105e-17
1.41938251e-17
1.45417085e-17
1.10139628e-17
1.44847201e-17
1.43240432e-17
1.24172761e-17
1.65107628e-17
1.50956231e-17
1.47485227e-17
1.78778274e-17
1.23161729e-17
1.38826058e-17
1.34482103e-17
9.21282105e-18
8.16825383e-18
1.09936941e-17
6.85082231e-18
7.17658863e-18
7.14144919e-18
4.79550516e-18
3.93629444e-19
-3.90092456e-19
-1.45317566e-18
4.55544597e-19
1.19606783e-18
3.30395446e-18
6.32035449e-19
-1.95832421e-18
-6.18077411e-19
-2.29837591e-19
-2.56601294e-18
-2.7339937e-18
-6.4898642e-18
-4.22222121e-18
-4.50558424e-18
-3.87142015e-18
-5.55964085e-18
-2.62571406e-18
-6.14731049e-18
-5.04753052e-18
-3.4269884e-18
-3.03408731e-18
-1.76198066e-18
-2.49179626e-18
6.9202284e-19
-2.77634662e-18
-1.48267458e-18
5.54534202e-19
-1.5453879e-19
-6.1888072e-19
1.36143634e-19
-1.56585382e-18
-2.95546481e-18
-4.11088099e-18
-5.47936636e-19
-1.62029703e-18
6.28609692e-19
-2.65732482e-18
-2.12120757e-18
-2.79562361e-18
-1.59013972e-18
-3.78563632e-18
-5.28415084e-18
-7.18777795e-18
-4.92880218e-18
-8.22730803e-18
-6.72964095e-18
-3.37066125e-18
-3.38396899e-18
-2.07521514e-18
-3.40113108e-18
-2.72952622e-18
-5.71554884e-18
-4.81510359e-18
-3.40080788e-18
-4.04964576e-18
-5.14857396e-18
-3.59799746e-18
-1.28775463e-18
1.79511503e-18
1.83753042e-18
4.00064975e-18
2.72899341e-18
2.21746225e-18
8.0434474e-19
-1.21009173e-18
-4.59125836e-19
-2.55830189e-18
8.22012546e-19
2.11707362e-18
6.85906453e-18
6.0398016e-18
2.32250531e-18
7.36223532e-18
8.12180106e-18
5.29850242e-18
6.89914666e-18
4.85954757e-18
8.94050205e-18
6.70263466e-18
6.69242171e-18
4.9518521e-18
7.08362638e-18
7.36888007e-18
6.5693937e-18
6.30457632e-18
7.09274338e-18
8.98726481e-18
8.83240685e-18
9.49079492e-18
1.14394124e-17
1.20163207e-17
9.29236781e-18
1.12774103e-17
8.15472928e-18
9.33225404e-18
1.26762053e-17
1.59034916e-17
1.41172073e-17
1.40133505e-17
1.10234966e-17
1.19179397e-17
1.30114229e-17
1.56330939e-17
1.29833183e-17
1.33154265e-17
1.25103717e-17
1.29769305e-17
1.48894035e-17
1.42218638e-17
1.44691023e-17
1.2492728e-17
1.37516554e-17
1.45234873e-17
1.48014277e-17
1.38754956e-17
1.58750363e-17
1.43741707e-17
1.39451056e-17
9.15839584e-18
1.07880913e-17
7.26871068e-18
9.54270725e-18
1.06251597e-17
1.18518318e-17
1.22971766e-17
1.58954076e-17
1.46090965e-17
1.19008617e-17
1.29047251e-17
1.31476121e-17
1.34855398e-17
1.60909754e-17
1.67832137e-17
1.57646436e-17
1.78946307e-17
1.54988835e-17
1.43683098e-17
1.29749694e-17
1.23195525e-17
1.44247334e-17
1.31403345e-17
1.20213714e-17
1.58714822e-17
1.37099294e-17
1.40035193e-17
1.53267936e-17
1.57220688e-17
1.62219528e-17
1.75331937e-17
1.69104949e-17
2.09295162e-17
1.82734616e-17
1.98315981e-17
2.20375599e-17
2.36228405e-17
2.65078299e-17
2.6010523e-17
2.69641199e-17
2.64485016e-17
2.55847258e-17
2.38318646e-17
2.56253978e-17
2.43450807e-17
2.65794281e-17
2.45681807e-17
2.37861493e-17
2.61748804e-17
2.68869975e-17
2.39214538e-17
2.08370513e-17
2.35813683e-17
2.75439439e-17
2.72472624e-17
2.53860145e-17
2.98055278e-17
2.80728873e-17
2.98217388e-17
2.9113491e-17
2.88970988e-17
3.52603651e-17
3.23333062e-17
3.03518228e-17
2.91440826e-17
2.85614657e-17
2.65326594e-17
2.94034192e-17
2.92928837e-17
3.11458347e-17
2.96014029e-17
3.25249685e-17
3.3349741e-17
3.13592915e-17
3.02727184e-17
3.10443749e-17
3.20556612e-17
3.09970608e-17
3.03313413e-17
3.35523867e-17
2.94086842e-17
3.16145019e-17
2.891114e-17
2.87135575e-17
2.97280467e-17
2.79766896e-17
2.5781102e-17
2.23217295e-17
1.93968585e-17
2.08756631e-17
2.17787954e-17
2.14328524e-17
2.11640925e-17
2.06438142e-17
1.77340169e-17
1.45393693e-17
1.26217448e-17
1.2867002e-17
1.16615594e-17
1.35366794e-17
1.40095932e-17
1.20960687e-17
1.45683332e-17
1.24113527e-17
1.08972184e-17
1.2090969e-17
1.22021639e-17
1.11626999e-17
1.2190036e-17
1.19796817e-17
1.22029625e-17
1.49666025e-17
1.40630724e-17
1.39242543e-17
1.22288516e-17
1.09409138e-17
8.54306951e-18
6.24079722e-18
5.56855937e-18
4.43509832e-18
8.48146941e-18
9.1067606e-18
9.91375982e-18
1.12445668e-17
1.09426954e-17
1.18559136e-17
1.29890973e-17
1.40427944e-17
1.64470881e-17
1.36514223e-17
1.10956426e-17
1.10557067e-17
1.26183566e-17
1.18063943e-17
1.34806679e-17
1.45849847e-17
1.56636846e-17
1.50018534e-17
1.5203256e-17
1.25445595e-17
1.23092322e-17
1.2709697e-17
1.39517904e-17
1.37862409e-17
1.53339621e-17
1.38061115e-17
1.11426636e-17
1.10229534e-17
1.17088949e-17
1.08792084e-17
1.16594245e-17
1.08765462e-17
1.0822767e-17
1.09217328e-17
9.16590675e-18
7.64113788e-18
7.95243855e-18
7.16564373e-18
3.66085966e-18
5.62294992e-20
2.68128487e-18
-1.82454052e-19
1.15633572e-18
-1.66128079e-18
1.79979947e-18
9.70650911e-19
1.78263071e-18
2.53317738e-18
6.69693201e-19
1.61767476e-19
-4.42738966e-18
-5.39809318e-18
-5.07071583e-18
-8.08480637e-18
-5.354906e-18
-5.82512004e-18
-9.5999754e-18
-1.16530837e-17
-1.04955882e-17
-7.21459652e-18
-9.2910224e-18
-8.84601937e-18
-1.01194973e-17
-9.91502007e-18
-1.27967188e-17
-8.33509079e-18
-1.14937479e-17
-9.46546794e-18
-1.04036329e-17
-1.07391963e-17
-1.2045315e-17
-1.09466186e-17
-1.29172039e-17
-1.21290726e-17
-1.39606077e-17
-1.41430243e-17
-1.48803091e-17
-1.65388259e-17
-1.76329343e-17
-2.05979277e-17
-2.21264279e-17
-2.11531872e-17
-2.03041367e-17
-2.09246954e-17
-1.96519544e-17
-2.00217623e-17
-1.47454453e-17
-1.57535081e-17
-1.4935479e-17
-1.8051502e-17
-1.90189528e-17
-1.67725525e-17
-1.25885425e-17
-1.4252402e-17
-1.14007955e-17
-1.25723421e-17
-1.1703317e-17
-1.15096179e-17
-8.07013369e-18
-6.96602341e-18
-9.04452048e-18
-6.28939275e-18
-8.0129097e-18
-8.57901929e-18
-1.21731859e-17
-1.15601423e-17
-1.05455995e-17
-9.50253594e-18
-1.20956927e-17
-8.08744073e-18
-9.76602621e-18
-1.0768812e-17
-7.513717e-18
-5.16035344e-18
-6.02485349e-18
-6.70097967e-18
-6.70356429e-18
-6.90993166e-18
-7.96227828e-18
-1.21419867e-17
-1.47066226e-17
-1.59038252e-17
-1.40337337e-17
-1.70830788e-17
-2.05705175e-17
-2.25684428e-17
-2.46630561e-17
-2.26727753e-17
-2.53765652e-17
-2.29631222e-17
-2.23542841e-17
-2.17978953e-17
-2.19711224e-17
-2.41747626e-17
-2.42496166e-17
-2.0734387e-17
-2.19629101e-17
-2.54454636e-17
-2.72474348e-17
-2.64037722e-17
-2.47314092e-17
-2.29458115e-17
-2.52631505e-17
-2.89080551e-17
-2.58970489e-17
-2.7276534e-17
-2.99064788e-17
-2.81120538e-17
-2.74790298e-17
-2.71999937e-17
-2.6633914e-17
-2.57264848e-17
-2.67993295e-17
-2.98389967e-17
-3.15089292e-17
-2.96724401e-17
-2.81926924e-17
-2.86041556e-17
-2.80791497e-17
-3.16300243e-17
-2.93397755e-17
-2.91088827e-17
-2.7480581e-17
-3.05973616e-17
-2.85898427e-17
-3.06627364e-17
-2.98073871e-17
-2.72628802e-17
-2.96884634e-17
-2.98720443e-17
-2.73210956e-17
-2.68339196e-17
-2.54417954e-17
-2.68035265e-17
-2.65833821e-17
-2.47281744e-17
-2.58510597e-17
-2.76168703e-17
-2.55152805e-17
-2.38488053e-17
-2.54042379e-17
-2.16149029e-17
-1.83027324e-17
-2.1158135e-17
-2.0847776e-17
-2.11128646e-17
-2.11733868e-17
-1.8109184e-17
-1.82690238e-17
-2.01996649e-17
-2.05720958e-17
-2.09805139e-17
-1.89992219e-17
-2.17378245e-17
-2.24873276e-17
-1.74343128e-17
-1.7119885e-17
-2.00466462e-17
-2.08076202e-17
-2.16798459e-17
-1.92081596e-17
-1.91102888e-17
-2.06511304e-17
-1.99881153e-17
-1.86222429e-17
-1.81815918e-17
-1.90275554e-17
-1.64176855e-17
-1.32692778e-17
-1.43206558e-17
-1.2630006e-17
-1.21678397e-17
-1.05647287e-17
-1.06280674e-17
-1.37398535e-17
-1.22999906e-17
-1.3798469e-17
-1.32769073e-17
-1.39347848e-17
-1.60584112e-17
-1.49707112e-17
-1.20923999e-17
-1.40165031e-17
-1.18763556e-17
-1.35851203e-17
-1.21582943e-17
-1.41975459e-17
-1.29856007e-17
-1.45767996e-17
-1.43028795e-17
-1.40445864e-17
-1.41093074e-17
-1.00367047e-17
-1.0127775e-17
-1.24988647e-17
-1.14820296e-17
-1.28550917e-17
-1.2284563e-17
-1.29764549e-17
-1.42101681e-17
-1.5014755e-17
-1.57589059e-17
-1.42986727e-17
-1.38240173e-17
-1.48233761e-17
-1.51862382e-17
-1.28022004e-17
-1.15883962e-17
-1.08115379e-17
-1.16609647e-17
-1.08719797e-17
-9.29876656e-18
-1.04706255e-17
-7.52625682e-18
-8.68093853e-18
-1.1200134e-17
-1.14324148e-17
-9.06004636e-18
-7.76461033e-18
-8.21814396e-18
-8.84531919e-18
-3.31886355e-18
-1.52026546e-18
-1.91703175e-18
1.37312167e-18
1.68191919e-18
2.97810049e-18
2.73934755e-18
4.30236161e-18
6.99996997e-18
4.29742986e-18
1.27825294e-18
1.55460638e-18
3.72362486e-18
1.79136232e-18
4.96174518e-19
2.57462314e-21
-1.66054812e-18
-1.53470825e-18
-2.75370938e-18
-2.99144073e-18
1.65869094e-18
-5.30496662e-19
1.33171274e-18
3.11702569e-18
2.33360441e-18
2.44096786e-18
7.1178357e-18
2.25760048e-18
2.41019503e-18
1.6019156e-18
-9.26068306e-20
-7.83244458e-19
-1.05573287e-18
-1.54153772e-18
6.88973279e-19
2.88005897e-18
1.31360768e-18
4.18643244e-18
8.29950637e-19
2.19043989e-18
-7.50194984e-19
1.57560144e-18
1.77965259e-18
5.85801165e-18
4.15029987e-18
4.42288717e-18
2.2641846e-18
3.72681111e-18
3.66442256e-18
5.22029851e-18
3.1830665e-18
7.86679726e-18
9.46952643e-18
9.45906674e-18
1.04155968e-17
1.04603094e-17
8.27173192e-18
1.10713502e-17
7.55562891e-18
3.00443326e-18
5.47117986e-18
4.29459328e-18
2.35455171e-18
3.97277941e-18
2.58608935e-18
6.22832633e-18
5.58957891e-18
3.13250634e-18
4.37543206e-18
1.55815683e-18
1.77759959e-18
2.39911875e-18
-1.2586791e-18
-1.42945172e-18
-2.75743962e-18
-1.66374546e-18
-7.55920132e-19
-1.50542142e-18
1.04603191e-18
1.12002855e-18
2.42408529e-18
4.04067177e-18
6.36736682e-18
5.468694e-18
1.6506223e-18
8.50789019e-19
-1.31477779e-18
2.52836386e-18
2.46427826e-18
1.29650119e-18
1.54555041e-18
2.37204694e-18
-4.32519842e-19
3.0923224e-18
1.39203349e-18
1.03704617e-19
2.79937324e-18
2.13939072e-18
1.85593778e-18
8.86157554e-19
1.97093118e-18
1.08962991e-19
-2.77160759e-18
-6.1459708e-18
-2.44257513e-18
-4.37637646e-18
-4.50674432e-18
-1.32853212e-18
-3.36177977e-18
-2.22873584e-18
-3.70895079e-18
-1.58315084e-18
-2.80537466e-18
-3.08765619e-18
-4.08683745e-18
-5.80271267e-18
-4.88956468e-18
-5.55951008e-18
-6.99344957e-18
-5.08961901e-18
-7.16527654e-18
-7.43328857e-18
-4.55474386e-18
-6.77140923e-18
-5.88081082e-18
-3.90217292e-18
-4.3802402e-18
-6.49998404e-18
-2.41936322e-18
-3.50548308e-18
-4.20115247e-18
9.45573177e-20
1.2294228e-18
5.09160754e-19
1.79166455e-18
2.34085649e-18
-2.27359777e-18
-3.58500154e-18
-6.64948906e-18
-6.31170563e-18
-4.29996992e-18
-7.66937172e-18
-5.68616635e-18
-5.22365003e-18
-3.90222678e-18
-5.01766026e-18
-3.1037046e-18
-9.01766641e-19
-5.28933507e-18
-5.36270415e-18
-4.67281771e-18
-4.63638075e-18
-6.47362668e-18
-1.09688776e-17
-8.96909651e-18
-1.06386194e-17
-1.0612483e-17
-1.26482264e-17
-1.56323966e-17
-1.52603447e-17
-1.60555731e-17
-1.89798624e-17
-2.20506217e-17
-2.05581884e-17
-2.02969037e-17
-1.86294086e-17
-1.86266821e-17
-1.75539115e-17
-2.10180755e-17
-1.77663769e-17
-1.96538727e-17
-1.87363111e-17
-2.06765337e-17
-2.09718477e-17
-1.85978733e-17
-1.92940578e-17
-2.13938777e-17
-1.67156754e-17
-1.721081e-17
-1.80956579e-17
-1.56662075e-17
-1.31011636e-17
-1.76671091e-17
-1.80710801e-17
-1.94471018e-17
-1.77454024e-17
-2.02461215e-17
-1.95163842e-17
-1.8283154e-17
-1.65943622e-17
-1.63533733e-17
-1.48792725e-17
-1.96331645e-17
-1.68838343e-17
-1.7113325e-17
-1.83126194e-17
-1.56721124e-17
-1.32888777e-17
-1.78143406e-17
-1.77622637e-17
-1.70679808e-17
-1.90134254e-17
-1.8325736e-17
-2.19308462e-17
-2.05696049e-17
-1.92109551e-17
-1.99053626e-17
-2.03103593e-17
-1.8631015e-17
-1.74517869e-17
-1.80406845e-17
-1.4839753e-17
-1.14825141e-17
-1.01677373e-17
-1.39407729e-17
-1.3676618e-17
-1.51741365e-17
-1.58336597e-17
-1.79810842e-17
-1.52781281e-17
-1.82815779e-17
-1.56140988e-17
-1.34747939e-17
-1.36360973e-17
-1.24207028e-17
-1.31346824e-17
-1.42490006e-17
-1.63795277e-17
-1.78052e-17
-1.70985543e-17
-1.65929108e-17
-1.6627479e-17
-1.80270818e-17
-1.87546847e-17
-1.54419444e-17
-1.59045004e-17
-1.80579295e-17
-1.95495645e-17
-1.92349284e-17
-2.29066291e-17
-2.06388105e-17
-1.74419198e-17
-2.01037047e-17
-2.03519853e-17
-2.06262874e-17
-1.65259219e-17
-1.23016645e-17
-1.02913787e-17
-9.82278163e-18
-9.82413412e-18
-1.09953604e-17
-1.26369386e-17
-1.28312479e-17
-1.15601427e-17
-9.55693136e-18
-1.14025512e-17
-9.96078821e-18
-1.05958462e-17
-9.51405146e-18
-6.37698617e-18
-9.41291573e-18
-7.58841786e-18
-7.82157455e-18
-1.03353503e-17
-1.11477803e-17
-1.0877569e-17
-9.37372011e-18
-1.24553497e-17
-1.36659146e-17
-1.19351517e-17
-1.41316742e-17
-1.55784467e-17
-1.30067801e-17
-1.14228677e-17
-9.51514274e-18
-1.20790956e-17
-1.08526489e-17
-9.55889055e-18
-8.45849233e-18
-9.24711814e-18
-5.50562654e-18
-6.49632903e-18
-5.59728341e-18
-8.61055624e-18
-6.23370563e-18
-1.15687105e-17
-1.11576757e-17
-1.10706672e-17
-1.11414708e-17
-1.34288495e-17
-1.14932996e-17
-1.256732e-17
-1.03500152e-17
-1.44725008e-17
-1.3633687e-17
-1.45277638e-17
-1.28464519e-17
-1.09935406e-17
-9.05689233e-18
-7.31458505e-18
-1.07202499e-17
-1.34204276e-17
-1.37953112e-17
-1.36548677e-17
-1.36414146e-17
-1.09544295e-17
-1.11919321e-17
-1.00290925e-17
-1.06704774e-17
-1.19523748e-17
-8.38314774e-18
-1.28500439e-17
-1.15051816e-17
-9.78833864e-18
-1.22604014e-17
-9.45748811e-18
-1.15761037e-17
-1.17049848e-17
-1.21886476e-17
-1.30967094e-17
-1.10783694e-17
-8.3958356e-18
-6.50888698e-18
-8.17508074e-18
-8.39014483e-18
-8.58258448e-18
-3.97455172e-18
-4.29737658e-18
-2.41258946e-18
-1.42501081e-18
5.50420197e-19
-2.07641035e-19
2.20311045e-19
-1.52433847e-18
-1.23158535e-18
-5.20944881e-18
-7.04648269e-18
-9.18506021e-18
-7.79115624e-18
-7.21344494e-18
-9.34526829e-18
-6.33775785e-18
-4.16438381e-18
-3.41054812e-18
-4.4049091e-18
-3.00927553e-18
-4.79429908e-18
-4.71647991e-18
-8.86134726e-18
-7.990831e-18
-6.65855588e-18
-9.1344434e-18
-8.17018988e-18
-6.66905425e-18
-6.28294336e-18
-7.69179142e-18
-7.3100258e-18
-7.96055963e-18
-5.75258904e-18
-6.70577102e-18
-7.09350646e-18
-6.68114823e-18
-4.94669258e-18
-4.58063994e-18
-4.79342157e-18
-5.08623048e-18
-3.9406731e-18
-7.34378553e-18
-4.46971239e-18
-3.90348839e-18
-2.20579796e-18
-5.25689239e-18
-8.99992238e-19
8.1875383e-19
1.31373702e-18
3.72238339e-18
1.61524861e-18
4.35297668e-18
2.408777e-18
3.58728174e-18
3.23750479e-18
4.44431377e-18
5.56935885e-18
8.46297685e-18
7.22752727e-18
4.33694282e-18
7.00277374e-18
2.90768258e-18
6.00829208e-18
5.28240345e-18
5.77451157e-18
4.94090352e-18
7.59147221e-18
4.52979604e-18
5.29916375e-18
4.84722574e-18
6.39995331e-18
5.68069521e-18
3.69122718e-18
5.13904092e-18
5.83041611e-18
6.70224729e-18
6.57922383e-18
2.48476356e-18
4.15594587e-18
1.37807074e-18
2.39781103e-18
2.34891231e-18
1.99074863e-18
9.38241691e-19
4.43493645e-18
3.60313223e-18
3.89966232e-18
3.53017732e-18
2.27178576e-18
1.82552928e-18
4.14318002e-18
2.29656432e-18
1.76230119e-18
1.06129538e-18
-9.50392552e-19
1.47107755e-18
4.73052199e-18
5.68150448e-18
5.71503817e-18
4.29788731e-18
4.2470749e-18
8.51138941e-18
5.05376191e-18
6.40631897e-18
3.72629149e-18
6.84894624e-18
8.12891901e-18
1.04755858e-17
1.19979858e-17
1.0325059e-17
1.02227658e-17
1.04591781e-17
1.12296707e-17
1.00790228e-17
1.30585735e-17
1.13631551e-17
1.18399751e-17
1.2832158e-17
1.38549184e-17
1.1791033e-17
1.12285472e-17
1.16028774e-17
1.08252834e-17
7.84720186e-18
1.031817e-17
8.21401513e-18
8.92218541e-18
1.06771933e-17
9.47846956e-18
1.08051351e-17
1.42335557e-17
1.15445958e-17
1.55783862e-17
1.44730039e-17
1.8075429e-17
2.13228368e-17
2.10249519e-17
2.15355458e-17
2.0202227e-17
2.27623568e-17
2.11386576e-17
2.20139703e-17
2.01608616e-17
2.08764138e-17
1.7284872e-17
1.62884782e-17
1.8753282e-17
1.85356532e-17
1.7860057e-17
1.53700101e-17
1.63233303e-17
2.14785204e-17
2.35469241e-17
2.65702105e-17
2.58140705e-17
2.66987778e-17
2.57365389e-17
2.40660865e-17
2.16083075e-17
2.2675582e-17
1.98846542e-17
2.06149802e-17
2.40507237e-17
2.32532438e-17
2.52264492e-17
2.67509135e-17
2.75949854e-17
2.56772267e-17
2.88355406e-17
3.11093902e-17
2.84980649e-17
3.03869342e-17
2.86772871e-17
2.6814215e-17
2.87323386e-17
2.89522255e-17
3.27194203e-17
3.19407314e-17
3.47942903e-17
3.29662449e-17
3.54049721e-17
3.40899755e-17
3.33085538e-17
3.28009535e-17
3.37165979e-17
3.64108388e-17
3.73073585e-17
3.75517243e-17
3.34318817e-17
3.38877536e-17
3.32597379e-17
3.47117614e-17
3.93134066e-17
3.36135769e-17
3.67185178e-17
3.33772326e-17
3.4062502e-17
3.53534775e-17
3.58593106e-17
3.71599374e-17
3.89568947e-17
4.12329605e-17
3.86545543e-17
3.88482955e-17
3.54583883e-17
3.62180022e-17
3.5153238e-17
3.58519703e-17
3.87380505e-17
3.52609161e-17
3.75068438e-17
3.55568542e-17
3.51863556e-17
3.88573529e-17
3.89340043e-17
3.50629613e-17
3.89186045e-17
4.08509306e-17
3.97834994e-17
4.02391315e-17
3.90330124e-17
4.0633507e-17
4.17969936e-17
4.06309477e-17
3.99180218e-17
3.95655058e-17
3.94885003e-17
3.50564597e-17
3.51018326e-17
3.35509071e-17
3.49454056e-17
3.82869886e-17
3.94605794e-17
3.96660023e-17
4.25368186e-17
4.12587137e-17
4.00016876e-17
3.96759763e-17
4.19318568e-17
4.45337304e-17
4.51932354e-17
4.6869978e-17
4.90080501e-17
4.59060746e-17
4.91154519e-17
4.961503e-17
4.96840791e-17
4.96925088e-17