/*--------------------------------*- C++ -*----------------------------------*\
| =========                 |                                                 |
| \\      /  F ield         | OpenFOAM: The Open Source CFD Toolbox           |
|  \\    /   O peration     | Version:  2206                                  |
|   \\  /    A nd           | Website:  www.openfoam.com                      |
|    \\/     M anipulation  |                                                 |
\*---------------------------------------------------------------------------*/
FoamFile
{
    version     2.0;
    format      ascii;
    arch        "LSB;label=32;scalar=64";
    class       volScalarField;
    location    "4.2e-06";
    object      PVsourcePV;
}
// * * * * * * * * * * * * * * * * * * * * * * * * * * * * * * * * * * * * * //

dimensions      [1 -3 -1 0 0 0 0];

internalField   nonuniform List<scalar> 
3183
(
0
0
0
0
0
0
0
0
0
0
0
0
0
0
0
0
0
0
0
0
0
0
0
0
0
0
0
0
0
0
0
0
0
0
0
0
0
0
0
0
0
0
0
0
0
0
0
0
0
0
0
0
0
0
0
0
0
0
0
0
0
0
0
0
0
0
0
0
0
0
0
0
0
0
0
0
0
0
0
0
0
0
0
0
0
0
0
0
0
0
0
0
0
0
0
0
0
0
0
0
0
0
0
0
0
0
0
0
0
0
0
0
0
0
0
0
0
0
0
0
0
0
0
0
0
0
0
0
0
0
0
0
0
0
0
0
0
0
0
0
0
0
0
0
0
0
0
0
0
0
0
0
0
0
0
0
0
0
0
0
0
0
0
0
0
0
0
0
0
0
0
0
0
0
0
0
0
0
0
0
0
0
0
0
0
0
0
0
0
0
0
0
0
0
0
0
0
0
0
0
0
0
0
0
0
0
0
0
0
0
0
0
0
0
0
0
0
0
0
0
0
0
0
0
0
0
0
0
0
0
0
0
0
0
0
0
0
0
0
0
0
0
0
0
0
0
0
0
0
0
0
0
0
0
0
0
0
0
0
0
0
0
0
0
0
0
0
0
0
0
0
0
0
0
0
0
0
0
0
0
0
0
0
0
0
0
0
0
0
0
0
0
0
0
0
0
0
0
0
0
0
0
0
0
0
0
0
0
0
0
0
0
0
0
0
0
0
0
0
0
0
0
0
0
0
0
0
0
0
0
0
0
0
0
0
0
0
0
0
0
0
0
0
0
0
0
0
0
0
0
0
0
0
0
0
0
0
0
0
0
0
0
0
0
0
0
0
0
0
0
0
0
0
0
0
0
0
0
0
0
0
0
0
0
0
0
0
0
0
0
0
0
0
0
0
0
0
0
0
0
0
0
0
0
0
0
0
0
0
0
0
0
0
0
0
0
0
0
0
0
0
0
0
0
0
0
0
0
0
0
0
0
0
0
0
0
0
0
0
0
0
0
0
0
0
0
0
0
0
0
0
0
0
0
0
0
0
0
0
0
0
0
0
0
0
0
0
0
0
0
0
0
0
0
0
0
0
0
0
0
0
0
0
0
0
0
0
0
0
0
0
0
0
0
0
0
0
0
0
0
0
0
0
0
0
0
0
0
0
0
0
0
0
0
0
0
0
0
0
0
0
0
0
0
0
0
0
0
0
0
0
0
0
0
0
0
0
0
0
0
0
0
0
0
0
0
0
0
0
0
0
0
0
0
0
0
0
0
0
0
0
0
0
0
0
0
0
0
0
0
0
0
0
0
0
0
0
0
0
0
0
0
0
0
0
0
0
0
0
0
0
0
0
0
0
0
0
0
0
0
0
0
0
0
0
0
0
0
0
0
0
0
0
0
0
0
0
0
0
0
0
0
0
0
0
0
0
0
0
0
0
0
0
0
0
0
0
0
0
0
0
0
0
0
0
0
0
0
0
0
0
0
0
0
0
0
0
0
0
0
0
0
0
0
0
0
0
0
0
0
0
0
0
0
0
0
0
0
0
0
0
0
0
0
0
0
0
0
0
0
0
0
0
0
0
0
0
0
0
0
0
0
0
0
0
0
0
0
0
0
0
0
0
0
0
0
0
0
0
0
0
0
0
0
0
0
0
0
0
0
0
0
0
0
0
0
0
0
0
0
0
0
0
0
0
0
0
0
0
0
0
0
0
0
0
0
0
0
0
0
0
0
0
0
0
0
0
0
0
0
0
0
0
0
0
0
0
0
0
0
0
0
0
0
0
0
0
0
0
0
0
0
0
0
0
0
0
0
0
0
0
0
0
0
0
0
0
0
0
0
0
0
0
0
0
0
0
0
0
0
0
0
0
0
0
0
0
0
0
0
0
0
0
0
0
0
0
0
0
0
0
0
0
0
0
0
0
0
0
0
0
0
0
0
0
0
0
0
0
0
0
0
0
0
0
0
0
0
0
0
0
0
0
0
0
0
0
0
0
0
0
0
0
0
0
0
0
0
0
0
0
0
0
0
0
0
0
0
0
0
0
0
0
0
0
0
0
0
0
0
0
0
0
0
0
0
0
0
0
0
0
0
0
0
0
0
0
0
0
0
0
0
0
0
0
0
0
0
0
0
0
0
0
0
0
0
0
0
0
0
0
0
0
0
0
0
0
0
0
0
0
0
0
0
0
0
0
0
0
0
0
0
0
0
0
0
0
0
0
0
0
0
0
0
0
0
0
0
0
0
0
0
0
0
0
0
0
0
0
0
0
0
0
0
0
0
0
0
0
0
0
0
0
0
0
0
0
0
0
0
0
0
0
0
0
0
0
0
0
0
0
0
0
0
0
0
0
0
0
0
0
0
0
0
0
0
0
0
0
0
0
0
0
0
0
0
0
0
0
0
0
0
0
0
0
0
0
0
0
0
0
0
0
0
0
0
0
0
0
0
0
0
0
0
0
0
0
0
0
0
0
0
0
0
0
0
0
0
0
0
0
0
0
0
0
0
0
0
0
0
0
0
0
0
0
0
0
0
0
0
0
0
0
0
0
0
0
0
0
0
0
0
0
0
0
0
0
0
0
0
0
0
0
0
0
0
0
0
0
0
0
0
0
0
0
0
0
0
0
0
0
0
0
0
0
0
0
0
0
0
0
0
0
0
0
0
0
0
0
0
0
0
0
0
0
0
0
0
0
0
0
0
0
0
0
0
0
0
0
0
0
0
0
0
0
0
0
0
0
0
0
0
0
0
0
0
0
0
0
0
0
0
0
0
0
0
0
0
0
0
0
0
0
0
0
0
0
0
0
0
0
0
0
0
0
0
0
0
0
0
0
0
0
0
0
0
0
0
0
0
0
0
0
0
0
0
0
0
0
0
0
0
0
0
0
0
0
0
0
0
0
0
0
0
0
0
0
0
0
0
0
0
0
0
0
0
0
0
0
0
0
0
0
0
0
0
0
0
0
0
0
0
0
0
0
0
0
0
0
0
0
0
0
0
0
0
0
0
0
0
0
0
0
0
0
0
0
0
0
0
0
0
0
0
0
0
0
0
0
0
0
0
0
0
0
0
0
0
0
0
0
0
0
0
0
0
0
0
0
0
0
0
0
0
0
0
0
0
0
0
0
0
0
0
0
0
0
0
0
0
0
0
0
0
0
0
0
0
0
0
0
0
0
0
0
0
0
0
0
0
0
0
0
0
0
0
0
0
0
0
0
0
0
0
0
0
0
0
0
0
0
0
0
0
0
0
0
0
0
0
0
0
0
0
0
0
0
0
0
0
0
0
0
0
0
0
0
0
0
0
0
0
0
0
0
0
0
0
0
0
0
0
0
0
0
0
0
0
0
0
0
0
0
0
0
0
0
0
0
0
0
0
0
0
0
0
0
0
0
0
0
0
0
0
0
0
0
0
0
0
0
0
0
0
0
0
0
0
0
0
0
0
0
0
0
0
0
0
0
0
0
0
0
0
0
0
0
0
0
0
0
0
0
0
0
0
0
0
0
0
0
0
0
0
0
0
0
0
0
0
0
0
0
0
0
0
0
0
0
0
0
0
0
0
0
0
0
0
0
0
0
0
0
0
0
0
0
0
0
0
0
0
0
0
0
0
0
0
0
0
0
0
0
0
0
0
0
0
0
0
0
0
0
0
0
0
0
0
0
0
0
0
0
0
0
0
0
0
0
0
0
0
0
0
0
0
0
0
0
0
0
0
0
0
0
0
0
0
0
0
0
0
0
0
0
0
0
0
0
0
0
0
0
0
0
0
0
0
0
0
0
0
0
0
0
0
0
0
0
0
0
0
0
0
0
0
0
0
0
0
0
0
0
0
0
0
0
0
0
0
0
0
0
0
0
0
0
0
0
0
0
0
0
0
0
0
0
0
0
0
0
0
0
0
0
0
0
0
0
0
0
0
0
0
0
0
0
0
0
0
0
0
0
0
0
0
0
0
0
0
0
0
0
0
0
0
0
0
0
0
0
0
0
0
0
0
0
0
0
0
0
0
0
0
0
0
0
0
0
0
0
0
0
0
0
0
0
0
0
0
0
0
0
0
0
0
0
0
0
0
0
0
0
0
0
0
0
0
0
0
0
0
0
0
0
0
0
0
0
0
0
0
0
0
0
0
0
0
0
0
0
0
0
0
0
0
0
0
0
0
0
0
0
0
0
0
0
0
0
0
0
0
0
0
0
0
0
0
0
0
0
0
0
0
0
0
0
0
0
0
0
0
0
0
0
0
0
0
0
0
0
0
0
0
0
0
0
0
0
0
0
0
0
0
0
0
0
0
0
0
0
0
0
0
0
0
0
0
0
0
0
0
0
0
0
0
0
0
0
0
0
0
0
0
0
0
0
0
0
0
0
0
0
0
0
0
0
0
0
0
0
0
0
0
0
0
0
0
0
0
0
0
0
0
0
0
0
0
0
0
0
0
0
0
0
0
0
0
0
0
0
0
0
0
0
0
0
0
0
0
0
0
0
0
0
0
0
0
0
0
0
0
0
0
0
0
0
0
0
0
0
0
0
0
0
0
0
0
0
0
0
0
0
0
0
0
0
0
0
0
0
0
0
0
0
0
0
0
0
0
0
0
0
0
0
0
0
0
0
0
0
0
0
0
0
0
0
0
0
0
0
0
0
0
0
0
0
0
0
0
0
0
0
0
0
0
0
0
0
0
0
0
0
0
0
0
0
0
0
0
0
0
0
0
0
0
0
0
0
0
0
0
0
0
0
0
0
0
0
0
0
0
0
0
0
0
0
0
0
0
0
0
0
0
0
0
0
0
0
0
0
0
0
0
0
0
0
0
0
0
0
0
0
0
0
0
0
0
0
0
0
0
0
0
0
0
0
0
0
0
0
0
0
0
0
0
0
0
0
0
0
0
0
0
0
0
0
0
0
0
0
0
0
0
0
0
0
0
0
0
0
0
0
0
0
0
0
0
0
0
0
0
0
0
0
0
0
0
0
0
0
0
0
0
0
0
0
0
0
0
0
0
0
0
0
0
0
0
0
0
0
0
0
0
0
0
0
0
0
0
0
0
0
0
0
0
0
0
0
0
0
0
0
0
0
0
0
0
0
0
0
0
0
0
0
0
0
0
0
0
0
0
0
0
0
0
0
0
0
0
0
0
0
0
0
0
0
0
0
0
0
0
0
0
0
0
0
0
0
0
0
0
0
0
0
0
0
0
0
0
0
0
0
0
0
0
0
0
0
0
0
0
0
0
0
0
0
0
0
0
0
0
0
0
0
0
0
0
0
0
0
0
0
0
0
0
0
0
0
0
0
0
0
0
0
0
0
0
0
0
0
0
0
0
0
0
0
0
0
0
0
0
0
0
0
0
0
0
0
0
0
0
0
0
0
0
0
0
0
0
0
0
0
0
0
0
0
0
0
0
0
0
0
0
0
0
0
0
0
0
0
0
0
0
0
0
0
0
0
0
0
0
0
0
0
0
0
0
0
0
0
0
0
0
0
0
0
0
0
0
0
0
0
0
0
0
0
0
0
0
0
0
0
0
0
0
0
0
0
5.21010799e-299
0
1.92620802e-289
0
3.66874612e-280
0
3.59978877e-271
0
1.81956784e-262
0
4.73782546e-254
0
6.35475668e-246
0
4.39057248e-238
0
1.56259565e-230
0
2.86477807e-223
0
2.70581775e-216
0
1.31694818e-209
0
3.30450958e-203
0
4.27881416e-197
0
2.86430661e-191
0
9.94813859e-186
0
1.12666066e-181
0
6.76506293e-178
0
2.84281958e-174
0
9.35244824e-171
0
2.55699651e-167
0
6.02669042e-164
0
1.25498494e-160
0
2.34963333e-157
0
4.00688563e-154
0
6.286307e-151
0
9.14503412e-148
0
1.24144693e-144
0
1.58079625e-141
0
1.89625182e-138
0
2.15057345e-135
0
2.31299777e-132
0
2.36530546e-129
0
2.30492621e-126
0
2.14445089e-123
0
1.90801429e-120
0
1.62582148e-117
7.06051243e-121
1.32838632e-114
5.07012818e-116
1.04182971e-111
7.61173278e-113
7.8502754e-109
8.28821363e-110
5.68755109e-106
7.74189861e-107
3.96461964e-103
6.54291534e-104
2.66041064e-100
5.12443727e-101
1.71932147e-97
3.76772765e-98
1.07047145e-94
2.62082009e-95
6.42260359e-92
1.7333519e-92
3.7139428e-89
1.09367394e-89
2.07004571e-86
6.59855483e-87
1.1120922e-83
3.81303444e-84
5.75805926e-81
2.11268007e-81
2.87280753e-78
1.12318404e-78
1.38074576e-75
5.7319566e-76
6.39056001e-73
2.80840934e-73
2.84695513e-70
1.32098889e-70
1.22008956e-67
5.96360812e-68
5.02661731e-65
2.58285274e-65
1.98921996e-62
1.07251131e-62
7.55445533e-60
4.26646213e-60
2.75017982e-57
1.62430549e-57
9.58530762e-55
5.91130859e-55
3.1937592e-52
2.05353372e-52
1.01558221e-49
6.79830738e-50
3.07606491e-47
2.14060132e-47
8.85438102e-45
6.39614818e-45
2.41576863e-42
1.80879916e-42
6.22789794e-40
4.8259977e-40
1.51156834e-37
1.21029755e-37
3.43890482e-35
2.84035971e-35
7.29515603e-33
6.20436145e-33
1.43376482e-30
1.25316277e-30
2.58985293e-28
2.3214365e-28
4.25608027e-26
3.9034421e-26
6.27939847e-24
5.8784545e-24
8.16988593e-22
7.78583086e-22
9.13924855e-20
8.83935964e-20
8.46233185e-18
8.28382303e-18
6.09232269e-16
5.82825382e-16
1.0767468e-12
1.01201794e-12
0.241784423
0.442031209
0.486405099
0.408235561
0.0342226687
0.0308591885
0.00340511677
0.00329998951
0.000298605353
0.000297230511
2.34464909e-05
2.37877152e-05
2.27468526e-06
2.28711136e-06
7.87103371e-07
7.88114582e-07
6.93813555e-07
6.93908175e-07
6.8849854e-07
6.88505796e-07
6.88219923e-07
6.88219979e-07
6.88206271e-07
6.88206288e-07
6.88205618e-07
6.88205698e-07
6.88205735e-07
6.8820562e-07
6.88205133e-07
6.88206412e-07
6.88205226e-07
6.88205079e-07
6.88205562e-07
6.88206622e-07
6.88204686e-07
6.8820601e-07
6.88205377e-07
6.88205442e-07
6.88205185e-07
6.8820548e-07
6.88205918e-07
6.882056e-07
6.88206135e-07
6.88205208e-07
6.88205726e-07
6.88205166e-07
6.88206136e-07
6.88205457e-07
6.88205847e-07
6.88205112e-07
6.88205786e-07
6.88205386e-07
6.88205527e-07
6.88205881e-07
6.88205389e-07
6.88205431e-07
6.8820557e-07
6.88205756e-07
6.88206395e-07
6.882047e-07
6.88206225e-07
6.88205613e-07
6.88205551e-07
6.88206316e-07
6.88205062e-07
6.88205668e-07
6.88206052e-07
6.88205468e-07
6.88205676e-07
6.88205129e-07
6.88206087e-07
6.88204272e-07
6.88206426e-07
6.8820484e-07
6.88206129e-07
6.88205392e-07
6.88206517e-07
6.88205577e-07
6.88206043e-07
6.88206441e-07
6.88205865e-07
6.88205866e-07
6.88206551e-07
6.88205799e-07
6.88206111e-07
6.88206021e-07
6.8820538e-07
6.88206063e-07
6.88205977e-07
6.88204925e-07
6.88206351e-07
6.88206018e-07
6.88205637e-07
6.88206671e-07
6.88205395e-07
6.88205826e-07
6.88206011e-07
6.88206492e-07
6.88206338e-07
6.88205205e-07
6.88206292e-07
6.88205973e-07
6.88206146e-07
6.88206016e-07
6.8820615e-07
6.88205832e-07
6.88206067e-07
6.88206853e-07
6.88205781e-07
6.88205164e-07
6.88206983e-07
6.88204948e-07
6.88206436e-07
6.88205162e-07
6.88205918e-07
6.88205879e-07
6.88205992e-07
6.88206162e-07
6.88206006e-07
6.88206227e-07
6.88206354e-07
6.88205599e-07
6.88206307e-07
6.8820585e-07
6.88206264e-07
6.88205689e-07
6.88205838e-07
6.88205937e-07
6.88206573e-07
6.8820625e-07
6.88206113e-07
6.88205307e-07
6.88206723e-07
6.88207443e-07
6.88205345e-07
6.88207406e-07
6.88205855e-07
6.88205676e-07
6.88207265e-07
6.88205314e-07
6.88206878e-07
6.8820595e-07
6.88206662e-07
6.88205982e-07
6.88205911e-07
6.88206511e-07
6.88206314e-07
6.88206175e-07
6.88206525e-07
6.88206691e-07
6.88206057e-07
6.88206845e-07
6.88206349e-07
6.88206601e-07
6.88206377e-07
6.88206694e-07
6.88206338e-07
6.88207067e-07
6.88206281e-07
6.88206383e-07
6.88206144e-07
6.88206579e-07
6.88206626e-07
6.88206377e-07
6.88206861e-07
6.88207231e-07
6.88206709e-07
6.88206212e-07
6.88206863e-07
6.8820681e-07
6.88206254e-07
6.88206073e-07
6.88206398e-07
6.88206565e-07
6.88206218e-07
6.88206588e-07
6.88207182e-07
6.88206726e-07
6.88206776e-07
6.88208136e-07
6.88207189e-07
6.88207821e-07
6.88206587e-07
6.88207088e-07
6.88206644e-07
6.88206935e-07
6.88207668e-07
6.8820657e-07
6.88207625e-07
6.88207103e-07
6.88207616e-07
6.88206858e-07
6.88207392e-07
6.88207383e-07
6.88207575e-07
6.8820699e-07
6.88207323e-07
6.88206558e-07
6.88207979e-07
6.8820576e-07
6.88207809e-07
6.88207126e-07
6.88206437e-07
6.88208285e-07
6.88206568e-07
6.88206994e-07
6.88207469e-07
6.88207193e-07
6.88207484e-07
6.88207096e-07
6.88208095e-07
6.88206086e-07
6.88207907e-07
6.8820715e-07
6.88207503e-07
6.88207538e-07
6.88207332e-07
6.88207868e-07
6.88207717e-07
6.88207963e-07
6.88206951e-07
6.88207983e-07
6.88207306e-07
6.88207611e-07
6.88207372e-07
6.88207253e-07
6.88207638e-07
6.88207471e-07
6.88207436e-07
6.88207439e-07
6.88207618e-07
6.88207509e-07
6.88207796e-07
6.88207182e-07
6.88208228e-07
6.88208084e-07
6.88207951e-07
6.88208133e-07
6.88207395e-07
6.8820838e-07
6.88208069e-07
6.8820815e-07
6.88207917e-07
6.88207317e-07
6.88208387e-07
6.88207598e-07
6.88207744e-07
6.88207842e-07
6.88207794e-07
6.88207698e-07
6.88208042e-07
6.88208039e-07
6.88208576e-07
6.88208038e-07
6.88207655e-07
6.88207632e-07
6.88208594e-07
6.88207879e-07
6.88208406e-07
6.88207564e-07
6.8820834e-07
6.88208392e-07
6.88208678e-07
6.88207302e-07
6.88209161e-07
6.88207648e-07
6.88207826e-07
6.88207595e-07
6.88207822e-07
6.88207062e-07
6.88208472e-07
6.88208457e-07
6.88207641e-07
6.88209361e-07
6.88207818e-07
6.88208627e-07
6.88207502e-07
6.88208307e-07
6.88208549e-07
6.88208207e-07
6.88208706e-07
6.88207229e-07
6.88208468e-07
6.88208359e-07
6.88208601e-07
6.88207904e-07
6.88208005e-07
6.88208213e-07
6.88208179e-07
6.88208467e-07
6.88208004e-07
6.88207948e-07
6.88208504e-07
6.88207258e-07
6.88208574e-07
6.88207778e-07
6.88208371e-07
6.8820815e-07
6.8820877e-07
6.88208552e-07
6.88209148e-07
6.88208273e-07
6.88208254e-07
6.88208534e-07
6.88208837e-07
6.88208148e-07
6.88209327e-07
6.88208289e-07
6.88208617e-07
6.88208493e-07
6.88208921e-07
6.88208169e-07
6.88207272e-07
6.88209092e-07
6.88208002e-07
6.88208312e-07
6.8820902e-07
6.882075e-07
6.8820882e-07
6.8820826e-07
6.88208697e-07
6.88208656e-07
6.88207993e-07
6.88208478e-07
6.88208038e-07
6.88208863e-07
6.8820824e-07
6.88208714e-07
6.8820823e-07
6.88207856e-07
6.88208412e-07
6.882088e-07
6.88207854e-07
6.88207974e-07
6.88208738e-07
6.88207809e-07
6.88208917e-07
6.88207653e-07
6.88208864e-07
6.88208131e-07
6.88208748e-07
6.8820857e-07
6.88208316e-07
6.8820875e-07
6.88208288e-07
6.88208772e-07
6.88208153e-07
6.88209241e-07
6.88208214e-07
6.8820828e-07
6.88208021e-07
6.88208495e-07
6.88208488e-07
6.88207763e-07
6.88209518e-07
6.88207955e-07
6.88208871e-07
6.88208835e-07
6.8820919e-07
6.88208011e-07
6.88208755e-07
6.88208152e-07
6.88209143e-07
6.88208351e-07
6.88208627e-07
6.88209274e-07
6.88209085e-07
6.88208836e-07
6.88209121e-07
6.88208897e-07
6.88208892e-07
6.88209179e-07
6.88207838e-07
6.88209654e-07
6.88208282e-07
6.88208796e-07
6.88208452e-07
6.88208571e-07
6.88209276e-07
6.88207965e-07
6.88209346e-07
6.88208596e-07
6.88208061e-07
6.88208086e-07
6.8820822e-07
6.8820876e-07
6.88207966e-07
6.88208192e-07
6.88208487e-07
6.88208569e-07
6.88208673e-07
6.88208117e-07
6.88208727e-07
6.88208559e-07
6.8820824e-07
6.88209277e-07
6.88208564e-07
6.88208739e-07
6.88208288e-07
6.88208502e-07
6.88208513e-07
6.88208356e-07
6.88208682e-07
6.88209588e-07
6.8820786e-07
6.88208685e-07
6.88208084e-07
6.88208799e-07
6.88208543e-07
6.88208878e-07
6.88208993e-07
6.88208328e-07
6.88208415e-07
6.8820806e-07
6.88208782e-07
6.88208371e-07
6.88209002e-07
6.88208678e-07
6.88208281e-07
6.88208244e-07
6.88209196e-07
6.88208158e-07
6.88208269e-07
6.88208279e-07
6.88208955e-07
6.88208185e-07
6.88208416e-07
6.88209218e-07
6.8820818e-07
6.8820914e-07
6.88209002e-07
6.88209045e-07
6.88208383e-07
6.88208539e-07
6.88209084e-07
6.88208713e-07
6.88208875e-07
6.88208731e-07
6.88208713e-07
6.88208847e-07
6.88208962e-07
6.88208359e-07
6.88208231e-07
6.8820846e-07
6.8820874e-07
6.88208635e-07
6.88209611e-07
6.88208834e-07
6.88208229e-07
6.88209377e-07
6.88207639e-07
6.88207936e-07
6.88209253e-07
6.88208322e-07
6.88208467e-07
6.88209075e-07
6.88208809e-07
6.88208119e-07
6.8820887e-07
6.88208489e-07
6.88207812e-07
6.8820868e-07
6.88208754e-07
6.88208167e-07
6.88208611e-07
6.88207858e-07
6.8820933e-07
6.8820793e-07
6.88209425e-07
6.88208739e-07
6.88208404e-07
6.88208984e-07
6.88208273e-07
6.88208781e-07
6.88208366e-07
6.88209124e-07
6.88208602e-07
6.88208389e-07
6.88208375e-07
6.88208312e-07
6.88207989e-07
6.88208468e-07
6.88208529e-07
6.88208893e-07
6.88208574e-07
6.8820785e-07
6.8820927e-07
6.8820821e-07
6.88209125e-07
6.88208146e-07
6.88208314e-07
6.8820888e-07
6.88209116e-07
6.88208885e-07
6.88208057e-07
6.88208302e-07
6.88208534e-07
6.88208187e-07
6.88209439e-07
6.88208113e-07
6.88209415e-07
6.8820782e-07
6.88208379e-07
6.88208887e-07
6.88208436e-07
6.8820914e-07
6.88208609e-07
6.88208592e-07
6.88208407e-07
6.88208428e-07
6.8820879e-07
6.88208278e-07
6.88208609e-07
6.88208429e-07
6.88208618e-07
6.88208608e-07
6.88208379e-07
6.88208501e-07
6.88208542e-07
6.88208445e-07
6.88208517e-07
6.88208569e-07
6.88208509e-07
6.88208503e-07
6.88208469e-07
6.88208483e-07
6.88208526e-07
6.88208506e-07
6.88208501e-07
6.88208558e-07
6.88208509e-07
6.88208513e-07
6.8820851e-07
6.88208501e-07
6.88208547e-07
6.88208506e-07
6.88208487e-07
6.88208497e-07
6.8820851e-07
6.88208506e-07
6.88208508e-07
6.88208509e-07
6.88208506e-07
6.88208509e-07
6.88208514e-07
6.8820851e-07
6.88208515e-07
6.88208495e-07
6.88208514e-07
6.88208506e-07
6.88208506e-07
6.88208513e-07
6.88208511e-07
6.88208508e-07
6.88208515e-07
6.88208504e-07
6.88208512e-07
6.88208494e-07
6.88208506e-07
6.88208511e-07
6.88208515e-07
6.8820851e-07
6.88208512e-07
6.88208497e-07
6.88208512e-07
6.88208511e-07
6.8820851e-07
6.88208509e-07
6.88208503e-07
6.88208522e-07
6.88208506e-07
6.88208513e-07
6.88208507e-07
6.88208504e-07
6.88208515e-07
6.88208506e-07
6.88208502e-07
6.88208509e-07
)
;

boundaryField
{
    closed
    {
        type            calculated;
        value           uniform 0;
    }
    open
    {
        type            calculated;
        value           uniform 0;
    }
    sides
    {
        type            empty;
    }
}


// ************************************************************************* //
