/*--------------------------------*- C++ -*----------------------------------*\
| =========                 |                                                 |
| \\      /  F ield         | OpenFOAM: The Open Source CFD Toolbox           |
|  \\    /   O peration     | Version:  2206                                  |
|   \\  /    A nd           | Website:  www.openfoam.com                      |
|    \\/     M anipulation  |                                                 |
\*---------------------------------------------------------------------------*/
FoamFile
{
    version     2.0;
    format      ascii;
    arch        "LSB;label=32;scalar=64";
    class       volScalarField;
    location    "4.2e-06";
    object      sourcePV;
}
// * * * * * * * * * * * * * * * * * * * * * * * * * * * * * * * * * * * * * //

dimensions      [1 -3 -1 0 0 0 0];

internalField   nonuniform List<scalar> 
3183
(
0
0
0
0
0
0
0
0
0
0
0
0
0
0
0
0
0
0
0
0
0
0
0
0
0
0
0
0
0
0
0
0
0
0
0
0
0
0
0
0
0
0
0
0
0
0
0
0
0
0
0
0
0
0
0
0
0
0
0
0
0
0
0
0
0
0
0
0
0
0
0
0
0
0
0
0
0
0
0
0
0
0
0
0
0
0
0
0
0
0
0
0
0
0
0
0
0
0
0
0
0
0
0
0
0
0
0
0
0
0
0
0
0
0
0
0
0
0
0
0
0
0
0
0
0
0
0
0
0
0
0
0
0
0
0
0
0
0
0
0
0
0
0
0
0
0
0
0
0
0
0
0
0
0
0
0
0
0
0
0
0
0
0
0
0
0
0
0
0
0
0
0
0
0
0
0
0
0
0
0
0
0
0
0
0
0
0
0
0
0
0
0
0
0
0
0
0
0
0
0
0
0
0
0
0
0
0
0
0
0
0
0
0
0
0
0
0
0
0
0
0
0
0
0
0
0
0
0
0
0
0
0
0
0
0
0
0
0
0
0
0
0
0
0
0
0
0
0
0
0
0
0
0
0
0
0
0
0
0
0
0
0
0
0
0
0
0
0
0
0
0
0
0
0
0
0
0
0
0
0
0
0
0
0
0
0
0
0
0
0
0
0
0
0
0
0
0
0
0
0
0
0
0
0
0
0
0
0
0
0
0
0
0
0
0
0
0
0
0
0
0
0
0
0
0
0
0
0
0
0
0
0
0
0
0
0
0
0
0
0
0
0
0
0
0
0
0
0
0
0
0
0
0
0
0
0
0
0
0
0
0
0
0
0
0
0
0
0
0
0
0
0
0
0
0
0
0
0
0
0
0
0
0
0
0
0
0
0
0
0
0
0
0
0
0
0
0
0
0
0
0
0
0
0
0
0
0
0
0
0
0
0
0
0
0
0
0
0
0
0
0
0
0
0
0
0
0
0
0
0
0
0
0
0
0
0
0
0
0
0
0
0
0
0
0
0
0
0
0
0
0
0
0
0
0
0
0
0
0
0
0
0
0
0
0
0
0
0
0
0
0
0
0
0
0
0
0
0
0
0
0
0
0
0
0
0
0
0
0
0
0
0
0
0
0
0
0
0
0
0
0
0
0
0
0
0
0
0
0
0
0
0
0
0
0
0
0
0
0
0
0
0
0
0
0
0
0
0
0
0
0
0
0
0
0
0
0
0
0
0
0
0
0
0
0
0
0
0
0
0
0
0
0
0
0
0
0
0
0
0
0
0
0
0
0
0
0
0
0
0
0
0
0
0
0
0
0
0
0
0
0
0
0
0
0
0
0
0
0
0
0
0
0
0
0
0
0
0
0
0
0
0
0
0
0
0
0
0
0
0
0
0
0
0
0
0
0
0
0
0
0
0
0
0
0
0
0
0
0
0
0
0
0
0
0
0
0
0
0
0
0
0
0
0
0
0
0
0
0
0
0
0
0
0
0
0
0
0
0
0
0
0
0
0
0
0
0
0
0
0
0
0
0
0
0
0
0
0
0
0
0
0
0
0
0
0
0
0
0
0
0
0
0
0
0
0
0
0
0
0
0
0
0
0
0
0
0
0
0
0
0
0
0
0
0
0
0
0
0
0
0
0
0
0
0
0
0
0
0
0
0
0
0
0
0
0
0
0
0
0
0
0
0
0
0
0
0
0
0
0
0
0
0
0
0
0
0
0
0
0
0
0
0
0
0
0
0
0
0
0
0
0
0
0
0
0
0
0
0
0
0
0
0
0
0
0
0
0
0
0
0
0
0
0
0
0
0
0
0
0
0
0
0
0
0
0
0
0
0
0
0
0
0
0
0
0
0
0
0
0
0
0
0
0
0
0
0
0
0
0
0
0
0
0
0
0
0
0
0
0
0
0
0
0
0
0
0
0
0
0
0
0
0
0
0
0
0
0
0
0
0
0
0
0
0
0
0
0
0
0
0
0
0
0
0
0
0
0
0
0
0
0
0
0
0
0
0
0
0
0
0
0
0
0
0
0
0
0
0
0
0
0
0
0
0
0
0
0
0
0
0
0
0
0
0
0
0
0
0
0
0
0
0
0
0
0
0
0
0
0
0
0
0
0
0
0
0
0
0
0
0
0
0
0
0
0
0
0
0
0
0
0
0
0
0
0
0
0
0
0
0
0
0
0
0
0
0
0
0
0
0
0
0
0
0
0
0
0
0
0
0
0
0
0
0
0
0
0
0
0
0
0
0
0
0
0
0
0
0
0
0
0
0
0
0
0
0
0
0
0
0
0
0
0
0
0
0
0
0
0
0
0
0
0
0
0
0
0
0
0
0
0
0
0
0
0
0
0
0
0
0
0
0
0
0
0
0
0
0
0
0
0
0
0
0
0
0
0
0
0
0
0
0
0
0
0
0
0
0
0
0
0
0
0
0
0
0
0
0
0
0
0
0
0
0
0
0
0
0
0
0
0
0
0
0
0
0
0
0
0
0
0
0
0
0
0
0
0
0
0
0
0
0
0
0
0
0
0
0
0
0
0
0
0
0
0
0
0
0
0
0
0
0
0
0
0
0
0
0
0
0
0
0
0
0
0
0
0
0
0
0
0
0
0
0
0
0
0
0
0
0
0
0
0
0
0
0
0
0
0
0
0
0
0
0
0
0
0
0
0
0
0
0
0
0
0
0
0
0
0
0
0
0
0
0
0
0
0
0
0
0
0
0
0
0
0
0
0
0
0
0
0
0
0
0
0
0
0
0
0
0
0
0
0
0
0
0
0
0
0
0
0
0
0
0
0
0
0
0
0
0
0
0
0
0
0
0
0
0
0
0
0
0
0
0
0
0
0
0
0
0
0
0
0
0
0
0
0
0
0
0
0
0
0
0
0
0
0
0
0
0
0
0
0
0
0
0
0
0
0
0
0
0
0
0
0
0
0
0
0
0
0
0
0
0
0
0
0
0
0
0
0
0
0
0
0
0
0
0
0
0
0
0
0
0
0
0
0
0
0
0
0
0
0
0
0
0
0
0
0
0
0
0
0
0
0
0
0
0
0
0
0
0
0
0
0
0
0
0
0
0
0
0
0
0
0
0
0
0
0
0
0
0
0
0
0
0
0
0
0
0
0
0
0
0
0
0
0
0
0
0
0
0
0
0
0
0
0
0
0
0
0
0
0
0
0
0
0
0
0
0
0
0
0
0
0
0
0
0
0
0
0
0
0
0
0
0
0
0
0
0
0
0
0
0
0
0
0
0
0
0
0
0
0
0
0
0
0
0
0
0
0
0
0
0
0
0
0
0
0
0
0
0
0
0
0
0
0
0
0
0
0
0
0
0
0
0
0
0
0
0
0
0
0
0
0
0
0
0
0
0
0
0
0
0
0
0
0
0
0
0
0
0
0
0
0
0
0
0
0
0
0
0
0
0
0
0
0
0
0
0
0
0
0
0
0
0
0
0
0
0
0
0
0
0
0
0
0
0
0
0
0
0
0
0
0
0
0
0
0
0
0
0
0
0
0
0
0
0
0
0
0
0
0
0
0
0
0
0
0
0
0
0
0
0
0
0
0
0
0
0
0
0
0
0
0
0
0
0
0
0
0
0
0
0
0
0
0
0
0
0
0
0
0
0
0
0
0
0
0
0
0
0
0
0
0
0
0
0
0
0
0
0
0
0
0
0
0
0
0
0
0
0
0
0
0
0
0
0
0
0
0
0
0
0
0
0
0
0
0
0
0
0
0
0
0
0
0
0
0
0
0
0
0
0
0
0
0
0
0
0
0
0
0
0
0
0
0
0
0
0
0
0
0
0
0
0
0
0
0
0
0
0
0
0
0
0
0
0
0
0
0
0
0
0
0
0
0
0
0
0
0
0
0
0
0
0
0
0
0
0
0
0
0
0
0
0
0
0
0
0
0
0
0
0
0
0
0
0
0
0
0
0
0
0
0
0
0
0
0
0
0
0
0
0
0
0
0
0
0
0
0
0
0
0
0
0
0
0
0
0
0
0
0
0
0
0
0
0
0
0
0
0
0
0
0
0
0
0
0
0
0
0
0
0
0
0
0
0
0
0
0
0
0
0
0
0
0
0
0
0
0
0
0
0
0
0
0
0
0
0
0
0
0
0
0
0
0
0
0
0
0
0
0
0
0
0
0
0
0
0
0
0
0
0
0
0
0
0
0
0
0
0
0
0
0
0
0
0
0
0
0
0
0
0
0
0
0
0
0
0
0
0
0
0
0
0
0
0
0
0
0
0
0
0
0
0
0
0
0
0
0
0
0
0
0
0
0
0
0
0
0
0
0
0
0
0
0
0
0
0
0
0
0
0
0
0
0
0
0
0
0
0
0
0
0
0
0
0
0
0
0
0
0
0
0
0
0
0
0
0
0
0
0
0
0
0
0
0
0
0
0
0
0
0
0
0
0
0
0
0
0
0
0
0
0
0
0
0
0
0
0
0
0
0
0
0
0
0
0
0
0
0
0
0
0
0
0
0
0
0
0
0
0
0
0
0
0
0
0
0
0
0
0
0
0
0
0
0
0
0
0
0
0
0
0
0
0
0
0
0
0
0
0
0
0
0
0
0
0
0
0
0
0
0
0
0
0
0
0
0
0
0
0
0
0
0
0
0
0
0
0
0
0
0
0
0
0
0
0
0
0
0
0
0
0
0
0
0
0
0
0
0
0
0
0
0
0
0
0
0
0
0
0
0
0
0
0
0
0
0
0
0
0
0
0
0
0
0
0
0
0
0
0
0
0
0
0
0
0
0
0
0
0
0
0
0
0
0
0
0
0
0
0
0
0
0
0
0
0
0
0
0
0
0
0
0
0
0
0
0
0
0
0
0
0
0
0
0
0
0
0
0
0
0
0
0
0
0
0
0
0
0
0
0
0
0
0
0
0
0
0
0
0
0
0
0
0
0
0
0
0
0
0
0
0
0
0
0
0
0
0
0
0
0
0
0
0
0
0
0
0
0
0
0
0
0
0
0
0
0
0
0
0
0
0
0
0
0
0
0
0
0
0
0
0
0
0
0
0
0
0
0
0
0
0
0
0
0
0
0
0
0
0
0
0
0
0
0
0
0
0
0
0
0
0
0
0
0
0
0
0
0
0
0
0
0
0
0
0
0
0
0
0
0
0
0
0
0
0
0
0
0
0
0
0
0
0
0
0
0
0
0
0
0
0
0
0
0
0
0
0
0
0
0
0
0
0
0
0
0
0
0
0
0
0
0
0
0
0
0
0
0
0
0
0
0
0
0
0
0
0
0
0
0
0
0
0
0
0
0
0
0
0
0
0
0
0
0
0
0
0
0
0
0
0
0
0
0
0
0
0
0
0
0
0
0
0
0
0
0
0
0
0
0
0
0
0
0
0
0
0
0
0
0
0
0
0
0
0
0
0
0
0
0
0
0
0
0
0
0
0
0
0
0
0
0
0
0
0
0
0
0
0
0
0
0
0
0
0
0
0
0
0
0
0
0
0
0
0
0
0
0
0
0
0
0
0
0
0
0
0
0
0
0
0
0
0
0
9.09632504e-296
0
3.36296565e-286
0
6.40526209e-277
0
6.28486949e-268
0
3.17678261e-259
0
8.2717672e-251
0
1.10947666e-242
0
7.66549838e-235
0
2.72813499e-227
0
5.00161466e-220
0
4.72408591e-213
0
2.29925919e-206
0
5.76934168e-200
0
7.47037958e-194
0
5.00079153e-188
0
1.73684504e-182
0
1.96703631e-178
0
1.18111201e-174
0
4.96327734e-171
0
1.63284349e-167
0
4.46425898e-164
0
1.05219959e-160
0
2.19107761e-157
0
4.10222369e-154
0
6.99561969e-151
0
1.09752604e-147
0
1.59663107e-144
0
2.1674416e-141
0
2.75991141e-138
0
3.31066515e-135
0
3.75468514e-132
0
4.03826169e-129
0
4.12958567e-126
0
4.02416956e-123
0
3.74399577e-120
0
3.33120123e-117
0
2.83852095e-114
1.23269453e-117
2.31922905e-111
8.85193435e-113
1.81893e-108
1.32893206e-109
1.3705792e-105
1.44703882e-106
9.92989271e-103
1.35165771e-103
6.92182751e-100
1.14232727e-100
4.64480966e-97
8.94675257e-98
3.00176253e-94
6.57807389e-95
1.86893559e-91
4.57568853e-92
1.12132205e-88
3.02625826e-89
6.48417094e-86
1.90944481e-86
3.6140918e-83
1.15204137e-83
1.94160123e-80
6.65717499e-81
1.00529929e-77
3.68852711e-78
5.01563328e-75
1.96096647e-75
2.41064336e-72
1.00074203e-72
1.11572756e-69
4.90320051e-70
4.97049758e-67
2.30631387e-67
2.13015378e-64
1.04118605e-64
8.77596874e-62
4.50940136e-62
3.47297817e-59
1.87249698e-59
1.31893199e-56
7.44881419e-57
4.80153763e-54
2.83587417e-54
1.6734984e-51
1.03205508e-51
5.57598265e-49
3.58526352e-49
1.77310449e-46
1.18691616e-46
5.37050024e-44
3.73727481e-44
1.54588596e-41
1.1167032e-41
4.21768929e-39
3.15798158e-39
1.0873284e-36
8.42570706e-37
2.63904643e-34
2.11305791e-34
6.00398227e-32
4.95898264e-32
1.27366094e-29
1.08321917e-29
2.50320931e-27
2.18789628e-27
4.52162299e-25
4.05299486e-25
7.4306885e-23
6.81501768e-23
1.09631988e-20
1.02631909e-20
1.42637999e-18
1.35932784e-18
1.59562096e-16
1.54326337e-16
1.47743811e-14
1.44627226e-14
1.06365833e-12
1.01755455e-12
3.92463515e-10
3.74129828e-10
4.01100637
6.75188928
5.97343268
4.96961726
0.40194972
0.362445204
0.0399935383
0.0387588048
0.00350715505
0.00349100736
0.000275378203
0.000279385926
2.67125737e-05
2.68585199e-05
9.24072973e-06
9.25260653e-06
8.14502863e-06
8.14613995e-06
8.08260308e-06
8.08268831e-06
8.07933068e-06
8.07933135e-06
8.07917034e-06
8.07917054e-06
8.07916267e-06
8.07916361e-06
8.07916405e-06
8.0791627e-06
8.07915698e-06
8.07917199e-06
8.07915807e-06
8.07915634e-06
8.07916202e-06
8.07917446e-06
8.07915172e-06
8.07916728e-06
8.07915984e-06
8.07916061e-06
8.07915759e-06
8.07916105e-06
8.0791662e-06
8.07916246e-06
8.07916874e-06
8.07915786e-06
8.07916394e-06
8.07915737e-06
8.07916875e-06
8.07916078e-06
8.07916536e-06
8.07915673e-06
8.07916464e-06
8.07915994e-06
8.0791616e-06
8.07916576e-06
8.07915998e-06
8.07916047e-06
8.07916211e-06
8.07916429e-06
8.0791718e-06
8.07915189e-06
8.0791698e-06
8.07916261e-06
8.07916188e-06
8.07917087e-06
8.07915614e-06
8.07916326e-06
8.07916777e-06
8.07916091e-06
8.07916335e-06
8.07915692e-06
8.07916818e-06
8.07914686e-06
8.07917216e-06
8.07915353e-06
8.07916868e-06
8.07916002e-06
8.07917323e-06
8.07916219e-06
8.07916766e-06
8.07917234e-06
8.07916558e-06
8.07916559e-06
8.07917363e-06
8.07916479e-06
8.07916847e-06
8.07916741e-06
8.07915988e-06
8.0791679e-06
8.07916689e-06
8.07915453e-06
8.07917128e-06
8.07916737e-06
8.0791629e-06
8.07917504e-06
8.07916006e-06
8.07916511e-06
8.07916729e-06
8.07917294e-06
8.07917113e-06
8.07915782e-06
8.07917059e-06
8.07916684e-06
8.07916887e-06
8.07916734e-06
8.07916892e-06
8.07916518e-06
8.07916795e-06
8.07917717e-06
8.07916459e-06
8.07915734e-06
8.07917871e-06
8.0791548e-06
8.07917228e-06
8.07915731e-06
8.0791662e-06
8.07916573e-06
8.07916706e-06
8.07916906e-06
8.07916723e-06
8.07916982e-06
8.07917132e-06
8.07916245e-06
8.07917077e-06
8.0791654e-06
8.07917026e-06
8.07916351e-06
8.07916526e-06
8.07916641e-06
8.07917389e-06
8.0791701e-06
8.07916849e-06
8.07915902e-06
8.07917565e-06
8.07918411e-06
8.07915946e-06
8.07918368e-06
8.07916546e-06
8.07916335e-06
8.07918201e-06
8.0791591e-06
8.07917747e-06
8.07916657e-06
8.07917493e-06
8.07916694e-06
8.07916612e-06
8.07917316e-06
8.07917085e-06
8.07916922e-06
8.07917333e-06
8.07917528e-06
8.07916783e-06
8.07917708e-06
8.07917125e-06
8.07917422e-06
8.07917159e-06
8.07917531e-06
8.07917113e-06
8.07917969e-06
8.07917046e-06
8.07917166e-06
8.07916885e-06
8.07917396e-06
8.07917451e-06
8.07917159e-06
8.07917727e-06
8.07918161e-06
8.07917549e-06
8.07916964e-06
8.0791773e-06
8.07917668e-06
8.07917014e-06
8.07916801e-06
8.07917184e-06
8.07917379e-06
8.07916972e-06
8.07917407e-06
8.07918104e-06
8.07917568e-06
8.07917627e-06
8.07919224e-06
8.07918112e-06
8.07918855e-06
8.07917405e-06
8.07917994e-06
8.07917473e-06
8.07917814e-06
8.07918675e-06
8.07917386e-06
8.07918625e-06
8.07918012e-06
8.07918613e-06
8.07917724e-06
8.07918351e-06
8.0791834e-06
8.07918566e-06
8.07917878e-06
8.0791827e-06
8.07917371e-06
8.0791904e-06
8.07916434e-06
8.07918841e-06
8.07918038e-06
8.07917229e-06
8.07919399e-06
8.07917383e-06
8.07917884e-06
8.07918441e-06
8.07918117e-06
8.07918459e-06
8.07918003e-06
8.07919177e-06
8.07916817e-06
8.07918955e-06
8.07918067e-06
8.07918481e-06
8.07918522e-06
8.07918281e-06
8.0791891e-06
8.07918733e-06
8.07919021e-06
8.07917833e-06
8.07919044e-06
8.0791825e-06
8.07918608e-06
8.07918327e-06
8.07918188e-06
8.0791864e-06
8.07918444e-06
8.07918403e-06
8.07918406e-06
8.07918617e-06
8.07918488e-06
8.07918825e-06
8.07918104e-06
8.07919332e-06
8.07919163e-06
8.07919007e-06
8.07919221e-06
8.07918354e-06
8.07919511e-06
8.07919146e-06
8.07919241e-06
8.07918967e-06
8.07918263e-06
8.07919519e-06
8.07918592e-06
8.07918764e-06
8.07918879e-06
8.07918823e-06
8.0791871e-06
8.07919114e-06
8.07919111e-06
8.07919741e-06
8.07919109e-06
8.0791866e-06
8.07918632e-06
8.07919762e-06
8.07918923e-06
8.07919542e-06
8.07918553e-06
8.07919464e-06
8.07919525e-06
8.07919861e-06
8.07918245e-06
8.07920429e-06
8.07918651e-06
8.0791886e-06
8.07918589e-06
8.07918856e-06
8.07917963e-06
8.07919619e-06
8.07919601e-06
8.07918643e-06
8.07920664e-06
8.07918851e-06
8.07919802e-06
8.0791848e-06
8.07919426e-06
8.0791971e-06
8.07919308e-06
8.07919894e-06
8.07918159e-06
8.07919614e-06
8.07919487e-06
8.07919771e-06
8.07918952e-06
8.07919071e-06
8.07919316e-06
8.07919275e-06
8.07919613e-06
8.0791907e-06
8.07919004e-06
8.07919657e-06
8.07918193e-06
8.07919739e-06
8.07918804e-06
8.07919501e-06
8.07919241e-06
8.07919969e-06
8.07919714e-06
8.07920413e-06
8.07919385e-06
8.07919363e-06
8.07919693e-06
8.07920047e-06
8.07919238e-06
8.07920624e-06
8.07919404e-06
8.0791979e-06
8.07919644e-06
8.07920147e-06
8.07919264e-06
8.0791821e-06
8.07920347e-06
8.07919068e-06
8.07919431e-06
8.07920262e-06
8.07918478e-06
8.07920028e-06
8.07919371e-06
8.07919883e-06
8.07919836e-06
8.07919057e-06
8.07919626e-06
8.0791911e-06
8.07920078e-06
8.07919347e-06
8.07919903e-06
8.07919335e-06
8.07918896e-06
8.07919549e-06
8.07920004e-06
8.07918893e-06
8.07919035e-06
8.07919932e-06
8.0791884e-06
8.07920142e-06
8.07918657e-06
8.0792008e-06
8.07919219e-06
8.07919944e-06
8.07919734e-06
8.07919436e-06
8.07919946e-06
8.07919403e-06
8.07919972e-06
8.07919245e-06
8.07920522e-06
8.07919317e-06
8.07919394e-06
8.0791909e-06
8.07919646e-06
8.07919639e-06
8.07918787e-06
8.07920848e-06
8.07919012e-06
8.07920088e-06
8.07920045e-06
8.07920463e-06
8.07919077e-06
8.07919952e-06
8.07919244e-06
8.07920407e-06
8.07919478e-06
8.07919802e-06
8.07920561e-06
8.07920339e-06
8.07920046e-06
8.07920382e-06
8.07920118e-06
8.07920113e-06
8.0792045e-06
8.07918875e-06
8.07921008e-06
8.07919396e-06
8.0792e-06
8.07919596e-06
8.07919736e-06
8.07920563e-06
8.07919024e-06
8.07920646e-06
8.07919765e-06
8.07919137e-06
8.07919166e-06
8.07919323e-06
8.07919957e-06
8.07919025e-06
8.0791929e-06
8.07919636e-06
8.07919733e-06
8.07919856e-06
8.07919202e-06
8.07919919e-06
8.07919721e-06
8.07919347e-06
8.07920565e-06
8.07919728e-06
8.07919933e-06
8.07919403e-06
8.07919654e-06
8.07919667e-06
8.07919483e-06
8.07919866e-06
8.0792093e-06
8.079189e-06
8.07919869e-06
8.07919164e-06
8.07920003e-06
8.07919702e-06
8.07920096e-06
8.07920231e-06
8.0791945e-06
8.07919553e-06
8.07919135e-06
8.07919983e-06
8.07919501e-06
8.07920241e-06
8.07919861e-06
8.07919395e-06
8.07919352e-06
8.0792047e-06
8.0791925e-06
8.07919381e-06
8.07919393e-06
8.07920186e-06
8.07919283e-06
8.07919554e-06
8.07920495e-06
8.07919276e-06
8.07920403e-06
8.07920242e-06
8.07920292e-06
8.07919515e-06
8.07919698e-06
8.07920338e-06
8.07919902e-06
8.07920093e-06
8.07919923e-06
8.07919902e-06
8.0792006e-06
8.07920195e-06
8.07919486e-06
8.07919336e-06
8.07919605e-06
8.07919934e-06
8.07919811e-06
8.07920957e-06
8.07920044e-06
8.07919334e-06
8.07920682e-06
8.07918641e-06
8.07918989e-06
8.07920537e-06
8.07919443e-06
8.07919613e-06
8.07920328e-06
8.07920016e-06
8.07919204e-06
8.07920087e-06
8.0791964e-06
8.07918844e-06
8.07919863e-06
8.07919951e-06
8.07919262e-06
8.07919783e-06
8.07918898e-06
8.07920627e-06
8.07918983e-06
8.07920739e-06
8.07919933e-06
8.07919539e-06
8.07920221e-06
8.07919385e-06
8.07919982e-06
8.07919495e-06
8.07920385e-06
8.07919772e-06
8.07919522e-06
8.07919505e-06
8.07919431e-06
8.07919052e-06
8.07919614e-06
8.07919686e-06
8.07920114e-06
8.07919739e-06
8.07918889e-06
8.07920557e-06
8.07919311e-06
8.07920386e-06
8.07919236e-06
8.07919433e-06
8.07920098e-06
8.07920376e-06
8.07920105e-06
8.07919132e-06
8.07919419e-06
8.07919693e-06
8.07919285e-06
8.07920755e-06
8.07919198e-06
8.07920727e-06
8.07918854e-06
8.0791951e-06
8.07920107e-06
8.07919577e-06
8.07920404e-06
8.0791978e-06
8.0791976e-06
8.07919543e-06
8.07919568e-06
8.07919992e-06
8.07919392e-06
8.0791978e-06
8.07919569e-06
8.07919791e-06
8.07919779e-06
8.0791951e-06
8.07919653e-06
8.07919701e-06
8.07919588e-06
8.07919672e-06
8.07919733e-06
8.07919663e-06
8.07919656e-06
8.07919615e-06
8.07919632e-06
8.07919683e-06
8.07919659e-06
8.07919653e-06
8.0791972e-06
8.07919663e-06
8.07919667e-06
8.07919664e-06
8.07919653e-06
8.07919707e-06
8.07919659e-06
8.07919636e-06
8.07919648e-06
8.07919664e-06
8.07919659e-06
8.07919662e-06
8.07919663e-06
8.0791966e-06
8.07919663e-06
8.07919668e-06
8.07919664e-06
8.07919669e-06
8.07919646e-06
8.07919668e-06
8.07919659e-06
8.07919659e-06
8.07919667e-06
8.07919665e-06
8.07919662e-06
8.0791967e-06
8.07919657e-06
8.07919666e-06
8.07919645e-06
8.0791966e-06
8.07919665e-06
8.0791967e-06
8.07919664e-06
8.07919666e-06
8.07919649e-06
8.07919666e-06
8.07919665e-06
8.07919664e-06
8.07919663e-06
8.07919656e-06
8.07919678e-06
8.07919659e-06
8.07919667e-06
8.07919661e-06
8.07919657e-06
8.0791967e-06
8.07919659e-06
8.07919654e-06
8.07919663e-06
)
;

boundaryField
{
    closed
    {
        type            calculated;
        value           uniform 0;
    }
    open
    {
        type            calculated;
        value           uniform 0;
    }
    sides
    {
        type            empty;
    }
}


// ************************************************************************* //
