/*--------------------------------*- C++ -*----------------------------------*\
| =========                 |                                                 |
| \\      /  F ield         | OpenFOAM: The Open Source CFD Toolbox           |
|  \\    /   O peration     | Version:  2206                                  |
|   \\  /    A nd           | Website:  www.openfoam.com                      |
|    \\/     M anipulation  |                                                 |
\*---------------------------------------------------------------------------*/
FoamFile
{
    version     2.0;
    format      ascii;
    arch        "LSB;label=32;scalar=64";
    class       volVectorField;
    location    "4.2e-06";
    object      U;
}
// * * * * * * * * * * * * * * * * * * * * * * * * * * * * * * * * * * * * * //

dimensions      [0 1 -1 0 0 0 0];

internalField   nonuniform List<vector> 
3183
(
(8.56194565e-14 0 0)
(-5.40528975e-15 0 0)
(-4.92991178e-14 0 0)
(-4.18995494e-14 0 0)
(-4.40888983e-14 0 0)
(-7.73839399e-19 0 0)
(-6.10754554e-20 0 0)
(-1.6702034e-24 0 0)
(5.49679787e-25 0 0)
(1.60179022e-23 0 0)
(4.40799736e-19 0 0)
(5.59362756e-18 0 0)
(1.83030368e-13 0 0)
(7.30527799e-14 0 0)
(-1.3627111e-13 0 0)
(-1.50741816e-13 0 0)
(1.54740732e-13 0 0)
(-1.2228413e-14 0 0)
(-4.41215515e-13 0 0)
(2.70356778e-14 0 0)
(2.84579195e-13 0 0)
(2.30605723e-17 0 0)
(2.44551048e-18 0 0)
(1.29001338e-18 0 0)
(2.32789419e-14 0 0)
(1.46911429e-13 0 0)
(4.44228784e-13 0 0)
(1.15186755e-13 0 0)
(-2.92221758e-13 0 0)
(-2.70191983e-13 0 0)
(-2.76219402e-13 0 0)
(5.80797618e-14 0 0)
(4.35918683e-14 0 0)
(-1.28632882e-13 0 0)
(-3.21044977e-18 0 0)
(9.1500057e-14 0 0)
(-9.63402204e-14 0 0)
(-1.12628291e-13 0 0)
(7.09174756e-14 0 0)
(-8.74868508e-14 0 0)
(-3.54565342e-13 0 0)
(-3.31533808e-13 0 0)
(5.78974075e-14 0 0)
(-3.05870071e-14 0 0)
(1.60884781e-13 0 0)
(1.86622736e-13 0 0)
(2.67387425e-13 0 0)
(7.49215854e-14 0 0)
(4.3725111e-16 0 0)
(-6.22426016e-14 0 0)
(2.13906937e-14 0 0)
(1.92737433e-16 0 0)
(-1.4461225e-13 0 0)
(-1.78458237e-13 0 0)
(-5.49428298e-14 0 0)
(-1.67907502e-13 0 0)
(-6.35229459e-16 0 0)
(6.23799394e-14 0 0)
(1.31056124e-13 0 0)
(1.37642892e-13 0 0)
(-7.12613736e-14 0 0)
(3.84999865e-14 0 0)
(-2.40365802e-16 0 0)
(4.32540995e-14 0 0)
(3.13318515e-13 0 0)
(3.28207224e-13 0 0)
(4.45120955e-13 0 0)
(5.19961186e-13 0 0)
(8.69421388e-13 0 0)
(5.27112816e-13 0 0)
(7.80007181e-13 0 0)
(8.30196085e-13 0 0)
(5.43681442e-13 0 0)
(8.33353669e-13 0 0)
(2.97956738e-13 0 0)
(3.28463223e-13 0 0)
(2.53218441e-13 0 0)
(7.63677182e-13 0 0)
(7.45717278e-13 0 0)
(7.58089649e-13 0 0)
(7.95762837e-13 0 0)
(9.57022796e-13 0 0)
(9.43973024e-13 0 0)
(2.99293636e-13 0 0)
(1.01335907e-12 0 0)
(8.45957854e-13 0 0)
(7.12269021e-13 0 0)
(6.30758891e-13 0 0)
(1.13298055e-12 0 0)
(1.3561525e-12 0 0)
(1.09511188e-12 0 0)
(1.03009503e-12 0 0)
(9.98457156e-13 0 0)
(7.25950019e-13 0 0)
(6.22312866e-13 0 0)
(1.26592813e-12 0 0)
(-2.73524222e-13 0 0)
(1.23271569e-12 0 0)
(1.40113032e-12 0 0)
(6.28770904e-14 0 0)
(1.57035031e-12 0 0)
(6.24526733e-13 0 0)
(3.96436819e-13 0 0)
(9.77376296e-13 0 0)
(4.36970557e-13 0 0)
(2.62982133e-13 0 0)
(-1.20020983e-13 0 0)
(3.65909265e-13 0 0)
(2.67028911e-13 0 0)
(1.04465159e-12 0 0)
(3.54961078e-13 0 0)
(1.36062813e-12 0 0)
(2.76478075e-14 0 0)
(2.06427684e-13 0 0)
(4.70757324e-13 0 0)
(2.04891156e-14 0 0)
(4.34485211e-13 0 0)
(6.15315248e-13 0 0)
(1.39337702e-12 0 0)
(6.57937102e-13 0 0)
(2.55284986e-13 0 0)
(1.01875636e-13 0 0)
(1.07211237e-12 0 0)
(1.60221623e-12 0 0)
(1.32559753e-12 0 0)
(3.31641568e-13 0 0)
(2.65492126e-12 0 0)
(1.3658689e-12 0 0)
(1.02850614e-12 0 0)
(4.34466905e-13 0 0)
(1.59930946e-12 0 0)
(1.41408633e-12 0 0)
(1.22631905e-12 0 0)
(1.91346366e-12 0 0)
(6.81846189e-13 0 0)
(1.55444387e-12 0 0)
(2.33158714e-12 0 0)
(1.13130711e-12 0 0)
(1.06071617e-12 0 0)
(1.60297219e-12 0 0)
(2.12706829e-12 0 0)
(1.89248898e-12 0 0)
(1.56516057e-12 0 0)
(1.64319718e-12 0 0)
(1.15601709e-12 0 0)
(1.84751853e-12 0 0)
(9.21224655e-13 0 0)
(1.41753379e-12 0 0)
(1.16362751e-12 0 0)
(1.39243353e-12 0 0)
(1.59831004e-12 0 0)
(1.2272127e-12 0 0)
(9.361772e-13 0 0)
(1.3690366e-12 0 0)
(9.60960874e-13 0 0)
(1.23542945e-13 0 0)
(9.26154995e-14 0 0)
(2.21524353e-14 0 0)
(-1.48097751e-13 0 0)
(-5.6078739e-14 0 0)
(1.23083009e-13 0 0)
(1.04992208e-12 0 0)
(2.56039194e-13 0 0)
(7.92918564e-13 0 0)
(1.78140903e-12 0 0)
(2.00532181e-12 0 0)
(1.05154774e-12 0 0)
(8.01258981e-13 0 0)
(1.30780112e-12 0 0)
(1.51821261e-12 0 0)
(4.91561182e-13 0 0)
(1.57157502e-12 0 0)
(1.18437292e-12 0 0)
(4.3872619e-13 0 0)
(9.22705345e-13 0 0)
(7.76985521e-13 0 0)
(6.63716074e-13 0 0)
(-1.40348934e-13 0 0)
(-3.00845089e-13 0 0)
(3.26608121e-13 0 0)
(4.58827221e-13 0 0)
(-3.84270335e-13 0 0)
(6.21286576e-13 0 0)
(4.87628306e-14 0 0)
(-2.5380951e-13 0 0)
(1.39470194e-13 0 0)
(1.09548138e-12 0 0)
(-1.07911727e-13 0 0)
(-1.0475625e-13 0 0)
(1.98753773e-13 0 0)
(-2.16578928e-14 0 0)
(1.17918904e-13 0 0)
(-5.83035156e-13 0 0)
(9.38614077e-14 0 0)
(-1.41389832e-13 0 0)
(5.79713318e-13 0 0)
(-4.51355167e-13 0 0)
(-5.7116899e-13 0 0)
(-5.62983523e-14 0 0)
(-4.29522736e-13 0 0)
(-4.19572768e-13 0 0)
(-1.06755935e-12 0 0)
(-2.8405046e-13 0 0)
(-9.53696559e-13 0 0)
(-7.16061901e-13 0 0)
(-8.20573904e-13 0 0)
(-2.3527397e-12 0 0)
(-6.06092813e-13 0 0)
(-7.04044124e-13 0 0)
(-6.9674668e-14 0 0)
(-9.46121054e-13 0 0)
(-1.16786927e-12 0 0)
(-6.08762704e-13 0 0)
(-8.86010646e-13 0 0)
(-8.38164188e-13 0 0)
(-1.04155293e-12 0 0)
(-5.60566552e-13 0 0)
(-1.74709739e-12 0 0)
(7.04212255e-15 0 0)
(-8.44280404e-13 0 0)
(-2.38135916e-12 0 0)
(-1.63682944e-12 0 0)
(-1.3853227e-12 0 0)
(-1.81688837e-12 0 0)
(-1.24084967e-12 0 0)
(-2.17754013e-12 0 0)
(-1.13153663e-12 0 0)
(-2.13493847e-12 0 0)
(-2.13474959e-12 0 0)
(-1.17257345e-12 0 0)
(-1.56723206e-12 0 0)
(-9.18612556e-13 0 0)
(-1.82179013e-12 0 0)
(-1.70074037e-12 0 0)
(-1.61203521e-12 0 0)
(-1.97353452e-12 0 0)
(-2.27706706e-12 0 0)
(-1.63211522e-12 0 0)
(-2.14680295e-12 0 0)
(-1.85140557e-12 0 0)
(-2.56879992e-12 0 0)
(-2.96488897e-12 0 0)
(-2.53622166e-12 0 0)
(-2.23878696e-12 0 0)
(-3.17868452e-12 0 0)
(-3.8184303e-12 0 0)
(-3.27525648e-12 0 0)
(-3.27293607e-12 0 0)
(-2.58112452e-12 0 0)
(-3.02647358e-12 0 0)
(-2.1115606e-12 0 0)
(-3.21528433e-12 0 0)
(-2.61998489e-12 0 0)
(-3.05964527e-12 0 0)
(-1.81267496e-12 0 0)
(-3.56245412e-12 0 0)
(-3.18398365e-12 0 0)
(-2.65809299e-12 0 0)
(-2.37860626e-12 0 0)
(-2.99109158e-12 0 0)
(-2.64357271e-12 0 0)
(-2.82926289e-12 0 0)
(-2.63736107e-12 0 0)
(-2.80996519e-12 0 0)
(-3.37218625e-12 0 0)
(-3.10597995e-12 0 0)
(-3.18790004e-12 0 0)
(-4.26423234e-12 0 0)
(-3.45326082e-12 0 0)
(-3.77925566e-12 0 0)
(-3.32938448e-12 0 0)
(-3.76681764e-12 0 0)
(-4.09551203e-12 0 0)
(-3.53394499e-12 0 0)
(-4.74285427e-12 0 0)
(-4.47527125e-12 0 0)
(-4.72562239e-12 0 0)
(-4.70887636e-12 0 0)
(-4.54172896e-12 0 0)
(-3.23236244e-12 0 0)
(-4.16141927e-12 0 0)
(-5.14086368e-12 0 0)
(-4.3623441e-12 0 0)
(-4.3350425e-12 0 0)
(-4.2378327e-12 0 0)
(-5.17329313e-12 0 0)
(-3.96440068e-12 0 0)
(-5.01306288e-12 0 0)
(-4.58149087e-12 0 0)
(-4.58060391e-12 0 0)
(-4.23763252e-12 0 0)
(-4.52125502e-12 0 0)
(-3.49828387e-12 0 0)
(-3.82353145e-12 0 0)
(-4.84168496e-12 0 0)
(-4.09255959e-12 0 0)
(-4.71022683e-12 0 0)
(-4.84748276e-12 0 0)
(-4.75027989e-12 0 0)
(-5.30116292e-12 0 0)
(-3.97487583e-12 0 0)
(-5.48896666e-12 0 0)
(-5.19661822e-12 0 0)
(-5.51761791e-12 0 0)
(-5.49840112e-12 0 0)
(-6.60355067e-12 0 0)
(-5.32156386e-12 0 0)
(-5.48304821e-12 0 0)
(-5.96099864e-12 0 0)
(-5.46072666e-12 0 0)
(-6.78550708e-12 0 0)
(-5.67714455e-12 0 0)
(-5.25050669e-12 0 0)
(-6.60003737e-12 0 0)
(-6.22749235e-12 0 0)
(-7.45635637e-12 0 0)
(-7.81208695e-12 0 0)
(-7.47141402e-12 0 0)
(-6.76905676e-12 0 0)
(-7.19546908e-12 0 0)
(-6.99322972e-12 0 0)
(-8.11326892e-12 0 0)
(-7.70350104e-12 0 0)
(-6.65268169e-12 0 0)
(-6.98730255e-12 0 0)
(-6.51776697e-12 0 0)
(-7.14183642e-12 0 0)
(-7.57307527e-12 0 0)
(-6.84312501e-12 0 0)
(-6.73551147e-12 0 0)
(-6.67963743e-12 0 0)
(-7.86090908e-12 0 0)
(-7.38659723e-12 0 0)
(-7.24923402e-12 0 0)
(-6.03251935e-12 0 0)
(-7.59105204e-12 0 0)
(-5.58839285e-12 0 0)
(-7.40785165e-12 0 0)
(-7.10919002e-12 0 0)
(-6.59630179e-12 0 0)
(-6.92078531e-12 0 0)
(-7.18823946e-12 0 0)
(-7.1139435e-12 0 0)
(-6.00609089e-12 0 0)
(-7.25731321e-12 0 0)
(-7.18181835e-12 0 0)
(-8.77921179e-12 0 0)
(-7.13427532e-12 0 0)
(-7.62647452e-12 0 0)
(-7.74359173e-12 0 0)
(-7.25347136e-12 0 0)
(-6.78389248e-12 0 0)
(-8.58446559e-12 0 0)
(-6.83134469e-12 0 0)
(-5.55787841e-12 0 0)
(-6.08823618e-12 0 0)
(-6.62947216e-12 0 0)
(-6.47811657e-12 0 0)
(-7.71713184e-12 0 0)
(-5.91267844e-12 0 0)
(-5.87599321e-12 0 0)
(-5.73312437e-12 0 0)
(-5.62852551e-12 0 0)
(-5.36082705e-12 0 0)
(-5.27617829e-12 0 0)
(-5.61108827e-12 0 0)
(-4.67172799e-12 0 0)
(-4.62066453e-12 0 0)
(-3.99395723e-12 0 0)
(-4.63386458e-12 0 0)
(-4.60196732e-12 0 0)
(-4.68130573e-12 0 0)
(-4.35192161e-12 0 0)
(-4.43566749e-12 0 0)
(-4.38401369e-12 0 0)
(-4.08747144e-12 0 0)
(-3.03480048e-12 0 0)
(-3.77091754e-12 0 0)
(-2.99184826e-12 0 0)
(-4.9282805e-12 0 0)
(-3.05582783e-12 0 0)
(-3.13124912e-12 0 0)
(-3.69611274e-12 0 0)
(-4.01439296e-12 0 0)
(-2.90956564e-12 0 0)
(-3.40196236e-12 0 0)
(-4.08358389e-12 0 0)
(-3.40663282e-12 0 0)
(-3.50113962e-12 0 0)
(-2.54688512e-12 0 0)
(-3.11608813e-12 0 0)
(-3.11516637e-12 0 0)
(-1.9991654e-12 0 0)
(-2.98999478e-12 0 0)
(-1.56998679e-12 0 0)
(-2.10677468e-12 0 0)
(-2.85622348e-12 0 0)
(-2.47992542e-12 0 0)
(-2.79118563e-12 0 0)
(-2.40464763e-12 0 0)
(-2.11775325e-12 0 0)
(-2.93797261e-12 0 0)
(-1.91048998e-12 0 0)
(-3.4237175e-12 0 0)
(-2.53065425e-12 0 0)
(-2.94213912e-12 0 0)
(-1.88725639e-12 0 0)
(-2.74359084e-12 0 0)
(-2.8454734e-12 0 0)
(-2.67706405e-12 0 0)
(-2.79613776e-12 0 0)
(-2.40384666e-12 0 0)
(-2.56854829e-12 0 0)
(-3.23010157e-12 0 0)
(-3.37182056e-12 0 0)
(-2.66102195e-12 0 0)
(-3.21955789e-12 0 0)
(-2.53351394e-12 0 0)
(-2.47883047e-12 0 0)
(-2.55963705e-12 0 0)
(-2.52799222e-12 0 0)
(-1.68430137e-12 0 0)
(-1.93527898e-12 0 0)
(-1.93490306e-12 0 0)
(-2.77000216e-12 0 0)
(-1.88021167e-12 0 0)
(-1.80428957e-12 0 0)
(-1.30014775e-12 0 0)
(-2.37039817e-12 0 0)
(-1.39556409e-12 0 0)
(-6.81503359e-13 0 0)
(-2.95732669e-12 0 0)
(-1.51261322e-12 0 0)
(-1.13326702e-12 0 0)
(-1.1800655e-12 0 0)
(-1.09629631e-12 0 0)
(-1.02223001e-12 0 0)
(-2.11520819e-13 0 0)
(-3.29973239e-13 0 0)
(-3.86673089e-13 0 0)
(8.37055573e-14 0 0)
(-1.41104567e-12 0 0)
(-8.27519153e-13 0 0)
(-5.42507105e-13 0 0)
(7.28766885e-14 0 0)
(4.86537011e-13 0 0)
(-1.16757952e-12 0 0)
(3.61257385e-13 0 0)
(-5.38725856e-13 0 0)
(-8.11870363e-13 0 0)
(-4.31113478e-13 0 0)
(-4.12070539e-13 0 0)
(-2.17094054e-13 0 0)
(-1.10110657e-12 0 0)
(-9.72915436e-13 0 0)
(-2.68521765e-13 0 0)
(1.33592716e-13 0 0)
(-4.36387664e-14 0 0)
(-6.48009579e-13 0 0)
(-1.92207556e-13 0 0)
(-2.95300911e-13 0 0)
(-7.8112225e-13 0 0)
(7.82422928e-14 0 0)
(1.36203951e-13 0 0)
(-4.12422991e-13 0 0)
(-3.18203179e-13 0 0)
(-2.25463001e-13 0 0)
(1.10975499e-12 0 0)
(3.22443495e-13 0 0)
(1.37752128e-12 0 0)
(8.66484265e-13 0 0)
(1.79438409e-12 0 0)
(3.34659303e-13 0 0)
(1.30940533e-12 0 0)
(8.28291761e-13 0 0)
(1.01787507e-12 0 0)
(7.84536334e-13 0 0)
(2.61897711e-13 0 0)
(1.10747836e-12 0 0)
(3.63912579e-13 0 0)
(4.14236146e-13 0 0)
(5.6638797e-13 0 0)
(2.45577638e-13 0 0)
(4.42132388e-13 0 0)
(5.5942132e-13 0 0)
(-9.80097436e-14 0 0)
(1.23707932e-12 0 0)
(4.84403539e-14 0 0)
(1.776027e-13 0 0)
(-1.54914742e-13 0 0)
(1.42513984e-13 0 0)
(3.47094049e-13 0 0)
(-1.78037879e-13 0 0)
(4.70096784e-13 0 0)
(4.0692522e-13 0 0)
(-9.03227029e-13 0 0)
(-3.25168706e-13 0 0)
(-2.84775004e-13 0 0)
(-1.16725724e-12 0 0)
(-4.43633675e-13 0 0)
(-6.5898702e-13 0 0)
(-3.64762636e-13 0 0)
(-2.70905726e-13 0 0)
(-1.44183889e-13 0 0)
(-5.17659005e-13 0 0)
(-5.32483626e-13 0 0)
(-3.6744553e-13 0 0)
(1.81434078e-14 0 0)
(2.6114337e-13 0 0)
(-8.35597884e-13 0 0)
(-5.6061582e-13 0 0)
(-9.05395533e-13 0 0)
(9.35606288e-14 0 0)
(3.19115191e-13 0 0)
(-6.50633834e-13 0 0)
(5.04817619e-13 0 0)
(-5.72578106e-13 0 0)
(2.97789188e-14 0 0)
(-1.90157624e-13 0 0)
(6.05363161e-13 0 0)
(7.379603e-13 0 0)
(-3.38399097e-13 0 0)
(-5.71168588e-14 0 0)
(-3.74938165e-13 0 0)
(6.65153298e-13 0 0)
(-2.86159717e-13 0 0)
(-9.58674582e-14 0 0)
(9.57488942e-13 0 0)
(1.14218688e-12 0 0)
(5.26805952e-13 0 0)
(5.00023404e-13 0 0)
(6.04377445e-16 0 0)
(1.73051788e-13 0 0)
(-3.70332421e-16 0 0)
(5.63316965e-13 0 0)
(1.05704269e-13 0 0)
(-4.63880417e-14 0 0)
(8.98229828e-13 0 0)
(5.88900473e-13 0 0)
(2.12929478e-13 0 0)
(-4.40893045e-13 0 0)
(1.42551447e-13 0 0)
(1.03292822e-12 0 0)
(2.34145052e-13 0 0)
(4.90581198e-13 0 0)
(6.1586648e-13 0 0)
(-3.54099291e-14 0 0)
(-2.17224406e-13 0 0)
(2.85671842e-13 0 0)
(-1.36162545e-13 0 0)
(-2.33812558e-13 0 0)
(-5.62122504e-13 0 0)
(-5.67286329e-13 0 0)
(4.88886266e-13 0 0)
(-3.63624966e-13 0 0)
(-8.32203185e-13 0 0)
(8.04919519e-13 0 0)
(2.09070377e-14 0 0)
(-4.86579075e-13 0 0)
(-3.69871672e-13 0 0)
(4.67146124e-13 0 0)
(-1.01602278e-12 0 0)
(-2.651101e-13 0 0)
(2.72043026e-13 0 0)
(7.68610662e-13 0 0)
(-4.47657799e-13 0 0)
(2.58037575e-13 0 0)
(7.8091684e-14 0 0)
(1.41928601e-13 0 0)
(7.28318688e-13 0 0)
(1.19053937e-12 0 0)
(1.24416071e-12 0 0)
(1.01045205e-12 0 0)
(2.21945762e-12 0 0)
(1.56661077e-12 0 0)
(1.04745891e-12 0 0)
(1.03327266e-12 0 0)
(6.01236337e-13 0 0)
(1.53552921e-12 0 0)
(1.70414061e-12 0 0)
(1.81928096e-12 0 0)
(2.26971569e-12 0 0)
(1.62704887e-12 0 0)
(2.25354309e-12 0 0)
(1.84844188e-12 0 0)
(1.55131351e-12 0 0)
(2.1179398e-12 0 0)
(1.91284649e-12 0 0)
(1.15525467e-12 0 0)
(2.75429098e-12 0 0)
(1.70917861e-12 0 0)
(2.33623757e-12 0 0)
(1.87639193e-12 0 0)
(2.5228464e-12 0 0)
(2.62857272e-12 0 0)
(2.22261527e-12 0 0)
(2.14720242e-12 0 0)
(2.14846338e-12 0 0)
(1.75256279e-12 0 0)
(2.06344428e-12 0 0)
(1.96438833e-12 0 0)
(1.92600229e-12 0 0)
(2.40338784e-12 0 0)
(4.80855021e-13 0 0)
(1.25624796e-12 0 0)
(1.21388323e-12 0 0)
(1.02018185e-12 0 0)
(1.29970238e-12 0 0)
(1.14272014e-12 0 0)
(8.65511388e-13 0 0)
(3.91885498e-14 0 0)
(5.8287589e-13 0 0)
(1.42255495e-12 0 0)
(7.73552915e-13 0 0)
(1.68034604e-12 0 0)
(1.10634264e-12 0 0)
(1.98204705e-12 0 0)
(1.00585054e-12 0 0)
(2.04867034e-12 0 0)
(1.16861862e-12 0 0)
(1.07518815e-12 0 0)
(1.82490517e-12 0 0)
(-1.23293819e-13 0 0)
(1.16927712e-12 0 0)
(9.30767894e-13 0 0)
(7.13792384e-13 0 0)
(7.38235317e-13 0 0)
(1.50036944e-12 0 0)
(1.12821851e-12 0 0)
(1.32334231e-12 0 0)
(6.94183204e-13 0 0)
(1.05964834e-12 0 0)
(1.7403756e-12 0 0)
(1.10694031e-12 0 0)
(1.39285741e-12 0 0)
(1.09792124e-12 0 0)
(1.77920576e-12 0 0)
(1.7164283e-12 0 0)
(1.34918726e-12 0 0)
(1.0900059e-12 0 0)
(5.6057288e-13 0 0)
(1.11491509e-12 0 0)
(1.0057775e-12 0 0)
(9.29198073e-13 0 0)
(1.77798375e-12 0 0)
(1.5730086e-12 0 0)
(1.62554779e-12 0 0)
(9.80183356e-13 0 0)
(1.63425766e-12 0 0)
(2.38368932e-12 0 0)
(1.69587054e-12 0 0)
(3.6225336e-13 0 0)
(1.86394292e-12 0 0)
(1.17350807e-12 0 0)
(3.65850324e-13 0 0)
(1.11235215e-12 0 0)
(7.46367469e-13 0 0)
(5.58448959e-13 0 0)
(-3.3310725e-13 0 0)
(7.13449903e-13 0 0)
(3.67800163e-13 0 0)
(1.31640801e-12 0 0)
(7.38050411e-13 0 0)
(-2.74190335e-13 0 0)
(5.6431106e-13 0 0)
(4.09218311e-13 0 0)
(5.38712329e-13 0 0)
(4.76949889e-13 0 0)
(6.72620957e-13 0 0)
(1.00195166e-12 0 0)
(1.28390659e-12 0 0)
(1.50663279e-12 0 0)
(1.45572944e-12 0 0)
(2.39666912e-12 0 0)
(1.53195069e-12 0 0)
(1.45597976e-12 0 0)
(2.93545865e-12 0 0)
(1.42020436e-12 0 0)
(2.84579043e-12 0 0)
(1.48482841e-12 0 0)
(2.25734e-12 0 0)
(1.72386028e-12 0 0)
(1.77470845e-12 0 0)
(1.88937038e-12 0 0)
(2.08595385e-12 0 0)
(2.16937377e-12 0 0)
(2.32965051e-12 0 0)
(1.49731764e-12 0 0)
(1.7681985e-12 0 0)
(1.92466036e-12 0 0)
(1.87247056e-12 0 0)
(1.7003617e-12 0 0)
(2.03874208e-12 0 0)
(1.20610579e-12 0 0)
(1.65820541e-12 0 0)
(1.68323244e-12 0 0)
(2.19983425e-12 0 0)
(1.9706679e-12 0 0)
(1.00054602e-12 0 0)
(2.35114794e-12 0 0)
(1.89242028e-12 0 0)
(2.7591972e-12 0 0)
(1.46829495e-12 0 0)
(3.01015011e-12 0 0)
(2.26839358e-12 0 0)
(2.30071137e-12 0 0)
(2.83127964e-12 0 0)
(2.29563968e-12 0 0)
(2.09266362e-12 0 0)
(3.2117082e-12 0 0)
(2.42086532e-12 0 0)
(2.66574399e-12 0 0)
(2.38719028e-12 0 0)
(2.38249339e-12 0 0)
(2.18864754e-12 0 0)
(2.87352192e-12 0 0)
(3.03714063e-12 0 0)
(2.45024385e-12 0 0)
(2.57873211e-12 0 0)
(2.88946275e-12 0 0)
(2.46438374e-12 0 0)
(2.91207918e-12 0 0)
(4.04063039e-12 0 0)
(2.55082935e-12 0 0)
(2.91396388e-12 0 0)
(3.57934994e-12 0 0)
(1.73977484e-12 0 0)
(2.43645625e-12 0 0)
(2.47148365e-12 0 0)
(2.93186342e-12 0 0)
(2.32661314e-12 0 0)
(2.14416528e-12 0 0)
(1.43807546e-12 0 0)
(2.01457352e-12 0 0)
(1.49701092e-12 0 0)
(1.84944035e-12 0 0)
(1.96100823e-12 0 0)
(1.20447744e-12 0 0)
(1.04250076e-12 0 0)
(1.72875044e-12 0 0)
(6.32454913e-15 0 0)
(1.39378701e-13 0 0)
(7.3787018e-13 0 0)
(-3.04594497e-14 0 0)
(1.23290942e-12 0 0)
(5.68349285e-13 0 0)
(1.09456106e-12 0 0)
(9.75301497e-14 0 0)
(4.73133847e-13 0 0)
(3.27189582e-14 0 0)
(-7.45510727e-13 0 0)
(4.09935862e-13 0 0)
(6.3641974e-13 0 0)
(-5.34076121e-14 0 0)
(-1.5785836e-13 0 0)
(-1.18124755e-13 0 0)
(6.87052507e-13 0 0)
(-1.18674255e-13 0 0)
(5.79854729e-14 0 0)
(7.50517269e-13 0 0)
(-1.69003482e-13 0 0)
(1.38244484e-12 0 0)
(1.01105917e-12 0 0)
(1.13475524e-12 0 0)
(1.71730088e-12 0 0)
(6.39795438e-13 0 0)
(1.21275385e-12 0 0)
(2.06974383e-13 0 0)
(1.7058956e-12 0 0)
(8.46335876e-13 0 0)
(1.49928268e-12 0 0)
(1.19992079e-12 0 0)
(1.67435434e-12 0 0)
(2.07387061e-12 0 0)
(1.3349329e-12 0 0)
(2.08073531e-12 0 0)
(7.94232972e-13 0 0)
(1.66349675e-12 0 0)
(1.54844964e-12 0 0)
(1.76382886e-12 0 0)
(2.20345079e-12 0 0)
(1.44004559e-12 0 0)
(2.54100322e-12 0 0)
(1.4839216e-12 0 0)
(2.02470489e-12 0 0)
(9.5198182e-13 0 0)
(1.9442428e-12 0 0)
(2.86292327e-12 0 0)
(2.5606722e-12 0 0)
(2.15228059e-12 0 0)
(2.87832465e-12 0 0)
(2.84781684e-12 0 0)
(2.34324514e-12 0 0)
(2.53101037e-12 0 0)
(1.26523432e-12 0 0)
(2.16488122e-12 0 0)
(1.62979282e-12 0 0)
(2.60801192e-12 0 0)
(2.03107805e-12 0 0)
(2.96652224e-12 0 0)
(1.28391689e-12 0 0)
(2.79209679e-12 0 0)
(2.08771826e-12 0 0)
(2.52508449e-12 0 0)
(2.49259203e-12 0 0)
(2.49188667e-12 0 0)
(2.68972522e-12 0 0)
(1.57111602e-12 0 0)
(2.07591283e-12 0 0)
(2.24459924e-12 0 0)
(1.27315122e-12 0 0)
(1.77240554e-12 0 0)
(1.21152431e-12 0 0)
(7.40647555e-13 0 0)
(7.02729918e-13 0 0)
(1.41738176e-12 0 0)
(8.51989056e-13 0 0)
(-7.80199098e-15 0 0)
(-4.81144689e-13 0 0)
(-3.91764627e-13 0 0)
(4.25214434e-13 0 0)
(5.13532884e-13 0 0)
(-5.17216451e-14 0 0)
(1.38162163e-13 0 0)
(-3.81566537e-13 0 0)
(2.51422127e-13 0 0)
(-1.55991374e-13 0 0)
(-9.58787607e-13 0 0)
(-8.63341657e-13 0 0)
(-5.73762027e-13 0 0)
(-4.63006822e-13 0 0)
(-5.05422631e-13 0 0)
(-1.35165445e-12 0 0)
(-2.07500948e-13 0 0)
(-7.32161311e-13 0 0)
(-6.42862919e-13 0 0)
(-8.37289951e-13 0 0)
(-6.96608911e-13 0 0)
(3.62404685e-14 0 0)
(3.17317307e-13 0 0)
(-7.25001166e-13 0 0)
(-6.64368065e-13 0 0)
(-3.60463582e-14 0 0)
(-1.19766665e-13 0 0)
(-3.90781059e-13 0 0)
(-1.06068969e-14 0 0)
(7.14336014e-13 0 0)
(-3.16701395e-13 0 0)
(-5.24474076e-13 0 0)
(-5.45172824e-13 0 0)
(4.66192586e-13 0 0)
(-9.93534614e-13 0 0)
(-1.1328195e-13 0 0)
(-1.16911176e-13 0 0)
(-7.31747384e-15 0 0)
(-6.98400884e-13 0 0)
(-7.69531297e-13 0 0)
(-1.70014883e-13 0 0)
(-8.15910128e-13 0 0)
(-1.0330301e-13 0 0)
(-9.32349109e-13 0 0)
(-1.2466706e-12 0 0)
(-1.41156407e-12 0 0)
(-4.75014624e-13 0 0)
(-1.62772793e-13 0 0)
(-6.17146033e-13 0 0)
(-8.99802623e-14 0 0)
(-9.1195236e-14 0 0)
(-7.55707988e-13 0 0)
(-1.09390032e-12 0 0)
(-4.60439622e-13 0 0)
(-1.0105506e-12 0 0)
(-8.83058821e-13 0 0)
(-4.10902317e-13 0 0)
(-1.26767823e-13 0 0)
(2.02573879e-13 0 0)
(8.24605796e-14 0 0)
(2.41176708e-14 0 0)
(7.6896768e-13 0 0)
(1.10569158e-12 0 0)
(1.86132162e-13 0 0)
(-3.15846981e-13 0 0)
(-4.14354666e-13 0 0)
(9.59797499e-14 0 0)
(3.36508214e-13 0 0)
(2.10176139e-14 0 0)
(1.26475638e-12 0 0)
(2.62506775e-13 0 0)
(6.69120491e-13 0 0)
(7.64831964e-13 0 0)
(7.90840278e-13 0 0)
(1.47495086e-12 0 0)
(3.67374484e-13 0 0)
(1.18808035e-12 0 0)
(1.17979369e-12 0 0)
(8.9548136e-13 0 0)
(1.49309071e-12 0 0)
(9.33818691e-13 0 0)
(8.3904818e-13 0 0)
(5.93318193e-13 0 0)
(1.06223346e-12 0 0)
(1.65927711e-12 0 0)
(1.36717467e-12 0 0)
(9.36649666e-13 0 0)
(1.27447173e-12 0 0)
(1.28547821e-12 0 0)
(9.63878786e-13 0 0)
(2.62202666e-12 0 0)
(1.23815945e-12 0 0)
(2.09146575e-12 0 0)
(8.2723522e-13 0 0)
(1.2108431e-12 0 0)
(1.84115255e-12 0 0)
(2.29450458e-12 0 0)
(2.39204488e-12 0 0)
(2.13056515e-12 0 0)
(2.12580046e-12 0 0)
(1.51031898e-12 0 0)
(2.14510678e-12 0 0)
(2.24560752e-12 0 0)
(1.96094634e-12 0 0)
(2.42166963e-12 0 0)
(2.58789577e-12 0 0)
(1.61227217e-12 0 0)
(1.96571338e-12 0 0)
(2.91694295e-12 0 0)
(2.01178637e-12 0 0)
(1.75588212e-12 0 0)
(2.55037432e-12 0 0)
(1.53959629e-12 0 0)
(2.36364884e-12 0 0)
(1.82793394e-12 0 0)
(2.39256865e-12 0 0)
(2.48417262e-12 0 0)
(2.50793674e-12 0 0)
(1.84466374e-12 0 0)
(1.68831539e-12 0 0)
(1.58778196e-12 0 0)
(8.08809857e-13 0 0)
(1.31463477e-12 0 0)
(1.81634659e-12 0 0)
(2.38296242e-12 0 0)
(2.5530171e-12 0 0)
(1.99072954e-12 0 0)
(2.85807927e-12 0 0)
(1.17223949e-12 0 0)
(2.21102315e-12 0 0)
(2.46398391e-12 0 0)
(2.36619383e-12 0 0)
(2.49593557e-12 0 0)
(2.47658805e-12 0 0)
(2.96607488e-12 0 0)
(2.56700755e-12 0 0)
(2.16502012e-12 0 0)
(2.39561582e-12 0 0)
(1.25214889e-12 0 0)
(2.22980412e-12 0 0)
(2.19875238e-12 0 0)
(2.4998612e-12 0 0)
(1.0010121e-12 0 0)
(2.28059256e-12 0 0)
(2.81473513e-12 0 0)
(2.8719048e-12 0 0)
(2.14492312e-12 0 0)
(1.69246728e-12 0 0)
(2.34800264e-12 0 0)
(3.05369125e-12 0 0)
(3.16567815e-12 0 0)
(2.29587267e-12 0 0)
(3.3466044e-12 0 0)
(3.27177455e-12 0 0)
(3.49296913e-12 0 0)
(4.01319087e-12 0 0)
(3.9538466e-12 0 0)
(3.66608367e-12 0 0)
(5.17906223e-12 0 0)
(3.55785803e-12 0 0)
(4.35249494e-12 0 0)
(3.67081366e-12 0 0)
(3.77340424e-12 0 0)
(3.37603521e-12 0 0)
(4.31552301e-12 0 0)
(3.77009152e-12 0 0)
(4.44053231e-12 0 0)
(3.3304552e-12 0 0)
(3.61808849e-12 0 0)
(3.55069263e-12 0 0)
(4.02533051e-12 0 0)
(3.63487459e-12 0 0)
(3.46269853e-12 0 0)
(4.21046185e-12 0 0)
(4.28473123e-12 0 0)
(5.12198547e-12 0 0)
(3.96225932e-12 0 0)
(4.4175339e-12 0 0)
(4.54921058e-12 0 0)
(4.83951038e-12 0 0)
(4.92706573e-12 0 0)
(4.9306257e-12 0 0)
(5.05913492e-12 0 0)
(4.37733436e-12 0 0)
(3.98796255e-12 0 0)
(5.19648015e-12 0 0)
(3.99524719e-12 0 0)
(4.51059402e-12 0 0)
(5.19839405e-12 0 0)
(4.74150805e-12 0 0)
(4.9834623e-12 0 0)
(4.56364994e-12 0 0)
(4.3463759e-12 0 0)
(5.45466201e-12 0 0)
(4.71167344e-12 0 0)
(5.09587707e-12 0 0)
(4.6281428e-12 0 0)
(3.8761329e-12 0 0)
(4.83948101e-12 0 0)
(4.798421e-12 0 0)
(4.65001106e-12 0 0)
(4.95743126e-12 0 0)
(5.1467438e-12 0 0)
(4.28138983e-12 0 0)
(2.83409402e-12 0 0)
(3.4089555e-12 0 0)
(3.76043842e-12 0 0)
(3.34295483e-12 0 0)
(3.14292196e-12 0 0)
(3.27820592e-12 0 0)
(2.969239e-12 0 0)
(3.27795755e-12 0 0)
(2.93492668e-12 0 0)
(2.17511938e-12 0 0)
(2.22789773e-12 0 0)
(2.18209797e-12 0 0)
(1.78863276e-12 0 0)
(2.16940067e-12 0 0)
(2.06557522e-12 0 0)
(2.50466242e-12 0 0)
(2.00100191e-12 0 0)
(2.11662391e-12 0 0)
(1.73690379e-12 0 0)
(1.50462865e-12 0 0)
(1.56017388e-12 0 0)
(2.07690886e-12 0 0)
(1.43012107e-12 0 0)
(2.01410382e-12 0 0)
(2.73569888e-12 0 0)
(1.77138341e-12 0 0)
(1.9598963e-12 0 0)
(2.34093781e-12 0 0)
(1.72481758e-12 0 0)
(1.634187e-12 0 0)
(1.94710561e-12 0 0)
(9.49911315e-13 0 0)
(1.5854105e-12 0 0)
(4.97459664e-13 0 0)
(2.87593213e-13 0 0)
(1.24320189e-12 0 0)
(1.78232607e-12 0 0)
(1.60950578e-12 0 0)
(2.68378397e-12 0 0)
(1.30795454e-12 0 0)
(1.69867693e-12 0 0)
(2.14957988e-12 0 0)
(2.66099067e-12 0 0)
(1.89101963e-12 0 0)
(1.8596428e-12 0 0)
(1.87800359e-12 0 0)
(1.69084617e-12 0 0)
(2.24626632e-12 0 0)
(1.23949326e-12 0 0)
(2.6878338e-12 0 0)
(2.38516847e-12 0 0)
(1.96640257e-12 0 0)
(2.79310611e-12 0 0)
(2.67934153e-12 0 0)
(1.7347172e-12 0 0)
(1.49241092e-12 0 0)
(2.56441477e-12 0 0)
(1.98286718e-12 0 0)
(1.63949269e-12 0 0)
(2.53438903e-12 0 0)
(1.95120124e-12 0 0)
(1.44678476e-12 0 0)
(1.21812574e-12 0 0)
(2.0220396e-12 0 0)
(2.2731056e-12 0 0)
(1.70838699e-12 0 0)
(2.01389412e-12 0 0)
(1.74871065e-12 0 0)
(1.15305638e-12 0 0)
(7.51974624e-13 0 0)
(1.93569404e-12 0 0)
(1.36212685e-12 0 0)
(8.46305353e-13 0 0)
(8.10425309e-14 0 0)
(1.27729703e-13 0 0)
(1.08822793e-13 0 0)
(-8.82020514e-14 0 0)
(-8.10654092e-14 0 0)
(7.46233776e-13 0 0)
(6.02753053e-13 0 0)
(6.1544845e-14 0 0)
(1.22306995e-12 0 0)
(-3.43449805e-13 0 0)
(-3.60089214e-13 0 0)
(2.02602033e-13 0 0)
(-1.03072018e-12 0 0)
(-1.17023277e-12 0 0)
(-4.99339764e-13 0 0)
(-1.1221182e-12 0 0)
(-1.22529344e-12 0 0)
(-5.90387461e-13 0 0)
(-1.83128627e-12 0 0)
(-1.77152673e-12 0 0)
(-2.08478229e-12 0 0)
(-1.26797325e-12 0 0)
(-1.2227293e-12 0 0)
(-1.01560396e-12 0 0)
(-1.1947479e-12 0 0)
(-1.94950838e-12 0 0)
(-1.19770826e-12 0 0)
(-1.67847259e-12 0 0)
(-2.13235548e-12 0 0)
(-5.82863493e-13 0 0)
(-1.39573483e-12 0 0)
(-2.02581915e-12 0 0)
(-1.53918968e-12 0 0)
(-1.30126087e-12 0 0)
(-2.3991066e-12 0 0)
(-2.35162708e-12 0 0)
(-1.88190618e-12 0 0)
(-2.68147461e-12 0 0)
(-2.76755951e-12 0 0)
(-1.97161768e-12 0 0)
(-3.33487011e-12 0 0)
(-3.4094425e-12 0 0)
(-3.41723379e-12 0 0)
(-3.0715782e-12 0 0)
(-2.959617e-12 0 0)
(-2.88110887e-12 0 0)
(-3.7900814e-12 0 0)
(-3.11091847e-12 0 0)
(-1.86178263e-12 0 0)
(-2.56408755e-12 0 0)
(-1.67495573e-12 0 0)
(-2.11487417e-12 0 0)
(-3.70491202e-12 0 0)
(-3.15387088e-12 0 0)
(-1.64283325e-12 0 0)
(-1.42805569e-12 0 0)
(-1.34601832e-12 0 0)
(-1.97568032e-12 0 0)
(-2.38781089e-12 0 0)
(-1.51371838e-12 0 0)
(-1.16325246e-12 0 0)
(-8.71624246e-13 0 0)
(-8.36296256e-13 0 0)
(-1.26291546e-12 0 0)
(-2.71739609e-13 0 0)
(-2.30461144e-12 0 0)
(-1.851874e-12 0 0)
(-1.50057586e-12 0 0)
(-1.36998653e-12 0 0)
(-1.85781903e-12 0 0)
(-2.1244542e-12 0 0)
(-1.28352974e-12 0 0)
(-1.78816694e-12 0 0)
(-6.20056212e-13 0 0)
(-1.67187129e-12 0 0)
(-7.32853578e-13 0 0)
(-6.16716745e-13 0 0)
(-1.1771409e-12 0 0)
(-9.44961966e-13 0 0)
(-1.15782551e-12 0 0)
(-1.47487928e-12 0 0)
(-2.17321921e-12 0 0)
(-3.03864615e-12 0 0)
(-2.63885548e-12 0 0)
(-1.90481718e-12 0 0)
(-2.72384744e-12 0 0)
(-3.18323109e-12 0 0)
(-3.92902016e-12 0 0)
(-4.0200411e-12 0 0)
(-3.52423683e-12 0 0)
(-3.27227685e-12 0 0)
(-4.16059707e-12 0 0)
(-2.28767895e-12 0 0)
(-3.66992691e-12 0 0)
(-3.78197254e-12 0 0)
(-4.06865143e-12 0 0)
(-4.04892597e-12 0 0)
(-2.35979307e-12 0 0)
(-4.53417693e-12 0 0)
(-2.96378666e-12 0 0)
(-2.46648079e-12 0 0)
(-3.77547422e-12 0 0)
(-4.05298898e-12 0 0)
(-3.85934688e-12 0 0)
(-3.30271819e-12 0 0)
(-5.66727764e-12 0 0)
(-3.58887371e-12 0 0)
(-4.19911907e-12 0 0)
(-4.62104176e-12 0 0)
(-4.25960051e-12 0 0)
(-4.40420523e-12 0 0)
(-3.92653613e-12 0 0)
(-3.87932181e-12 0 0)
(-4.40325202e-12 0 0)
(-4.40855708e-12 0 0)
(-3.98631675e-12 0 0)
(-4.88748305e-12 0 0)
(-5.16758841e-12 0 0)
(-4.49648488e-12 0 0)
(-3.80770438e-12 0 0)
(-4.05696412e-12 0 0)
(-4.94229847e-12 0 0)
(-3.7998259e-12 0 0)
(-5.57660451e-12 0 0)
(-4.77200556e-12 0 0)
(-4.01188217e-12 0 0)
(-4.26988433e-12 0 0)
(-4.34615635e-12 0 0)
(-4.6527819e-12 0 0)
(-5.14574458e-12 0 0)
(-3.59990127e-12 0 0)
(-4.13801658e-12 0 0)
(-4.71925861e-12 0 0)
(-4.04441585e-12 0 0)
(-4.44645543e-12 0 0)
(-3.39668436e-12 0 0)
(-4.74601119e-12 0 0)
(-3.67537182e-12 0 0)
(-3.49168211e-12 0 0)
(-3.3901116e-12 0 0)
(-4.36708868e-12 0 0)
(-4.20812172e-12 0 0)
(-3.61902772e-12 0 0)
(-1.81460883e-12 0 0)
(-3.28182072e-12 0 0)
(-3.55734137e-12 0 0)
(-3.44277865e-12 0 0)
(-3.33282808e-12 0 0)
(-3.04292011e-12 0 0)
(-3.42750229e-12 0 0)
(-2.67918483e-12 0 0)
(-3.07728065e-12 0 0)
(-2.84668951e-12 0 0)
(-3.69266562e-12 0 0)
(-3.10336787e-12 0 0)
(-4.10679915e-12 0 0)
(-1.94146267e-12 0 0)
(-3.14985049e-12 0 0)
(-3.22078353e-12 0 0)
(-3.09645092e-12 0 0)
(-3.52569247e-12 0 0)
(-2.69675574e-12 0 0)
(-3.0289494e-12 0 0)
(-3.20551809e-12 0 0)
(-2.53319767e-12 0 0)
(-3.41156418e-12 0 0)
(-2.97751308e-12 0 0)
(-2.5920945e-12 0 0)
(-3.04221041e-12 0 0)
(-2.21246755e-12 0 0)
(-2.47821645e-12 0 0)
(-1.95139023e-12 0 0)
(-1.4483793e-12 0 0)
(-2.49618062e-12 0 0)
(-1.69001958e-12 0 0)
(-1.18753425e-12 0 0)
(-2.66364266e-12 0 0)
(-2.6090213e-12 0 0)
(-1.53063911e-12 0 0)
(-2.09331529e-12 0 0)
(-2.98074898e-12 0 0)
(-2.77202404e-12 0 0)
(-1.48964922e-12 0 0)
(-2.33403884e-12 0 0)
(-1.61083203e-12 0 0)
(-1.84653677e-12 0 0)
(-2.24734116e-12 0 0)
(-3.05588422e-12 0 0)
(-1.49319084e-12 0 0)
(-1.99288778e-12 0 0)
(-2.17351044e-12 0 0)
(-1.97451626e-12 0 0)
(-2.4536967e-12 0 0)
(-1.63970851e-12 0 0)
(-1.69816148e-12 0 0)
(-2.03636656e-12 0 0)
(-1.68849736e-12 0 0)
(-1.81889155e-12 0 0)
(-1.76674253e-12 0 0)
(-1.65584394e-12 0 0)
(-2.59610538e-12 0 0)
(-2.02958577e-12 0 0)
(-2.57963863e-12 0 0)
(-2.35386578e-12 0 0)
(-2.27440224e-12 0 0)
(-1.58358879e-12 0 0)
(-2.19705151e-12 0 0)
(-2.18954016e-12 0 0)
(-2.36941038e-12 0 0)
(-1.09244339e-12 0 0)
(-2.17413385e-12 0 0)
(-1.52839934e-12 0 0)
(-1.05074512e-12 0 0)
(-2.0205143e-12 0 0)
(-1.75690986e-12 0 0)
(-1.2255832e-12 0 0)
(-1.16788174e-12 0 0)
(-1.0822487e-12 0 0)
(-2.27143346e-12 0 0)
(-1.6340377e-12 0 0)
(-8.57306529e-13 0 0)
(-1.48816482e-12 0 0)
(-8.47953184e-13 0 0)
(-3.41575091e-13 0 0)
(-1.67858438e-13 0 0)
(6.96212563e-14 0 0)
(-1.12818016e-13 0 0)
(4.3512071e-14 0 0)
(6.92627057e-13 0 0)
(9.33298704e-15 0 0)
(1.28761115e-12 0 0)
(1.48553019e-12 0 0)
(1.75932693e-14 0 0)
(-2.81989526e-13 0 0)
(4.09841999e-13 0 0)
(7.89445292e-13 0 0)
(6.32989632e-13 0 0)
(-6.07068292e-13 0 0)
(-6.66130042e-13 0 0)
(-3.9872145e-13 0 0)
(-1.38759993e-13 0 0)
(-6.28471982e-13 0 0)
(3.2736964e-13 0 0)
(1.23782399e-13 0 0)
(-3.77952294e-13 0 0)
(5.82250646e-13 0 0)
(1.59098687e-13 0 0)
(4.50308051e-13 0 0)
(8.48125801e-13 0 0)
(8.81059927e-13 0 0)
(-8.79096543e-14 0 0)
(2.19453922e-13 0 0)
(2.23273968e-13 0 0)
(9.77443231e-14 0 0)
(9.68448493e-14 0 0)
(-1.01369812e-12 0 0)
(7.7271374e-13 0 0)
(-2.47564704e-13 0 0)
(1.80929985e-13 0 0)
(6.88160712e-13 0 0)
(2.2907177e-13 0 0)
(2.74551315e-13 0 0)
(4.34140406e-13 0 0)
(5.30244166e-15 0 0)
(4.72476492e-13 0 0)
(-1.1593513e-13 0 0)
(1.28065238e-12 0 0)
(3.9403559e-13 0 0)