/*--------------------------------*- C++ -*----------------------------------*\
| =========                 |                                                 |
| \\      /  F ield         | OpenFOAM: The Open Source CFD Toolbox           |
|  \\    /   O peration     | Version:  2206                                  |
|   \\  /    A nd           | Website:  www.openfoam.com                      |
|    \\/     M anipulation  |                                                 |
\*---------------------------------------------------------------------------*/
FoamFile
{
    version     2.0;
    format      ascii;
    arch        "LSB;label=32;scalar=64";
    class       volScalarField;
    location    "1.54e-05";
    object      p;
}
// * * * * * * * * * * * * * * * * * * * * * * * * * * * * * * * * * * * * * //

dimensions      [1 -1 -2 0 0 0 0];

internalField   nonuniform List<scalar> 
3183
(
101325
101325
101325
101325
101325
101325
101325
101325
101325
101325
101325
101325
101325
101325
101325
101325
101325
101325
101325
101325
101325
101325
101325
101325
101325
101325
101325
101325
101325
101325
101325
101325
101325
101325
101325
101325
101325
101325
101325
101325
101325
101325
101325
101325
101325
101325
101325
101325
101325
101325
101325
101325
101325
101325
101325
101325
101325
101325
101325
101325
101325
101325
101325
101325
101325
101325
101325
101325
101325
101325
101325
101325
101325
101325
101325
101325
101325
101325
101325
101325
101325
101325
101325
101325
101325
101325
101325
101325
101325
101325
101325
101325
101325
101325
101325
101325
101325
101325
101325
101325
101325
101325
101325
101325
101325
101325
101325
101325
101325
101325
101325
101325
101325
101325
101325
101325
101325
101325
101325
101325
101325
101325
101325
101325
101325
101325
101325
101325
101325
101325
101325
101325
101325
101325
101325
101325
101325
101325
101325
101325
101325
101325
101325
101325
101325
101325
101325
101325
101325
101325
101325
101325
101325
101325
101325
101325
101325
101325
101325
101325
101325
101325
101325
101325
101325
101325
101325
101325
101325
101325
101325
101325
101325
101325
101325
101325
101325
101325
101325
101325
101325
101325
101325
101325
101325
101325
101325
101325
101325
101325
101325
101325
101325
101325
101325
101325
101325
101325
101325
101325
101325
101325
101325
101325
101325
101325
101325
101325
101325
101325
101325
101325
101325
101325
101325
101325
101325
101325
101325
101325
101325
101325
101325
101325
101325
101325
101325
101325
101325
101325
101325
101325
101325
101325
101325
101325
101325
101325
101325
101325
101325
101325
101325
101325
101325
101325
101325
101325
101325
101325
101325
101325
101325
101325
101325
101325
101325
101325
101325
101325
101325
101325
101325
101325
101325
101325
101325
101325
101325
101325
101325
101325
101325
101325
101325
101325
101325
101325
101325
101325
101325
101325
101325
101325
101325
101325
101325
101325
101325
101325
101325
101325
101325
101325
101325
101325
101325
101325
101325
101325
101325
101325
101325
101325
101325
101325
101325
101325
101325
101325
101325
101325
101325
101325
101325
101325
101325
101325
101325
101325
101325
101325
101325
101325
101325
101325
101325
101325
101325
101325
101325
101325
101325
101325
101325
101325
101325
101325
101325
101325
101325
101325
101325
101325
101325
101325
101325
101325
101325
101325
101325
101325
101325
101325
101325
101325
101325
101325
101325
101325
101325
101325
101325
101325
101325
101325
101325
101325
101325
101325
101325
101325
101325
101325
101325
101325
101325
101325
101325
101325
101325
101325
101325
101325
101325
101325
101325
101325
101325
101325
101325
101325
101325
101325
101325
101325
101325
101325
101325
101325
101325
101325
101325
101325
101325
101325
101325
101325
101325
101325
101325
101325
101325
101325
101325
101325
101325
101325
101325
101325
101325
101325
101325
101325
101325
101325
101325
101325
101325
101325
101325
101325
101325
101325
101325
101325
101325
101325
101325
101325
101325
101325
101325
101325
101325
101325
101325
101325
101325
101325
101325
101325
101325
101325
101325
101325
101325
101325
101325
101325
101325
101325
101325
101325
101325
101325
101325
101325
101325
101325
101325
101325
101325
101325
101325
101325
101325
101325
101325
101325
101325
101325
101325
101325
101325
101325
101325
101325
101325
101325
101325
101325
101325
101325
101325
101325
101325
101325
101325
101325
101325
101325
101325
101325
101325
101325
101325
101325
101325
101325
101325
101325
101325
101325
101325
101325
101325
101325
101325
101325
101325
101325
101325
101325
101325
101325
101325
101325
101325
101325
101325
101325
101325
101325
101325
101325
101325
101325
101325
101325
101325
101325
101325
101325
101325
101325
101325
101325
101325
101325
101325
101325
101325
101325
101325
101325
101325
101325
101325
101325
101325
101325
101325
101325
101325
101325
101325
101325
101325
101325
101325
101325
101325
101325
101325
101325
101325
101325
101325
101325
101325
101325
101325
101325
101325
101325
101325
101325
101325
101325
101325
101325
101325
101325
101325
101325
101325
101325
101325
101325
101325
101325
101325
101325
101325
101325
101325
101325
101325
101325
101325
101325
101325
101325
101325
101325
101325
101325
101325
101325
101325
101325
101325
101325
101325
101325
101325
101325
101325
101325
101325
101325
101325
101325
101325
101325
101325
101325
101325
101325
101325
101325
101325
101325
101325
101325
101325
101325
101325
101325
101325
101325
101325
101325
101325
101325
101325
101325
101325
101325
101325
101325
101325
101325
101325
101325
101325
101325
101325
101325
101325
101325
101325
101325
101325
101325
101325
101325
101325
101325
101325
101325
101325
101325
101325
101325
101325
101325
101325
101325
101325
101325
101325
101325
101325
101325
101325
101325
101325
101325
101325
101325
101325
101325
101325
101325
101325
101325
101325
101325
101325
101325
101325
101325
101325
101325
101325
101325
101325
101325
101325
101325
101325
101325
101325
101325
101325
101325
101325
101325
101325
101325
101325
101325
101325
101325
101325
101325
101325
101325
101325
101325
101325
101325
101325
101325
101325
101325
101325
101325
101325
101325
101325
101325
101325
101325
101325
101325
101325
101325
101325
101325
101325
101325
101325
101325
101325
101325
101325
101325
101325
101325
101325
101325
101325
101325
101325
101325
101325
101325
101325
101325
101325
101325
101325
101325
101325
101325
101325
101325
101325
101325
101325
101325
101325
101325
101325
101325
101325
101325
101325
101325
101325
101325
101325
101325
101325
101325
101325
101325
101325
101325
101325
101325
101325
101325
101325
101325
101325
101325
101325
101325
101325
101325
101325
101325
101325
101325
101325
101325
101325
101325
101325
101325
101325
101325
101325
101325
101325
101325
101325
101325
101325
101325
101325
101325
101325
101325
101325
101325
101325
101325
101325
101325
101325
101325
101325
101325
101325
101325
101325
101325
101325
101325
101325
101325
101325
101325
101325
101325
101325
101325
101325
101325
101325
101325
101325
101325
101325
101325
101325
101325
101325
101325
101325
101325
101325
101325
101325
101325
101325
101325
101325
101325
101325
101325
101325
101325
101325
101325
101325
101325
101325
101325
101325
101325
101325
101325
101325
101325
101325
101325
101325
101325
101325
101325
101325
101325
101325
101325
101325
101325
101325
101325
101325
101325
101325
101325
101325
101325
101325
101325
101325
101325
101325
101325
101325
101325
101325
101325
101325
101325
101325
101325
101325
101325
101325
101325
101325
101325
101325
101325
101325
101325
101325
101325
101325
101325
101325
101325
101325
101325
101325
101325
101325
101325
101325
101325
101325
101325
101325
101325
101325
101325
101325
101325
101325
101325
101325
101325
101325
101325
101325
101325
101325
101325
101325
101325
101325
101325
101325
101325
101325
101325
101325
101325
101325
101325
101325
101325
101325
101325
101325
101325
101325
101325
101325
101325
101325
101325
101325
101325
101325
101325
101325
101325
101325
101325
101325
101325
101325
101325
101325
101325
101325
101325
101325
101325
101325
101325
101325
101325
101325
101325
101325
101325
101325
101325
101325
101325
101325
101325
101325
101325
101325
101325
101325
101325
101325
101325
101325
101325
101325
101325
101325
101325
101325
101325
101325
101325
101325
101325
101325
101325
101325
101325
101325
101325
101325
101325
101325
101325
101325
101325
101325
101325
101325
101325
101325
101325
101325
101325
101325
101325
101325
101325
101325
101325
101325
101325
101325
101325
101325
101325
101325
101325
101325
101325
101325
101325
101325
101325
101325
101325
101325
101325
101325
101325
101325
101325
101325
101325
101325
101325
101325
101325
101325
101325
101325
101325
101325
101325
101325
101325
101325
101325
101325
101325
101325
101325
101325
101325
101325
101325
101325
101325
101325
101325
101325
101325
101325
101325
101325
101325
101325
101325
101325
101325
101325
101325
101325
101325
101325
101325
101325
101325
101325
101325
101325
101325
101325
101325
101325
101325
101325
101325
101325
101325
101325
101325
101325
101325
101325
101325
101325
101325
101325
101325
101325
101325
101325
101325
101325
101325
101325
101325
101325
101325
101325
101325
101325
101325
101325
101325
101325
101325
101325
101325
101325
101325
101325
101325
101325
101325
101325
101325
101325
101325
101325
101325
101325
101325
101325
101325
101325
101325
101325
101325
101325
101325
101325
101325
101325
101325
101325
101325
101325
101325
101325
101325
101325
101325
101325
101325
101325
101325
101325
101325
101325
101325
101325
101325
101325
101325
101325
101325
101325
101325
101325
101325
101325
101325
101325
101325
101325
101325
101325
101325
101325
101325
101325
101325
101325
101325
101325
101325
101325
101325
101325
101325
101325
101325
101325
101325
101325
101325
101325
101325
101325
101325
101325
101325
101325
101325
101325
101325
101325
101325
101325
101325
101325
101325
101325
101325
101325
101325
101325
101325
101325
101325
101325
101325
101325
101325
101325
101325
101325
101325
101325
101325
101325
101325
101325
101325
101325
101325
101325
101325
101325
101325
101325
101325
101325
101325
101325
101325
101325
101325
101325
101325
101325
101325
101325
101325
101325
101325
101325
101325
101325
101325
101325
101325
101325
101325
101325
101325
101325
101325
101325
101325
101325
101325
101325
101325
101325
101325
101325
101325
101325
101325
101325
101325
101325
101325
101325
101325
101325
101325
101325
101325
101325
101325
101325
101325
101325
101325
101325
101325
101325
101325
101325
101325
101325
101325
101325
101325
101325
101325
101325
101325
101325
101325
101325
101325
101325
101325
101325
101325
101325
101325
101325
101325
101325
101325
101325
101325
101325
101325
101325
101325
101325
101325
101325
101325
101325
101325
101325
101325
101325
101325
101325
101325
101325
101325
101325
101325
101325
101325
101325
101325
101325
101325
101325
101325
101325
101325
101325
101325
101325
101325
101325
101325
101325
101325
101325
101325
101325
101325
101325
101325
101325
101325
101325
101325
101325
101325
101325
101325
101325
101325
101325
101325
101325
101325
101325
101325
101325
101325
101325
101325
101325
101325
101325
101325
101325
101325
101325
101325
101325
101325
101325
101325
101325
101325
101325
101325
101325
101325
101325
101325
101325
101325
101325
101325
101325
101325
101325
101325
101325
101325
101325
101325
101325
101325
101325
101325
101325
101325
101325
101325
101325
101325
101325
101325
101325
101325
101325
101325
101325
101325
101325
101325
101325
101325
101325
101325
101325
101325
101325
101325
101325
101325
101325
101325
101325
101325
101325
101325
101325
101325
101325
101325
101325
101325
101325
101325
101325
101325
101325
101325
101325
101325
101325
101325
101325
101325
101325
101325
101325
101325
101325
101325
101325
101325
101325
101325
101325
101325
101325
101325
101325
101325
101325
101325
101325
101325
101325
101325
101325
101325
101325
101325
101325
101325
101325
101325
101325
101325
101325
101325
101325
101325
101325
101325
101325
101325
101325
101325
101325
101325
101325
101325
101325
101325
101325
101325
101325
101325
101325
101325
101325
101325
101325
101325
101325
101325
101325
101325
101325
101325
101325
101325
101325
101325
101325
101325
101325
101325
101325
101325
101325
101325
101325
101325
101325
101325
101325
101325
101325
101325
101325
101325
101325
101325
101325
101325
101325
101325
101325
101325
101325
101325
101325
101325
101325
101325
101325
101325
101325
101325
101325
101325
101325
101325
101325
101325
101325
101325
101325
101325
101325
101325
101325
101325
101325
101325
101325
101325
101325
101325
101325
101325
101325
101325
101325
101325
101325
101325
101325
101325
101325
101325
101325
101325
101325
101325
101325
101325
101325
101325
101325
101325
101325
101325
101325
101325
101325
101325
101325
101325
101325
101325
101325
101325
101325
101325
101325
101325
101325
101325
101325
101325
101325
101325
101325
101325
101325
101325
101325
101325
101325
101325
101325
101325
101325
101325
101325
101325
101325
101325
101325
101325
101325
101325
101325
101325
101325
101325
101325
101325
101325
101325
101325
101325
101325
101325
101325
101325
101325
101325
101325
101325
101325
101325
101325
101325
101325
101325
101325
101325
101325
101325
101325
101325
101325
101325
101325
101325
101325
101325
101325
101325
101325
101325
101325
101325
101325
101325
101325
101325
101325
101325
101325
101325
101325
101325
101325
101325
101325
101325
101325
101325
101325
101325
101325
101325
101325
101325
101325
101325
101325
101325
101325
101325
101325
101325
101325
101325
101325
101325
101325
101325
101325
101325
101325
101325
101325
101325
101325
101325
101325
101325
101325
101325
101325
101325
101325
101325
101325
101325
101325
101325
101325
101324.999
101324.999
101324.999
101324.999
101324.999
101324.999
101324.999
101324.999
101324.999
101324.999
101324.999
101324.999
101324.999
101324.999
101324.999
101324.999
101324.999
101324.999
101324.998
101324.998
101324.998
101324.998
101324.998
101324.998
101324.998
101324.998
101324.998
101324.997
101324.997
101324.997
101324.997
101324.997
101324.997
101324.996
101324.996
101324.996
101324.996
101324.995
101324.995
101324.995
101324.995
101324.994
101324.994
101324.994
101324.993
101324.993
101324.992
101324.992
101324.992
101324.991
101324.991
101324.99
101324.989
101324.989
101324.988
101324.988
101324.987
101324.986
101324.985
101324.985
101324.984
101324.983
101324.982
101324.981
101324.98
101324.979
101324.978
101324.977
101324.975
101324.974
101324.973
101324.971
101324.97
101324.968
101324.966
101324.965
101324.963
101324.961
101324.959
101324.957
101324.954
101324.952
101324.95
101324.947
101324.944
101324.941
101324.939
101324.935
101324.932
101324.929
101324.925
101324.921
101324.918
101324.914
101324.909
101324.905
101324.9
101324.895
101324.89
101324.885
101324.879
101324.873
101324.867
101324.861
101324.854
101324.848
101324.84
101324.833
101324.825
101324.817
101324.808
101324.799
101324.79
101324.781
101324.77
101324.76
101324.749
101324.738
101324.726
101324.714
101324.701
101324.687
101324.674
101324.659
101324.644
101324.628
101324.612
101324.595
101324.578
101324.56
101324.541
101324.521
101324.501
101324.48
101324.458
101324.435
101324.411
101324.387
101324.361
101324.335
101324.308
101324.279
101324.25
101324.22
101324.188
101324.156
101324.122
101324.087
101324.051
101324.014
101323.975
101323.935
101323.894
101323.851
101323.807
101323.762
101323.715
101323.666
101323.616
101323.565
101323.511
101323.456
101323.4
101323.341
101323.281
101323.219
101323.155
101323.089
101323.021
101322.951
101322.879
101322.805
101322.729
101322.65
101322.57
101322.487
101322.402
101322.314
101322.224
101322.132
101322.037
101321.94
101321.84
101321.738
101321.633
101321.525
101321.414
101321.301
101321.185
101321.066
101320.945
101320.82
101320.693
101320.562
101320.429
101320.293
101320.153
101320.011
101319.865
101319.716
101319.564
101319.409
101319.251
101319.09
101318.925
101318.757
101318.586
101318.412
101318.234
101318.053
101317.869
101317.681
101317.491
101317.297
101317.099
101316.899
101316.695
101316.488
101316.278
101316.064
101315.848
101315.628
101315.405
101315.179
101314.95
101314.718
101314.483
101314.246
101314.005
101313.761
101313.515
101313.266
101313.014
101312.76
101312.503
101312.244
101311.983
101311.719
101311.453
101311.185
101310.915
101310.643
101310.369
101310.093
101309.816
101309.538
101309.258
101308.976
101308.694
101308.41
101308.126
101307.84
101307.554
101307.268
101306.981
101306.694
101306.406
101306.119
101305.832
101305.545
101305.259
101304.973
101304.688
101304.404
101304.12
101303.839
101303.558
101303.279
101303.002
101302.726
101302.453
101302.182
101301.913
101301.646
101301.382
101301.121
101300.863
101300.608
101300.356
101300.108
101299.863
101299.622
101299.385
101299.152
101298.923
101298.698
101298.478
101298.262
101298.051
101297.845
101297.644
101297.448
101297.257
101297.071
101296.891
101296.716
101296.547
101296.383
101296.226
101296.074
101295.928
101295.788
101295.655
101295.527
101295.406
101295.291
101295.182
101295.08
101294.984
101294.895
101294.812
101294.735
101294.665
101294.602
101294.544
101294.494
101294.449
101294.412
101294.38
101294.355
101294.336
101294.324
101294.318
101294.318
101294.324
101294.336
101294.354
101294.378
101294.407
101294.443
101294.484
101294.53
101294.582
101294.639
101294.702
101294.769
101294.842
101294.919
101295.001
101295.087
101295.178
101295.273
101295.372
101295.475
101295.582
101295.693
101295.808
101295.925
101296.046
101296.17
101296.297
101296.427
101296.559
101296.694
101296.831
101296.971
101297.112
101297.255
101297.4
101297.546
101297.694
101297.843
101297.993
101298.144
101298.296
101298.449
101298.602
101298.755
101298.909
101299.063
101299.217
101299.371
101299.524
101299.677
101299.83
101299.982
101300.134
101300.285
101300.435
101300.584
101300.731
101300.878
101301.024
101301.168
101301.311
101301.452
101301.592
101301.731
101301.868
101302.003
101302.136
101302.268
101302.398
101302.526
101302.652
101302.776
101302.899
101303.019
101303.138
101303.254
101303.369
101303.481
101303.592
101303.701
101303.807
101303.912
101304.015
101304.115
101304.214
101304.311
101304.406
101304.499
101304.59
101304.68
101304.767
101304.853
101304.937
101305.019
101305.1
101305.179
101305.256
101305.332
101305.406
101305.479
101305.55
101305.62
101305.688
101305.755
101305.821
101305.885
101305.948
101306.01
101306.071
101306.131
101306.19
101306.247
101306.304
101306.36
101306.414
101306.468
101306.521
101306.574
101306.625
101306.676
101306.726
101306.775
101306.824
101306.873
101306.92
101306.967
101307.014
101307.06
101307.106
101307.151
101307.196
101307.241
101307.285
101307.329
101307.373
101307.416
101307.459
101307.502
101307.545
101307.587
101307.63
101307.672
101307.714
101307.755
101307.797
101307.838
101307.879
101307.921
101307.962
101308.002
101308.043
101308.084
101308.124
101308.164
101308.204
101308.245
101308.284
101308.324
101308.364
101308.403
101308.442
101308.481
101308.52
101308.559
101308.597
101308.635
101308.673
101308.711
101308.748
101308.785
101308.822
101308.859
101308.895
101308.931
101308.966
101309.002
101309.037
101309.071
101309.105
101309.139
101309.172
101309.205
101309.237
101309.269
101309.3
101309.331
101309.362
101309.392
101309.421
101309.45
101309.479
101309.507
101309.534
101309.561
101309.587
101309.613
101309.638
101309.663
101309.688
101309.711
101309.734
101309.757
101309.779
101309.801
101309.822
101309.843
101309.863
101309.883
101309.902
101309.921
101309.939
101309.957
101309.974
101309.991
101310.008
101310.025
101310.041
101310.056
101310.072
101310.087
101310.102
101310.116
101310.131
101310.145
101310.159
101310.173
101310.187
101310.2
101310.214
101310.227
101310.241
101310.254
101310.267
101310.281
101310.294
101310.308
101310.321
101310.335
101310.349
101310.363
101310.377
101310.391
101310.406
101310.421
101310.436
101310.451
101310.466
101310.482
101310.498
101310.515
101310.531
101310.548
101310.565
101310.583
101310.601
101310.619
101310.638
101310.657
101310.676
101310.695
101310.715
101310.735
101310.756
101310.776
101310.797
101310.819
101310.84
101310.862
101310.884
101310.906
101310.929
101310.951
101310.974
101310.997
101311.02
101311.043
101311.066
101311.089
101311.113
101311.136
101311.159
101311.182
101311.205
101311.228
101311.251
101311.274
101311.297
101311.319
101311.341
101311.363
101311.385
101311.406
101311.427
101311.448
101311.469
101311.489
101311.509
101311.528
101311.547
101311.566
101311.585
101311.603
101311.62
101311.638
101311.655
101311.671
101311.687
101311.703
101311.719
101311.734
101311.749
101311.763
101311.777
101311.791
101311.804
101311.818
101311.831
101311.843
101311.856
101311.868
101311.88
101311.892
101311.903
101311.915
101311.926
101311.937
101311.948
101311.959
101311.97
101311.981
101311.991
101312.002
101312.012
101312.023
101312.033
101312.044
101312.054
101312.065
101312.075
101312.086
101312.096
101312.106
101312.117
101312.127
101312.138
101312.148
101312.159
101312.169
101312.18
101312.19
101312.201
101312.211
101312.222
101312.232
101312.243
101312.253
101312.264
101312.274
101312.284
101312.294
101312.304
101312.315
101312.325
101312.334
101312.344
101312.354
101312.363
101312.373
101312.382
101312.391
101312.4
101312.409
101312.417
101312.426
101312.434
101312.442
101312.45
101312.457
101312.465
101312.472
101312.479
101312.486
101312.493
101312.5
101312.507
101312.514
101312.52
101312.527
101312.533
101312.54
101312.546
101312.553
101312.559
101312.566
101312.573
101312.58
101312.588
101312.595
101312.603
101312.612
101312.62
101312.629
101312.639
101312.648
101312.658
101312.669
101312.68
101312.691
101312.703
101312.715
101312.727
101312.74
101312.753
101312.766
101312.78
101312.794
101312.807
101312.821
101312.835
101312.849
101312.863
101312.876
101312.89
101312.903
101312.916
101312.93
101312.943
101312.956
101312.969
101312.982
101312.996
101313.011
101313.027
101313.043
101313.045
101313.033
101313.386
101313.555
101313.485
101312.935
101312.806
101312.742
101312.814
101312.839
101312.91
101312.929
101312.977
101312.987
101313.001
101312.997
101312.994
101312.986
101312.978
101312.969
101312.961
101312.953
101312.946
101312.938
101312.931
101312.924
101312.917
101312.91
101312.903
101312.897
101312.89
101312.884
101312.877
101312.87
101312.864
101312.857
101312.85
101312.843
101312.836
101312.83
101312.823
101312.816
101312.809
101312.802
101312.795
101312.788
101312.781
101312.774
101312.768
101312.761
101312.754
101312.747
101312.741
101312.734
101312.728
101312.721
101312.715
101312.709
101312.703
101312.697
101312.691
101312.685
101312.679
101312.674
101312.668
101312.663
101312.658
101312.653
101312.648
101312.643
101312.638
101312.633
101312.629
101312.624
101312.62
101312.616
101312.612
101312.608
101312.604
101312.6
101312.596
101312.592
101312.588
101312.585
101312.581
101312.578
101312.574
101312.571
101312.568
101312.564
101312.561
101312.558
101312.555
101312.551
101312.548
101312.545
101312.542
101312.539
101312.535
101312.532
101312.529
101312.526
101312.523
101312.519
101312.516
101312.513
101312.51
101312.506
101312.503
101312.5
101312.496
101312.493
101312.489
101312.486
101312.482
101312.478
101312.475
101312.471
101312.467
101312.463
101312.46
101312.456
101312.452
101312.448
101312.444
101312.44
101312.435
101312.431
101312.427
101312.423
101312.418
101312.414
101312.41
101312.405
101312.401
101312.396
101312.391
101312.387
101312.382
101312.377
101312.373
101312.368
101312.363
101312.358
101312.353
101312.348
101312.343
101312.338
101312.333
101312.328
101312.323
101312.318
101312.313
101312.307
101312.302
101312.297
101312.292
101312.286
101312.281
101312.276
101312.27
101312.265
101312.26
101312.254
101312.249
101312.243
101312.238
101312.232
101312.227
101312.221
101312.216
101312.21
101312.205
101312.199
101312.194
101312.188
101312.183
101312.177
101312.171
101312.166
101312.16
101312.155
101312.149
101312.143
101312.138
101312.132
101312.126
101312.12
101312.115
101312.109
101312.103
101312.098
101312.092
101312.087
101312.081
101312.075
101312.069
101312.064
101312.058
101312.052
101312.047
101312.041
101312.035
101312.029
101312.024
101312.018
101312.012
101312.006
101312.001
101311.995
101311.989
101311.983
101311.977
101311.971
101311.965
101311.96
101311.954
101311.948
101311.942
101311.936
101311.93
101311.924
101311.918
101311.911
101311.905
101311.899
101311.893
101311.887
101311.88
101311.874
101311.868
101311.861
101311.855
101311.848
101311.842
101311.835
101311.828
101311.822
101311.815
101311.808
101311.801
101311.794
101311.787
101311.78
101311.773
101311.766
101311.758
101311.751
101311.744
101311.736
101311.728
101311.721
101311.713
101311.705
101311.697
101311.689
101311.681
101311.673
101311.665
101311.656
101311.648
101311.64
101311.631
101311.622
101311.614
101311.605
101311.596
101311.587
101311.578
101311.568
101311.559
101311.55
101311.54
101311.53
101311.521
101311.511
101311.501
101311.491
101311.481
101311.471
101311.461
101311.451
101311.44
101311.43
101311.419
101311.409
101311.398
101311.387
101311.377
101311.366
101311.355
101311.344
101311.333
101311.322
101311.31
101311.299
101311.288
101311.277
101311.265
101311.254
101311.242
101311.231
101311.219
101311.208
101311.196
101311.184
101311.173
101311.161
101311.149
101311.137
101311.126
101311.114
101311.102
101311.09
101311.079
101311.067
101311.055
101311.043
101311.031
101311.02
101311.008
101310.996
101310.984
101310.973
101310.961
101310.949
101310.938
101310.926
101310.915
101310.903
101310.892
101310.88
101310.869
101310.857
101310.846
101310.835
101310.824
101310.812
101310.801
101310.79
101310.779
101310.768
101310.757
101310.747
101310.736
101310.725
101310.715
101310.704
101310.694
101310.683
101310.673
101310.663
101310.653
101310.642
101310.632
101310.622
101310.613
101310.603
101310.593
101310.583
101310.574
101310.564
101310.555
101310.545
101310.536
101310.527
101310.518
101310.509
101310.5
101310.491
101310.482
101310.473
101310.464
101310.456
101310.447
101310.439
101310.43
101310.422
101310.413
101310.405
101310.397
101310.389
101310.38
101310.372
101310.364
101310.356
101310.348
101310.34
101310.333
101310.325
101310.317
101310.309
101310.302
101310.294
101310.286
101310.279
101310.271
101310.263
101310.256
101310.248
101310.241
101310.233
101310.226
101310.218
101310.21
101310.203
101310.195
101310.188
101310.18
101310.173
101310.165
101310.158
101310.15
101310.142
101310.135
101310.127
101310.119
101310.112
101310.104
101310.096
101310.088
101310.08
101310.073
101310.065
101310.057
101310.048
101310.04
101310.032
101310.024
101310.016
101310.007
101309.999
101309.99
101309.982
101309.973
101309.964
101309.955
101309.947
101309.938
101309.928
101309.919
101309.91
101309.901
101309.891
101309.882
101309.872
101309.862
101309.853
101309.843
101309.833
101309.822
101309.812
101309.802
101309.791
101309.781
101309.77
101309.759
101309.748
101309.737
101309.726
101309.715
101309.703
101309.692
101309.68
101309.669
101309.657
101309.645
101309.632
101309.62
101309.608
101309.595
101309.582
101309.57
101309.557
101309.544
101309.531
101309.517
101309.504
101309.49
101309.476
101309.463
101309.449
101309.435
101309.42
101309.406
101309.391
101309.377
101309.362
101309.347
101309.332
101309.317
101309.302
101309.286
101309.271
101309.255
101309.24
101309.224
101309.208
101309.192
101309.175
101309.159
101309.143
101309.126
101309.109
101309.093
101309.075
101309.056
101309.036
101309.014
101308.99
101308.964
101308.936
101308.906
101308.873
101308.838
101308.8
101308.759
101308.714
101308.666
101308.614
101308.557
101308.496
101308.43
101308.358
101308.28
101308.196
101308.106
101308.008
101307.902
101307.787
101307.663
101307.529
101307.384
101307.226
101307.054
101306.864
101306.654
101306.417
101306.148
101305.835
101305.466
101305.022
101304.479
101303.808
101302.976
101301.945
101300.69
101299.205
101297.53
101295.78
101294.174
101293.047
101292.816
101293.892
101296.529
101300.665
101305.85
101311.311
101316.212
101319.978
101322.461
101323.869
101324.556
101324.847
101324.954
101324.988
101324.998
101325
101325
101325.001
101325.001
101325.001
101325.001
101325.001
101325.001
101325.001
101325.001
101325.001
101325.001
101325
101325
101325
)
;

boundaryField
{
    closed
    {
        type            zeroGradient;
    }
    open
    {
        type            waveTransmissive;
        gamma           1.25;
        fieldInf        101325;
        lInf            1;
        value           uniform 101325;
    }
    sides
    {
        type            empty;
    }
}


// ************************************************************************* //
