/*--------------------------------*- C++ -*----------------------------------*\
| =========                 |                                                 |
| \\      /  F ield         | OpenFOAM: The Open Source CFD Toolbox           |
|  \\    /   O peration     | Version:  2206                                  |
|   \\  /    A nd           | Website:  www.openfoam.com                      |
|    \\/     M anipulation  |                                                 |
\*---------------------------------------------------------------------------*/
FoamFile
{
    version     2.0;
    format      ascii;
    arch        "LSB;label=32;scalar=64";
    class       surfaceScalarField;
    location    "1.54e-05";
    object      phi;
}
// * * * * * * * * * * * * * * * * * * * * * * * * * * * * * * * * * * * * * //

dimensions      [1 0 -1 0 0 0 0];

oriented        oriented;

internalField   nonuniform List<scalar> 
3182
(
5.48528007e-18
-2.21258511e-18
-2.15279794e-18
-2.09857417e-18
-6.73112541e-21
-3.64145968e-23
-2.57164152e-24
5.11195048e-26
4.97147194e-24
8.50405563e-23
1.06177611e-19
4.05838514e-18
3.62413237e-18
7.74977139e-19
1.36307592e-18
-1.21127156e-18
-4.48890784e-18
-4.83456249e-18
-4.72352652e-18
4.26425892e-18
6.99386737e-20
2.11384531e-21
1.23164672e-18
2.38929868e-18
4.10580429e-18
3.0303507e-18
7.78871493e-18
1.83283487e-18
-1.32829541e-19
4.8992994e-19
-1.04728697e-18
-1.74240101e-18
-5.70517451e-18
-6.815996e-18
-4.28521336e-18
-5.72302198e-18
-5.82326374e-18
-6.07330518e-18
-7.87065283e-18
-5.15748273e-18
-3.45915888e-18
-3.07497082e-19
2.71313043e-18
4.19580675e-18
5.13140217e-18
6.83112409e-18
8.98919374e-18
1.03998335e-17
1.12737408e-17
1.22667858e-17
1.10719676e-17
9.15014121e-18
6.29834808e-18
4.35001659e-18
1.09375942e-18
-1.70723481e-18
-4.32188857e-18
-8.00017369e-18
-9.53786367e-18
-1.30228887e-17
-1.5400829e-17
-1.71752633e-17
-1.98251778e-17
-2.28179887e-17
-2.36207386e-17
-2.62302765e-17
-2.86302279e-17
-3.07842816e-17
-3.25324175e-17
-3.3042075e-17
-3.38618614e-17
-3.49688134e-17
-3.4642196e-17
-3.52553477e-17
-3.52684282e-17
-3.61310118e-17
-3.57926246e-17
-3.57737868e-17
-3.58230086e-17
-3.61302029e-17
-3.57720125e-17
-3.65091931e-17
-3.87158912e-17
-3.78550871e-17
-3.83712302e-17
-3.96129824e-17
-3.92324916e-17
-4.02477688e-17
-3.99289436e-17
-4.15126844e-17
-4.4500583e-17
-4.57858888e-17
-4.62541153e-17
-4.7921868e-17
-4.86364915e-17
-4.76039528e-17
-4.79725293e-17
-5.4012453e-17
-4.91837462e-17
-5.11035062e-17
-5.1258743e-17
-5.41883394e-17
-5.49230768e-17
-5.49704857e-17
-5.43443241e-17
-5.18613956e-17
-5.38950911e-17
-5.19974412e-17
-5.55805434e-17
-5.43196489e-17
-5.60185535e-17
-5.25343959e-17
-5.32767279e-17
-5.38142192e-17
-5.12785854e-17
-5.58578805e-17
-5.76453125e-17
-5.49935823e-17
-5.77443076e-17
-5.83868833e-17
-5.98730881e-17
-6.34668493e-17
-6.26830306e-17
-6.36103977e-17
-6.31761524e-17
-6.23496141e-17
-6.15498837e-17
-6.55446426e-17
-6.18330869e-17
-6.09664766e-17
-6.14150543e-17
-6.38507175e-17
-6.35457895e-17
-6.5475309e-17
-6.65346984e-17
-6.33232813e-17
-6.68750865e-17
-6.76631708e-17
-6.45287991e-17
-6.38305699e-17
-6.36184358e-17
-6.38438625e-17
-6.9001637e-17
-7.03209527e-17
-6.77349589e-17
-7.16582716e-17
-6.96048393e-17
-6.85416514e-17
-6.72243288e-17
-7.16317849e-17
-7.23265705e-17
-7.26554385e-17
-7.12633682e-17
-7.23932365e-17
-7.15010631e-17
-7.31539447e-17
-7.51502128e-17
-7.8946884e-17
-7.78891051e-17
-7.75264747e-17
-7.62621708e-17
-7.30497079e-17
-7.2652426e-17
-7.41642723e-17
-7.42818306e-17
-7.57255889e-17
-7.91530692e-17
-7.802218e-17
-8.15623049e-17
-7.78643119e-17
-8.10549707e-17
-8.00730542e-17
-7.89422015e-17
-7.73855978e-17
-7.79961075e-17
-7.94624532e-17
-7.76398116e-17
-7.8978346e-17
-7.8584088e-17
-8.0375582e-17
-8.18384153e-17
-8.06763668e-17
-8.28432578e-17
-8.25746407e-17
-8.57295257e-17
-8.30344155e-17
-8.13703564e-17
-8.37900103e-17
-8.35862381e-17
-8.4549733e-17
-8.45063002e-17
-8.36037168e-17
-8.37959132e-17
-8.29389659e-17
-8.08715625e-17
-8.03639342e-17
-8.30516494e-17
-8.52675501e-17
-8.70437627e-17
-8.84213508e-17
-9.01251615e-17
-8.81186413e-17
-8.86637797e-17
-8.62931082e-17
-8.91267685e-17
-8.47977202e-17
-8.68775181e-17
-8.73694021e-17
-8.50589969e-17
-8.52575103e-17
-8.75266567e-17
-8.49547015e-17
-8.44814319e-17
-8.56210007e-17
-8.63335535e-17
-8.7944806e-17
-8.73826159e-17
-8.66509924e-17
-8.67743356e-17
-8.95778791e-17
-9.13337151e-17
-9.23167197e-17
-9.15622284e-17
-9.19812935e-17
-9.54554882e-17
-9.52316148e-17
-9.63208275e-17
-9.79420995e-17
-1.00032935e-16
-1.00067228e-16
-1.0109253e-16
-1.0610545e-16
-1.05585605e-16
-1.0503298e-16
-1.04357052e-16
-1.0534062e-16
-1.08500246e-16
-1.07369845e-16
-1.07456242e-16
-1.11175478e-16
-1.13392629e-16
-1.11353108e-16
-1.09663339e-16
-1.09395928e-16
-1.07910781e-16
-1.07201647e-16
-1.06222942e-16
-1.08268784e-16
-1.0481302e-16
-1.08076305e-16
-1.0667846e-16
-1.05138097e-16
-1.08742308e-16
-1.07804959e-16
-1.04951053e-16
-1.09778504e-16
-1.11246439e-16
-1.10071127e-16
-1.1203044e-16
-1.13628945e-16
-1.16959297e-16
-1.17911696e-16
-1.1847132e-16
-1.18473239e-16
-1.13120096e-16
-1.17731071e-16
-1.17097606e-16
-1.13624856e-16
-1.16149314e-16
-1.12606791e-16
-1.12929253e-16
-1.09431248e-16
-1.12672775e-16
-1.1445345e-16
-1.14692921e-16
-1.17170254e-16
-1.16787296e-16
-1.16463804e-16
-1.18589271e-16
-1.18167529e-16
-1.20921578e-16
-1.21154589e-16
-1.17084549e-16
-1.17193901e-16
-1.17447669e-16
-1.16701279e-16
-1.14444375e-16
-1.14431114e-16
-1.12482168e-16
-1.10994529e-16
-1.15585687e-16
-1.13094309e-16
-1.18183164e-16
-1.17523122e-16
-1.1992287e-16
-1.19386474e-16
-1.20314088e-16
-1.2094408e-16
-1.19883469e-16
-1.23272271e-16
-1.22628112e-16
-1.23457012e-16
-1.22613286e-16
-1.21501977e-16
-1.21875414e-16
-1.23223602e-16
-1.24261412e-16
-1.25228607e-16
-1.23306744e-16
-1.22731129e-16
-1.20858849e-16
-1.2352676e-16
-1.25320897e-16
-1.25617113e-16
-1.24305317e-16
-1.25522853e-16
-1.25625527e-16
-1.23638446e-16
-1.21308612e-16
-1.20974456e-16
-1.19998017e-16
-1.21527225e-16
-1.20145435e-16
-1.21256952e-16
-1.2326912e-16
-1.22781174e-16
-1.21895261e-16
-1.23542226e-16
-1.22263994e-16
-1.21508569e-16
-1.18469982e-16
-1.21136775e-16
-1.20586383e-16
-1.20401024e-16
-1.20275932e-16
-1.20772868e-16
-1.21589614e-16
-1.22067655e-16
-1.21172166e-16
-1.18579522e-16
-1.15098748e-16
-1.15466335e-16
-1.16661495e-16
-1.12753432e-16
-1.1511527e-16
-1.15739246e-16
-1.16488171e-16
-1.16199655e-16
-1.17460965e-16
-1.14679857e-16
-1.13195527e-16
-1.14127003e-16
-1.13433826e-16
-1.16957854e-16
-1.17151212e-16
-1.17893532e-16
-1.1508128e-16
-1.14493142e-16
-1.15872487e-16
-1.16810496e-16
-1.16122842e-16
-1.15425764e-16
-1.15872369e-16
-1.21064236e-16
-1.2442826e-16
-1.23909358e-16
-1.22899812e-16
-1.20034051e-16
-1.18839771e-16
-1.20929925e-16
-1.190706e-16
-1.18852345e-16
-1.2039932e-16
-1.19310516e-16
-1.16264886e-16
-1.17791264e-16
-1.15906903e-16
-1.15816515e-16
-1.12127373e-16
-1.13761557e-16
-1.15571721e-16
-1.13296261e-16
-1.10148802e-16
-1.11771416e-16
-1.12737783e-16
-1.15211014e-16
-1.14660753e-16
-1.13671991e-16
-1.13006829e-16
-1.1102138e-16
-1.08767102e-16
-1.07786891e-16
-1.06475525e-16
-1.07133955e-16
-1.08122149e-16
-1.0725255e-16
-1.05191128e-16
-1.06775547e-16
-1.06524685e-16
-1.03356275e-16
-1.04598011e-16
-1.05259268e-16
-1.03088149e-16
-1.06748352e-16
-1.04785209e-16
-9.94970084e-17
-1.00179061e-16
-1.01728847e-16
-9.98379379e-17
-1.00175965e-16
-1.00168847e-16
-1.00385399e-16
-9.88490304e-17
-1.0004323e-16
-9.96566558e-17
-9.56839119e-17
-9.69091734e-17
-9.46944007e-17
-9.39821661e-17
-9.43093758e-17
-9.64184084e-17
-9.21712384e-17
-9.20460374e-17
-9.1081401e-17
-9.16346901e-17
-9.36281972e-17
-9.31904845e-17
-8.83686931e-17
-8.54058187e-17
-8.6515461e-17
-8.87764114e-17
-8.60769322e-17
-8.5239962e-17
-8.5732711e-17
-8.379218e-17
-8.29425897e-17
-8.16449613e-17
-8.01389963e-17
-7.9117668e-17
-7.73963497e-17
-7.95706819e-17
-7.88321114e-17
-8.22368427e-17
-8.03394933e-17
-7.91060507e-17
-7.83631749e-17
-8.00724547e-17
-7.86981546e-17
-7.93981901e-17
-7.59616689e-17
-7.17026523e-17
-7.44319114e-17
-7.69030555e-17
-7.71323851e-17
-7.55203102e-17
-7.53124353e-17
-7.60836326e-17
-7.61734289e-17
-7.53674744e-17
-7.45973554e-17
-7.30721244e-17
-7.1368298e-17
-6.59726852e-17
-6.82643146e-17
-6.8991011e-17
-6.63345088e-17
-6.54612089e-17
-6.22281764e-17
-6.08585023e-17
-6.22418793e-17
-5.99984777e-17
-5.98443558e-17
-6.11171258e-17
-6.25465146e-17
-6.02585489e-17
-6.4541975e-17
-6.11853493e-17
-6.03960205e-17
-5.79427816e-17
-5.91683895e-17
-5.53603395e-17
-5.73840341e-17
-5.5990441e-17
-6.01870183e-17
-5.78036759e-17
-5.639282e-17
-5.5159701e-17
-5.52255706e-17
-5.36079309e-17
-5.32857726e-17
-5.31113201e-17
-5.36014852e-17
-5.44131548e-17
-5.41947455e-17
-5.62153215e-17
-5.68111446e-17
-5.70410557e-17
-5.4291698e-17
-5.33142156e-17
-5.56462235e-17
-5.26897644e-17
-5.132943e-17
-5.19716816e-17
-5.06127525e-17
-4.98452283e-17
-5.20470734e-17
-4.90877628e-17
-4.48298221e-17
-4.83535685e-17
-4.71772728e-17
-4.38407379e-17
-4.47083253e-17
-4.29041751e-17
-4.49898888e-17
-4.71306498e-17
-4.38914764e-17
-4.33909791e-17
-4.3755301e-17
-3.88940633e-17
-3.97205259e-17
-3.83650225e-17
-3.69377932e-17
-3.34849348e-17
-3.70357579e-17
-3.54051274e-17
-3.60169096e-17
-3.55560233e-17
-3.39427319e-17
-3.29441384e-17
-3.19025269e-17
-3.46662192e-17
-3.63233635e-17
-3.66269419e-17
-3.79575547e-17
-3.67553456e-17
-3.41229525e-17
-3.59698415e-17
-3.41803856e-17
-3.38478058e-17
-3.01237313e-17
-2.82214757e-17
-2.74285294e-17
-2.68422634e-17
-2.76931906e-17
-2.51342317e-17
-2.68159103e-17
-2.36112351e-17
-2.8497552e-17
-3.04027771e-17
-3.07983868e-17
-2.74428202e-17
-2.93332135e-17
-2.76518016e-17
-2.85808281e-17
-2.70914714e-17
-2.7574239e-17
-2.8109741e-17
-2.88979595e-17
-2.68693508e-17
-2.83251185e-17
-2.70051106e-17
-2.26871747e-17
-2.15646061e-17
-2.08434051e-17
-2.17470034e-17
-2.14595856e-17
-2.36500933e-17
-2.19470324e-17
-2.20670595e-17
-1.72851308e-17
-1.88879944e-17
-1.56198855e-17
-1.3572605e-17
-1.31383169e-17
-1.21051872e-17
-1.27821419e-17
-1.39775066e-17
-1.60851088e-17
-1.4156448e-17
-1.1822234e-17
-1.03205446e-17
-7.77116027e-18
-8.09407955e-18
-6.68744356e-18
-9.83602665e-18
-5.3215985e-18
-5.39860783e-18
-5.568432e-18
-5.29974138e-18
-4.64659347e-18
-3.09400518e-18
-4.65449286e-18
-7.93068066e-18
-7.67337127e-18
-6.78398075e-18
-4.56590522e-18
-5.15742465e-18
-4.2030497e-18
-6.44669314e-18
-6.71557129e-18
-6.26036794e-18
-1.85321812e-18
-1.62621598e-18
-3.54976942e-18
-5.53817434e-18
-2.20140856e-18
-1.04429988e-18
-1.27676151e-18
-8.35031527e-19
-4.6017818e-18
-8.48181283e-18
-7.41895701e-18
-4.67984647e-18
-4.32857943e-18
2.53881214e-19
1.0957813e-18
1.25263358e-18
1.13558552e-19
2.10473901e-18
1.21745444e-18
2.55016798e-18
3.80309905e-18
3.06132388e-18
4.97396432e-18
2.92627505e-18
4.26646077e-18
4.27712631e-18
4.42405572e-18
5.51644957e-18
7.74500553e-18
1.12399892e-17
1.35908536e-17
1.2135366e-17
1.37580008e-17
1.60013263e-17
1.65333571e-17
1.5449662e-17
1.66309824e-17
1.45239475e-17
1.47831771e-17
1.857751e-17
1.92235883e-17
1.55375311e-17
1.88039176e-17
1.52764795e-17
1.5444608e-17
1.53667022e-17
1.46006262e-17
1.51645285e-17
1.90008125e-17
1.84378507e-17
1.99967812e-17
2.167178e-17
1.68685211e-17
1.74837229e-17
1.72955977e-17
1.65018738e-17
1.55674997e-17
1.5008078e-17
1.40796317e-17
1.66357156e-17
1.33885488e-17
1.45652988e-17
1.27354427e-17
1.26736319e-17
1.71946358e-17
2.04000837e-17
2.12948931e-17
2.30851766e-17
2.55202576e-17
2.3003481e-17
2.47850154e-17
2.51100413e-17
2.63458338e-17
2.39091631e-17
2.43333911e-17
2.49286407e-17
2.85850439e-17
2.60271641e-17
3.1393079e-17
3.16608341e-17
3.69444938e-17
3.68788356e-17
3.91422464e-17
4.34160496e-17
4.0890661e-17
4.43232352e-17
4.57553806e-17
4.7182641e-17
5.12612627e-17
4.82320022e-17
4.86355162e-17
4.88427017e-17
4.79378777e-17
4.93558523e-17
5.04180769e-17
4.95604703e-17
5.07133543e-17
4.99148494e-17
4.77792284e-17
4.40397854e-17
4.73196471e-17
4.67445519e-17
4.68371649e-17
4.79943864e-17
4.75453374e-17
4.84044638e-17
4.89749399e-17
4.97365137e-17
5.10536541e-17
5.22544577e-17
5.22807506e-17
5.44935186e-17
5.33908147e-17
5.46795763e-17
5.66412003e-17
5.74590024e-17
5.76290704e-17
5.98493747e-17
6.00449885e-17
6.08343957e-17
6.27620118e-17
6.25907746e-17
5.98234063e-17
5.90125405e-17
6.14066145e-17
6.18999877e-17
6.30807447e-17
6.14527037e-17
6.27035932e-17
6.00087925e-17
6.00718579e-17
5.92379254e-17
5.90435585e-17
6.00921087e-17
6.11083399e-17
5.95171856e-17
5.90472419e-17
5.79160332e-17
6.23064398e-17
6.0350581e-17
5.89250118e-17
5.88066141e-17
5.93199395e-17
5.8565135e-17
5.77730546e-17
5.91631248e-17
6.08722967e-17
5.98126244e-17
5.74435684e-17
6.04881675e-17
6.1189675e-17
6.40326298e-17
6.49519941e-17
6.25799656e-17
6.34611702e-17
6.56335385e-17
6.44621255e-17
6.28313365e-17
6.22946129e-17
6.24675654e-17
6.16928368e-17
6.4279466e-17
6.06762134e-17
6.39839246e-17
6.5790659e-17
6.43468521e-17
6.49575322e-17
6.67477064e-17
6.43191517e-17
6.37053859e-17
6.45103296e-17
6.5038881e-17
6.64654619e-17
6.45055659e-17
6.37206339e-17
6.34359974e-17
6.20957375e-17
6.08985571e-17
6.37617474e-17
6.66590487e-17
6.50427615e-17
6.42953776e-17
6.70419684e-17
6.62379653e-17
6.57272861e-17
6.48491166e-17
6.47942864e-17
6.58947924e-17
6.32324593e-17
6.27703468e-17
6.49228773e-17
6.13001098e-17
6.14058468e-17
6.85814597e-17
6.64547635e-17
6.82777713e-17
6.7438135e-17
6.99918605e-17
6.52219953e-17
7.18241957e-17
6.78623383e-17
6.59155769e-17
6.90349208e-17
7.28574511e-17
7.02806013e-17
7.50606803e-17
7.28218519e-17
7.08129821e-17
7.34960044e-17
7.11047943e-17
7.01272046e-17
7.12954403e-17
6.96301923e-17
7.09665092e-17
7.23718519e-17
7.44247836e-17
7.5648094e-17
7.8483584e-17
7.99750767e-17
7.90655428e-17
8.11703701e-17
8.11033879e-17
7.89095079e-17
7.64187433e-17
7.78957273e-17
7.6407781e-17
7.31981871e-17
7.56734934e-17
7.25342313e-17
7.31177687e-17
7.39671833e-17
6.95498607e-17
6.98666586e-17
6.83317258e-17
6.84865354e-17
7.29325718e-17
7.20621612e-17
6.98024221e-17
6.88341257e-17
6.98599137e-17
6.9277016e-17
6.98142123e-17
7.02729562e-17
6.55988309e-17
6.60755668e-17
6.60694593e-17
6.79110288e-17
6.95283001e-17
6.48873051e-17
6.9403257e-17
6.35511956e-17
6.55109951e-17
6.29288629e-17
6.17922975e-17
5.94164563e-17
5.83385974e-17
6.17741949e-17
6.07863629e-17
6.4779164e-17
6.50040701e-17
6.36840881e-17
5.97873263e-17
5.85424658e-17
5.916792e-17
5.84467643e-17
5.91400599e-17
5.67093223e-17
5.55650343e-17
5.48533937e-17
5.31924747e-17
5.57247108e-17
5.42251438e-17
5.77089664e-17
5.69371541e-17
5.49309073e-17
5.53340358e-17
5.89930812e-17
5.82240236e-17
5.51970937e-17
5.74887547e-17
5.78523894e-17
6.03486463e-17
5.79393285e-17
5.90430548e-17
6.09739344e-17
6.48683636e-17
6.21958566e-17
5.96179904e-17
6.05081368e-17
6.04268752e-17
6.030985e-17
6.01357375e-17
5.93631149e-17
6.08184109e-17
6.17495787e-17
6.06055975e-17
5.93116723e-17
5.41236634e-17
5.61175762e-17
5.73232854e-17
5.75236849e-17
5.92771992e-17
5.96339602e-17
5.97930635e-17
6.06387301e-17
6.25658759e-17
6.36847226e-17
5.87441146e-17
5.70543941e-17
6.02515598e-17
6.20329278e-17
6.25652201e-17
5.9709425e-17
6.08332974e-17
6.36120374e-17
6.38985578e-17
6.42567741e-17
6.44426706e-17
6.55640409e-17
6.56140433e-17
6.62260336e-17
6.84008075e-17
6.77652777e-17
6.53224422e-17
6.44674284e-17
6.37883915e-17
6.18848564e-17
6.26250886e-17
6.36781829e-17
6.11296561e-17
6.35133849e-17
6.75232384e-17
6.80448996e-17
6.82064303e-17
6.75183076e-17
6.86185187e-17
7.05935618e-17
7.12547112e-17
6.8680176e-17
6.86812194e-17
6.47882948e-17
6.50293961e-17
6.47393457e-17
6.4355608e-17
6.10897725e-17
5.9144746e-17
5.72941453e-17
5.62891643e-17
5.65240135e-17
5.53191085e-17
5.71430262e-17
5.25405488e-17
5.42808592e-17
5.70836514e-17
5.66516526e-17
5.32152517e-17
5.47560732e-17
5.76946587e-17
5.60259225e-17
5.79929738e-17
5.78251508e-17
5.76386672e-17
5.74740122e-17
5.96062427e-17
6.16989337e-17
6.02927871e-17
5.96145434e-17
5.90672182e-17
6.15568189e-17
5.8509073e-17
6.05332289e-17
5.96391991e-17
5.80447945e-17
5.72649736e-17
5.82032336e-17
5.63547226e-17
5.93210994e-17
5.72168894e-17
5.9840448e-17
5.79108281e-17
5.59109619e-17
5.86189439e-17
5.57591095e-17
5.65066525e-17
5.51903132e-17
5.29613624e-17
5.30983956e-17
5.52958394e-17
5.54141419e-17
5.50263926e-17
5.87037778e-17
5.51160094e-17
5.22978243e-17
5.34052235e-17
5.16950366e-17
5.527643e-17
5.09823445e-17
5.03898407e-17
4.64913386e-17
4.85101844e-17
4.75840385e-17
4.59930455e-17
4.90975672e-17
5.12302106e-17
4.97869641e-17
4.8288408e-17
4.6952514e-17
4.58538776e-17
4.64911085e-17
4.52737537e-17
4.72801473e-17
4.77664818e-17
4.75894787e-17
4.77238559e-17
4.62321002e-17
4.49415497e-17
4.53136183e-17
4.24627599e-17
4.18264276e-17
4.45124943e-17
4.47720686e-17
4.17070193e-17
4.03475755e-17
4.14526134e-17
3.99016405e-17
3.76698586e-17
3.21171277e-17
3.26539277e-17
2.79899606e-17
2.97161014e-17
2.66696541e-17
2.67607823e-17
2.79267048e-17
2.98208633e-17
2.64129129e-17
2.85191981e-17
2.73881439e-17
2.97434962e-17
2.82642491e-17
2.51513045e-17
2.64776904e-17
2.64904498e-17
2.44795314e-17
2.4030478e-17
2.22680355e-17
2.60381723e-17
2.49406591e-17
2.56808029e-17
2.52331655e-17
2.06540957e-17
2.33964054e-17
2.0634739e-17
2.13906028e-17
2.33526235e-17
2.51822376e-17
2.17249911e-17
1.91450469e-17
1.99618722e-17
1.87689909e-17
1.97129802e-17
1.94702116e-17
2.09214397e-17
2.49712677e-17
2.68165721e-17
2.45592685e-17
2.59524173e-17
2.70217918e-17
2.60225792e-17
2.52763205e-17
2.28179572e-17
2.39115968e-17
2.67170419e-17
2.81019802e-17
2.67803352e-17
2.64720114e-17
2.70830982e-17
2.55399042e-17
2.46959989e-17
2.79537614e-17
2.81441838e-17
2.52517344e-17
2.38797528e-17
2.33862731e-17
2.1295354e-17
2.08244813e-17
2.01885755e-17
1.80692324e-17
1.5739556e-17
1.68551726e-17
1.3045486e-17
1.4459861e-17
1.32655225e-17
1.4189008e-17
1.41718416e-17
1.11551738e-17
1.40269074e-17
1.38778838e-17
1.22448973e-17
1.2018149e-17
1.10209761e-17
8.59070116e-18
9.54827916e-18
8.10501011e-18
7.91591615e-18
6.44006799e-18
6.42441921e-18
5.11257354e-18
3.9667341e-19
1.63380755e-18
-2.67197498e-18
-2.32166179e-18
-3.20817375e-18
-4.88166334e-18
-3.25000576e-18
-3.58126982e-18
-1.90172148e-18
-5.71475646e-18
-5.70451834e-18
-2.76024082e-18
-4.64668206e-18
-6.9917155e-18
-4.45095512e-18
-7.00364476e-18
-1.12031428e-17
-9.52199768e-18
-6.46116724e-18
-8.25215968e-18
-1.06424835e-17
-9.59471733e-18
-6.91756561e-18
-9.71892429e-18
-1.11267396e-17
-1.24034217e-17
-1.54784855e-17
-1.92749365e-17
-1.94949477e-17
-1.65213774e-17
-1.78826718e-17
-1.7879762e-17
-1.54084507e-17
-1.76193911e-17
-1.60361065e-17
-1.6988466e-17
-1.83544847e-17
-2.10095257e-17
-2.01653514e-17
-2.25270541e-17
-1.95390603e-17
-1.93803959e-17
-1.95371417e-17
-2.06462541e-17
-2.07615087e-17
-2.12979269e-17
-2.38326472e-17
-2.06805466e-17
-2.14643498e-17
-2.26718357e-17
-2.41928237e-17
-3.04983756e-17
-3.05522093e-17
-3.06194437e-17
-3.35899611e-17
-3.04064157e-17
-3.19485919e-17
-3.20763803e-17
-3.24229288e-17
-3.4169096e-17
-3.2560598e-17
-3.09337007e-17
-3.28511615e-17
-3.14757418e-17
-3.3150716e-17
-3.4042044e-17
-3.45244273e-17
-3.92447855e-17
-3.96478584e-17
-4.1027056e-17
-4.15299121e-17
-4.31184082e-17
-4.48087265e-17
-4.20442219e-17
-4.22667638e-17
-4.64878141e-17
-4.65741468e-17
-4.86804982e-17
-4.91867815e-17
-5.26312965e-17
-5.46803215e-17
-5.06350552e-17
-5.33154465e-17
-5.47194182e-17
-5.17595683e-17
-5.63774016e-17
-5.83173162e-17
-5.59063964e-17
-5.60765495e-17
-5.6125023e-17
-5.61814449e-17
-5.56034295e-17
-5.55369919e-17
-6.23212437e-17
-6.52539623e-17
-6.04280567e-17
-6.11855261e-17
-6.37491098e-17
-6.07712482e-17
-6.20300817e-17
-6.56337044e-17
-6.56875007e-17
-6.57750554e-17
-6.41690552e-17
-6.35571027e-17
-6.29706479e-17
-6.36022295e-17
-6.16610125e-17
-6.21444262e-17
-6.07508273e-17
-6.01254955e-17
-5.83977123e-17
-5.84018035e-17
-5.96260796e-17
-6.01568253e-17
-6.32829e-17
-6.4048693e-17
-6.51829374e-17
-6.61541556e-17
-6.61087951e-17
-6.55057273e-17
-6.96401019e-17
-6.72944186e-17
-6.36081409e-17
-6.49565669e-17
-6.93827886e-17
-6.70602114e-17
-6.71237846e-17
-6.75703661e-17
-6.86428325e-17
-6.83301118e-17
-6.37147184e-17
-6.34773306e-17
-6.21845346e-17
-6.70478669e-17
-6.54415324e-17
-6.52001678e-17
-6.80268272e-17
-6.79250745e-17
-6.8661488e-17
-6.78045657e-17
-6.86747999e-17
-6.81580789e-17
-6.58380567e-17
-6.55798931e-17
-6.74214977e-17
-6.95668724e-17
-7.17187432e-17
-7.4842309e-17
-7.3076869e-17
-7.59508448e-17
-7.34111369e-17
-7.45521219e-17
-7.65092545e-17
-7.44354738e-17
-7.13511246e-17
-7.17015525e-17
-7.12033643e-17
-7.590512e-17
-7.55428229e-17
-7.48320013e-17
-7.28674349e-17
-7.38946005e-17
-7.34827474e-17
-7.31826657e-17
-7.34417074e-17
-7.7121793e-17
-7.82973286e-17
-7.68980308e-17
-7.69825284e-17
-7.62170899e-17
-7.66417691e-17
-7.73568742e-17
-7.79619374e-17
-7.94077817e-17
-8.13403193e-17
-7.72842496e-17
-7.7108774e-17
-7.63131411e-17
-7.61919262e-17
-7.56135687e-17
-7.54461408e-17
-7.54908267e-17
-7.43144394e-17
-7.56827644e-17
-7.70393094e-17
-7.78479504e-17
-7.85549811e-17
-7.95605819e-17
-7.78068631e-17
-7.8217619e-17
-7.98351875e-17
-8.09603131e-17
-8.03114474e-17
-8.18691537e-17
-8.15704795e-17
-8.09473348e-17
-8.13489534e-17
-8.0142504e-17
-8.15547157e-17
-8.13137537e-17
-8.2067774e-17
-8.25308048e-17
-8.13219061e-17
-8.23203119e-17
-7.80181874e-17
-7.83454973e-17
-7.73773343e-17
-7.45109613e-17
-7.68122745e-17
-7.5267541e-17
-7.81974556e-17
-7.88995591e-17
-7.95451118e-17
-7.67381834e-17
-7.92393577e-17
-7.81515497e-17
-7.32617144e-17
-7.47812071e-17
-7.43433389e-17
-7.42861037e-17
-7.35628652e-17
-7.47408447e-17
-7.20525175e-17
-7.11736879e-17
-6.91439092e-17
-7.00339631e-17
-7.2225715e-17
-6.9558407e-17
-7.22978246e-17
-6.92637175e-17
-7.00476874e-17
-7.2588789e-17
-7.43891697e-17
-7.18139503e-17
-7.16561572e-17
-6.96515094e-17
-6.8062543e-17
-6.94195915e-17
-6.77978126e-17
-6.63210796e-17
-6.59882324e-17
-6.76496918e-17
-6.60051676e-17
-6.65338448e-17
-6.49393432e-17
-6.453073e-17
-6.31992776e-17
-6.46114632e-17
-6.49463755e-17
-6.66310375e-17
-6.7681049e-17
-6.63648164e-17
-6.36925367e-17
-6.3388393e-17
-6.3321314e-17
-6.25234658e-17
-6.16432149e-17
-6.04221613e-17
-6.09223871e-17
-6.01437435e-17
-6.51508603e-17
-6.23252696e-17
-6.16557534e-17
-6.3209423e-17
-6.04918523e-17
-5.85461613e-17
-5.86571088e-17
-5.6268991e-17
-5.40545983e-17
-5.4304643e-17
-5.69177143e-17
-5.59200577e-17
-5.60335614e-17
-5.95675105e-17
-5.93528885e-17
-5.63944525e-17
-5.7047134e-17
-5.83875406e-17
-5.99241057e-17
-6.02478832e-17
-6.07855575e-17
-6.2368903e-17
-6.04434276e-17
-5.87761271e-17
-5.85884078e-17
-6.41254876e-17
-6.34301696e-17
-6.41918759e-17
-6.33926256e-17
-5.92693331e-17
-6.00947943e-17
-6.21122172e-17
-6.46967097e-17
-6.44896594e-17
-6.50811658e-17
-6.64178458e-17
-6.99057652e-17
-6.96000167e-17
-6.77065327e-17
-6.9368011e-17
-6.95087622e-17
-6.91873357e-17
-6.83429417e-17
-7.14811969e-17
-7.40329688e-17
-7.3017075e-17
-6.99658685e-17
-7.2483425e-17
-7.29193426e-17
-7.49819875e-17
-7.38339915e-17
-7.58600053e-17
-7.65083216e-17
-7.82636153e-17
-7.59083302e-17
-7.32406203e-17
-7.22740093e-17
-6.95315514e-17
-7.19981087e-17
-7.03294045e-17
-6.97716671e-17
-7.12646568e-17
-7.23970056e-17
-7.18790443e-17
-7.21390436e-17
-7.36395233e-17
-7.69732359e-17
-7.56835851e-17
-7.46640633e-17
-7.32157556e-17
-7.44006766e-17
-7.3969587e-17
-7.54527709e-17
-7.23265685e-17
-7.10050407e-17
-7.15570997e-17
-7.12222516e-17
-6.61820547e-17
-6.58198387e-17
-6.74501218e-17
-6.54823883e-17
-6.53210786e-17
-6.57583629e-17
-6.96974857e-17
-6.82613277e-17
-6.94842352e-17
-6.63201643e-17
-6.93655169e-17
-6.59095341e-17
-6.58801355e-17
-6.68407943e-17
-6.21685545e-17
-6.48132688e-17
-6.59514752e-17
-6.33929623e-17
-6.67291207e-17
-6.40996842e-17
-6.26489857e-17
-6.40577252e-17
-6.27936429e-17
-6.47310378e-17
-6.50367693e-17
-6.21438351e-17
-6.42836371e-17
-6.14177301e-17
-6.00472601e-17
-5.76044487e-17
-5.54948547e-17
-5.40910996e-17
-5.57552066e-17
-5.15683171e-17
-4.82362894e-17
-4.98519811e-17
-4.86529756e-17
-4.74544676e-17
-4.4212013e-17
-4.67065603e-17
-4.9651049e-17
-4.47313656e-17
-4.89903928e-17
-4.64299433e-17
-4.73728417e-17
-5.11696225e-17
-4.99119537e-17
-5.12797728e-17
-4.61312856e-17
-4.85919492e-17
-5.15586306e-17
-5.06493628e-17
-5.04331174e-17
-4.94633965e-17
-4.83708453e-17
-5.28918874e-17
-4.87720672e-17
-4.58448311e-17
-4.37161725e-17
-4.01241261e-17
-4.24397571e-17
-4.36096661e-17
-4.36154535e-17
-4.277126e-17
-4.29759375e-17
-4.28993715e-17
-4.08484855e-17
-3.73009303e-17
-3.7492818e-17
-3.52608222e-17
-3.16264207e-17
-3.50104796e-17
-3.17705161e-17
-3.28659843e-17
-3.17096959e-17
-2.70775764e-17
-2.67298431e-17
-2.73553794e-17
-2.68476063e-17
-2.69232321e-17
-2.32373841e-17
-2.53060081e-17
-2.33889445e-17
-2.30371399e-17
-2.16538042e-17
-2.03504954e-17
-1.90401334e-17
-1.92775124e-17
-1.82181466e-17
-2.18998249e-17
-2.14386922e-17
-2.03048446e-17
-1.86438589e-17
-1.80891195e-17
-1.66981446e-17
-1.58550451e-17
-1.69613105e-17
-1.82568311e-17
-1.54271508e-17
-1.46130495e-17
-1.28817669e-17
-1.2168541e-17
-1.42213982e-17
-1.21547835e-17
-1.05469359e-17
-1.52765302e-17
-1.84784233e-17
-1.91413244e-17
-2.00388923e-17
-1.93892448e-17
-1.87044025e-17
-1.77204183e-17
-1.64999746e-17
-1.79034092e-17
-1.61429986e-17
-1.40640875e-17
-1.43227114e-17
-1.40452071e-17
-1.38670389e-17
-1.41479735e-17
-1.04052266e-17
-9.66865566e-18
-1.17877767e-17
-1.07422436e-17
-1.09878459e-17
-1.0951702e-17
-1.1510401e-17
-9.84334039e-18
-7.49440161e-18
-8.59736129e-18
-8.61974685e-18
-9.07157068e-18
-1.02568668e-17
-6.87560491e-18
-9.38395676e-18
-9.48458599e-18
-7.28988774e-18
-8.0243857e-18
-9.22393455e-18
-9.05118051e-18
-9.69723268e-18
-8.12859512e-18
-8.05340471e-18
-6.54936815e-18
-1.07002674e-17
-5.38821467e-18
-4.33613256e-18
-8.82100262e-18
-6.78737167e-18
-3.94655008e-18
-1.08634354e-18
1.06616968e-18
1.39214771e-18
2.2864747e-18
3.91256989e-18
2.28942807e-18
2.75439596e-18
5.4221405e-18
6.8955264e-18
3.2963797e-18
4.02958966e-18
3.93112405e-18
4.02957863e-18
1.72388472e-18
9.60160751e-19
2.84023416e-18
3.89688363e-18
6.26887059e-18
9.56269406e-18
9.94458787e-18
1.17217241e-17
1.46101699e-17
1.12768341e-17
1.01568394e-17
1.11188236e-17
1.31613258e-17
1.61074936e-17
1.92519254e-17
1.75835583e-17
1.90908834e-17
1.75915312e-17
1.36539691e-17
1.33344807e-17
1.73377729e-17
1.67755105e-17
1.90035843e-17
1.70771528e-17
1.96896481e-17
2.08635013e-17
2.00057236e-17
2.34598543e-17
2.53624361e-17
2.29803536e-17
2.30589182e-17
2.67239431e-17
2.71281582e-17
2.89613873e-17
2.67047442e-17
2.8454528e-17
2.87985706e-17
3.18407362e-17
3.5129227e-17
3.61217388e-17
3.49271312e-17
3.52847297e-17
3.36834079e-17
3.8172879e-17
3.74933553e-17
3.96268033e-17
4.08328637e-17
4.34366818e-17
4.33279548e-17
4.90371712e-17
4.80420254e-17
5.16745527e-17
5.51126883e-17
5.94369637e-17
5.96577633e-17
6.379849e-17
6.82317947e-17
6.97154874e-17
7.36918557e-17
7.70323967e-17
7.84596529e-17
8.49966187e-17
9.06237929e-17
9.55220354e-17
1.03190489e-16
1.08301669e-16
1.15173923e-16
1.21595804e-16
1.29974409e-16
1.36338126e-16
1.41429407e-16
1.50238729e-16
1.5822812e-16
1.67147652e-16
1.78935774e-16
1.91571719e-16
2.05765479e-16
2.19477714e-16
2.37090199e-16
2.55098802e-16
2.73480866e-16
2.94787784e-16
3.13726929e-16
3.3430955e-16
3.57248918e-16
3.81636339e-16
4.11020672e-16
4.37205401e-16
4.68634434e-16
5.02096626e-16
5.39206461e-16
5.77065703e-16
6.20975467e-16
6.65038368e-16
7.13251753e-16
7.63404953e-16
8.20963237e-16
8.83479003e-16
9.46540825e-16
1.01856266e-15
1.0949387e-15
1.17706446e-15
1.26505894e-15
1.36163859e-15
1.46221435e-15
1.5697695e-15
1.68699762e-15
1.8132404e-15
1.94896494e-15
2.0940864e-15
2.25141053e-15
2.41748045e-15
2.59798644e-15
2.79803151e-15
3.00576233e-15
3.23524473e-15
3.47996691e-15
3.74404314e-15
4.02857347e-15
4.33168827e-15
4.66158023e-15
5.01384846e-15
5.39286579e-15
5.8023718e-15
6.24162776e-15
6.71235981e-15
7.21611305e-15
7.7582129e-15
8.34340953e-15
8.97230551e-15
9.6461947e-15
1.03730196e-14
1.11504307e-14
1.19858345e-14
1.28823986e-14
1.3848074e-14
1.4881009e-14
1.59931497e-14
1.718502e-14
1.84713185e-14
1.98448883e-14
2.13157272e-14
2.28990412e-14
2.45949273e-14
2.64159254e-14
2.83716214e-14
3.04659945e-14
3.27156598e-14
3.51223232e-14
3.77048622e-14
4.04756344e-14
4.34451416e-14
4.66252125e-14
5.00340371e-14
5.36887299e-14
5.76035607e-14
6.17980143e-14
6.62911834e-14
7.1102204e-14
7.62593341e-14
8.17781435e-14
8.76927788e-14
9.40243794e-14
1.00803702e-13
1.08057625e-13
1.15827756e-13
1.24136002e-13
1.3303589e-13
1.42552855e-13
1.52734959e-13
1.63623717e-13
1.75271312e-13
1.87732709e-13
2.01060238e-13
2.15308694e-13
2.30540316e-13
2.4682064e-13
2.64224622e-13
2.82822866e-13
3.02701116e-13
3.23937768e-13
3.46627021e-13
3.70863114e-13
3.96755168e-13
4.24401133e-13
4.5393045e-13
4.85457752e-13
5.19111386e-13
5.55044646e-13
5.93393752e-13
6.34321594e-13
6.78000327e-13
7.24599031e-13
7.7431914e-13
8.27345667e-13
8.83917591e-13
9.44244292e-13
1.00857106e-12
1.07715418e-12
1.15026838e-12
1.22820586e-12
1.31127554e-12
1.39979722e-12
1.49411935e-12
1.59461307e-12
1.70166537e-12
1.81569238e-12
1.93713762e-12
2.06645708e-12
2.20415017e-12
2.35074178e-12
2.50677923e-12
2.67285822e-12
2.84960516e-12
3.03767262e-12
3.23776475e-12
3.45062542e-12
3.67702833e-12
3.91781557e-12
4.1738685e-12
4.44610926e-12
4.73552759e-12
5.04317496e-12
5.37014395e-12
5.71761613e-12
6.08681714e-12
6.47906129e-12
6.89573063e-12
7.33828637e-12
7.80827171e-12
8.3073262e-12
8.8371653e-12
9.39962848e-12
9.99662968e-12
1.06302107e-11
1.13025221e-11
1.2015833e-11
1.27725432e-11
1.35751765e-11
1.44264127e-11
1.53290641e-11
1.62861062e-11
1.73006809e-11
1.83760867e-11
1.95158246e-11
2.07235648e-11
2.20031924e-11
2.33587897e-11
2.47946747e-11
2.63153854e-11
2.79256971e-11
2.96306564e-11
3.14355603e-11
3.33460071e-11
3.53678722e-11
3.75073451e-11
3.97709453e-11
4.21655278e-11
4.46983034e-11
4.73768599e-11
5.02091782e-11
5.32036393e-11
5.63690716e-11
5.97147395e-11
6.32503891e-11
6.69862509e-11
7.09330784e-11
7.51021749e-11
7.95053816e-11
8.41551664e-11
8.90645924e-11