/*--------------------------------*- C++ -*----------------------------------*\
| =========                 |                                                 |
| \\      /  F ield         | OpenFOAM: The Open Source CFD Toolbox           |
|  \\    /   O peration     | Version:  2206                                  |
|   \\  /    A nd           | Website:  www.openfoam.com                      |
|    \\/     M anipulation  |                                                 |
\*---------------------------------------------------------------------------*/
FoamFile
{
    version     2.0;
    format      ascii;
    arch        "LSB;label=32;scalar=64";
    class       volScalarField;
    location    "1.54e-05";
    object      sourcePV;
}
// * * * * * * * * * * * * * * * * * * * * * * * * * * * * * * * * * * * * * //

dimensions      [1 -3 -1 0 0 0 0];

internalField   nonuniform List<scalar> 
3183
(
0
0
0
0
0
0
0
0
0
0
0
0
0
0
0
0
0
0
0
0
0
0
0
0
0
0
0
0
0
0
0
0
0
0
0
0
0
0
0
0
0
0
0
0
0
0
0
0
0
0
0
0
0
0
0
0
0
0
0
0
0
0
0
0
0
0
0
0
0
0
0
0
0
0
0
0
0
0
0
0
0
0
0
0
0
0
0
0
0
0
0
0
0
0
0
0
0
0
0
0
0
0
0
0
0
0
0
0
0
0
0
0
0
0
0
0
0
0
0
0
0
0
0
0
0
0
0
0
0
0
0
0
0
0
0
0
0
0
0
0
0
0
0
0
0
0
0
0
0
0
0
0
0
0
0
0
0
0
0
0
0
0
0
0
0
0
0
0
0
0
0
0
0
0
0
0
0
0
0
0
0
0
0
0
0
0
0
0
0
0
0
0
0
0
0
0
0
0
0
0
0
0
0
0
0
0
0
0
0
0
0
0
0
0
0
0
0
0
0
0
0
0
0
0
0
0
0
0
0
0
0
0
0
0
0
0
0
0
0
0
0
0
0
0
0
0
0
0
0
0
0
0
0
0
0
0
0
0
0
0
0
0
0
0
0
0
0
0
0
0
0
0
0
0
0
0
0
0
0
0
0
0
0
0
0
0
0
0
0
0
0
0
0
0
0
0
0
0
0
0
0
0
0
0
0
0
0
0
0
0
0
0
0
0
0
0
0
0
0
0
0
0
0
0
0
0
0
0
0
0
0
0
0
0
0
0
0
0
0
0
0
0
0
0
0
0
0
0
0
0
0
0
0
0
0
0
0
0
0
0
0
0
0
0
0
0
0
0
0
0
0
0
0
0
0
0
0
0
0
0
0
0
0
0
0
0
0
0
0
0
0
0
0
0
0
0
0
0
0
0
0
0
0
0
0
0
0
0
0
0
0
0
0
0
0
0
0
0
0
0
0
0
0
0
0
0
0
0
0
0
0
0
0
0
0
0
0
0
0
0
0
0
0
0
0
0
0
0
0
0
0
0
0
0
0
0
0
0
0
0
0
0
0
0
0
0
0
0
0
0
0
0
0
0
0
0
0
0
0
0
0
0
0
0
0
0
0
0
0
0
0
0
0
0
0
0
0
0
0
0
0
0
0
0
0
0
0
0
0
0
0
0
0
0
0
0
0
0
0
0
0
0
0
0
0
0
0
0
0
0
0
0
0
0
0
0
0
0
0
0
0
0
0
0
0
0
0
0
0
0
0
0
0
0
0
0
0
0
0
0
0
0
0
0
0
0
0
0
0
0
0
0
0
0
0
0
0
0
0
0
0
0
0
0
0
0
0
0
0
0
0
0
0
0
0
0
0
0
0
0
0
0
0
0
0
0
0
0
0
0
0
0
0
0
0
0
0
0
0
0
0
0
0
0
0
0
0
0
0
0
0
0
0
0
0
0
0
0
0
0
0
0
0
0
0
0
0
0
0
0
0
0
0
0
0
0
0
0
0
0
0
0
0
0
0
0
0
0
0
0
0
0
0
0
0
0
0
0
0
0
0
0
0
0
0
0
0
0
0
0
0
0
0
0
0
0
0
0
0
0
0
0
0
0
0
0
0
0
0
0
0
0
0
0
0
0
0
0
0
0
0
0
0
0
0
0
0
0
0
0
0
0
0
0
0
0
0
0
0
0
0
0
0
0
0
0
0
0
0
0
0
0
0
0
0
0
0
0
0
0
0
0
0
0
0
0
0
0
0
0
0
0
0
0
0
0
0
0
0
0
0
0
0
0
0
0
0
0
0
0
0
0
0
0
0
0
0
0
0
0
0
0
0
0
0
0
0
0
0
0
0
0
0
0
0
0
0
0
0
0
0
0
0
0
0
0
0
0
0
0
0
0
0
0
0
0
0
0
0
0
0
0
0
0
0
0
0
0
0
0
0
0
0
0
0
0
0
0
0
0
0
0
0
0
0
0
0
0
0
0
0
0
0
0
0
0
0
0
0
0
0
0
0
0
0
0
0
0
0
0
0
0
0
0
0
0
0
0
0
0
0
0
0
0
0
0
0
0
0
0
0
0
0
0
0
0
0
0
0
0
0
0
0
0
0
0
0
0
0
0
0
0
0
0
0
0
0
0
0
0
0
0
0
0
0
0
0
0
0
0
0
0
0
0
0
0
0
0
0
0
0
0
0
0
0
0
0
0
0
0
0
0
0
0
0
0
0
0
0
0
0
0
0
0
0
0
0
0
0
0
0
0
0
0
0
0
0
0
0
0
0
0
0
0
0
0
0
0
0
0
0
0
0
0
0
0
0
0
0
0
0
0
0
0
0
0
0
0
0
0
0
0
0
0
0
0
0
0
0
0
0
0
0
0
0
0
0
0
0
0
0
0
0
0
0
0
0
0
0
0
0
0
0
0
0
0
0
0
0
0
0
0
0
0
0
0
0
0
0
0
0
0
0
0
0
0
0
0
0
0
0
0
0
0
0
0
0
0
0
0
0
0
0
0
0
0
0
0
0
0
0
0
0
0
0
0
0
0
0
0
0
0
0
0
0
0
0
0
0
0
0
0
0
0
0
0
0
0
0
0
0
0
0
0
0
0
0
0
0
0
0
0
0
0
0
0
0
0
0
0
0
0
0
0
0
0
0
0
0
0
0
0
0
0
0
0
0
0
0
0
0
0
0
0
0
0
0
0
0
0
0
0
0
0
0
0
0
0
0
0
0
0
0
0
0
0
0
0
0
0
0
0
0
0
0
0
0
0
0
0
0
0
0
0
0
0
0
0
0
0
0
0
0
0
0
0
0
0
0
0
0
0
0
0
0
0
0
0
0
0
0
0
0
0
0
0
0
0
0
0
0
0
0
0
0
0
0
0
0
0
0
0
0
0
0
0
0
0
0
0
0
0
0
0
0
0
0
0
0
0
0
0
0
0
0
0
0
0
0
0
0
0
0
0
0
0
0
0
0
0
0
0
0
0
0
0
0
0
0
0
0
0
0
0
0
0
0
0
0
0
0
0
0
0
0
0
0
0
0
0
0
0
0
0
0
0
0
0
0
0
0
0
0
0
0
0
0
0
0
0
0
0
0
0
0
0
0
0
0
0
0
0
0
0
0
0
0
0
0
0
0
0
0
0
0
0
0
0
0
0
0
0
0
0
0
0
0
0
0
0
0
0
0
0
0
0
0
0
0
0
0
0
0
0
0
0
0
0
0
0
0
0
0
0
0
0
0
0
0
0
0
0
0
0
0
0
0
0
0
0
0
0
0
0
0
0
0
0
0
0
0
0
0
0
0
0
0
0
0
0
0
0
0
0
0
0
0
0
0
0
0
0
0
0
0
0
0
0
0
0
0
0
0
0
0
0
0
0
0
0
0
0
0
0
0
0
0
0
0
0
0
0
0
0
0
0
0
0
0
0
0
0
0
0
0
0
0
0
0
0
0
0
0
0
0
0
0
0
0
0
0
0
0
0
0
0
0
0
0
0
0
0
0
0
0
0
0
0
0
0
0
0
0
0
0
0
0
0
0
0
0
0
0
0
0
0
0
0
0
0
0
0
0
0
0
0
0
0
0
0
0
0
0
0
0
0
0
0
0
0
0
0
0
0
0
0
0
0
0
0
0
0
0
0
0
0
0
0
0
0
0
0
0
0
0
0
0
0
0
0
0
0
0
0
0
0
0
0
0
0
0
0
0
0
0
0
0
0
0
0
0
0
0
0
0
0
0
0
0
0
0
0
0
0
0
0
0
0
0
0
0
0
0
0
0
0
0
0
0
0
0
0
0
0
0
0
0
0
0
0
0
0
0
0
0
0
0
0
0
0
0
0
0
0
0
0
0
0
0
0
0
0
0
0
0
0
0
0
0
0
0
0
0
0
0
0
0
0
0
0
0
0
0
0
0
0
0
0
0
0
0
0
0
0
0
0
0
0
0
0
0
0
0
0
0
0
0
0
0
0
0
0
0
0
0
0
0
0
0
0
0
0
0
0
0
0
0
0
0
0
0
0
0
0
0
0
0
0
0
0
0
0
0
0
0
0
0
0
0
0
0
0
0
0
0
0
0
0
0
0
0
0
0
0
0
0
0
0
0
0
0
0
0
0
0
0
0
0
0
0
0
0
0
0
0
0
0
0
0
0
0
0
0
0
0
0
0
0
0
0
0
0
0
0
0
0
0
0
0
0
0
0
0
0
0
0
0
0
0
0
0
0
0
0
0
0
0
0
0
0
0
0
0
0
0
0
0
0
0
0
0
0
0
0
0
0
0
0
0
0
0
0
0
0
0
0
0
0
0
0
0
0
0
0
0
0
0
0
0
0
0
0
0
0
0
0
0
0
0
0
0
0
0
0
0
0
0
0
0
0
0
0
0
0
0
0
0
0
0
0
0
0
0
0
0
0
0
0
0
0
0
0
0
0
0
0
0
0
0
0
0
0
0
0
0
0
0
0
0
0
0
0
0
0
0
0
0
0
0
0
0
0
0
0
0
0
0
0
0
0
0
0
0
0
0
0
0
0
0
0
0
0
0
0
0
0
0
0
0
0
0
0
0
0
0
0
0
0
0
0
0
0
0
0
0
0
0
0
0
0
0
0
0
0
0
0
0
0
0
0
0
0
0
0
0
0
0
0
0
0
0
0
0
0
0
0
0
0
0
0
0
0
0
0
0
0
0
0
0
0
0
0
0
0
0
0
0
0
0
0
0
0
0
0
0
0
0
0
0
0
0
0
0
0
0
0
0
0
0
0
0
0
0
0
0
0
0
0
0
0
0
0
0
0
0
0
0
0
0
0
0
0
0
0
0
0
0
0
0
0
0
0
0
0
0
0
0
0
0
0
0
0
0
0
0
0
0
0
0
0
0
0
0
0
0
0
0
0
0
0
0
0
0
0
0
0
0
0
0
0
0
0
0
0
0
0
0
0
0
0
0
0
0
0
0
0
0
0
0
0
0
0
0
0
0
0
0
0
0
0
0
0
0
0
0
0
0
0
0
0
0
0
0
0
0
0
0
0
0
0
0
0
0
0
0
0
0
0
0
0
0
0
0
0
0
0
0
0
0
0
0
0
0
0
0
0
0
0
0
0
0
0
0
0
0
0
0
0
0
0
0
0
0
0
0
0
0
0
0
0
0
0
0
0
0
0
0
0
0
0
0
0
0
0
0
0
0
0
0
0
0
0
0
0
0
0
0
0
0
0
0
0
0
0
0
0
0
0
0
0
0
0
0
0
0
0
0
0
0
0
0
0
0
0
0
0
0
0
0
0
0
0
0
0
0
0
0
0
0
0
0
0
0
0
0
0
0
0
0
0
0
0
0
0
0
0
0
0
0
0
0
8.12706967e-300
3.32914625e-300
4.81162932e-297
1.99983674e-297
2.81950315e-294
1.18864931e-294
1.63523173e-291
6.99074996e-292
9.38675677e-289
4.06833369e-289
5.33314992e-286
2.34277626e-286
2.99906313e-283
1.33501622e-283
1.66925168e-280
7.52822424e-281
9.19586199e-278
4.20062144e-278
5.01414252e-275
2.31965421e-275
2.70603186e-272
1.26766254e-272
1.44543554e-269
6.85321336e-270
7.6417165e-267
3.66839621e-267
3.9985769e-264
1.94302474e-264
2.07079673e-261
1.01879894e-261
1.06140542e-258
5.28319996e-259
5.38431492e-256
2.71114698e-256
2.70319633e-253
1.37673961e-253
1.34311914e-250
6.91811116e-251
6.6043834e-248
3.43996069e-248
3.21381535e-245
1.69255135e-245
1.54763919e-242
8.24031567e-243
7.37508506e-240
3.96962641e-240
3.47776584e-237
1.89211862e-237
1.62276708e-234
8.92335419e-235
7.4923875e-232
4.16366736e-232
3.42276561e-229
1.92210925e-229
1.54707269e-226
8.77847816e-227
6.91836833e-224
3.96628043e-224
3.06082016e-221
1.77277427e-221
1.33965781e-218
7.83810403e-219
5.80031528e-216
3.42796812e-216
2.48421761e-213
1.4828942e-213
1.05241144e-210
6.34467708e-211
4.40976893e-208
2.6848003e-208
1.82749323e-205
1.12355286e-205
7.48996067e-203
4.64974143e-203
3.03570848e-200
1.9027921e-200
1.21665954e-197
7.69933651e-198
4.82144236e-195
3.08024706e-195
1.88909125e-192
1.21830943e-192
7.31753346e-190
4.76362525e-190
2.80206827e-187
1.84116281e-187
1.06062016e-184
7.03374544e-185
3.96800025e-182
2.65573448e-182
1.46715531e-179
9.90942271e-180
5.36084733e-177
3.65374535e-177
1.93554137e-174
1.33110792e-174
6.90462618e-172
4.79104728e-172
2.43333465e-169
1.70351189e-169
8.47112131e-167
5.98288807e-167
2.91278812e-164
2.07529159e-164
9.89134585e-162
7.10885172e-162
3.31686577e-159
2.40446978e-159
1.09817563e-156
8.0294171e-157
3.58946943e-154
2.64689416e-154
1.15809477e-151
8.61227074e-152
3.68766729e-149
2.76544826e-149
1.15874809e-146
8.76225369e-147
3.59243749e-144
2.73905976e-144
1.09870917e-141
8.44603277e-142
3.31434074e-139
2.56860199e-139
9.85954631e-137
7.70296303e-137
2.89190058e-134
2.27749099e-134
8.36169553e-132
6.63759715e-132
2.38289155e-129
1.9064895e-129
6.69150449e-127
5.39557108e-127
1.85122641e-124
1.50427104e-124
5.04445327e-122
4.13049844e-122
1.35358527e-119
1.11677096e-119
3.57575354e-117
2.97237743e-117
9.29712247e-115
7.78592019e-115
2.37854783e-112
2.00661842e-112
5.98598178e-110
5.08681128e-110
1.48146353e-107
1.26801281e-107
3.60449345e-105
3.10716084e-105
8.61894592e-103
7.4821098e-103
2.02475513e-100
1.76992826e-100
4.67136129e-98
4.11151447e-98
1.0580422e-95
9.37556973e-96
2.35168056e-93
2.09782625e-93
5.12728284e-91
4.60398847e-91
1.09606802e-88
9.90600393e-89
2.29628496e-86
2.08861337e-86
4.71234489e-84
4.31317229e-84
9.46768034e-82
8.71938501e-82
1.86124579e-79
1.72457635e-79
3.5781692e-77
3.33525217e-77
6.7226739e-75
6.30304405e-75
1.23354907e-72
1.16320229e-72
2.2089897e-70
2.09474712e-70
3.85764347e-68
3.67829084e-68
6.56426845e-66
6.29276578e-66
1.08743967e-63
1.04793597e-63
1.75213923e-61
1.69712164e-61
2.74305666e-59
2.6701197e-59
4.16798602e-57
4.07666534e-57
6.13939987e-55
6.03266356e-55
8.75532136e-53
8.64095305e-53
1.20712677e-50
1.196207e-50
1.60657009e-48
1.59760388e-48
2.06053312e-46
2.05392479e-46
2.54206594e-44
2.53435564e-44
3.01045724e-42
2.99151742e-42
3.4145209e-40
3.36941174e-40
3.69975408e-38
3.62584148e-38
3.81856343e-36
3.81621693e-36
3.74110428e-34
3.72725928e-34
3.46800064e-32
3.44514837e-32
3.02836884e-30
3.00511248e-30
2.4789193e-28
2.46160141e-28
1.89131315e-26
1.87719761e-26
1.33598571e-24
1.31976438e-24
8.66739539e-23
8.66893498e-23
5.11222572e-21
5.10373642e-21
2.70940615e-19
2.70132003e-19
1.27006629e-17
1.26505011e-17
5.1595425e-16
5.13359155e-16
1.76662773e-14
1.75181021e-14
4.8983744e-13
4.88704066e-13
1.0323719e-11
1.03688465e-11
1.28797382e-08
1.29647893e-08
0.0996587264
0.399752624
7.8791334
9.13421295
8.3726454
7.42426458
2.43347615
1.9935808
0.37925183
0.333386545
0.0845651672
0.0769504593
0.0166355345
0.0157490972
0.00294396707
0.00289146668
0.000487697986
0.000486928656
8.07604964e-05
8.08202887e-05
1.81198968e-05
1.81146791e-05
9.16841203e-06
9.17118456e-06
7.98681311e-06
7.98666445e-06
7.8398684e-06
7.83986682e-06
7.82277661e-06
7.8227761e-06
7.82088117e-06
7.82089755e-06
7.82068207e-06
7.8207076e-06
7.82065844e-06
7.82069419e-06
7.82066308e-06
7.82066704e-06
7.82066781e-06
7.82065634e-06
7.82067479e-06
7.82066041e-06
7.82068118e-06
7.82066573e-06
7.82067737e-06
7.82066678e-06
7.82067778e-06
7.82067241e-06
7.820685e-06
7.82067188e-06
7.82068044e-06
7.82067321e-06
7.82067846e-06
7.82067592e-06
7.82067865e-06
7.82067616e-06
7.82067012e-06
7.82068891e-06
7.82066317e-06
7.82067755e-06
7.82067588e-06
7.82068105e-06
7.82066911e-06
7.82066354e-06
7.82067226e-06
7.82067185e-06
7.8206711e-06
7.82067564e-06
7.82066849e-06
7.82068332e-06
7.82066082e-06
7.8206686e-06
7.82066324e-06
7.82067968e-06
7.82066197e-06
7.82068043e-06
7.8206736e-06
7.82068168e-06
7.8206629e-06
7.82068617e-06
7.82066678e-06
7.82067433e-06
7.82067021e-06
7.8206785e-06
7.82067181e-06
7.82066293e-06
7.82068695e-06
7.82066421e-06
7.82068355e-06
7.82064672e-06
7.82069395e-06
7.82066133e-06
7.82068932e-06
7.82066665e-06
7.82068429e-06
7.82066724e-06
7.82067892e-06
7.82067975e-06
7.8206761e-06
7.82067999e-06
7.82067145e-06
7.82067605e-06
7.82067718e-06
7.82067594e-06
7.82067642e-06
7.82068049e-06
7.82067717e-06
7.82066956e-06
7.82067583e-06
7.82067648e-06
7.82066422e-06
7.82068065e-06
7.82067156e-06
7.8206663e-06
7.82067331e-06
7.82067255e-06
7.82066252e-06
7.82068161e-06
7.82066649e-06
7.82069002e-06
7.82065805e-06
7.82068887e-06
7.82065818e-06
7.82067777e-06
7.82067388e-06
7.82067675e-06
7.82066581e-06
7.8206904e-06
7.82067163e-06
7.82068653e-06
7.82068263e-06
7.82067659e-06
7.82068691e-06
7.82068578e-06
7.82067198e-06
7.82068909e-06
7.82067279e-06
7.82068279e-06
7.82067891e-06
7.82066799e-06
7.82067383e-06
7.82067937e-06
7.82065858e-06
7.82068478e-06
7.82066056e-06
7.82067826e-06
7.82066381e-06
7.82067508e-06
7.82068419e-06
7.82066274e-06
7.82068719e-06
7.82066701e-06
7.82068547e-06
7.82066878e-06
7.82068681e-06
7.82067558e-06
7.82068387e-06
7.82067005e-06
7.82067807e-06
7.82066859e-06
7.82070029e-06
7.82065854e-06
7.82069937e-06
7.82066228e-06
7.82070053e-06
7.82066724e-06
7.82068711e-06
7.82068189e-06
7.82067341e-06
7.82067411e-06
7.82066669e-06
7.82067115e-06
7.8206658e-06
7.82068169e-06
7.82066853e-06
7.82067732e-06
7.82068398e-06
7.82068084e-06
7.82068551e-06
7.82068301e-06
7.82068284e-06
7.82069213e-06
7.8206789e-06
7.8206937e-06
7.82067183e-06
7.82067292e-06
7.8206847e-06
7.82067696e-06
7.82068414e-06
7.82067613e-06
7.8206885e-06
7.82066907e-06
7.82068519e-06
7.82067638e-06
7.82068857e-06
7.82067308e-06
7.82067227e-06
7.82067554e-06
7.82068296e-06
7.82066764e-06
7.82070057e-06
7.82065942e-06
7.8206985e-06
7.82067092e-06
7.8206817e-06
7.82068266e-06
7.82067533e-06
7.82067922e-06
7.82069028e-06
7.82068492e-06
7.82068421e-06
7.82068432e-06
7.8206781e-06
7.82068618e-06
7.82068186e-06
7.82068592e-06
7.82067374e-06
7.82067811e-06
7.82067664e-06
7.82068498e-06
7.82067791e-06
7.82067981e-06
7.82068117e-06
7.82068583e-06
7.8206833e-06
7.82067533e-06
7.82070252e-06
7.82066694e-06
7.82068837e-06
7.82068712e-06
7.82067996e-06
7.82068764e-06
7.82067118e-06
7.82068968e-06
7.82067619e-06
7.82069426e-06
7.82067584e-06
7.82069421e-06
7.82067926e-06
7.82069043e-06
7.82068643e-06
7.8206993e-06
7.82066727e-06
7.82070653e-06
7.820663e-06
7.82069554e-06
7.82067431e-06
7.82067718e-06
7.82068814e-06
7.820663e-06
7.82069121e-06
7.82067452e-06
7.82068682e-06
7.82067572e-06
7.82069049e-06
7.82068305e-06
7.82067906e-06
7.82068718e-06
7.82068661e-06
7.82069044e-06
7.82068779e-06
7.82068045e-06
7.82068875e-06
7.8206812e-06
7.82069157e-06
7.82066635e-06
7.82068919e-06
7.82067374e-06
7.82068693e-06
7.82066511e-06
7.82069761e-06
7.82066849e-06
7.82068763e-06
7.82068418e-06
7.82068384e-06
7.82068967e-06
7.82067941e-06
7.82068752e-06
7.82068054e-06
7.82068252e-06
7.82068653e-06
7.82068111e-06
7.82067924e-06
7.82068618e-06
7.82067986e-06
7.82068195e-06
7.82068131e-06
7.82069142e-06
7.82067956e-06
7.82068739e-06
7.82068781e-06
7.8206783e-06
7.82069528e-06
7.82067271e-06
7.82067338e-06
7.82068777e-06
7.82067928e-06
7.82069404e-06
7.82069169e-06
7.82069161e-06
7.82068563e-06
7.82068712e-06
7.82069473e-06
7.82068748e-06
7.82068046e-06
7.82068902e-06
7.82068187e-06
7.82068051e-06
7.82067231e-06
7.82069184e-06
7.82067547e-06
7.82069721e-06
7.82067232e-06
7.82070119e-06
7.82068248e-06
7.82068625e-06
7.82069426e-06
7.82068486e-06
7.8206864e-06
7.82066819e-06
7.82070031e-06
7.82066594e-06
7.82070138e-06
7.8206689e-06
7.82070015e-06
7.82067805e-06
7.82067887e-06
7.82068857e-06
7.82068557e-06
7.8206904e-06
7.82068971e-06
7.82068528e-06
7.82068893e-06
7.82068562e-06
7.82067876e-06
7.82068733e-06
7.82068718e-06
7.8206946e-06
7.82067689e-06
7.82069032e-06
7.82068498e-06
7.82069504e-06
7.82068727e-06
7.82069542e-06
7.82068996e-06
7.82068705e-06
7.82068239e-06
7.82069415e-06
7.82069012e-06
7.82067727e-06
7.8207023e-06
7.82068498e-06
7.8206822e-06
7.82068668e-06
7.82068241e-06
7.82068313e-06
7.82069171e-06
7.82068255e-06
7.82069869e-06
7.82068671e-06
7.82068583e-06
7.82069127e-06
7.82068606e-06
7.82069106e-06
7.82068963e-06
7.82068804e-06
7.82068976e-06
7.82069004e-06
7.82069934e-06
7.82069456e-06
7.82069466e-06
7.82069694e-06
7.82069695e-06
7.82068617e-06
7.82070257e-06
7.82068241e-06
7.8206977e-06
7.82068372e-06
7.82069675e-06
7.820684e-06
7.82069215e-06
7.82068843e-06
7.82069048e-06
7.82068713e-06
7.82069141e-06
7.82069659e-06
7.82068011e-06
7.82069575e-06
7.82067518e-06
7.82069709e-06
7.82067706e-06
7.82069427e-06
7.82068363e-06
7.82069057e-06
7.82069171e-06
7.82068828e-06
7.82069507e-06
7.82069013e-06
7.8206937e-06
7.82068846e-06
7.82068956e-06
7.82068399e-06
7.82068417e-06
7.82070157e-06
7.82067324e-06
7.82070401e-06
7.82067654e-06
7.82070379e-06
7.82068735e-06
7.82068537e-06
7.82069284e-06
7.82069828e-06
7.82068994e-06
7.82069704e-06
7.82068808e-06
7.82068879e-06
7.82069376e-06
7.82069433e-06
7.82069539e-06
7.82069421e-06
7.82070249e-06
7.82069852e-06
7.82068548e-06
7.82071185e-06
7.82068667e-06
7.82070452e-06
7.8206889e-06
7.82070091e-06
7.82069208e-06
7.82070224e-06
7.82069171e-06
7.82070421e-06
7.82069891e-06
7.82068694e-06
7.82070843e-06
7.8206885e-06
7.82070402e-06
7.8206977e-06
7.82069785e-06
7.82069928e-06
7.82069008e-06
7.82069824e-06
7.82068568e-06
7.82070042e-06
7.82068698e-06
7.82070112e-06
7.82069414e-06
7.82070366e-06
7.82069456e-06
7.82069772e-06
7.82070409e-06
7.8206917e-06
7.82069801e-06
7.82068893e-06
7.82069054e-06
7.82069788e-06
7.82069296e-06
7.82069351e-06
7.82070372e-06
7.82069121e-06
7.82069928e-06
7.82069509e-06
7.82069003e-06
7.82070164e-06
7.82068898e-06
7.82071202e-06
7.82069611e-06
7.82070425e-06
7.82069038e-06
7.82069904e-06
7.82068699e-06
7.8206916e-06
7.82068882e-06
7.82068364e-06
7.82070006e-06
7.82069747e-06
7.82069427e-06
7.82070288e-06
7.82068925e-06
7.82069505e-06
7.82068855e-06
7.82069703e-06
7.8206876e-06
7.82069446e-06
7.82069116e-06
7.82068989e-06
7.82069388e-06
7.82068745e-06
7.82069766e-06
7.82069169e-06
7.8206988e-06
7.82068869e-06
7.82071242e-06
7.82068649e-06
7.82070591e-06
7.82067201e-06
7.82071711e-06
7.82067802e-06
7.82070376e-06
7.82067919e-06
7.82069587e-06
7.8206945e-06
7.82069802e-06
7.82070002e-06
7.82070179e-06
7.82068807e-06
7.82070695e-06
7.8206934e-06
7.82069617e-06
7.82069613e-06
7.82069965e-06
7.82069306e-06
7.8207004e-06
7.82069662e-06
7.82070016e-06
7.82069707e-06
7.82069773e-06
7.82070029e-06
7.82069684e-06
7.82069622e-06
7.82070105e-06
7.8206991e-06
7.82070012e-06
7.8206984e-06
7.82069998e-06
7.82069864e-06
7.82070037e-06
7.82070079e-06
7.82070126e-06
7.82070132e-06
7.82070205e-06
7.82070318e-06
7.82070376e-06
7.82070329e-06
7.82070476e-06
7.82070569e-06
7.82070575e-06
7.82070699e-06
7.82070801e-06
7.82070955e-06
7.82071037e-06
7.82071162e-06
7.82071346e-06
7.82071477e-06
7.82071695e-06
7.82071941e-06
7.82072209e-06
7.82072447e-06
7.82072795e-06
7.82073104e-06
7.82073407e-06
7.82073715e-06
7.82073965e-06
7.82074156e-06
7.82074315e-06
7.82074402e-06
7.82074427e-06
7.82074422e-06
7.82074436e-06
7.82074485e-06
7.82074452e-06
7.82074475e-06
7.82074467e-06
7.82074462e-06
7.8207448e-06
7.82074474e-06
7.82074466e-06
7.82074486e-06
7.82074459e-06
7.82074468e-06
7.8207446e-06
7.82074464e-06
7.82074463e-06
7.82074464e-06
7.82074469e-06
7.82074457e-06
7.82074446e-06
7.82074491e-06
)
;

boundaryField
{
    closed
    {
        type            calculated;
        value           uniform 0;
    }
    open
    {
        type            calculated;
        value           uniform 0;
    }
    sides
    {
        type            empty;
    }
}


// ************************************************************************* //
