/*--------------------------------*- C++ -*----------------------------------*\
| =========                 |                                                 |
| \\      /  F ield         | OpenFOAM: The Open Source CFD Toolbox           |
|  \\    /   O peration     | Version:  2206                                  |
|   \\  /    A nd           | Website:  www.openfoam.com                      |
|    \\/     M anipulation  |                                                 |
\*---------------------------------------------------------------------------*/
FoamFile
{
    version     2.0;
    format      ascii;
    arch        "LSB;label=32;scalar=64";
    class       volScalarField;
    location    "7.2e-06";
    object      PVsourcePV;
}
// * * * * * * * * * * * * * * * * * * * * * * * * * * * * * * * * * * * * * //

dimensions      [1 -3 -1 0 0 0 0];

internalField   nonuniform List<scalar> 
3183
(
0
0
0
0
0
0
0
0
0
0
0
0
0
0
0
0
0
0
0
0
0
0
0
0
0
0
0
0
0
0
0
0
0
0
0
0
0
0
0
0
0
0
0
0
0
0
0
0
0
0
0
0
0
0
0
0
0
0
0
0
0
0
0
0
0
0
0
0
0
0
0
0
0
0
0
0
0
0
0
0
0
0
0
0
0
0
0
0
0
0
0
0
0
0
0
0
0
0
0
0
0
0
0
0
0
0
0
0
0
0
0
0
0
0
0
0
0
0
0
0
0
0
0
0
0
0
0
0
0
0
0
0
0
0
0
0
0
0
0
0
0
0
0
0
0
0
0
0
0
0
0
0
0
0
0
0
0
0
0
0
0
0
0
0
0
0
0
0
0
0
0
0
0
0
0
0
0
0
0
0
0
0
0
0
0
0
0
0
0
0
0
0
0
0
0
0
0
0
0
0
0
0
0
0
0
0
0
0
0
0
0
0
0
0
0
0
0
0
0
0
0
0
0
0
0
0
0
0
0
0
0
0
0
0
0
0
0
0
0
0
0
0
0
0
0
0
0
0
0
0
0
0
0
0
0
0
0
0
0
0
0
0
0
0
0
0
0
0
0
0
0
0
0
0
0
0
0
0
0
0
0
0
0
0
0
0
0
0
0
0
0
0
0
0
0
0
0
0
0
0
0
0
0
0
0
0
0
0
0
0
0
0
0
0
0
0
0
0
0
0
0
0
0
0
0
0
0
0
0
0
0
0
0
0
0
0
0
0
0
0
0
0
0
0
0
0
0
0
0
0
0
0
0
0
0
0
0
0
0
0
0
0
0
0
0
0
0
0
0
0
0
0
0
0
0
0
0
0
0
0
0
0
0
0
0
0
0
0
0
0
0
0
0
0
0
0
0
0
0
0
0
0
0
0
0
0
0
0
0
0
0
0
0
0
0
0
0
0
0
0
0
0
0
0
0
0
0
0
0
0
0
0
0
0
0
0
0
0
0
0
0
0
0
0
0
0
0
0
0
0
0
0
0
0
0
0
0
0
0
0
0
0
0
0
0
0
0
0
0
0
0
0
0
0
0
0
0
0
0
0
0
0
0
0
0
0
0
0
0
0
0
0
0
0
0
0
0
0
0
0
0
0
0
0
0
0
0
0
0
0
0
0
0
0
0
0
0
0
0
0
0
0
0
0
0
0
0
0
0
0
0
0
0
0
0
0
0
0
0
0
0
0
0
0
0
0
0
0
0
0
0
0
0
0
0
0
0
0
0
0
0
0
0
0
0
0
0
0
0
0
0
0
0
0
0
0
0
0
0
0
0
0
0
0
0
0
0
0
0
0
0
0
0
0
0
0
0
0
0
0
0
0
0
0
0
0
0
0
0
0
0
0
0
0
0
0
0
0
0
0
0
0
0
0
0
0
0
0
0
0
0
0
0
0
0
0
0
0
0
0
0
0
0
0
0
0
0
0
0
0
0
0
0
0
0
0
0
0
0
0
0
0
0
0
0
0
0
0
0
0
0
0
0
0
0
0
0
0
0
0
0
0
0
0
0
0
0
0
0
0
0
0
0
0
0
0
0
0
0
0
0
0
0
0
0
0
0
0
0
0
0
0
0
0
0
0
0
0
0
0
0
0
0
0
0
0
0
0
0
0
0
0
0
0
0
0
0
0
0
0
0
0
0
0
0
0
0
0
0
0
0
0
0
0
0
0
0
0
0
0
0
0
0
0
0
0
0
0
0
0
0
0
0
0
0
0
0
0
0
0
0
0
0
0
0
0
0
0
0
0
0
0
0
0
0
0
0
0
0
0
0
0
0
0
0
0
0
0
0
0
0
0
0
0
0
0
0
0
0
0
0
0
0
0
0
0
0
0
0
0
0
0
0
0
0
0
0
0
0
0
0
0
0
0
0
0
0
0
0
0
0
0
0
0
0
0
0
0
0
0
0
0
0
0
0
0
0
0
0
0
0
0
0
0
0
0
0
0
0
0
0
0
0
0
0
0
0
0
0
0
0
0
0
0
0
0
0
0
0
0
0
0
0
0
0
0
0
0
0
0
0
0
0
0
0
0
0
0
0
0
0
0
0
0
0
0
0
0
0
0
0
0
0
0
0
0
0
0
0
0
0
0
0
0
0
0
0
0
0
0
0
0
0
0
0
0
0
0
0
0
0
0
0
0
0
0
0
0
0
0
0
0
0
0
0
0
0
0
0
0
0
0
0
0
0
0
0
0
0
0
0
0
0
0
0
0
0
0
0
0
0
0
0
0
0
0
0
0
0
0
0
0
0
0
0
0
0
0
0
0
0
0
0
0
0
0
0
0
0
0
0
0
0
0
0
0
0
0
0
0
0
0
0
0
0
0
0
0
0
0
0
0
0
0
0
0
0
0
0
0
0
0
0
0
0
0
0
0
0
0
0
0
0
0
0
0
0
0
0
0
0
0
0
0
0
0
0
0
0
0
0
0
0
0
0
0
0
0
0
0
0
0
0
0
0
0
0
0
0
0
0
0
0
0
0
0
0
0
0
0
0
0
0
0
0
0
0
0
0
0
0
0
0
0
0
0
0
0
0
0
0
0
0
0
0
0
0
0
0
0
0
0
0
0
0
0
0
0
0
0
0
0
0
0
0
0
0
0
0
0
0
0
0
0
0
0
0
0
0
0
0
0
0
0
0
0
0
0
0
0
0
0
0
0
0
0
0
0
0
0
0
0
0
0
0
0
0
0
0
0
0
0
0
0
0
0
0
0
0
0
0
0
0
0
0
0
0
0
0
0
0
0
0
0
0
0
0
0
0
0
0
0
0
0
0
0
0
0
0
0
0
0
0
0
0
0
0
0
0
0
0
0
0
0
0
0
0
0
0
0
0
0
0
0
0
0
0
0
0
0
0
0
0
0
0
0
0
0
0
0
0
0
0
0
0
0
0
0
0
0
0
0
0
0
0
0
0
0
0
0
0
0
0
0
0
0
0
0
0
0
0
0
0
0
0
0
0
0
0
0
0
0
0
0
0
0
0
0
0
0
0
0
0
0
0
0
0
0
0
0
0
0
0
0
0
0
0
0
0
0
0
0
0
0
0
0
0
0
0
0
0
0
0
0
0
0
0
0
0
0
0
0
0
0
0
0
0
0
0
0
0
0
0
0
0
0
0
0
0
0
0
0
0
0
0
0
0
0
0
0
0
0
0
0
0
0
0
0
0
0
0
0
0
0
0
0
0
0
0
0
0
0
0
0
0
0
0
0
0
0
0
0
0
0
0
0
0
0
0
0
0
0
0
0
0
0
0
0
0
0
0
0
0
0
0
0
0
0
0
0
0
0
0
0
0
0
0
0
0
0
0
0
0
0
0
0
0
0
0
0
0
0
0
0
0
0
0
0
0
0
0
0
0
0
0
0
0
0
0
0
0
0
0
0
0
0
0
0
0
0
0
0
0
0
0
0
0
0
0
0
0
0
0
0
0
0
0
0
0
0
0
0
0
0
0
0
0
0
0
0
0
0
0
0
0
0
0
0
0
0
0
0
0
0
0
0
0
0
0
0
0
0
0
0
0
0
0
0
0
0
0
0
0
0
0
0
0
0
0
0
0
0
0
0
0
0
0
0
0
0
0
0
0
0
0
0
0
0
0
0
0
0
0
0
0
0
0
0
0
0
0
0
0
0
0
0
0
0
0
0
0
0
0
0
0
0
0
0
0
0
0
0
0
0
0
0
0
0
0
0
0
0
0
0
0
0
0
0
0
0
0
0
0
0
0
0
0
0
0
0
0
0
0
0
0
0
0
0
0
0
0
0
0
0
0
0
0
0
0
0
0
0
0
0
0
0
0
0
0
0
0
0
0
0
0
0
0
0
0
0
0
0
0
0
0
0
0
0
0
0
0
0
0
0
0
0
0
0
0
0
0
0
0
0
0
0
0
0
0
0
0
0
0
0
0
0
0
0
0
0
0
0
0
0
0
0
0
0
0
0
0
0
0
0
0
0
0
0
0
0
0
0
0
0
0
0
0
0
0
0
0
0
0
0
0
0
0
0
0
0
0
0
0
0
0
0
0
0
0
0
0
0
0
0
0
0
0
0
0
0
0
0
0
0
0
0
0
0
0
0
0
0
0
0
0
0
0
0
0
0
0
0
0
0
0
0
0
0
0
0
0
0
0
0
0
0
0
0
0
0
0
0
0
0
0
0
0
0
0
0
0
0
0
0
0
0
0
0
0
0
0
0
0
0
0
0
0
0
0
0
0
0
0
0
0
0
0
0
0
0
0
0
0
0
0
0
0
0
0
0
0
0
0
0
0
0
0
0
0
0
0
0
0
0
0
0
0
0
0
0
0
0
0
0
0
0
0
0
0
0
0
0
0
0
0
0
0
0
0
0
0
0
0
0
0
0
0
0
0
0
0
0
0
0
0
0
0
0
0
0
0
0
0
0
0
0
0
0
0
0
0
0
0
0
0
0
0
0
0
0
0
0
0
0
0
0
0
0
0
0
0
0
0
0
0
0
0
0
0
0
0
0
0
0
0
0
0
0
0
0
0
0
0
0
0
0
0
0
0
0
0
0
0
0
0
0
0
0
0
0
0
0
0
0
0
0
0
0
0
0
0
0
0
0
0
0
0
0
0
0
0
0
0
0
0
0
0
0
0
0
0
0
0
0
0
0
0
0
0
0
0
0
0
0
0
0
0
0
0
0
0
0
0
0
0
0
0
0
0
0
0
0
0
0
0
0
0
0
0
0
0
0
0
0
0
0
0
0
0
0
0
0
0
0
0
0
0
0
0
0
0
0
0
0
0
0
0
0
0
0
0
0
0
0
0
0
0
0
0
0
0
0
0
0
0
0
0
0
0
0
0
0
0
0
0
0
0
0
0
0
0
0
0
0
0
0
0
0
0
0
0
0
0
0
0
0
0
0
0
0
0
0
0
0
0
0
0
0
0
0
0
0
0
0
0
0
0
0
0
0
0
0
0
0
0
0
0
0
0
0
0
0
0
0
0
0
0
0
0
0
0
0
0
0
0
0
0
0
0
0
0
0
0
0
0
0
0
0
0
0
0
0
0
0
0
0
0
0
0
0
0
0
0
0
0
0
0
0
0
0
0
0
0
0
0
0
0
0
0
0
0
0
0
0
0
0
0
0
0
0
0
0
0
0
0
0
0
0
0
0
0
0
0
0
0
0
0
0
0
0
0
0
0
0
0
0
0
0
0
0
0
0
0
0
0
0
0
0
0
0
0
0
0
0
0
0
0
0
0
0
0
0
0
0
0
0
0
0
0
0
0
0
0
0
0
0
0
0
0
0
0
0
0
0
0
0
0
0
0
0
0
0
0
0
0
0
0
0
0
0
0
0
0
0
0
0
0
0
0
0
0
0
0
0
0
0
0
0
0
0
0
0
0
0
0
3.70078305e-297
0
1.97600134e-293
0
8.66308394e-290
0
3.24253292e-286
0
1.06404552e-282
0
3.12048713e-279
0
8.29717312e-276
0
2.02275637e-272
0
4.56176403e-269
0
9.58613147e-266
0
1.88831926e-262
0
3.50436254e-259
0
6.15310463e-256
0
1.02592989e-252
0
1.62949053e-249
0
2.47225827e-246
0
3.59165689e-243
0
5.00706856e-240
0
6.71096321e-237
0
8.66233747e-234
0
1.07843573e-230
0
1.29674998e-227
0
1.50784693e-224
0
1.69739495e-221
0
1.85171515e-218
0
1.95944227e-215
0
2.012908e-212
0
2.00901468e-209
0
1.94946849e-206
0
1.84036445e-203
0
1.69123248e-200
0
1.51373852e-197
1.01378154e-199
1.32027193e-194
4.10930995e-196
1.12263887e-191
6.08632472e-193
9.3103024e-189
7.08545963e-190
7.53359556e-186
7.3012426e-187
5.94989626e-183
6.94734044e-184
4.58802516e-180
6.22827012e-181
3.45525425e-177
5.31999753e-178
2.54207934e-174
4.3597194e-175
1.82750802e-171
3.44355601e-172
1.28406368e-168
2.63001383e-169
8.81976765e-166
1.94685669e-166
5.92308473e-163
1.39928399e-163
3.88979698e-160
9.77843072e-161
2.49835102e-157
6.65108898e-158
1.56956209e-154
4.40708254e-155
9.64594833e-152
2.84673274e-152
5.79946135e-149
1.79359661e-149
3.41140897e-146
1.10277086e-146
1.96337253e-143
6.61897354e-144
1.10562074e-140
3.87946625e-141
6.09183758e-138
2.22092405e-138
3.28416995e-135
1.24210157e-135
1.73231524e-132
6.78739399e-133
8.93991317e-130
3.62421649e-130
4.51354688e-127
1.89110769e-127
2.2291849e-124
9.64317378e-125
1.07689834e-121
4.80531067e-122
5.08806181e-119
2.33993143e-119
2.35081797e-116
1.11335646e-116
1.06195347e-113
5.17572481e-114
4.68957417e-111
2.35048614e-111
2.02401913e-108
1.04261718e-108
8.53592826e-106
4.51638644e-106
3.51667967e-103
1.91012496e-103
1.41494798e-100
7.88549749e-101
5.5582942e-98
3.1766657e-98
2.13103756e-95
1.24839843e-95
7.97133092e-93
4.78435527e-93
2.9079568e-90
1.7873746e-90
1.03412769e-87
6.50648423e-88
3.58331098e-85
2.30682488e-85
1.20919374e-82
7.96159226e-83
3.97160092e-80
2.67338312e-80
1.26890599e-77
8.72840483e-78
3.94093881e-75
2.76906358e-75
1.18894754e-72
8.52983189e-73
3.48157802e-70
2.5492539e-70
9.88702969e-68
7.3853938e-68
2.72033299e-65
2.0720901e-65
7.24427899e-63
5.6242391e-63
1.86504996e-60
1.47515959e-60
4.63620122e-58
3.73406991e-58
1.11123698e-55
9.10926227e-56
2.56420661e-53
2.13827155e-53
5.68661055e-51
4.82131003e-51
1.20968037e-48
1.04218063e-48
2.4629858e-46
2.15498342e-46
4.78807082e-44
4.25196885e-44
8.86240794e-42
7.98278723e-42
1.55683307e-39
1.42144788e-39
2.58595237e-37
2.3916298e-37
4.04396538e-35
3.78571646e-35
5.92360604e-33
5.60866001e-33
8.07812538e-31
7.729673e-31
1.01806572e-28
9.83619195e-29
1.17498658e-26
1.14520434e-26
1.22776076e-24
1.20596151e-24
1.14447204e-22
1.13170445e-22
9.33156678e-21
9.27638977e-21
6.47529686e-19
6.46617171e-19
3.67240913e-17
3.60256699e-17
1.59558161e-15
1.59958151e-15
6.14181872e-12
6.7823739e-12
0.0581927037
0.178289792
0.755093452
0.702365048
0.17938437
0.145392878
0.0180700339
0.0162789606
0.002405358
0.00230073243
0.000282254644
0.000280690559
3.06127592e-05
3.07657823e-05
3.58846876e-06
3.59026039e-06
9.36802255e-07
9.38019673e-07
7.02924865e-07
7.02941363e-07
6.83794752e-07
6.83794717e-07
6.82348831e-07
6.82349208e-07
6.82247449e-07
6.8224766e-07
6.82240487e-07
6.82241528e-07
6.8223878e-07
6.82241215e-07
6.82239214e-07
6.82240496e-07
6.82239182e-07
6.8224143e-07
6.82238575e-07
6.82240903e-07
6.82239424e-07
6.82239008e-07
6.82240018e-07
6.82239398e-07
6.82240179e-07
6.82239512e-07
6.82240801e-07
6.82239635e-07
6.82239885e-07
6.82239712e-07
6.82240825e-07
6.82239938e-07
6.82240752e-07
6.82239202e-07
6.82240061e-07
6.82239826e-07
6.82240524e-07
6.82239575e-07
6.82240285e-07
6.82239923e-07
6.82239865e-07
6.8223994e-07
6.82240236e-07
6.82239775e-07
6.82239544e-07
6.82240172e-07
6.8223974e-07
6.82240088e-07
6.82240515e-07
6.82239126e-07
6.8224098e-07
6.82239226e-07
6.82240438e-07
6.8223852e-07
6.82240526e-07
6.82238833e-07
6.82239906e-07
6.82239683e-07
6.82239232e-07
6.82241112e-07
6.82239689e-07
6.82240457e-07
6.82240498e-07
6.82240897e-07
6.82239737e-07
6.82240459e-07
6.82239793e-07
6.82240718e-07
6.82240085e-07
6.82240157e-07
6.82240026e-07
6.82239822e-07
6.82240446e-07
6.82239496e-07
6.82240694e-07
6.82240185e-07
6.82239972e-07
6.82240686e-07
6.82240486e-07
6.82240789e-07
6.8223916e-07
6.82240595e-07
6.82239989e-07
6.82240426e-07
6.82240742e-07
6.82240623e-07
6.82240592e-07
6.82240535e-07
6.82240441e-07
6.82239541e-07
6.82240791e-07
6.82240735e-07
6.82239958e-07
6.82239793e-07
6.8224089e-07
6.82238658e-07
6.82240255e-07
6.82239282e-07
6.82240107e-07
6.82239521e-07
6.82240721e-07
6.82240218e-07
6.8223976e-07
6.82240683e-07
6.82239686e-07
6.82240655e-07
6.82239545e-07
6.82241509e-07
6.82240032e-07
6.82240162e-07
6.82239744e-07
6.82240807e-07
6.8224033e-07
6.82240499e-07
6.82239945e-07
6.82240393e-07
6.82240917e-07
6.82241583e-07
6.82240607e-07
6.82240986e-07
6.82241116e-07
6.82239762e-07
6.82240789e-07
6.82239428e-07
6.8224076e-07
6.82239885e-07
6.82240109e-07
6.82239927e-07
6.82240632e-07
6.82240736e-07
6.82239903e-07
6.82240315e-07
6.82240615e-07
6.82240505e-07
6.82240491e-07
6.82239812e-07
6.82240877e-07
6.82240512e-07
6.82240207e-07
6.82241403e-07
6.82240384e-07
6.82240617e-07
6.82240113e-07
6.82241214e-07
6.82241072e-07
6.82240098e-07
6.82241595e-07
6.82240097e-07
6.82241959e-07
6.82240369e-07
6.82241073e-07
6.82240512e-07
6.82240443e-07
6.82240256e-07
6.8224146e-07
6.82239472e-07
6.82240306e-07
6.8224059e-07
6.82240334e-07
6.82240646e-07
6.82241074e-07
6.82241021e-07
6.82240301e-07
6.82241868e-07
6.82241309e-07
6.82241555e-07
6.82241161e-07
6.8224082e-07
6.82240651e-07
6.82240994e-07
6.8224092e-07
6.82241017e-07
6.82240631e-07
6.82240882e-07
6.82241272e-07
6.82240608e-07
6.82241411e-07
6.82241276e-07
6.82241577e-07
6.82240467e-07
6.8224166e-07
6.82240588e-07
6.82241366e-07
6.82240525e-07
6.82241255e-07
6.82240301e-07
6.82241122e-07
6.8223998e-07
6.82240786e-07
6.82240837e-07
6.82241096e-07
6.82240849e-07
6.82241884e-07
6.82240699e-07
6.82241556e-07
6.82240347e-07
6.82241717e-07
6.82240946e-07
6.82240816e-07
6.82240984e-07
6.82241052e-07
6.82241138e-07
6.82240683e-07
6.82241264e-07
6.8224061e-07
6.82241976e-07
6.82240236e-07
6.82240702e-07
6.82241093e-07
6.82240386e-07
6.82241085e-07
6.82241774e-07
6.82241048e-07
6.8224135e-07
6.82241825e-07
6.82240969e-07
6.82241595e-07
6.82241972e-07
6.82241109e-07
6.82241176e-07
6.82241109e-07
6.82242296e-07
6.82240644e-07
6.82242059e-07
6.82240961e-07
6.82241801e-07
6.8224111e-07
6.82240832e-07
6.8224133e-07
6.82241813e-07
6.82241273e-07
6.82241377e-07
6.82240958e-07
6.82240858e-07
6.82241288e-07
6.82241852e-07
6.8224105e-07
6.82241398e-07
6.82240747e-07
6.82242166e-07
6.82240875e-07
6.82241567e-07
6.82242215e-07
6.82240815e-07
6.82242099e-07
6.82241805e-07
6.82242311e-07
6.82241084e-07
6.82242653e-07
6.82240649e-07
6.82241669e-07
6.82240724e-07
6.82241614e-07
6.82240591e-07
6.82241935e-07
6.82241292e-07
6.82241275e-07
6.82242245e-07
6.82241117e-07
6.82242388e-07
6.82241139e-07
6.82241582e-07
6.82241459e-07
6.82241107e-07
6.82241853e-07
6.82240906e-07
6.82241693e-07
6.82241809e-07
6.82241979e-07
6.82240961e-07
6.82241426e-07
6.82240798e-07
6.82241525e-07
6.82242155e-07
6.82241061e-07
6.82241351e-07
6.822411e-07
6.82241158e-07
6.82241763e-07
6.82240572e-07
6.82241306e-07
6.82242181e-07
6.82242362e-07
6.82241861e-07
6.82241648e-07
6.82241522e-07
6.82241536e-07
6.82242314e-07
6.82241481e-07
6.82242501e-07
6.82241944e-07
6.82241118e-07
6.82242662e-07
6.82242039e-07
6.8224211e-07
6.82241677e-07
6.82241832e-07
6.82242184e-07
6.82240994e-07
6.82242363e-07
6.82243045e-07
6.8224062e-07
6.82242375e-07
6.82241346e-07
6.8224266e-07
6.82241727e-07
6.82242211e-07
6.82241393e-07
6.822416e-07
6.82242088e-07
6.82242239e-07
6.82241742e-07
6.82241999e-07
6.8224195e-07
6.82242033e-07
6.82242438e-07
6.82241526e-07
6.82241466e-07
6.82241996e-07
6.82241456e-07
6.82242561e-07
6.822414e-07
6.82241737e-07
6.82242026e-07
6.82241779e-07
6.8224273e-07
6.82241768e-07
6.82242825e-07
6.822415e-07
6.82242867e-07
6.82242251e-07
6.82242356e-07
6.82242409e-07
6.82242101e-07
6.82242519e-07
6.82242795e-07
6.82242219e-07
6.82241645e-07
6.82243197e-07
6.82241329e-07
6.8224313e-07
6.82242375e-07
6.82242616e-07
6.82242378e-07
6.82242265e-07
6.82242311e-07
6.82243287e-07
6.82241829e-07
6.82242122e-07
6.82242816e-07
6.82242713e-07
6.82243685e-07
6.82242271e-07
6.822432e-07
6.82242767e-07
6.82243544e-07
6.82242552e-07
6.8224344e-07
6.82242e-07
6.82243333e-07
6.82241917e-07
6.82242218e-07
6.82243215e-07
6.82242184e-07
6.82242951e-07
6.82242461e-07
6.82242788e-07
6.82242943e-07
6.82242423e-07
6.82241954e-07
6.82242998e-07
6.82242618e-07
6.82242013e-07
6.82242774e-07
6.82242802e-07
6.82242667e-07
6.82242607e-07
6.82242617e-07
6.82242565e-07
6.82243215e-07
6.82243086e-07
6.82243312e-07
6.82242991e-07
6.82242511e-07
6.82242711e-07
6.82243323e-07
6.82242845e-07
6.82244061e-07
6.82242017e-07
6.82243812e-07
6.8224232e-07
6.82243551e-07
6.82243045e-07
6.82243262e-07
6.82242917e-07
6.8224323e-07
6.82243263e-07
6.82242535e-07
6.8224322e-07
6.82242833e-07
6.82243387e-07
6.82242531e-07
6.82243051e-07
6.82243642e-07
6.82242736e-07
6.8224332e-07
6.82242513e-07
6.8224336e-07
6.82243471e-07
6.82243269e-07
6.82243125e-07
6.82243439e-07
6.82242749e-07
6.82243831e-07
6.82243682e-07
6.82243339e-07
6.82243477e-07
6.82243884e-07
6.82244013e-07
6.82244001e-07
6.82243218e-07
6.82244924e-07
6.82243219e-07
6.82243865e-07
6.82243008e-07
6.82243172e-07
6.82243595e-07
6.82243047e-07
6.8224409e-07
6.82243369e-07
6.82243565e-07
6.82243975e-07
6.82243555e-07
6.82244068e-07
6.82243297e-07
6.82243548e-07
6.82243455e-07
6.82243112e-07
6.82243813e-07
6.8224354e-07
6.82243187e-07
6.82243114e-07
6.82243428e-07
6.82243068e-07
6.82243353e-07
6.82243322e-07
6.82243328e-07
6.82243992e-07
6.82242959e-07
6.82244205e-07
6.82244419e-07
6.82243119e-07
6.82243916e-07
6.8224389e-07
6.82244123e-07
6.82243292e-07
6.82243407e-07
6.8224425e-07
6.8224244e-07
6.82244526e-07
6.82243255e-07
6.82244086e-07
6.82242918e-07
6.82243489e-07
6.82243133e-07
6.82243662e-07
6.82243215e-07
6.82243504e-07
6.82243434e-07
6.82243391e-07
6.82244187e-07
6.82243118e-07
6.82244362e-07
6.82243477e-07
6.82244144e-07
6.82244174e-07
6.82243551e-07
6.82243446e-07
6.82244725e-07
6.82243365e-07
6.82244061e-07
6.82242905e-07
6.82244543e-07
6.82242579e-07
6.82244743e-07
6.82242414e-07
6.82244679e-07
6.8224346e-07
6.82243705e-07
6.82244154e-07
6.82243723e-07
6.82243864e-07
6.82243671e-07
6.822436e-07
6.8224407e-07
6.82243539e-07
6.82244071e-07
6.82243778e-07
6.82244092e-07
6.82244051e-07
6.82243707e-07
6.82243904e-07
6.82243849e-07
6.82243725e-07
6.82243917e-07
6.82243973e-07
6.82243954e-07
6.82243916e-07
6.82243899e-07
6.82243855e-07
6.82243947e-07
6.82243934e-07
6.82243936e-07
6.82243972e-07
6.82243921e-07
6.82243982e-07
6.82243974e-07
6.82243945e-07
6.82244002e-07
6.82243987e-07
6.8224394e-07
6.82243955e-07
6.82243975e-07
6.82243991e-07
6.82243976e-07
6.8224398e-07
6.82243985e-07
6.82243976e-07
6.8224398e-07
6.82243975e-07
6.82243983e-07
6.82243956e-07
6.82243989e-07
6.82243964e-07
6.8224397e-07
6.82243976e-07
6.82243976e-07
6.82243976e-07
6.82243988e-07
6.82243978e-07
6.8224398e-07
6.82243964e-07
6.82243963e-07
6.82243987e-07
6.82243972e-07
6.82243981e-07
6.82243979e-07
6.82243967e-07
6.8224398e-07
6.82243977e-07
6.82243978e-07
6.82243986e-07
6.82243971e-07
6.82243989e-07
6.8224397e-07
6.82243985e-07
6.82243975e-07
6.82243969e-07
6.82243981e-07
6.82243968e-07
6.82243968e-07
6.82243989e-07
)
;

boundaryField
{
    closed
    {
        type            calculated;
        value           uniform 0;
    }
    open
    {
        type            calculated;
        value           uniform 0;
    }
    sides
    {
        type            empty;
    }
}


// ************************************************************************* //
