/*--------------------------------*- C++ -*----------------------------------*\
| =========                 |                                                 |
| \\      /  F ield         | OpenFOAM: The Open Source CFD Toolbox           |
|  \\    /   O peration     | Version:  2206                                  |
|   \\  /    A nd           | Website:  www.openfoam.com                      |
|    \\/     M anipulation  |                                                 |
\*---------------------------------------------------------------------------*/
FoamFile
{
    version     2.0;
    format      ascii;
    arch        "LSB;label=32;scalar=64";
    class       volScalarField;
    location    "7.2e-06";
    object      sourcePV;
}
// * * * * * * * * * * * * * * * * * * * * * * * * * * * * * * * * * * * * * //

dimensions      [1 -3 -1 0 0 0 0];

internalField   nonuniform List<scalar> 
3183
(
0
0
0
0
0
0
0
0
0
0
0
0
0
0
0
0
0
0
0
0
0
0
0
0
0
0
0
0
0
0
0
0
0
0
0
0
0
0
0
0
0
0
0
0
0
0
0
0
0
0
0
0
0
0
0
0
0
0
0
0
0
0
0
0
0
0
0
0
0
0
0
0
0
0
0
0
0
0
0
0
0
0
0
0
0
0
0
0
0
0
0
0
0
0
0
0
0
0
0
0
0
0
0
0
0
0
0
0
0
0
0
0
0
0
0
0
0
0
0
0
0
0
0
0
0
0
0
0
0
0
0
0
0
0
0
0
0
0
0
0
0
0
0
0
0
0
0
0
0
0
0
0
0
0
0
0
0
0
0
0
0
0
0
0
0
0
0
0
0
0
0
0
0
0
0
0
0
0
0
0
0
0
0
0
0
0
0
0
0
0
0
0
0
0
0
0
0
0
0
0
0
0
0
0
0
0
0
0
0
0
0
0
0
0
0
0
0
0
0
0
0
0
0
0
0
0
0
0
0
0
0
0
0
0
0
0
0
0
0
0
0
0
0
0
0
0
0
0
0
0
0
0
0
0
0
0
0
0
0
0
0
0
0
0
0
0
0
0
0
0
0
0
0
0
0
0
0
0
0
0
0
0
0
0
0
0
0
0
0
0
0
0
0
0
0
0
0
0
0
0
0
0
0
0
0
0
0
0
0
0
0
0
0
0
0
0
0
0
0
0
0
0
0
0
0
0
0
0
0
0
0
0
0
0
0
0
0
0
0
0
0
0
0
0
0
0
0
0
0
0
0
0
0
0
0
0
0
0
0
0
0
0
0
0
0
0
0
0
0
0
0
0
0
0
0
0
0
0
0
0
0
0
0
0
0
0
0
0
0
0
0
0
0
0
0
0
0
0
0
0
0
0
0
0
0
0
0
0
0
0
0
0
0
0
0
0
0
0
0
0
0
0
0
0
0
0
0
0
0
0
0
0
0
0
0
0
0
0
0
0
0
0
0
0
0
0
0
0
0
0
0
0
0
0
0
0
0
0
0
0
0
0
0
0
0
0
0
0
0
0
0
0
0
0
0
0
0
0
0
0
0
0
0
0
0
0
0
0
0
0
0
0
0
0
0
0
0
0
0
0
0
0
0
0
0
0
0
0
0
0
0
0
0
0
0
0
0
0
0
0
0
0
0
0
0
0
0
0
0
0
0
0
0
0
0
0
0
0
0
0
0
0
0
0
0
0
0
0
0
0
0
0
0
0
0
0
0
0
0
0
0
0
0
0
0
0
0
0
0
0
0
0
0
0
0
0
0
0
0
0
0
0
0
0
0
0
0
0
0
0
0
0
0
0
0
0
0
0
0
0
0
0
0
0
0
0
0
0
0
0
0
0
0
0
0
0
0
0
0
0
0
0
0
0
0
0
0
0
0
0
0
0
0
0
0
0
0
0
0
0
0
0
0
0
0
0
0
0
0
0
0
0
0
0
0
0
0
0
0
0
0
0
0
0
0
0
0
0
0
0
0
0
0
0
0
0
0
0
0
0
0
0
0
0
0
0
0
0
0
0
0
0
0
0
0
0
0
0
0
0
0
0
0
0
0
0
0
0
0
0
0
0
0
0
0
0
0
0
0
0
0
0
0
0
0
0
0
0
0
0
0
0
0
0
0
0
0
0
0
0
0
0
0
0
0
0
0
0
0
0
0
0
0
0
0
0
0
0
0
0
0
0
0
0
0
0
0
0
0
0
0
0
0
0
0
0
0
0
0
0
0
0
0
0
0
0
0
0
0
0
0
0
0
0
0
0
0
0
0
0
0
0
0
0
0
0
0
0
0
0
0
0
0
0
0
0
0
0
0
0
0
0
0
0
0
0
0
0
0
0
0
0
0
0
0
0
0
0
0
0
0
0
0
0
0
0
0
0
0
0
0
0
0
0
0
0
0
0
0
0
0
0
0
0
0
0
0
0
0
0
0
0
0
0
0
0
0
0
0
0
0
0
0
0
0
0
0
0
0
0
0
0
0
0
0
0
0
0
0
0
0
0
0
0
0
0
0
0
0
0
0
0
0
0
0
0
0
0
0
0
0
0
0
0
0
0
0
0
0
0
0
0
0
0
0
0
0
0
0
0
0
0
0
0
0
0
0
0
0
0
0
0
0
0
0
0
0
0
0
0
0
0
0
0
0
0
0
0
0
0
0
0
0
0
0
0
0
0
0
0
0
0
0
0
0
0
0
0
0
0
0
0
0
0
0
0
0
0
0
0
0
0
0
0
0
0
0
0
0
0
0
0
0
0
0
0
0
0
0
0
0
0
0
0
0
0
0
0
0
0
0
0
0
0
0
0
0
0
0
0
0
0
0
0
0
0
0
0
0
0
0
0
0
0
0
0
0
0
0
0
0
0
0
0
0
0
0
0
0
0
0
0
0
0
0
0
0
0
0
0
0
0
0
0
0
0
0
0
0
0
0
0
0
0
0
0
0
0
0
0
0
0
0
0
0
0
0
0
0
0
0
0
0
0
0
0
0
0
0
0
0
0
0
0
0
0
0
0
0
0
0
0
0
0
0
0
0
0
0
0
0
0
0
0
0
0
0
0
0
0
0
0
0
0
0
0
0
0
0
0
0
0
0
0
0
0
0
0
0
0
0
0
0
0
0
0
0
0
0
0
0
0
0
0
0
0
0
0
0
0
0
0
0
0
0
0
0
0
0
0
0
0
0
0
0
0
0
0
0
0
0
0
0
0
0
0
0
0
0
0
0
0
0
0
0
0
0
0
0
0
0
0
0
0
0
0
0
0
0
0
0
0
0
0
0
0
0
0
0
0
0
0
0
0
0
0
0
0
0
0
0
0
0
0
0
0
0
0
0
0
0
0
0
0
0
0
0
0
0
0
0
0
0
0
0
0
0
0
0
0
0
0
0
0
0
0
0
0
0
0
0
0
0
0
0
0
0
0
0
0
0
0
0
0
0
0
0
0
0
0
0
0
0
0
0
0
0
0
0
0
0
0
0
0
0
0
0
0
0
0
0
0
0
0
0
0
0
0
0
0
0
0
0
0
0
0
0
0
0
0
0
0
0
0
0
0
0
0
0
0
0
0
0
0
0
0
0
0
0
0
0
0
0
0
0
0
0
0
0
0
0
0
0
0
0
0
0
0
0
0
0
0
0
0
0
0
0
0
0
0
0
0
0
0
0
0
0
0
0
0
0
0
0
0
0
0
0
0
0
0
0
0
0
0
0
0
0
0
0
0
0
0
0
0
0
0
0
0
0
0
0
0
0
0
0
0
0
0
0
0
0
0
0
0
0
0
0
0
0
0
0
0
0
0
0
0
0
0
0
0
0
0
0
0
0
0
0
0
0
0
0
0
0
0
0
0
0
0
0
0
0
0
0
0
0
0
0
0
0
0
0
0
0
0
0
0
0
0
0
0
0
0
0
0
0
0
0
0
0
0
0
0
0
0
0
0
0
0
0
0
0
0
0
0
0
0
0
0
0
0
0
0
0
0
0
0
0
0
0
0
0
0
0
0
0
0
0
0
0
0
0
0
0
0
0
0
0
0
0
0
0
0
0
0
0
0
0
0
0
0
0
0
0
0
0
0
0
0
0
0
0
0
0
0
0
0
0
0
0
0
0
0
0
0
0
0
0
0
0
0
0
0
0
0
0
0
0
0
0
0
0
0
0
0
0
0
0
0
0
0
0
0
0
0
0
0
0
0
0
0
0
0
0
0
0
0
0
0
0
0
0
0
0
0
0
0
0
0
0
0
0
0
0
0
0
0
0
0
0
0
0
0
0
0
0
0
0
0
0
0
0
0
0
0
0
0
0
0
0
0
0
0
0
0
0
0
0
0
0
0
0
0
0
0
0
0
0
0
0
0
0
0
0
0
0
0
0
0
0
0
0
0
0
0
0
0
0
0
0
0
0
0
0
0
0
0
0
0
0
0
0
0
0
0
0
0
0
0
0
0
0
0
0
0
0
0
0
0
0
0
0
0
0
0
0
0
0
0
0
0
0
0
0
0
0
0
0
0
0
0
0
0
0
0
0
0
0
0
0
0
0
0
0
0
0
0
0
0
0
0
0
0
0
0
0
0
0
0
0
0
0
0
0
0
0
0
0
0
0
0
0
0
0
0
0
0
0
0
0
0
0
0
0
0
0
0
0
0
0
0
0
0
0
0
0
0
0
0
0
0
0
0
0
0
0
0
0
0
0
0
0
0
0
0
0
0
0
0
0
0
0
0
0
0
0
0
0
0
0
0
0
0
0
0
0
0
0
0
0
0
0
0
0
0
0
0
0
0
0
0
0
0
0
0
0
0
0
0
0
0
0
0
0
0
0
0
0
0
0
0
0
0
0
0
0
0
0
0
0
0
0
0
0
0
0
0
0
0
0
0
0
0
0
0
0
0
0
0
0
0
0
0
0
0
0
0
0
0
0
0
0
0
0
0
0
0
0
0
0
0
0
0
0
0
0
0
0
0
0
0
0
0
0
0
0
0
0
0
0
0
0
0
0
0
0
0
0
0
0
0
0
0
0
0
0
0
0
0
0
0
0
0
0
0
0
0
0
0
0
0
0
0
0
0
0
0
0
0
0
0
0
0
0
0
0
0
0
0
0
0
0
0
0
0
0
0
0
0
0
0
0
0
0
0
0
0
0
0
0
0
0
0
0
0
0
0
0
0
0
0
0
0
0
0
0
0
0
0
0
0
0
0
0
0
0
0
0
0
0
0
0
0
0
0
0
0
0
0
0
0
0
0
0
0
0
0
0
0
0
0
0
0
0
0
0
0
0
0
0
0
0
0
0
0
0
0
0
0
0
0
0
0
0
0
0
0
0
0
0
0
0
0
0
0
0
0
0
0
0
0
0
0
0
0
0
0
0
0
0
0
0
0
0
0
0
0
0
0
0
0
0
0
0
0
0
0
0
0
0
0
0
0
0
0
0
0
0
0
0
0
0
0
0
0
0
0
0
0
0
0
0
0
0
0
0
0
0
0
0
0
0
0
0
0
0
0
0
0
0
0
0
0
0
0
0
0
0
0
0
0
0
0
0
0
0
0
0
0
0
0
0
0
0
0
0
0
0
0
0
0
0
0
0
0
0
0
0
0
0
0
0
0
0
0
0
0
0
0
0
0
0
0
0
0
0
0
0
0
0
0
0
0
0
0
0
0
0
0
0
0
0
0
0
0
0
0
0
0
0
0
0
0
0
0
0
0
0
0
0
0
0
0
0
0
0
0
0
0
0
0
0
0
0
0
0
0
0
0
0
0
0
0
0
0
0
0
0
0
0
0
0
0
0
0
0
0
0
0
0
0
0
0
0
0
0
0
0
0
0
0
0
0
0
0
0
0
0
0
0
0
0
0
0
0
0
0
0
0
0
0
0
0
0
9.33649156e-298
0
6.46119535e-294
0
3.44989978e-290
0
1.51248741e-286
0
5.66113666e-283
0
1.85771656e-279
0
5.44805697e-276
0
1.44860305e-272
0
3.53152937e-269
0
7.96438162e-266
0
1.67364223e-262
0
3.29681568e-259
0
6.11826486e-256
0
1.07427024e-252
0
1.7911705e-249
0
2.84492673e-246
0
4.31631453e-243
0
6.27067204e-240
0
8.74183859e-237
0
1.17166674e-233
0
1.51235708e-230
0
1.88284042e-227
0
2.26399516e-224
0
2.63254923e-221
0
2.96348103e-218
0
3.23290858e-215
0
3.42098932e-212
0
3.51433511e-209
0
3.50753775e-206
0
3.4035761e-203
0
3.21309141e-200
0
2.95272198e-197
0
2.64283535e-194
1.76996071e-196
2.30506212e-191
7.17444226e-193
1.96001467e-188
1.06261114e-189
1.62548525e-185
1.23705006e-186
1.31529009e-182
1.27472359e-183
1.0387921e-179
1.21293583e-180
8.01023092e-177
1.08739338e-177
6.03252674e-174
9.28818112e-175
4.4382151e-171
7.611632e-172
3.19064538e-168
6.01210279e-169
2.24184617e-165
4.59173988e-166
1.53984281e-162
3.39901615e-163
1.03411108e-159
2.44300924e-160
6.79119467e-157
1.70721575e-157
4.36186984e-154
1.16121331e-154
2.7402977e-151
7.69432328e-152
1.68408565e-148
4.97010932e-149
1.01252768e-145
3.13143946e-146
5.95597728e-143
1.92532711e-143
3.42785116e-140
1.15560627e-140
1.93030272e-137
6.77315826e-138
1.06357363e-134
3.87751023e-135
5.73383073e-132
2.16858453e-132
3.02444834e-129
1.18501079e-129
1.56081901e-126
6.32751783e-127
7.88019932e-124
3.301684e-124
3.89193285e-121
1.68360125e-121
1.88015629e-118
8.38958958e-119
8.88324466e-116
4.08528516e-116
4.10429196e-113
1.9438085e-113
1.85406404e-110
9.03629546e-111
8.18752529e-108
4.10371262e-108
3.53373402e-105
1.82030484e-105
1.4902873e-102
7.88515691e-103
6.13976934e-100
3.33488624e-100
2.470357e-97
1.37672863e-97
9.70422317e-95
5.54613911e-95
3.72057745e-92
2.17957821e-92
1.39171428e-89
8.35300356e-90
5.07700039e-87
3.12057645e-87
1.80548303e-84
1.13596677e-84
6.25610092e-82
4.02748445e-82
2.11113076e-79
1.39001401e-79
6.93401613e-77
4.6674583e-77
2.21538235e-74
1.52389178e-74
6.88048317e-72
4.83450678e-72
2.07578293e-69
1.48922294e-69
6.07848539e-67
4.45074115e-67
1.72617604e-64
1.28941555e-64
4.74942806e-62
3.61766112e-62
1.26477832e-59
9.81935633e-60
3.25618983e-57
2.57548043e-57
8.09434148e-55
6.51931086e-55
1.9401081e-52
1.59038566e-52
4.47684709e-50
3.73320727e-50
9.92825062e-48
8.41752286e-48
2.11198038e-45
1.81954266e-45
4.30012572e-43
3.76238451e-43
8.35949053e-41
7.42351037e-41
1.54728738e-38
1.39371444e-38
2.71807411e-36
2.48170517e-36
4.51481301e-34
4.17554531e-34
7.0603572e-32
6.60948055e-32
1.03420209e-29
9.79215681e-30
1.41035952e-27
1.34952324e-27
1.77744045e-25
1.71730028e-25
2.0514085e-23
1.99941171e-23
2.14354692e-21
2.10548761e-21
1.99813318e-19
1.97584225e-19
1.62919779e-17
1.61956444e-17
1.13052177e-15
1.12892861e-15
6.41165733e-14
6.28971998e-14
2.78572517e-12
2.79270858e-12
1.46301888e-09
1.5775559e-09
1.11757126
3.06526556
9.81425689
8.94302256
2.13674671
1.72760482
0.212234909
0.191198519
0.0282512407
0.0270223996
0.00331511383
0.00329674345
0.000359546961
0.000361344238
4.21431329e-05
4.21641758e-05
1.09989627e-05
1.10132614e-05
8.25204216e-06
8.25223592e-06
8.02735648e-06
8.02735606e-06
8.01037395e-06
8.01037837e-06
8.00918319e-06
8.00918567e-06
8.00910143e-06
8.00911365e-06
8.00908138e-06
8.00910998e-06
8.00908648e-06
8.00910154e-06
8.00908609e-06
8.0091125e-06
8.00907897e-06
8.00910631e-06
8.00908894e-06
8.00908406e-06
8.00909592e-06
8.00908864e-06
8.00909781e-06
8.00908998e-06
8.00910512e-06
8.00909142e-06
8.00909436e-06
8.00909232e-06
8.0091054e-06
8.00909498e-06
8.00910454e-06
8.00908634e-06
8.00909642e-06
8.00909367e-06
8.00910186e-06
8.00909071e-06
8.00909906e-06
8.0090948e-06
8.00909412e-06
8.009095e-06
8.00909848e-06
8.00909306e-06
8.00909035e-06
8.00909772e-06
8.00909265e-06
8.00909674e-06
8.00910176e-06
8.00908545e-06
8.00910722e-06
8.00908661e-06
8.00910085e-06
8.00907832e-06
8.00910189e-06
8.009082e-06
8.0090946e-06
8.00909198e-06
8.00908669e-06
8.00910877e-06
8.00909206e-06
8.00910108e-06
8.00910156e-06
8.00910624e-06
8.00909262e-06
8.0091011e-06
8.00909327e-06
8.00910414e-06
8.00909671e-06
8.00909755e-06
8.00909601e-06
8.00909361e-06
8.00910094e-06
8.00908979e-06
8.00910386e-06
8.00909788e-06
8.00909538e-06
8.00910376e-06
8.00910142e-06
8.00910498e-06
8.00908584e-06
8.0091027e-06
8.00909557e-06
8.00910071e-06
8.00910442e-06
8.00910303e-06
8.00910266e-06
8.00910199e-06
8.00910089e-06
8.00909032e-06
8.009105e-06
8.00910434e-06
8.00909521e-06
8.00909327e-06
8.00910616e-06
8.00907994e-06
8.00909871e-06
8.00908727e-06
8.00909696e-06
8.00909009e-06
8.00910417e-06
8.00909826e-06
8.00909289e-06
8.00910373e-06
8.00909201e-06
8.0091034e-06
8.00909036e-06
8.00911343e-06
8.00909608e-06
8.00909761e-06
8.0090927e-06
8.00910519e-06
8.00909959e-06
8.00910157e-06
8.00909506e-06
8.00910032e-06
8.00910648e-06
8.0091143e-06
8.00910284e-06
8.00910729e-06
8.00910881e-06
8.00909291e-06
8.00910498e-06
8.00908899e-06
8.00910464e-06
8.00909436e-06
8.00909698e-06
8.00909485e-06
8.00910314e-06
8.00910435e-06
8.00909457e-06
8.00909941e-06
8.00910293e-06
8.00910164e-06
8.00910147e-06
8.0090935e-06
8.00910601e-06
8.00910173e-06
8.00909814e-06
8.00911219e-06
8.00910022e-06
8.00910296e-06
8.00909703e-06
8.00910997e-06
8.0091083e-06
8.00909685e-06
8.00911445e-06
8.00909684e-06
8.00911871e-06
8.00910004e-06
8.00910831e-06
8.00910173e-06
8.00910091e-06
8.00909872e-06
8.00911286e-06
8.0090895e-06
8.0090993e-06
8.00910264e-06
8.00909963e-06
8.00910329e-06
8.00910833e-06
8.0091077e-06
8.00909924e-06
8.00911765e-06
8.00911108e-06
8.00911397e-06
8.00910934e-06
8.00910534e-06
8.00910336e-06
8.00910738e-06
8.00910651e-06
8.00910765e-06
8.00910311e-06
8.00910607e-06
8.00911064e-06
8.00910285e-06
8.00911228e-06
8.0091107e-06
8.00911422e-06
8.0091012e-06
8.0091152e-06
8.00910262e-06
8.00911176e-06
8.00910188e-06
8.00911044e-06
8.00909924e-06
8.00910889e-06
8.00909548e-06
8.00910494e-06
8.00910554e-06
8.00910858e-06
8.00910568e-06
8.00911784e-06
8.00910392e-06
8.00911398e-06
8.00909979e-06
8.00911588e-06
8.00910682e-06
8.0091053e-06
8.00910727e-06
8.00910806e-06
8.00910908e-06
8.00910373e-06
8.00911055e-06
8.00910287e-06
8.00911892e-06
8.00909848e-06
8.00910395e-06
8.00910855e-06
8.00910024e-06
8.00910845e-06
8.00911654e-06
8.00910802e-06
8.00911157e-06
8.00911714e-06
8.00910709e-06
8.00911444e-06
8.00911886e-06
8.00910874e-06
8.00910952e-06
8.00910873e-06
8.00912268e-06
8.00910327e-06
8.00911989e-06
8.00910699e-06
8.00911686e-06
8.00910875e-06
8.00910548e-06
8.00911133e-06
8.009117e-06
8.00911066e-06
8.00911188e-06
8.00910696e-06
8.00910578e-06
8.00911084e-06
8.00911745e-06
8.00910804e-06
8.00911213e-06
8.00910448e-06
8.00912115e-06
8.00910598e-06
8.00911411e-06
8.00912172e-06
8.00910527e-06
8.00912036e-06
8.0091169e-06
8.00912285e-06
8.00910844e-06
8.00912687e-06
8.00910333e-06
8.0091153e-06
8.00910422e-06
8.00911466e-06
8.00910265e-06
8.00911843e-06
8.00911089e-06
8.00911069e-06
8.00912207e-06
8.00910882e-06
8.00912376e-06
8.00910909e-06
8.00911429e-06
8.00911285e-06
8.00910871e-06
8.00911748e-06
8.00910634e-06
8.00911559e-06
8.00911696e-06
8.00911895e-06
8.00910699e-06
8.00911246e-06
8.00910508e-06
8.00911362e-06
8.00912102e-06
8.00910817e-06
8.00911158e-06
8.00910862e-06
8.00910931e-06
8.00911642e-06
8.00910243e-06
8.00911105e-06
8.00912132e-06
8.00912345e-06
8.00911756e-06
8.00911506e-06
8.00911358e-06
8.00911375e-06
8.00912289e-06
8.0091131e-06
8.00912508e-06
8.00911853e-06
8.00910884e-06
8.00912698e-06
8.00911966e-06
8.00912049e-06
8.0091154e-06
8.00911722e-06
8.00912136e-06
8.00910738e-06
8.00912346e-06
8.00913147e-06
8.00910299e-06
8.00912361e-06
8.00911151e-06
8.00912694e-06
8.00911599e-06
8.00912168e-06
8.00911206e-06
8.0091145e-06
8.00912023e-06
8.00912201e-06
8.00911617e-06
8.00911919e-06
8.00911861e-06
8.00911958e-06
8.00912434e-06
8.00911363e-06
8.00911292e-06
8.00911915e-06
8.00911281e-06
8.00912579e-06
8.00911215e-06
8.00911611e-06
8.0091195e-06
8.00911661e-06
8.00912777e-06
8.00911647e-06
8.00912889e-06
8.00911332e-06
8.00912938e-06
8.00912215e-06
8.00912338e-06
8.009124e-06
8.00912039e-06
8.00912529e-06
8.00912853e-06
8.00912178e-06
8.00911503e-06
8.00913326e-06
8.00911131e-06
8.00913247e-06
8.0091236e-06
8.00912644e-06
8.00912364e-06
8.00912232e-06
8.00912286e-06
8.00913432e-06
8.00911719e-06
8.00912063e-06
8.00912878e-06
8.00912757e-06
8.00913899e-06
8.00912238e-06
8.00913329e-06
8.0091282e-06
8.00913733e-06
8.00912568e-06
8.00913612e-06
8.0091192e-06
8.00913486e-06
8.00911823e-06
8.00912175e-06
8.00913347e-06
8.00912136e-06
8.00913037e-06
8.00912461e-06
8.00912845e-06
8.00913027e-06
8.00912417e-06
8.00911866e-06
8.00913092e-06
8.00912646e-06
8.00911935e-06
8.00912829e-06
8.00912862e-06
8.00912703e-06
8.00912633e-06
8.00912645e-06
8.00912583e-06
8.00913347e-06
8.00913195e-06
8.00913461e-06
8.00913084e-06
8.0091252e-06
8.00912755e-06
8.00913474e-06
8.00912913e-06
8.0091434e-06
8.00911939e-06
8.00914048e-06
8.00912295e-06
8.00913742e-06
8.00913148e-06
8.00913402e-06
8.00912996e-06
8.00913365e-06
8.00913403e-06
8.00912548e-06
8.00913353e-06
8.00912898e-06
8.00913549e-06
8.00912544e-06
8.00913154e-06
8.00913849e-06
8.00912784e-06
8.0091347e-06
8.00912523e-06
8.00913517e-06
8.00913648e-06
8.0091341e-06
8.00913241e-06
8.00913609e-06
8.00912799e-06
8.0091407e-06
8.00913895e-06
8.00913492e-06
8.00913654e-06
8.00914133e-06
8.00914284e-06
8.0091427e-06
8.0091335e-06
8.00915354e-06
8.00913351e-06
8.0091411e-06
8.00913103e-06
8.00913296e-06
8.00913793e-06
8.0091315e-06
8.00914374e-06
8.00913528e-06
8.00913758e-06
8.0091424e-06
8.00913746e-06
8.00914349e-06
8.00913443e-06
8.00913738e-06
8.00913629e-06
8.00913226e-06
8.00914049e-06
8.00913728e-06
8.00913314e-06
8.00913228e-06
8.00913597e-06
8.00913174e-06
8.00913509e-06
8.00913473e-06
8.00913479e-06
8.0091426e-06
8.00913046e-06
8.0091451e-06
8.00914761e-06
8.00913234e-06
8.0091417e-06
8.0091414e-06
8.00914413e-06
8.00913437e-06
8.00913572e-06
8.00914563e-06
8.00912437e-06
8.00914887e-06
8.00913393e-06
8.0091437e-06
8.00912998e-06
8.00913669e-06
8.0091325e-06
8.00913872e-06
8.00913347e-06
8.00913687e-06
8.00913604e-06
8.00913553e-06
8.00914489e-06
8.00913232e-06
8.00914694e-06
8.00913655e-06
8.00914438e-06
8.00914473e-06
8.00913742e-06
8.00913618e-06
8.00915121e-06
8.00913523e-06
8.0091434e-06
8.00912983e-06
8.00914907e-06
8.009126e-06
8.00915141e-06
8.00912406e-06
8.00915066e-06
8.00913635e-06
8.00913922e-06
8.00914449e-06
8.00913943e-06
8.00914109e-06
8.00913883e-06
8.00913799e-06
8.00914351e-06
8.00913727e-06
8.00914352e-06
8.00914008e-06
8.00914376e-06
8.00914329e-06
8.00913925e-06
8.00914156e-06
8.00914091e-06
8.00913945e-06
8.00914172e-06
8.00914238e-06
8.00914214e-06
8.0091417e-06
8.0091415e-06
8.00914099e-06
8.00914207e-06
8.00914191e-06
8.00914194e-06
8.00914236e-06
8.00914176e-06
8.00914248e-06
8.00914239e-06
8.00914204e-06
8.00914271e-06
8.00914253e-06
8.00914198e-06
8.00914216e-06
8.0091424e-06
8.00914258e-06
8.00914241e-06
8.00914245e-06
8.00914251e-06
8.00914241e-06
8.00914245e-06
8.0091424e-06
8.00914249e-06
8.00914217e-06
8.00914256e-06
8.00914227e-06
8.00914233e-06
8.00914241e-06
8.00914241e-06
8.00914241e-06
8.00914255e-06
8.00914243e-06
8.00914245e-06
8.00914227e-06
8.00914226e-06
8.00914253e-06
8.00914235e-06
8.00914246e-06
8.00914244e-06
8.0091423e-06
8.00914245e-06
8.00914242e-06
8.00914243e-06
8.00914252e-06
8.00914234e-06
8.00914256e-06
8.00914233e-06
8.00914251e-06
8.0091424e-06
8.00914232e-06
8.00914246e-06
8.00914231e-06
8.00914231e-06
8.00914256e-06
)
;

boundaryField
{
    closed
    {
        type            calculated;
        value           uniform 0;
    }
    open
    {
        type            calculated;
        value           uniform 0;
    }
    sides
    {
        type            empty;
    }
}


// ************************************************************************* //
