/*--------------------------------*- C++ -*----------------------------------*\
| =========                 |                                                 |
| \\      /  F ield         | OpenFOAM: The Open Source CFD Toolbox           |
|  \\    /   O peration     | Version:  2206                                  |
|   \\  /    A nd           | Website:  www.openfoam.com                      |
|    \\/     M anipulation  |                                                 |
\*---------------------------------------------------------------------------*/
FoamFile
{
    version     2.0;
    format      ascii;
    arch        "LSB;label=32;scalar=64";
    class       surfaceScalarField;
    location    "1.4e-06";
    object      phi;
}
// * * * * * * * * * * * * * * * * * * * * * * * * * * * * * * * * * * * * * //

dimensions      [1 0 -1 0 0 0 0];

oriented        oriented;

internalField   nonuniform List<scalar> 
3182
(
1.89712492e-19
-1.76156701e-19
9.48389516e-20
-2.03260832e-19
-4.52867689e-24
-2.93451058e-25
-2.11941443e-26
-1.33027079e-31
1.95550289e-30
1.35918806e-25
1.87731054e-24
4.11866099e-23
6.63844241e-19
-2.16809342e-19
-5.41953301e-19
-4.2875807e-24
5.41863799e-19
-5.96244198e-19
-7.3168079e-19
9.48219378e-19
5.47492054e-23
5.36148789e-24
4.1085389e-25
1.38614944e-24
1.82299386e-23
2.39324701e-22
1.51596313e-18
-1.35423215e-18
-3.79405664e-19
2.704127e-19
-8.12113913e-19
9.20784924e-19
4.0530287e-23
-7.03993901e-19
3.25110459e-19
3.79060134e-19
-3.79391726e-19
-3.79122574e-19
3.79268332e-19
-2.44229152e-22
-1.088127e-19
-1.19005452e-18
1.08227344e-18
6.52517968e-19
2.16438941e-19
3.25246411e-19
3.25374507e-19
-2.17348906e-19
-6.50129467e-19
-2.17344095e-19
-3.26636025e-19
-1.51373177e-18
-1.07967442e-19
6.47949355e-19
8.67170183e-19
4.34427691e-19
2.1772194e-19
6.49663365e-19
3.78824437e-22
-2.1636368e-19
-8.67906395e-19
-1.08688056e-18
-4.33497614e-19
-6.51443358e-19
-6.44619259e-19
1.29792539e-21
8.67216811e-19
8.66494752e-19
4.38771376e-19
1.29713858e-18
4.335423e-19
4.40170725e-19
4.29589555e-19
-4.36223588e-19
-4.28490021e-19
4.4449588e-19
8.71159256e-19
2.18166268e-18
3.05511811e-18
3.07553554e-18
3.49089568e-18
3.48520331e-18
3.47940369e-18
3.53127289e-18
3.46325399e-18
2.59503891e-18
2.60023363e-18
1.71752543e-18
3.43765043e-18
-8.98958916e-21
9.01963051e-20
-1.62241094e-18
-1.56670535e-18
2.61924071e-18
7.97241585e-19
-1.70033893e-18
3.34271919e-19
-1.62779369e-18
3.38903016e-18
3.31436529e-18
-1.75185996e-18
3.73141649e-18
1.67709737e-18
4.89181347e-18
4.88657518e-18
4.95459215e-18
4.71765165e-18
1.53283673e-18
3.81127797e-18
4.60683946e-19
5.04374023e-18
4.01875051e-18
2.85506767e-18
4.53657907e-18
6.46572457e-18
1.3722293e-18
3.30437823e-18
3.28979879e-18
1.75900434e-18
3.69819954e-19
-2.04311205e-19
-3.95092466e-18
-1.87304467e-18
-3.25029507e-18
-4.18230593e-18
-2.3148258e-18
-5.66292311e-18
-4.9357776e-18
-4.9746392e-18
-4.69106872e-18
-6.58566825e-18
-3.20712298e-18
-8.3527421e-18
-9.83021351e-18
-8.79579633e-18
-9.78749218e-18
-8.17674548e-18
-5.15516819e-18
-2.01346738e-18
-2.04341258e-18
9.89974617e-19
-9.54666643e-19
1.56350565e-18
4.02812456e-19
3.49097775e-18
1.86154722e-18
3.93118637e-18
1.33314292e-18
1.57726166e-18
3.5203657e-19
3.85608836e-18
3.37711516e-18
3.37040441e-18
4.14726826e-18
2.49739382e-19
3.3447061e-19
-4.00434718e-19
-6.26389508e-19
2.69168846e-18
2.62379663e-18
1.04130033e-18
2.72617634e-18
-5.09946312e-19
1.32240062e-18
-2.26075575e-18
1.88912491e-19
-3.31884302e-18
-3.12890733e-18
-5.52093678e-18
-2.08830846e-18
-4.13165923e-18
-2.48029074e-18
-4.23448703e-18
-2.54287118e-18
-1.57468665e-18
-2.21686132e-18
-5.5158311e-18
-3.38010919e-18
-3.63983899e-18
-3.61667584e-18
-5.29647918e-18
-3.58511187e-18
-5.14833959e-18
-3.63055668e-18
-3.12245738e-18
-3.28737188e-18
-6.50043409e-18
-6.37534236e-18
-6.08005904e-18
-4.55966461e-18
-4.74767114e-18
-6.88926015e-18
-3.9270052e-18
-2.2698683e-19
-5.27021097e-18
-2.0191405e-18
-4.68380865e-18
-4.74784128e-18
-4.64960785e-18
-5.1141364e-18
-2.70170664e-18
1.12314319e-18
6.05954441e-19
5.55243203e-18
5.47549766e-18
5.20293189e-18
6.80514385e-18
1.55674178e-18
3.49417233e-18
3.36083731e-18
3.24055006e-18
5.73276536e-18
-1.99505158e-19
5.40748755e-18
2.90796306e-18
2.85307266e-18
3.46537725e-18
6.6526935e-18
4.86206312e-18
8.37969998e-18
4.81039553e-18
6.42194973e-18
5.54497859e-18
4.91297261e-18
3.55053347e-18
5.47634722e-18
5.48988762e-18
5.93366774e-18
4.21092146e-18
6.62430376e-18
5.23619834e-18
4.694195e-18
6.42459135e-18
4.14623387e-18
1.817152e-18
3.78399434e-18
5.72361996e-18
4.2172526e-18
2.74279182e-18
2.80134809e-18
3.52295802e-19
2.05011896e-18
-7.88048106e-20
3.21035289e-18
4.60422481e-18
1.86088669e-18
3.18936797e-18
1.32573658e-18
2.77382804e-18
3.17946055e-18
1.63732249e-18
3.27005059e-18
4.66346572e-18
1.78122587e-18
-5.86271871e-21
4.39551978e-19
-1.55725915e-18
-2.04189489e-18
-5.11172035e-19
1.3587678e-18
2.45491997e-18
2.84644045e-18
-1.42201263e-19
1.6964082e-18
3.89561184e-18
-1.10123478e-18
2.72032311e-18
5.66503529e-19
-8.76682086e-19
2.51891975e-18
-2.19103969e-21
-1.52043254e-18
-4.74914724e-18
-3.25191553e-18
-3.12497829e-18
-3.07234624e-18
-4.58122224e-19
-3.34130157e-19
-2.18301877e-18
-2.24683538e-18
-1.84590405e-18
-3.89447382e-18
-4.09207313e-18
-3.89052174e-18
-7.75740995e-18
-7.06102804e-18
-3.68319654e-18
-3.5091871e-18
-5.01605879e-18
-5.31367113e-18
-8.45648888e-18
-5.60944762e-18
-5.42216505e-18
-8.55725247e-18
-6.7138938e-18
-6.81983409e-18
-7.41740374e-18
-9.65047121e-18
-8.8236034e-18
-9.52864095e-18
-7.80148911e-18
-1.23843311e-17
-1.12425811e-17
-9.30944191e-18
-1.32551611e-17
-1.49705742e-17
-1.14602153e-17
-1.18744651e-17
-1.03537892e-17
-1.00950708e-17
-1.30611218e-17
-1.26049475e-17
-1.25975609e-17
-1.27443364e-17
-1.47972026e-17
-1.45880508e-17
-1.52826792e-17
-1.55966198e-17
-1.58946331e-17
-1.57979073e-17
-1.17394565e-17
-1.47927756e-17
-1.46470278e-17
-1.16414403e-17
-9.19133746e-18
-9.53422041e-18
-6.30839013e-18
-7.68433371e-18
-6.74287135e-18
-5.35428423e-18
-2.67675691e-18
-5.41987906e-18
-5.56654422e-18
-6.67732861e-20
-3.86623411e-19
-1.99197599e-18
-2.01493709e-18
-3.62136992e-19
-4.7590132e-19
-8.62229248e-19
-7.79258898e-19
-3.70687895e-18
-2.73358605e-18
-2.31812907e-18
-2.37341209e-18
-4.05519378e-18
-4.59316829e-18
-6.91353375e-18
-6.56133454e-18
-5.51851529e-18
-8.33854597e-18
-6.22410932e-18
-5.09060841e-18
-2.03471228e-18
-6.78836716e-19
-1.95682019e-18
-2.01328973e-18
-4.4866827e-18
-5.75639042e-18
-6.19329409e-18
-3.66020225e-18
-6.87115829e-18
-5.13033076e-18
-5.07670682e-18
-6.22140982e-18
-5.46193599e-18
-2.54067974e-18
-1.81094392e-18
-3.86947577e-18
-5.65611579e-18
-5.36132771e-18
-5.56749645e-18
-5.89566192e-18
-7.7393063e-18
-8.01760221e-18
-5.55487506e-18
-4.06573811e-18
-5.45463076e-18
-7.21622927e-18
-5.36170479e-18
-7.03012317e-18
-7.22210747e-18
-5.49787737e-18
-5.2616203e-18
-3.99649214e-18
-4.81796691e-18
-6.63181706e-18
-5.41331335e-18
-3.96542725e-18
-1.75480256e-18
-2.04402895e-18
1.0715209e-18
-8.16030546e-19
-3.70947231e-18
-2.24770477e-18
-2.28163551e-18
-7.15371325e-18
-8.10689519e-18
-8.57627272e-18
-6.61250345e-18
-4.30794669e-18
-4.69660419e-19
-6.73858248e-18
-8.23001266e-18
-8.91812874e-18
-5.48898639e-18
-4.8952642e-18
-8.41633948e-18
-5.34604213e-18
-3.7007532e-18
-2.08930089e-18
-3.30236544e-18
-3.11494333e-18
-3.58718588e-18
-3.02358164e-18
3.30981812e-19
-1.80060144e-18
-6.09885118e-19
-3.91503617e-19
2.99024355e-18
2.1973087e-18
7.30719388e-18
8.44628359e-18
1.2025519e-17
9.36333408e-18
6.08004322e-18
3.74082739e-18
3.2515103e-18
5.04037206e-18
3.27563063e-18
1.76948531e-18
-1.21160043e-18
2.12116216e-19
8.8038992e-19
-8.22747168e-20
-5.27842979e-19
-8.5543209e-19
-2.6518559e-18
1.13517665e-18
1.05120097e-18
4.71228926e-18
3.45138612e-18
2.95681165e-18
1.068436e-18
2.85576202e-18
1.69610749e-18
-7.52820403e-19
8.08223366e-19
-4.54743906e-18
-2.00626647e-18
-5.25536678e-18
-5.20471499e-18
-4.91605481e-18
-1.59838151e-18
-2.94207595e-18
-1.16727109e-18
1.26244e-19
-1.02772055e-18
-3.08953063e-18
1.95802097e-20
-1.70625338e-18
-1.18413387e-18
-9.6177948e-19
-3.18911015e-18
1.62702145e-19
1.88266624e-18
1.90990985e-18
5.52098269e-18
3.73769742e-18
3.43479674e-18
6.83027955e-18
6.90305744e-18
5.97176603e-18
8.42881785e-18
5.4539052e-18
5.3626241e-18
5.59204138e-18
5.80328273e-18
3.74039806e-18
4.24134579e-18
3.52205251e-18
6.9376344e-18
5.40420703e-18
5.13947624e-18
4.60456199e-18
6.00726705e-18
4.75948142e-18
5.33758904e-18
3.58856086e-18
5.58008106e-18
3.46845855e-18
5.36039534e-18
2.24473468e-18
-1.56850033e-18
-6.68013558e-20
-2.90956705e-18
-3.3678093e-20
3.22748833e-18
-4.85551325e-19
-1.45736821e-18
-4.58814746e-18
-3.31261159e-18
-4.3930783e-18
-5.53932819e-18
-5.42447075e-18
-3.6058718e-18
-1.20055407e-18
-3.09002232e-18
-4.68990342e-18
-5.11149663e-18
-5.64381763e-18
-4.8051916e-18
-6.44032204e-18
-6.98544107e-18
-3.99889444e-18
-5.4091176e-18
-7.59046245e-19
-3.75713516e-18
-1.81966716e-18
-6.59553955e-18
-3.56459108e-18
-2.75490531e-18
-3.3504094e-18
-4.43119757e-18
-1.54938535e-18
-3.47985394e-18
-3.0018051e-19
-9.22239832e-19
1.01490478e-18
-2.33938229e-19
-7.83174538e-19
6.26251471e-19
-5.583012e-18
-3.88302598e-18
-2.56036568e-18
-2.57105919e-18
-1.91209682e-18
-5.11410559e-18
-3.61783198e-18
-7.22763838e-18
-8.49013513e-18
-8.85101208e-18
-3.86667687e-18
-4.76149436e-18
-6.68496069e-18
-6.54233196e-18
-6.4132426e-18
-4.99802426e-18
-5.16113048e-18
-5.2480448e-18
-6.74213713e-18
-7.65769056e-18
-7.390782e-18
-8.88172279e-18
-5.36617418e-18
-9.44169003e-18
-7.08223616e-18
-5.14081542e-18
-5.34615317e-18
-2.24642379e-18
-3.66525303e-18
-1.93754992e-18
-2.35487669e-18
-4.37834524e-19
4.46374884e-19
2.38799632e-18
2.01355896e-18
4.19368667e-18
5.20677769e-18
6.12743029e-18
9.66394458e-18
1.07348793e-17
1.59419381e-17
1.27029708e-17
1.09217952e-17
1.06029542e-17
7.30203236e-18
5.80195048e-18
5.6787465e-18
3.80378068e-18
7.1434121e-18
6.59078488e-18
8.74177648e-18
6.33459413e-18
5.8392077e-18
4.86954069e-18
5.84125009e-18
7.16232381e-18
5.31359401e-18
6.53998245e-18
7.26085208e-18
3.55506761e-18
4.19721409e-18
2.81051031e-18
1.27209972e-18
3.61954572e-18
3.09375596e-18
8.43186288e-18
9.00343928e-18
6.81878478e-18
3.24096376e-18
8.13154943e-18
8.87519239e-18
5.15173379e-18
3.73178729e-18
5.55785774e-18
6.77479135e-18
7.95618575e-18
9.33912715e-18
7.87584215e-18
4.66025116e-18
6.11925559e-18
2.13696454e-18
5.14913408e-18
5.00904121e-18
1.6406873e-18
1.62230308e-18
2.17630922e-18
4.08692191e-18
2.24484119e-18
4.09530939e-18
2.21701774e-18
4.52277096e-20
-3.032963e-18
-1.1299547e-18
-3.15472171e-18
-1.97653316e-18
-6.24363131e-19
-8.43953418e-19
-1.17381966e-18
-1.40023098e-18
-3.52899769e-18
-2.04921573e-18
-1.98803939e-18
-4.22720268e-18
-8.92934182e-19
-2.10931586e-18
-2.17739929e-18
-3.77543529e-18
-1.83885714e-18
-2.34985198e-18
-3.34199226e-18
-9.52272073e-19
-3.16378392e-18
-4.79726485e-18
-3.12241703e-18
-3.65401477e-18
-3.60565374e-18
-3.74732267e-18
-9.16817692e-19
-2.02364418e-18
-5.20345525e-18
-7.17192221e-19
-3.00021828e-18
-6.00762133e-18
-4.72184945e-18
-7.06162086e-18
-6.99102468e-18
-8.78667549e-18
-4.54755857e-18
-4.64579065e-18
-4.7109686e-18
-6.65925003e-18
-5.51678605e-18
-2.10566786e-18
-2.27640848e-18
-1.88206531e-18
-1.85270133e-18
-3.32057321e-18
-2.67770128e-19
-1.53041237e-18
-3.88759055e-19
-3.5056674e-19
3.22953707e-19
5.81320006e-19
-5.86298236e-19
-9.02791547e-19
-8.04142155e-20
-3.13969878e-18
-4.02830943e-19
1.21313557e-20
1.31931153e-18
3.61172689e-18
2.96048028e-18
3.00382089e-18
-2.03292544e-19
1.2226729e-18
-2.91236831e-19
-8.5898365e-20
-2.42566233e-18
1.16597056e-18
4.34674587e-20
5.24837319e-19
2.32958669e-18
6.29828868e-18
4.60093222e-18
9.28817571e-18
1.09233777e-17
1.277022e-17
1.42556876e-17
1.12337772e-17
1.29605575e-17
1.2780939e-17
1.10596405e-17
1.00925624e-17
1.1038099e-17
9.25301051e-18
7.34166441e-18
7.5169819e-18
7.69908092e-18
8.97806684e-18
7.46176857e-18
7.70412585e-18
6.90855589e-18
5.43077808e-18
3.06169011e-18
4.57685252e-18
5.96592703e-18
3.65570575e-18
6.8267901e-18
6.9953044e-18
6.57431134e-18
8.20768864e-18
5.41031939e-18
2.51104192e-18
2.63346247e-18
4.47173337e-18
7.65675358e-18
7.79556341e-18
8.9153716e-18
5.56343123e-18
4.99790674e-18
4.38553785e-18
4.4566981e-18
5.33337714e-18
5.97447234e-18
3.88334374e-18
4.42677188e-18
5.9030406e-18
7.58811115e-18
4.09571161e-18
2.25811245e-19
3.30526843e-18
3.19287836e-18
2.9253686e-18
3.26187608e-18
4.375524e-18
4.04145727e-18
3.13054255e-18
3.25344054e-18
5.41572904e-18
4.8794648e-18
3.40279749e-18
3.60312719e-18
4.91859162e-18
1.1522945e-18
1.30030429e-18
-2.11434515e-19
-2.15355898e-18
1.04192909e-18
1.29310244e-18
2.99369142e-18
2.59313493e-19
-1.31324604e-19
-3.25728017e-18
-3.74198306e-18
-4.22068363e-18
-3.12444582e-18
6.35518205e-19
9.27680524e-19
1.84616958e-18
5.62504582e-18
1.9199225e-18
4.24828013e-18
4.51356113e-18
5.77791366e-18
2.33021371e-18
1.64111938e-18
-1.29004756e-18
-3.19923772e-18
-1.85019535e-18
7.44497428e-19
-2.12768488e-18
-9.70444525e-20
-5.16287935e-18
-5.49271306e-18
-1.11806456e-18
-1.69227115e-18
-4.08977187e-18
1.88693627e-18
-1.33797523e-19
3.60141826e-18
-1.46227859e-18
-1.27560251e-18
-2.47263895e-19
8.36229338e-18
3.04638683e-18
5.21088329e-18
6.39625025e-18
3.8448273e-18
1.50761446e-18
-2.47047843e-19
1.44955745e-18
1.81955338e-18
-1.70610796e-18
-1.37640758e-18
-1.8847152e-18
-8.57693704e-18
-5.94936732e-18
-2.24458895e-18
-7.05134352e-18
-2.79006694e-18
-7.62463336e-19
-1.26067191e-18
-1.31784459e-18
-4.16280246e-18
-3.65904847e-18
-8.25858742e-18
-5.24086004e-18
-5.48424118e-18
2.09927312e-19
-1.65234657e-18
-1.80053386e-18
-1.5532397e-18
-1.82503074e-19
-2.69062948e-19
-1.81511283e-18
-5.36644048e-18
-3.81753103e-18
-5.88765663e-18
-5.49278656e-18
-5.48737121e-18
-5.45628408e-18
-8.84923539e-18
-8.20444547e-18
-6.66851055e-18
-7.08517569e-18
-7.13318797e-18
-6.10725284e-18
-4.22530741e-18
-5.8090055e-18
-6.07505878e-18
-4.07954434e-18
-2.41739712e-18
-5.35108264e-18
-6.83449861e-18
-5.68191065e-18
-3.77992044e-18
-3.29350839e-18
-1.86419337e-18
-3.2332234e-18
1.05389797e-18
5.65749837e-19
2.12692049e-18
1.78382368e-18
3.46357192e-18
1.48424951e-18
1.06779592e-18
1.59564518e-18
2.57707975e-18
-2.42655523e-18
-1.38125216e-19
-2.32582167e-18
-2.22410112e-18
-2.64865433e-18
-7.51029721e-19
-9.18686714e-20
-2.73975673e-19
-3.37234472e-18
3.07747133e-19
4.17523164e-20
8.47325767e-19
8.89087668e-19
3.2656179e-18
3.48097808e-18
4.80818023e-18
4.48792408e-18
4.86205163e-18
6.54574639e-18
7.5062024e-18
7.04594071e-18
6.02841112e-18
3.23544178e-18
1.68854917e-18
2.90724282e-18
2.77168442e-18
1.52958554e-18
1.51403434e-18
1.38361499e-18
1.5057595e-18
1.67077636e-18
4.81082601e-19
2.16268611e-18
4.99703201e-19
-7.70610165e-19
-2.44364631e-18
-1.22072874e-18
6.54871459e-19
-2.71421168e-18
-3.63661641e-20
-2.52890621e-18
-1.03981064e-18
2.89889864e-19
-1.1422234e-18
-1.83190527e-18
-2.85390705e-18
-1.23290354e-18
-1.46815332e-18
1.38365191e-18
1.09499834e-18
1.81663787e-18
-1.87348911e-19
7.90487002e-19
1.3025e-18
1.22970075e-18
1.52665288e-18
1.59827105e-18
2.65491695e-18
2.74345141e-18
1.03452034e-18
1.58301546e-18
1.37629944e-18
1.79674041e-18
3.57906372e-18
3.45557325e-18
1.67623092e-19
1.36887713e-18
2.2198636e-19
-4.07624113e-18
-4.21194073e-18
-2.33177393e-18
9.32807309e-20
2.44368428e-20
-1.63424905e-20
1.60488823e-19
5.69931987e-19
-1.62915534e-18
4.16201744e-19
-2.05192453e-19
-3.10023939e-18
-1.2682574e-18
-3.73975169e-18
-4.19762729e-18
-4.61437194e-18
-3.15700006e-18
-1.69204722e-18
-3.2457786e-18
-1.55678e-18
3.1994183e-19
-1.52356706e-18
-1.80429177e-18
-3.57113562e-18
-3.35380266e-18
-1.73353061e-18
-1.94503688e-18
1.89623947e-20
-1.74343566e-18
1.76280931e-18
1.57566038e-19
1.63113156e-18
1.80819755e-18
1.85417946e-18
-2.8936021e-19
1.55240664e-18
-1.62421913e-19
-2.02964712e-20
-1.83256941e-18
-1.49005892e-18
1.85946019e-18
5.78629313e-19
2.17214614e-18
4.07659663e-18
2.37916966e-18
4.37077003e-18
2.89571506e-18
4.29038835e-18
6.67651862e-18
7.65628178e-18
1.15909272e-17
8.05019293e-18
1.13693465e-17
1.14132429e-17
1.10702371e-17
1.26209704e-17
1.05223929e-17
9.64783989e-18
1.09755258e-17
1.25627282e-17
1.44533221e-17
1.12543837e-17
1.336667e-17
9.36627904e-18
9.257646e-18
9.47470539e-18
1.05259645e-17
1.04833591e-17
9.55931014e-18
6.64927235e-18
1.03878015e-17
8.13195675e-18
1.0582725e-17
1.02557323e-17
1.15347014e-17
1.06528934e-17
1.27937774e-17
1.45620401e-17
1.41872948e-17
1.74553433e-17
1.90722665e-17
1.67656755e-17
1.54060325e-17
1.29477024e-17
1.16467111e-17
1.00306288e-17
9.69921496e-18
1.09907895e-17
1.03029739e-17
1.10723554e-17
8.05778977e-18
6.82333441e-18
6.17213755e-18
5.75003092e-18
4.66813267e-18
-3.68313821e-19
4.14118024e-18
2.17505518e-18
2.02359347e-18
7.28612921e-19
1.43033842e-18
-2.14024249e-18
-2.08787981e-18
-5.48913567e-18
-4.37635257e-18
-5.03513905e-18
-5.97893219e-18
-8.1277066e-18
-5.40512037e-18
-6.05039675e-18
-5.8798654e-18
-1.0319115e-17
-9.86875842e-18
-9.87316738e-18
-1.00732194e-17
-8.9836708e-18
-8.61560907e-18
-6.77414875e-18
-8.43395129e-18
-6.13904244e-18
-8.43671787e-18
-8.45676088e-18
-6.50636042e-18
-3.34849712e-18
-3.66667609e-18
-4.36815784e-18
-5.65957848e-18
-6.10018882e-18
-2.42990926e-18
-1.87015497e-18
-1.18776888e-18
-9.60227445e-20
1.35006764e-19
-1.61879773e-18
1.9992635e-18
3.2995807e-18
5.1353472e-18
5.38880868e-18
3.82540857e-18
5.03302028e-18
6.62073301e-18
5.09169055e-18
5.30013348e-18
6.9706484e-18
5.02394498e-18
5.16257369e-18
6.81429755e-18
2.24522154e-18
6.83258596e-18
7.19651731e-18
5.68919078e-18
8.96562901e-18
6.36635157e-18
9.62860169e-18
8.17027754e-18
6.85758191e-18
6.45670844e-18
5.52152558e-18
5.19794869e-18
9.44715214e-18
1.12563495e-17
1.23559747e-17
9.35160417e-18
5.90484547e-18
6.82215719e-18
6.69942439e-18
5.81650451e-18
6.03128456e-18
5.96112103e-18
4.70474862e-18
6.64525626e-18
3.14960426e-18
1.7638486e-18
2.66565373e-18
1.00999577e-18
1.75185746e-18
1.23641944e-18
1.47803647e-18
3.7757692e-18
3.62693318e-18
7.59838101e-19
-7.0202791e-19
-2.7837199e-18
-3.13041122e-18
-1.39968842e-20
-3.56351739e-18
-1.51632178e-18
-3.39463549e-19
-2.73699469e-18
-3.58550314e-18
-3.54452468e-18
-3.06765997e-18
-3.76964823e-18
-1.85056904e-18
-3.52806693e-18
-3.65485613e-18
-1.69770249e-18
-5.31641459e-18
-7.0181648e-18
-9.17214144e-18
-7.60255492e-18
-1.08855213e-17
-8.16763379e-18
-8.05288937e-18
-7.09612153e-18
-6.31294189e-18
-8.72822951e-18
-5.45751257e-18
-4.02175476e-18
-3.66640281e-18
-3.21242102e-18
-7.46169633e-19
-4.53663981e-19
-5.74173944e-19
-4.17553765e-18
-7.24632198e-18
-8.60052678e-18
-5.65948327e-18
-6.02230399e-18
-2.98846963e-18
-1.15987878e-18
1.4676488e-18
-5.06353361e-19
-6.84509691e-19
-1.62299261e-18
-3.51166901e-18
-4.74216351e-19
1.79202404e-18
1.62612308e-18
1.82846769e-18
3.46030143e-18
1.00166115e-18
-7.71588788e-19
7.50983736e-19
9.10226295e-19
2.28129623e-18
-1.5402977e-18
-4.76955091e-19
2.2522682e-18
2.80107178e-18
7.62589672e-18
3.79461803e-18
4.35222794e-19
1.58381429e-18
-2.66994981e-19
5.90440889e-18
4.16072899e-18
2.87720261e-18
1.632788e-18
4.9477635e-18
3.89692353e-19
-1.56893308e-18
-3.35133777e-18
-5.66404804e-18
-3.53802847e-18
-7.12136143e-18
-1.01889889e-17
-4.20398096e-18
-8.78604293e-18
-9.91065782e-18
-6.78236923e-18
-7.74986997e-18
-7.27380064e-18
-6.31034594e-18
-3.31236584e-18
-8.50397451e-18
-3.20854676e-18
-6.80658419e-18
-7.35479718e-18
-9.74941198e-18
-9.49142495e-18
-1.15340411e-17
-1.03505798e-17
-1.05305556e-17
-6.34076101e-18
-8.35054517e-18
-5.74050376e-18
-6.07537365e-18
-4.84712545e-18
-8.20689515e-18
-1.11938286e-17
-6.26047055e-18
-7.94325797e-18
-4.92267176e-18
-9.49596686e-18
-7.55335524e-18
-7.90947607e-18
-6.51913087e-18
-9.65004438e-18
-9.30805161e-18
-9.27225132e-18
-9.48165135e-18
-6.21031453e-18
-6.08995693e-18
-4.7616295e-18
-4.3415295e-18
-4.13994065e-18
-3.59808017e-18
-5.60490697e-18
-6.16510347e-18
-6.13101844e-18
-4.20097585e-18
-8.00365197e-18
-9.34456946e-18
-4.10147714e-18
-8.57463537e-18
-8.18263171e-18
-6.62997795e-18
-2.80238591e-18
-3.07317598e-18
-2.95760265e-18
-1.53843884e-18
-3.93167797e-18
-4.02576451e-18
-3.73424541e-18
-2.17632254e-18
-3.9081265e-18
-5.35700526e-18
-3.67610249e-18
5.49255129e-19
4.3778781e-19
7.24167716e-19
-8.74316359e-19
8.98684917e-19
4.01736789e-18
2.404951e-18
3.38628378e-18
2.99731743e-18
2.70545517e-18
1.75213748e-18
2.2483462e-18
3.86999436e-18
2.1725206e-18
1.30211695e-18
1.21810128e-18
3.26678582e-18
3.00089089e-18
1.08367733e-18
-1.33105841e-18
-1.84996899e-18
-2.43784256e-18
-2.34181774e-18
-4.33972596e-18
-2.5910549e-18
-1.84451767e-18
-5.4354473e-19
-1.62039716e-18
-1.46812657e-18
-7.4650471e-18
-5.4409127e-18
-5.59671467e-18
-3.13270914e-18
-5.18743296e-18
-3.65626814e-18
-5.73858282e-18
-7.69714442e-18
-7.86453702e-18
-6.80226493e-18
-7.0107793e-18
-8.39063034e-18
-8.59270014e-18
-7.1265065e-18
-6.84251235e-18
-5.45657529e-18
-6.28639157e-18
-5.60314615e-18
-6.11747289e-18
-7.14326559e-18
-5.17243233e-18
-4.38000102e-18
-6.05038166e-18
-5.89223881e-18
-7.73224095e-18
-9.68420539e-18
-8.80333293e-18
-1.14404919e-17
-1.17131567e-17
-1.21505845e-17
-1.13713845e-17
-1.07454718e-17
-8.78171486e-18
-1.11209854e-17
-8.06447458e-18
-6.26026831e-18
-8.11119516e-18
-4.93855683e-18
-7.47057325e-18
-2.63150083e-18
-3.25531648e-18
-1.18114164e-18
-4.96801065e-18
-3.87564213e-18
-3.93252853e-19
-7.1562194e-20
-1.65163117e-18
2.08845503e-18
1.78541677e-18
3.70135864e-18
2.00190933e-18
1.89405565e-18
1.69511754e-18
3.02314774e-18
4.66782761e-18
4.36596805e-18
6.86930354e-18
8.42159882e-18
8.94975566e-18
9.6957318e-18
9.10709014e-18
1.05132951e-17
7.41689122e-18
7.05363334e-18
6.58218781e-18
7.29394849e-18
5.23966777e-18
3.80733734e-18
7.70517963e-18
7.10266651e-18
5.30347182e-18
6.13403782e-18
4.95538905e-18
8.97052683e-18
5.08275165e-18
4.97735318e-18
1.84933598e-18
6.7468983e-18
4.84191558e-18
2.09640033e-18
1.99274741e-18
1.99588155e-18
2.14549008e-18
5.96055835e-18
2.38538614e-18
4.67928955e-18
4.10216272e-18
4.48460245e-18
6.51252746e-18
5.9124457e-18
9.74027368e-18
1.25342403e-17
9.05500026e-18
1.03614759e-17
8.59767594e-18
8.01389772e-18
8.74665883e-18
9.45104465e-18
1.26517011e-17
8.15527502e-18
9.69602705e-18
6.22545375e-18
5.35798909e-18
5.30531165e-18
3.76091235e-18
3.41678275e-18
2.23936555e-18
4.06090327e-18
3.80482284e-18
3.75155218e-18
5.39901161e-18
8.95480915e-18
8.01793514e-18
3.22783934e-18
4.3526334e-18
2.93136037e-18
7.19610189e-19
2.02012137e-18
4.67815274e-19
2.32328724e-18
1.19876705e-18
-3.20393493e-19
1.09789558e-18
-8.4917693e-19
-3.18217521e-18
-1.4444604e-18
-1.87149401e-18
-1.96005331e-18
-3.57512985e-18
-2.08426269e-18
-3.40073514e-18
-2.29465264e-18
-1.36108633e-18
-1.60996367e-18
-2.1751271e-18
-5.57085677e-18
-7.57409086e-18
-5.74240016e-18
-7.6737515e-18
-5.86634526e-18
-3.731149e-18
-1.74626993e-18
-3.47381018e-18
8.5953046e-20
-2.35206848e-18
-6.72369264e-19
-3.00451677e-18
-2.76514969e-18
-2.72923722e-19
2.00097727e-19
-1.01656873e-18
-1.55844248e-18
-1.71788642e-18
1.29656136e-18
-1.22727151e-18
-4.00568098e-18
-2.27132869e-18
-3.30715637e-18
-1.20482653e-18
-7.71032118e-19
4.1347429e-20
-1.94356698e-18
-2.02294705e-20
2.16789074e-18
-1.32483207e-18
1.68844775e-18
-8.15460178e-19
1.58386372e-18
-6.58414699e-19
1.71418857e-18
1.26807097e-18
-2.08990389e-18
-2.17887761e-18
-1.09234504e-18
6.94054897e-19
-2.34829959e-18
-2.10554096e-18
-2.12012475e-18
1.73576618e-18
-5.51381203e-19
2.08931645e-19
-2.76871662e-18
-4.9468647e-19
5.41344107e-19
-1.3399969e-18
-1.34030198e-18
-3.55070564e-18
-2.57005e-18
-4.08202343e-18
-5.31399121e-19
-8.56988155e-19
-2.32469319e-18
-3.50714166e-18
-7.92941633e-18
-5.08698445e-18
-3.32245251e-18
-3.81435818e-18
-3.02676688e-18
-3.84641489e-18
-1.09576731e-18
-1.14234398e-18
-2.20966785e-18
-5.49139582e-18
-3.68987489e-18
-2.12966681e-18
-3.34836291e-18
-4.33740427e-18
-1.59465584e-18
-3.24843194e-18
-4.8223287e-18
-6.14276602e-18
-6.29097987e-18
-6.75772016e-18
-1.04252182e-17
-7.6139051e-18
-8.86983878e-18
-7.8743585e-18
-5.64611951e-18
-4.46409153e-18
-2.02862716e-18
-3.85020763e-18
-4.49239468e-18
-6.02247676e-18
-2.72135342e-18
-4.51055653e-18
-4.13123359e-18
-7.56847881e-18
-5.96501409e-18
-6.2243718e-18
-7.58209263e-18
-7.59913504e-18
-3.52955337e-18
-5.46146708e-18
-5.04932532e-18
-7.16603409e-18
-7.1479448e-18
-5.16910609e-18
-5.70395876e-18
-6.60446406e-18
-8.60016382e-18
-9.06338762e-18
-8.66193734e-18
-7.34037664e-18
-7.00492295e-18
-7.59056806e-18
-6.27592673e-18
-7.75214831e-18
-6.0495996e-18
-7.45676167e-18
-7.27806282e-18
-7.10177914e-18
-7.00211629e-18
-1.89829089e-18
-5.58938644e-18
-3.4535024e-18
-6.50258061e-18
-3.28503335e-18
-8.14017605e-19
-3.16719709e-19
-1.69102689e-18
1.8052369e-19
4.62776557e-19
5.52834874e-18
5.86997088e-18
2.37479162e-18
2.24893812e-18
4.3097892e-18
4.32924077e-18
2.38215718e-18
3.48675312e-18
5.23968535e-18
7.03463504e-18
7.4882207e-18
7.30654813e-18
7.0127865e-18
3.71632398e-18
3.22963662e-18
3.07331271e-18
1.48479409e-18
4.49908907e-18
1.98811438e-18
3.02190846e-18
1.48386459e-18
3.51409256e-18
3.19107777e-18
4.5148156e-18
4.65847861e-18
4.06982758e-18
7.8934617e-19
1.20482448e-18
7.9247517e-19
-3.81961345e-19
-5.05173718e-19
-1.26138037e-18
2.10720431e-18
2.25689679e-18
2.21627783e-18
5.09920139e-19
2.07275289e-18
3.93419694e-19
5.57254921e-18
3.49002739e-18
6.636887e-18
6.46932907e-18
1.45744182e-18
1.29729874e-18
1.59121183e-18
2.38472752e-18
1.55562028e-18
1.85370546e-18
7.16213808e-18
5.6538342e-18
7.38590846e-18
3.80123886e-18
5.8587616e-18
2.25231549e-18
-2.37077256e-18
-1.61184153e-18
-1.36689733e-18
-4.65209696e-19
1.32752197e-18
9.06516516e-19
7.44023761e-19
-2.47361406e-19
-3.40324133e-19
-2.3158818e-18
2.66072302e-19
3.18966843e-18
8.71781337e-19
1.52276958e-18
-3.49336074e-18
-6.72973013e-18
-8.91749187e-18
-1.05591002e-17
-1.19115376e-17
-8.69671158e-18
-8.64523601e-18
-1.08902569e-17
-1.12843501e-17
-1.08779607e-17
-9.21122333e-18
-1.25496566e-17
-1.1242548e-17
-1.08351693e-17
-1.15077685e-17
-8.06782764e-18
-5.55920573e-18
-3.77810619e-18
-3.81952555e-18
-4.23834515e-18
-2.30000062e-18
-6.63345852e-18
-7.12370002e-18
-4.88577025e-18
-4.77987546e-18
-5.64262945e-18
-5.52616784e-18
-7.6677609e-18
-7.7213378e-18
-7.15554807e-18
-7.32226547e-18
-2.50719728e-18
-2.62783021e-18
-4.22516872e-18
-5.68165846e-18
-5.37786263e-18
-6.89737708e-18
-3.83982873e-18
-1.91491431e-18
-1.31957496e-18
-4.15706716e-18
-3.68128131e-18
-2.21935475e-18
-7.06075395e-19
-1.68050942e-18
-4.98541884e-18
-7.12515648e-18
-6.56506649e-18
-4.20711476e-18
-4.47409002e-18
-4.14892285e-18
-2.77019243e-18
-1.23453199e-18
-3.33571746e-18
-3.32157617e-18
-1.85248561e-18
-5.13380928e-18
-5.06011663e-18
-5.24829751e-18
-5.17984588e-18
-4.95400204e-18
-3.89317967e-18
-1.83987666e-18
-7.90975844e-19
7.51679182e-19
1.83862199e-18
5.84038941e-19
1.27148294e-19
5.2584303e-18
5.3035182e-18
5.12832184e-18
6.90602606e-18
8.18192153e-18
3.90538602e-18
2.07546369e-18
5.96955427e-19
2.29658604e-18
-8.5643137e-19
1.99746785e-18
3.3221353e-18
2.30626723e-18
9.98756848e-19
5.46263316e-18
5.26114078e-18
5.46411209e-18
5.5323286e-18
7.01359428e-18
6.90564599e-18
7.11042139e-18
7.20740563e-18
6.56555557e-18
6.69376617e-18
9.30585653e-18
8.44992229e-18
3.59613582e-18
-1.54299417e-20
3.32154261e-18
2.19299916e-18
-1.57613238e-18
-3.10962895e-19
-1.59153057e-18
4.18373062e-18
2.34501796e-18
5.58963169e-18
1.37224891e-18
1.34092317e-18
1.45574523e-18
4.66382806e-18
6.27989074e-18
1.057265e-17
9.05045432e-18
6.03610161e-18
7.164579e-18
5.10207066e-18
5.39703476e-18
3.20869828e-18
3.69376149e-18
2.32679254e-18
1.78902804e-18
1.40054975e-18
1.68573415e-18
1.40746597e-18
3.72985799e-19
2.03221994e-18
2.45838128e-20
1.42008081e-18
-1.66058869e-18
-2.317498e-18
-6.59246276e-19
-5.11766566e-18
-2.55172698e-18
-4.11538808e-18
-2.83115434e-18
-5.13481869e-18
-1.64629582e-18
-2.58832859e-18
6.91097681e-19
2.16914969e-18
2.87646898e-18
3.7920891e-18
3.1370892e-18
3.15305486e-18
2.33234236e-18
3.60958114e-18
3.79633557e-18
2.12854191e-18
1.97731302e-18
2.06966725e-18
7.12222185e-19
-1.45904164e-18
6.42451835e-20
4.68423298e-19
3.35087537e-19
3.27186933e-18
4.36417627e-18
1.23829977e-18
1.34161389e-18
4.91699545e-18
2.56774442e-18
2.60763229e-18
3.7191989e-18
5.53006577e-19
-1.13861861e-18
-1.09092434e-18
-3.84743099e-18
-4.10698688e-18
-8.61343937e-19
-2.17904631e-18
1.25222413e-18
-7.48258177e-18
-3.0738857e-19
-2.50943813e-18
1.17340406e-19
-1.53164187e-18
-1.01734652e-18
1.59451211e-18
2.04340416e-18
1.73291626e-18
5.19372063e-19
-8.04876474e-19
-4.20363659e-18
-2.95773229e-18
-6.15405567e-20
-1.89448379e-18
2.09782413e-19
1.48829328e-18
7.65435768e-19
-1.05302331e-18
-1.25608881e-19
-3.42593048e-18
-2.80609953e-18
-1.73543587e-18
-9.58671633e-19
1.97074037e-18
2.02224192e-18
1.81940405e-18
1.2563908e-18
9.23090343e-20
-1.05623592e-19
-2.33474456e-18
-2.03416565e-18
-5.19456244e-18
-5.20342506e-19
-1.53613628e-18
-1.58925427e-18
9.67433692e-19
-8.93331901e-19
-7.57103787e-19
-1.63564577e-18
-6.03272922e-19
-7.3555787e-19
-2.26496187e-19
1.73101785e-19
3.60551935e-18
1.15256787e-18
9.28959105e-19
4.36168471e-18
4.59355029e-18
4.62464173e-18
6.6341337e-18
6.61106716e-18
6.61362346e-18
7.94053928e-18
4.75440246e-18
3.12624471e-18
4.48871352e-18
1.07539449e-18
2.25790521e-18
3.35397123e-18
3.56314739e-18
2.68874062e-18
9.1369478e-19
3.24745013e-18
3.19212668e-18
4.73706141e-18
2.77397469e-18
5.86241301e-18
6.07017639e-18
5.44222203e-18
3.44920628e-18
5.01262971e-18
3.81757199e-18
3.72673232e-18
4.99765251e-18
5.0786582e-19
8.74292082e-20
2.6695306e-19
6.37562923e-18
3.71981604e-18
6.64830722e-18
8.21884063e-18
7.16641052e-18
8.59701202e-18
6.81972046e-18
9.20859548e-18
1.10721987e-17
1.07350329e-17
1.06753463e-17
8.08987324e-18
8.57231814e-18
1.02462917e-17
1.40204779e-17
1.23816464e-17
1.03983843e-17
8.37456589e-18
1.06670589e-17
5.81245593e-18
4.55111722e-18
3.76354697e-18
2.99625155e-18
6.64562665e-18
8.30371349e-18
6.73579468e-18
1.16089702e-17
1.07707927e-17
9.48066408e-18
9.60922565e-18
1.15187194e-17
1.09269907e-17
1.27246254e-17
1.39553681e-17