/*--------------------------------*- C++ -*----------------------------------*\
| =========                 |                                                 |
| \\      /  F ield         | OpenFOAM: The Open Source CFD Toolbox           |
|  \\    /   O peration     | Version:  2206                                  |
|   \\  /    A nd           | Website:  www.openfoam.com                      |
|    \\/     M anipulation  |                                                 |
\*---------------------------------------------------------------------------*/
FoamFile
{
    version     2.0;
    format      ascii;
    arch        "LSB;label=32;scalar=64";
    class       volVectorField;
    location    "1.4e-06";
    object      U;
}
// * * * * * * * * * * * * * * * * * * * * * * * * * * * * * * * * * * * * * //

dimensions      [0 1 -1 0 0 0 0];

internalField   nonuniform List<vector> 
3183
(
(1.36994051e-14 0 0)
(-3.60380885e-15 0 0)
(1.89598657e-15 0 0)
(-1.3966486e-14 0 0)
(-1.46964644e-14 0 0)
(-8.56714328e-20 0 0)
(-6.69635919e-21 0 0)
(-6.58191568e-26 0 0)
(2.26068274e-26 0 0)
(5.65681522e-25 0 0)
(4.08108734e-20 0 0)
(5.24903378e-19 0 0)
(5.04931411e-14 0 0)
(2.6565839e-14 0 0)
(-3.84372149e-14 0 0)
(-4.77994942e-14 0 0)
(4.64274906e-14 0 0)
(-8.14338638e-15 0 0)
(-1.15669362e-13 0 0)
(1.35227282e-14 0 0)
(6.64096607e-14 0 0)
(1.55743153e-18 0 0)
(1.29782477e-19 0 0)
(2.80305219e-23 0 0)
(4.16182978e-19 0 0)
(5.07826762e-18 0 0)
(1.2878412e-13 0 0)
(-6.26230842e-19 0 0)
(-1.42592542e-13 0 0)
(3.74937481e-14 0 0)
(-9.47216039e-14 0 0)
(3.32263771e-14 0 0)
(8.73990469e-14 0 0)
(-6.43692386e-14 0 0)
(1.08051693e-18 0 0)
(7.12700782e-14 0 0)
(-7.50048329e-14 0 0)
(-7.89203438e-14 0 0)
(8.30286047e-14 0 0)
(-5.36100648e-18 0 0)
(-9.19644494e-14 0 0)
(-1.3821029e-13 0 0)
(7.26858593e-14 0 0)
(1.22485084e-13 0 0)
(1.28857125e-13 0 0)
(2.18264425e-17 0 0)
(3.57069597e-14 0 0)
(-8.32752938e-17 0 0)
(-1.18401419e-13 0 0)
(-4.16030237e-14 0 0)
(-2.20173617e-14 0 0)
(-1.37921254e-13 0 0)
(-9.66552722e-14 0 0)
(5.07510645e-14 0 0)
(2.14172422e-13 0 0)
(4.36125387e-16 0 0)
(5.94195438e-14 0 0)
(1.24710669e-13 0 0)
(6.55374808e-14 0 0)
(-3.43855896e-14 0 0)
(-1.0903783e-13 0 0)
(-1.916209e-13 0 0)
(-8.05721362e-14 0 0)
(-1.69474731e-13 0 0)
(-8.84764255e-14 0 0)
(-3.89629048e-16 0 0)
(9.87487432e-14 0 0)
(2.07053217e-13 0 0)
(1.63824904e-13 0 0)
(1.11389386e-15 0 0)
(1.78949232e-13 0 0)
(6.58562011e-14 0 0)
(6.65874297e-14 0 0)
(1.37997528e-13 0 0)
(-7.2775811e-14 0 0)
(-2.28095655e-13 0 0)
(8.14906173e-14 0 0)
(2.61474925e-13 0 0)
(3.64004186e-13 0 0)
(5.75111683e-13 0 0)
(6.05066721e-13 0 0)
(5.2344903e-13 0 0)
(6.67433252e-13 0 0)
(3.58593402e-13 0 0)
(2.63069202e-13 0 0)
(6.34521161e-13 0 0)
(3.99816849e-13 0 0)
(1.72647373e-13 0 0)
(5.80844518e-13 0 0)
(-2.96823408e-13 0 0)
(1.84060937e-13 0 0)
(2.48084495e-15 0 0)
(-5.13769795e-13 0 0)
(2.46316004e-14 0 0)
(5.72604069e-13 0 0)
(-2.29721441e-13 0 0)
(-3.24988581e-13 0 0)
(-5.74881511e-14 0 0)
(4.92700227e-13 0 0)
(5.81300991e-14 0 0)
(-6.37368788e-14 0 0)
(5.27598534e-13 0 0)
(1.21222371e-13 0 0)
(6.93955711e-13 0 0)
(5.22483172e-13 0 0)
(1.05020219e-12 0 0)
(6.48040823e-13 0 0)
(7.77131447e-13 0 0)
(4.49261773e-13 0 0)
(-1.6204061e-13 0 0)
(1.11694925e-12 0 0)
(1.13793688e-12 0 0)
(1.28058324e-13 0 0)
(5.79618722e-15 0 0)
(1.11338507e-12 0 0)
(5.29353655e-13 0 0)
(1.15043221e-13 0 0)
(4.48055716e-13 0 0)
(6.09221469e-13 0 0)
(1.43454925e-13 0 0)
(-1.84944694e-14 0 0)
(-7.38459552e-14 0 0)
(-3.86853523e-13 0 0)
(-6.76824205e-13 0 0)
(-2.67447037e-13 0 0)
(-1.58336026e-13 0 0)
(-1.926367e-13 0 0)
(-1.66780101e-12 0 0)
(-4.0539028e-13 0 0)
(-1.38315022e-12 0 0)
(-2.04198862e-13 0 0)
(-1.0296871e-12 0 0)
(-9.62381781e-13 0 0)
(-1.72423434e-12 0 0)
(-1.24390347e-12 0 0)
(-1.01535087e-12 0 0)
(-1.74975195e-12 0 0)
(-9.22717533e-13 0 0)
(-6.71088212e-13 0 0)
(1.31470888e-13 0 0)
(-2.5250564e-13 0 0)
(-4.03427626e-13 0 0)
(3.92400975e-13 0 0)
(-4.8373375e-13 0 0)
(6.41218971e-13 0 0)
(8.7205632e-13 0 0)
(1.07577062e-13 0 0)
(6.93632894e-13 0 0)
(-3.16404193e-13 0 0)
(-6.56106639e-14 0 0)
(8.51280589e-13 0 0)
(7.2391853e-13 0 0)
(1.12099502e-13 0 0)
(4.72036357e-13 0 0)
(6.41721693e-13 0 0)
(-2.17607554e-13 0 0)
(8.49138064e-14 0 0)
(2.98920285e-13 0 0)
(7.3482138e-14 0 0)
(1.29165774e-13 0 0)
(-3.19496508e-14 0 0)
(7.95288932e-13 0 0)
(-4.58281724e-14 0 0)
(-3.47040368e-14 0 0)
(-1.30494392e-13 0 0)
(4.54049184e-13 0 0)
(-9.46132107e-13 0 0)
(-3.41929165e-13 0 0)
(-1.50099483e-13 0 0)
(-6.64621689e-13 0 0)
(-8.85630301e-13 0 0)
(-2.51416078e-13 0 0)
(-6.41594791e-13 0 0)
(-1.89172337e-13 0 0)
(-4.79139124e-13 0 0)
(-4.13235816e-13 0 0)
(-3.35974512e-13 0 0)
(-8.53340832e-13 0 0)
(-3.99406611e-13 0 0)
(-6.18297796e-13 0 0)
(-6.87007544e-13 0 0)
(-9.34891151e-13 0 0)
(-8.89231102e-13 0 0)
(1.94050805e-13 0 0)
(-4.12990236e-13 0 0)
(-5.09754003e-13 0 0)
(-8.48610501e-13 0 0)
(-1.00759172e-12 0 0)
(-1.57758565e-12 0 0)
(-5.30510533e-13 0 0)
(-2.25954328e-13 0 0)
(-8.10070788e-13 0 0)
(-1.21783392e-12 0 0)
(-1.82201802e-13 0 0)
(-2.26286622e-13 0 0)
(-4.33081301e-13 0 0)
(-8.51159012e-13 0 0)
(-6.79611425e-13 0 0)
(-5.47182296e-13 0 0)
(-8.37609123e-13 0 0)
(-2.86236347e-13 0 0)
(-6.0875063e-13 0 0)
(6.31024564e-13 0 0)
(5.2998349e-13 0 0)
(6.29391798e-13 0 0)
(6.24812733e-13 0 0)
(6.8393008e-13 0 0)
(8.99916641e-13 0 0)
(1.89130592e-13 0 0)
(4.54442728e-13 0 0)
(5.55237778e-13 0 0)
(9.05442645e-13 0 0)
(-5.24357189e-14 0 0)
(1.2821986e-12 0 0)
(-1.11234395e-13 0 0)
(4.62193197e-13 0 0)
(6.2945573e-13 0 0)
(6.65253971e-13 0 0)
(1.1599988e-12 0 0)
(7.23874566e-13 0 0)
(5.97855074e-13 0 0)
(1.2253341e-12 0 0)
(1.14764021e-12 0 0)
(8.97492952e-13 0 0)
(4.46402029e-13 0 0)
(-1.19092808e-13 0 0)
(9.70061365e-13 0 0)
(1.11730952e-12 0 0)
(9.59836117e-13 0 0)
(3.86949529e-13 0 0)
(1.63256435e-12 0 0)
(1.52852778e-13 0 0)
(1.08226181e-12 0 0)
(1.21460565e-12 0 0)
(4.90490268e-13 0 0)
(-1.62053303e-13 0 0)
(1.04547179e-12 0 0)
(1.1455778e-12 0 0)
(4.77354819e-13 0 0)
(4.73264669e-13 0 0)
(1.3190583e-13 0 0)
(-2.08081464e-13 0 0)
(2.47569849e-13 0 0)
(4.34617822e-13 0 0)
(5.76681282e-13 0 0)
(4.33170915e-13 0 0)
(3.36531626e-14 0 0)
(1.73056676e-13 0 0)
(5.80057813e-13 0 0)
(2.28606141e-13 0 0)
(5.90348729e-13 0 0)
(2.80413971e-13 0 0)
(3.11875945e-13 0 0)
(5.75491741e-13 0 0)
(6.4571982e-13 0 0)
(7.78513657e-14 0 0)
(-3.87349806e-13 0 0)
(9.77393595e-14 0 0)
(-1.92247549e-14 0 0)
(2.95358681e-14 0 0)
(-3.27904522e-14 0 0)
(1.26861865e-12 0 0)
(-2.25715374e-13 0 0)
(2.02889142e-14 0 0)
(5.95182881e-13 0 0)
(-8.96259321e-14 0 0)
(-3.04472767e-15 0 0)
(2.50206222e-13 0 0)
(2.58061726e-13 0 0)
(-3.13937945e-13 0 0)
(8.00846062e-13 0 0)
(-5.64428401e-13 0 0)
(-7.72463548e-13 0 0)
(-6.15761775e-13 0 0)
(-1.23760309e-13 0 0)
(-3.8566354e-14 0 0)
(-7.86112878e-13 0 0)
(-2.77326451e-14 0 0)
(-3.78917855e-13 0 0)
(-3.97062354e-13 0 0)
(-4.04034207e-13 0 0)
(-6.13200962e-13 0 0)
(-5.03729578e-13 0 0)
(-3.65853686e-13 0 0)
(-9.40072019e-13 0 0)
(-9.93458596e-13 0 0)
(-7.36431896e-13 0 0)
(-2.53360265e-13 0 0)
(-1.3302448e-12 0 0)
(-1.90179678e-13 0 0)
(-6.84675771e-13 0 0)
(-1.57439115e-12 0 0)
(-3.87543893e-13 0 0)
(-1.23787269e-12 0 0)
(-1.24421865e-12 0 0)
(-1.00787846e-12 0 0)
(-1.13964373e-12 0 0)
(-9.76763678e-13 0 0)
(-1.80915407e-12 0 0)
(-1.83353317e-12 0 0)
(-1.85996718e-13 0 0)
(-1.83404305e-12 0 0)
(-1.46888477e-12 0 0)
(-1.94796277e-12 0 0)
(-1.91401863e-12 0 0)
(-2.69641189e-12 0 0)
(-2.02540684e-12 0 0)
(-1.65879239e-12 0 0)
(-1.43719422e-12 0 0)
(-1.76652262e-12 0 0)
(-1.60347739e-12 0 0)
(-2.24910998e-12 0 0)
(-1.74324842e-12 0 0)
(-1.65682006e-12 0 0)
(-1.7727356e-12 0 0)
(-3.17398773e-12 0 0)
(-2.46180231e-12 0 0)
(-1.95536464e-12 0 0)
(-2.17536017e-12 0 0)
(-2.95790355e-12 0 0)
(-2.08825058e-12 0 0)
(-2.31000474e-12 0 0)
(-2.79555535e-12 0 0)
(-1.63167938e-12 0 0)
(-1.90515669e-12 0 0)
(-1.26960202e-12 0 0)
(-1.83462674e-12 0 0)
(-1.11037036e-12 0 0)
(-8.45157938e-13 0 0)
(-9.51049753e-13 0 0)
(-4.69254279e-13 0 0)
(-3.89060263e-13 0 0)
(-1.01751769e-12 0 0)
(-3.29324084e-16 0 0)
(-1.15433105e-13 0 0)
(-3.07066599e-13 0 0)
(-3.24358635e-13 0 0)
(-7.19288604e-14 0 0)
(-1.01015522e-13 0 0)
(-6.8799667e-14 0 0)
(-1.31894351e-13 0 0)
(-3.17071039e-13 0 0)
(-7.90751272e-13 0 0)
(-8.66690268e-13 0 0)
(3.05407647e-13 0 0)
(-7.15990911e-13 0 0)
(-9.40848545e-13 0 0)
(-5.06134588e-13 0 0)
(-1.19655932e-12 0 0)
(-1.4527886e-12 0 0)
(-5.7212619e-13 0 0)
(-1.01589263e-12 0 0)
(-1.23046062e-12 0 0)
(-3.5906062e-13 0 0)
(-2.98763305e-13 0 0)
(-3.8728522e-13 0 0)
(1.8815665e-13 0 0)
(-6.61306613e-13 0 0)
(-8.50704777e-13 0 0)
(-1.1575676e-12 0 0)
(-6.78038673e-13 0 0)
(-1.06355385e-12 0 0)
(-1.21728142e-12 0 0)
(-7.45163037e-13 0 0)
(-4.6108469e-13 0 0)
(-1.24848865e-12 0 0)
(-9.60148019e-13 0 0)
(2.64090606e-13 0 0)
(-7.55686826e-13 0 0)
(2.33038307e-14 0 0)
(-1.03386103e-12 0 0)
(-9.08020768e-13 0 0)
(-4.73454796e-13 0 0)
(-1.47810814e-12 0 0)
(-1.19152431e-12 0 0)
(-1.04283916e-12 0 0)
(-7.66735851e-13 0 0)
(-5.9340828e-13 0 0)
(-9.0298363e-13 0 0)
(-1.24059047e-12 0 0)
(-6.17504115e-13 0 0)
(-1.22184425e-12 0 0)
(-1.06258522e-12 0 0)
(-1.15830613e-12 0 0)
(-1.00748451e-12 0 0)
(-6.40670587e-13 0 0)
(-1.29440322e-12 0 0)
(-4.39865737e-13 0 0)
(-7.08137447e-13 0 0)
(-6.23303116e-13 0 0)
(-2.10331885e-13 0 0)
(-4.15628614e-14 0 0)
(-2.64986731e-14 0 0)
(-2.12922323e-13 0 0)
(-6.2530691e-13 0 0)
(-3.23970382e-13 0 0)
(-7.24552604e-13 0 0)
(-1.23377726e-12 0 0)
(-1.05099347e-12 0 0)
(-1.26255284e-12 0 0)
(-3.24408293e-13 0 0)
(-4.59486928e-13 0 0)
(-7.24835123e-13 0 0)
(-1.10088526e-12 0 0)
(-1.48339448e-12 0 0)
(-6.57479595e-13 0 0)
(-8.61443724e-13 0 0)
(-9.03848932e-13 0 0)
(-1.51519282e-12 0 0)
(-1.06697376e-12 0 0)
(-2.74529676e-14 0 0)
(-7.14634134e-14 0 0)
(-1.11160097e-12 0 0)
(-5.5148134e-13 0 0)
(-2.26553998e-13 0 0)
(-3.68990496e-13 0 0)
(1.86150626e-13 0 0)
(-4.35855429e-13 0 0)
(6.33787305e-14 0 0)
(6.32886849e-13 0 0)
(4.35416293e-13 0 0)
(1.26804683e-13 0 0)
(1.31717156e-12 0 0)
(2.10262176e-12 0 0)
(1.33873696e-12 0 0)
(1.41836491e-12 0 0)
(9.70219887e-13 0 0)
(2.99091929e-13 0 0)
(6.66841066e-13 0 0)
(5.9679009e-13 0 0)
(8.39214361e-13 0 0)
(-3.29893179e-13 0 0)
(-2.15441886e-13 0 0)
(1.04551549e-12 0 0)
(-5.31274715e-14 0 0)
(-8.35289917e-13 0 0)
(1.25690038e-13 0 0)
(-9.33080329e-14 0 0)
(-8.76106554e-13 0 0)
(2.05503967e-13 0 0)
(5.30557885e-13 0 0)
(1.18511379e-12 0 0)
(-1.11060476e-13 0 0)
(7.69360234e-13 0 0)
(3.88735619e-13 0 0)
(2.25041073e-13 0 0)
(2.34191961e-13 0 0)
(5.39461654e-13 0 0)
(-7.20863222e-13 0 0)
(-3.91304943e-13 0 0)
(-8.13598396e-13 0 0)
(-4.13512509e-13 0 0)
(-6.63673228e-13 0 0)
(-5.42727965e-13 0 0)
(-2.63993809e-13 0 0)
(-5.27747281e-13 0 0)
(5.32118918e-13 0 0)
(3.23473293e-14 0 0)
(-7.82938123e-13 0 0)
(1.77250013e-13 0 0)
(-2.46595426e-13 0 0)
(-3.86764134e-13 0 0)
(-4.48650714e-13 0 0)
(-3.68975896e-13 0 0)
(-5.49556395e-13 0 0)
(4.90129687e-13 0 0)
(4.27712915e-13 0 0)
(3.12919863e-13 0 0)
(8.3077679e-13 0 0)
(7.54843102e-13 0 0)
(5.40803577e-13 0 0)
(1.13210136e-12 0 0)
(5.14396076e-13 0 0)
(1.78297259e-12 0 0)
(1.18388668e-12 0 0)
(4.59878017e-13 0 0)
(2.11463845e-13 0 0)
(9.63166622e-13 0 0)
(1.18954866e-12 0 0)
(2.17911329e-13 0 0)
(7.06964184e-13 0 0)
(6.24845104e-13 0 0)
(1.28517991e-12 0 0)
(6.68254808e-13 0 0)
(9.06529959e-13 0 0)
(5.46286528e-13 0 0)
(6.19931802e-13 0 0)
(1.16317178e-12 0 0)
(4.75135125e-13 0 0)
(5.28038983e-13 0 0)
(4.21707575e-13 0 0)
(1.18211138e-12 0 0)
(4.38539222e-13 0 0)
(-1.68832751e-13 0 0)
(5.08787202e-13 0 0)
(-8.27080992e-13 0 0)
(-2.77596441e-13 0 0)
(5.32723327e-13 0 0)
(-1.11836333e-14 0 0)
(-1.6591495e-13 0 0)
(-5.76694687e-13 0 0)
(-1.22564758e-12 0 0)
(-8.32013724e-13 0 0)
(-1.0461231e-13 0 0)
(-1.03929968e-12 0 0)
(-1.69648789e-13 0 0)
(-1.06980152e-12 0 0)
(-2.43117616e-13 0 0)
(-5.6956197e-13 0 0)
(-4.10041733e-13 0 0)
(-1.59534191e-12 0 0)
(-6.63443738e-13 0 0)
(-1.17890025e-12 0 0)
(-5.05072307e-13 0 0)
(-6.575798e-13 0 0)
(-1.45561792e-12 0 0)
(-6.08793839e-13 0 0)
(-1.82929796e-13 0 0)
(-1.14849078e-12 0 0)
(1.08492377e-13 0 0)
(-9.08795595e-13 0 0)
(-1.99194302e-13 0 0)
(-8.42393351e-13 0 0)
(-5.53288432e-13 0 0)
(-3.52335975e-13 0 0)
(-5.88332956e-13 0 0)
(-5.61173807e-13 0 0)
(4.21961084e-13 0 0)
(2.59936636e-13 0 0)
(-1.65464438e-13 0 0)
(-4.14373236e-14 0 0)
(1.59906519e-13 0 0)
(-6.72267059e-13 0 0)
(-5.72204124e-13 0 0)
(-3.68767303e-13 0 0)
(5.62588998e-15 0 0)
(-7.6146549e-13 0 0)
(-6.40627247e-13 0 0)
(-6.30246893e-13 0 0)
(-4.11237659e-13 0 0)
(-1.79736235e-12 0 0)
(-1.28614833e-12 0 0)
(-8.22776286e-13 0 0)
(-1.16510643e-12 0 0)
(-6.78180083e-13 0 0)
(-1.01628514e-13 0 0)
(-1.36095791e-12 0 0)
(-8.92225277e-13 0 0)
(-9.2460252e-13 0 0)
(-1.37606787e-13 0 0)
(-1.69915251e-12 0 0)
(-7.87579172e-13 0 0)
(-1.58152869e-12 0 0)
(-7.82829456e-13 0 0)
(-1.49331568e-12 0 0)
(-1.13546359e-12 0 0)
(-1.35819105e-12 0 0)
(-8.50966968e-13 0 0)
(-7.03143122e-13 0 0)
(-7.56142082e-13 0 0)
(-6.07321479e-13 0 0)
(-5.25795766e-13 0 0)
(-7.06201451e-13 0 0)
(1.52565968e-13 0 0)
(2.88069768e-13 0 0)
(6.57850869e-14 0 0)
(8.38376361e-13 0 0)
(3.68112838e-13 0 0)
(7.81059747e-13 0 0)
(1.00580702e-12 0 0)
(1.33656247e-12 0 0)
(1.78447385e-12 0 0)
(1.93560201e-12 0 0)
(2.57314337e-12 0 0)
(1.4508948e-12 0 0)
(1.95327304e-12 0 0)
(1.3591232e-12 0 0)
(7.02653507e-13 0 0)
(1.29898091e-12 0 0)
(4.46260961e-13 0 0)
(6.28094112e-13 0 0)
(1.07717146e-12 0 0)
(1.72474595e-12 0 0)
(5.67650225e-13 0 0)
(1.08371619e-12 0 0)
(1.27596087e-12 0 0)
(1.0475431e-12 0 0)
(1.11579102e-12 0 0)
(1.95838002e-13 0 0)
(1.33332783e-12 0 0)
(5.49287045e-13 0 0)
(6.79544709e-13 0 0)
(9.18864909e-13 0 0)
(4.00269618e-13 0 0)
(2.87590579e-13 0 0)
(6.17031982e-13 0 0)
(5.9418121e-13 0 0)
(6.75337248e-13 0 0)
(7.08534921e-13 0 0)
(1.28753946e-12 0 0)
(2.01869705e-13 0 0)
(1.36957978e-12 0 0)
(9.79216666e-13 0 0)
(1.82536715e-12 0 0)
(4.11933224e-13 0 0)
(1.05700388e-13 0 0)
(1.16698149e-12 0 0)
(1.09712157e-12 0 0)
(9.00391482e-13 0 0)
(2.05477867e-12 0 0)
(4.84781384e-13 0 0)
(1.24999571e-12 0 0)
(1.24604935e-12 0 0)
(-5.48146593e-14 0 0)
(6.72555825e-13 0 0)
(4.82457905e-13 0 0)
(6.47010684e-14 0 0)
(8.11354273e-14 0 0)
(6.92817911e-13 0 0)
(6.46144007e-13 0 0)
(7.08785018e-13 0 0)
(8.5342759e-13 0 0)
(-3.93597807e-14 0 0)
(-5.11662938e-13 0 0)
(-5.62619949e-13 0 0)
(4.08920911e-13 0 0)
(-5.52437762e-13 0 0)
(-5.30022457e-13 0 0)
(3.45644172e-13 0 0)
(3.31266103e-14 0 0)
(-8.12488169e-13 0 0)
(-3.24918804e-13 0 0)
(5.27522634e-14 0 0)
(-5.14549698e-13 0 0)
(-1.49932596e-13 0 0)
(-6.84282505e-13 0 0)
(-6.61430843e-13 0 0)
(-1.22790355e-13 0 0)
(-1.22140169e-13 0 0)
(-9.16557537e-13 0 0)
(-4.79025394e-14 0 0)
(1.19856008e-13 0 0)
(-1.0371221e-12 0 0)
(-1.64381401e-14 0 0)
(-1.0110469e-12 0 0)
(-1.64218031e-13 0 0)
(-8.04325247e-13 0 0)
(-2.09013322e-13 0 0)
(-1.18339207e-12 0 0)
(2.22435473e-13 0 0)
(-4.99748596e-13 0 0)
(-7.56463595e-13 0 0)
(1.3940027e-13 0 0)
(-3.583139e-13 0 0)
(-1.05384334e-12 0 0)
(-3.1266322e-13 0 0)
(-4.47848486e-13 0 0)
(-1.51068982e-12 0 0)
(-1.52144675e-12 0 0)
(-5.47239685e-13 0 0)
(-7.27156454e-13 0 0)
(-1.39238411e-12 0 0)
(-2.81098329e-13 0 0)
(-1.079436e-12 0 0)
(-5.84382604e-13 0 0)
(1.63286905e-14 0 0)
(-8.23127527e-13 0 0)
(2.06213691e-13 0 0)
(-5.56219271e-13 0 0)
(-8.43782342e-14 0 0)
(-6.29415283e-13 0 0)
(6.53915961e-14 0 0)
(-9.96517873e-14 0 0)
(6.34762202e-14 0 0)
(-2.07582078e-13 0 0)
(5.3837115e-13 0 0)
(-6.28656003e-14 0 0)
(4.87393529e-13 0 0)
(-2.05698502e-13 0 0)
(-5.98517945e-14 0 0)
(-4.86420285e-13 0 0)
(1.77196214e-13 0 0)
(2.60460409e-13 0 0)
(6.67769027e-13 0 0)
(2.82142482e-13 0 0)
(5.6421749e-13 0 0)
(1.33309892e-15 0 0)
(-2.23917607e-14 0 0)
(9.25383084e-14 0 0)
(-7.33881175e-13 0 0)
(3.93143216e-14 0 0)
(7.75015675e-15 0 0)
(7.97688479e-14 0 0)
(5.63265744e-14 0 0)
(5.01004525e-13 0 0)
(9.97717835e-13 0 0)
(1.41089684e-12 0 0)
(1.43020746e-12 0 0)
(1.13459572e-12 0 0)
(2.28466532e-12 0 0)
(2.02129297e-12 0 0)
(1.69751984e-12 0 0)
(1.98970715e-12 0 0)
(2.48880558e-12 0 0)
(9.91248401e-13 0 0)
(1.48381593e-12 0 0)
(1.86851697e-12 0 0)
(8.76185509e-13 0 0)
(1.18784188e-12 0 0)
(1.22092886e-12 0 0)
(7.99654656e-13 0 0)
(1.34129738e-12 0 0)
(1.60693366e-12 0 0)
(9.68767156e-13 0 0)
(1.01244888e-12 0 0)
(5.58898328e-13 0 0)
(4.61988436e-13 0 0)
(9.56944355e-13 0 0)
(5.27064261e-13 0 0)
(1.10771724e-12 0 0)
(1.00526505e-12 0 0)
(9.69793131e-13 0 0)
(1.40405325e-12 0 0)
(7.87874817e-13 0 0)
(3.54298084e-13 0 0)
(7.35348647e-13 0 0)
(7.91174086e-13 0 0)
(4.60024514e-13 0 0)
(1.48479282e-12 0 0)
(1.61595916e-12 0 0)
(7.64688257e-13 0 0)
(6.78664817e-13 0 0)
(9.41471124e-13 0 0)
(5.0150118e-13 0 0)
(8.92579621e-13 0 0)
(6.70324772e-13 0 0)
(1.1298488e-12 0 0)
(4.70825217e-13 0 0)
(1.13106523e-12 0 0)
(6.94270075e-13 0 0)
(1.14031701e-12 0 0)
(2.41747565e-13 0 0)
(-8.78188648e-14 0 0)
(4.86037818e-13 0 0)
(5.30460244e-13 0 0)
(3.40684783e-13 0 0)
(7.85654711e-13 0 0)
(4.81606367e-13 0 0)
(5.15224172e-14 0 0)
(8.60068202e-13 0 0)
(5.64306409e-13 0 0)
(7.29870471e-13 0 0)
(1.02249384e-12 0 0)
(2.63616775e-13 0 0)
(1.24946989e-12 0 0)
(2.00889932e-13 0 0)
(-1.14385391e-13 0 0)
(2.26386753e-13 0 0)
(-4.53631202e-13 0 0)
(3.07643063e-13 0 0)
(-2.03645156e-13 0 0)
(7.15552035e-13 0 0)
(-4.34238376e-13 0 0)
(2.50497117e-13 0 0)
(-3.10773392e-13 0 0)
(-6.54556953e-13 0 0)
(-8.76381529e-13 0 0)
(-4.47848196e-13 0 0)
(6.90941106e-13 0 0)
(5.92326073e-14 0 0)
(2.17021063e-13 0 0)
(-6.60140232e-14 0 0)
(3.88749276e-13 0 0)
(7.05508635e-13 0 0)
(1.03388287e-12 0 0)
(1.10816733e-12 0 0)
(2.89703588e-13 0 0)
(-1.16531197e-13 0 0)
(4.10758818e-13 0 0)
(-1.77385564e-13 0 0)
(-5.72293763e-13 0 0)
(7.06315342e-14 0 0)
(1.89410151e-14 0 0)
(-1.03139861e-13 0 0)
(-5.76293056e-13 0 0)
(-1.1758633e-12 0 0)
(-3.56539664e-13 0 0)
(-4.54993899e-14 0 0)
(6.63254741e-14 0 0)
(-2.33828678e-13 0 0)
(7.99048238e-14 0 0)
(5.37778331e-13 0 0)
(-1.4253247e-13 0 0)
(-3.00066751e-13 0 0)
(-3.05161089e-13 0 0)
(5.65530461e-13 0 0)
(4.48421785e-13 0 0)
(9.33270728e-13 0 0)
(1.27137533e-12 0 0)
(1.0784694e-12 0 0)
(2.42508632e-13 0 0)
(3.73328444e-13 0 0)
(-4.49653069e-13 0 0)
(2.4342583e-13 0 0)
(9.43884984e-14 0 0)
(-4.32630921e-13 0 0)
(3.21579699e-13 0 0)
(-9.60482412e-13 0 0)
(-9.50210052e-13 0 0)
(-7.54799175e-13 0 0)
(-6.43679689e-13 0 0)
(-5.34326576e-13 0 0)
(-3.73762883e-13 0 0)
(3.55407453e-13 0 0)
(-9.8574798e-13 0 0)
(-4.52048115e-13 0 0)
(-4.05837317e-13 0 0)
(-7.42983768e-13 0 0)
(-1.10596576e-12 0 0)
(-8.5412623e-13 0 0)
(-4.02848221e-13 0 0)
(7.22911237e-13 0 0)
(-8.47329971e-13 0 0)
(-3.2837166e-13 0 0)
(2.01976594e-14 0 0)
(-2.70553221e-15 0 0)
(-3.07181333e-13 0 0)
(-3.70084835e-13 0 0)
(-1.15163459e-12 0 0)
(-9.56778838e-13 0 0)
(-8.45935272e-13 0 0)
(-8.32743474e-13 0 0)
(-1.05246099e-12 0 0)
(-1.03705743e-12 0 0)
(-1.45372267e-12 0 0)
(-7.66717343e-13 0 0)
(-9.69980627e-13 0 0)
(-9.36005369e-13 0 0)
(-7.45516059e-13 0 0)
(-8.50328736e-13 0 0)
(-9.54369902e-13 0 0)
(-1.34133148e-12 0 0)
(-4.63867218e-13 0 0)
(-8.81506221e-14 0 0)
(-5.85740293e-13 0 0)
(-1.37927109e-12 0 0)
(-8.52126404e-13 0 0)
(-4.24065942e-13 0 0)
(-8.00881369e-13 0 0)
(-3.81078959e-13 0 0)
(-5.39727782e-13 0 0)
(1.17350354e-13 0 0)
(-2.30876842e-13 0 0)
(6.76707142e-13 0 0)
(4.25996162e-13 0 0)
(-5.85138715e-14 0 0)
(3.11708138e-13 0 0)
(4.88419533e-13 0 0)
(-1.04295881e-14 0 0)
(1.67772489e-13 0 0)
(3.3663534e-13 0 0)
(2.59522874e-14 0 0)
(-6.09464941e-13 0 0)
(1.66727965e-13 0 0)
(-9.90627712e-13 0 0)
(1.94989021e-13 0 0)
(-4.20348019e-13 0 0)
(-2.44549048e-13 0 0)
(2.0091891e-13 0 0)
(-4.87466168e-13 0 0)
(2.43071775e-13 0 0)
(-2.06138789e-13 0 0)
(-7.58307046e-14 0 0)
(8.50257967e-13 0 0)
(1.11925111e-12 0 0)
(5.81794845e-13 0 0)
(9.37592867e-14 0 0)
(5.50261893e-13 0 0)
(9.74510719e-13 0 0)
(1.69796453e-12 0 0)
(1.10583555e-12 0 0)
(3.85727216e-13 0 0)
(6.06662585e-13 0 0)
(1.982446e-13 0 0)
(8.61858253e-13 0 0)
(6.74766651e-13 0 0)
(6.57536125e-13 0 0)
(-2.2697902e-13 0 0)
(-2.79524246e-13 0 0)
(7.57967056e-13 0 0)
(4.11110589e-13 0 0)
(1.7950996e-13 0 0)
(4.28263698e-13 0 0)
(2.64360877e-13 0 0)
(-3.82743224e-13 0 0)
(5.54179133e-14 0 0)
(-1.52260466e-13 0 0)
(-3.45558797e-13 0 0)
(-7.16564401e-13 0 0)
(2.64813458e-14 0 0)
(-4.24697556e-13 0 0)
(-2.10290548e-13 0 0)
(7.36104404e-14 0 0)
(1.56267531e-14 0 0)
(-4.99640842e-13 0 0)
(-3.96731573e-13 0 0)
(-6.62062298e-13 0 0)
(2.32283387e-13 0 0)
(2.84104121e-15 0 0)
(7.26163431e-13 0 0)
(-1.76141333e-13 0 0)
(-5.45844172e-14 0 0)
(1.65512885e-14 0 0)
(3.44547707e-13 0 0)
(-1.4854655e-13 0 0)
(8.4607847e-13 0 0)
(-2.78907251e-13 0 0)
(9.48970172e-13 0 0)
(-2.09731124e-14 0 0)
(5.0312867e-13 0 0)
(-3.40069932e-13 0 0)
(3.00975589e-13 0 0)
(8.34194718e-13 0 0)
(-1.74587835e-13 0 0)
(8.97118905e-13 0 0)
(1.12104045e-13 0 0)
(2.4150152e-13 0 0)
(2.05133414e-13 0 0)
(-8.15799568e-13 0 0)
(-1.25227818e-12 0 0)
(-1.67231734e-13 0 0)
(1.79702144e-13 0 0)
(5.3892325e-14 0 0)
(2.82542771e-13 0 0)
(1.22777069e-14 0 0)
(6.13171994e-13 0 0)
(-2.09992561e-13 0 0)
(-2.42745593e-13 0 0)
(-2.95994651e-13 0 0)
(1.71739731e-13 0 0)
(-1.73666032e-13 0 0)
(-9.22191661e-13 0 0)
(-1.69969975e-13 0 0)
(-1.07065108e-13 0 0)
(-1.03538027e-12 0 0)
(-6.12076422e-14 0 0)
(-3.35998864e-13 0 0)
(1.9603364e-15 0 0)
(-4.78287348e-13 0 0)
(2.14438019e-13 0 0)
(-9.81240758e-15 0 0)
(-9.35891918e-13 0 0)
(-5.43269322e-13 0 0)
(-3.95787691e-14 0 0)
(-2.45463707e-13 0 0)
(-1.79592944e-13 0 0)
(2.27827188e-13 0 0)
(-1.8016674e-13 0 0)
(7.17550693e-14 0 0)
(-2.97591382e-13 0 0)
(4.85918014e-13 0 0)
(4.73132595e-13 0 0)
(1.98697448e-13 0 0)
(-8.06304984e-14 0 0)
(3.73156707e-14 0 0)
(7.81299643e-14 0 0)
(-1.19600676e-13 0 0)
(-2.99185916e-13 0 0)
(1.00989266e-14 0 0)
(1.52850352e-13 0 0)
(3.31986139e-13 0 0)
(6.88203623e-13 0 0)
(-8.51172683e-14 0 0)
(1.11924528e-12 0 0)
(6.12712483e-13 0 0)
(6.65019759e-13 0 0)
(9.28204824e-13 0 0)
(1.5400673e-12 0 0)
(9.48068231e-13 0 0)
(9.78897161e-13 0 0)
(1.40428951e-12 0 0)
(2.22255426e-12 0 0)
(2.35808628e-12 0 0)
(1.79932415e-12 0 0)
(1.54134959e-12 0 0)
(1.25097685e-12 0 0)
(1.45042728e-12 0 0)
(2.02377296e-12 0 0)
(2.23599746e-12 0 0)
(2.03770734e-12 0 0)
(1.49374074e-12 0 0)
(2.01352976e-12 0 0)
(2.06979604e-12 0 0)
(1.00768128e-12 0 0)
(1.30098707e-12 0 0)
(1.10947602e-12 0 0)
(1.89428427e-12 0 0)
(1.07960844e-12 0 0)
(1.51834047e-12 0 0)
(1.27674132e-12 0 0)
(1.61310293e-12 0 0)
(1.7013315e-12 0 0)
(1.56101495e-12 0 0)
(1.37245254e-12 0 0)
(2.11442726e-12 0 0)
(1.85270283e-12 0 0)
(3.06790013e-12 0 0)
(2.02382233e-12 0 0)
(2.44147072e-12 0 0)
(2.47475566e-12 0 0)
(3.21775495e-12 0 0)
(2.26073916e-12 0 0)
(1.70751062e-12 0 0)
(2.18574374e-12 0 0)
(9.04869302e-13 0 0)
(1.53473218e-12 0 0)
(1.41220173e-12 0 0)
(2.15327883e-12 0 0)
(1.21785378e-12 0 0)
(1.7071354e-12 0 0)
(8.0916672e-13 0 0)
(7.72466286e-13 0 0)
(4.65034649e-13 0 0)
(4.39490738e-13 0 0)
(2.04489553e-13 0 0)
(6.73882885e-13 0 0)
(4.15359626e-13 0 0)
(2.6016765e-13 0 0)
(-4.43882102e-13 0 0)
(2.42674701e-13 0 0)
(-6.43574201e-13 0 0)
(-4.06824833e-13 0 0)
(-6.19407481e-13 0 0)
(-1.09835927e-12 0 0)
(-6.57145454e-13 0 0)
(-1.29986161e-12 0 0)
(-4.31926948e-13 0 0)
(-7.27976799e-13 0 0)
(-1.5585063e-12 0 0)
(-6.27621526e-13 0 0)
(-1.89168774e-12 0 0)
(-1.42773249e-12 0 0)
(-1.46532977e-12 0 0)
(-7.63607465e-13 0 0)
(-1.55463234e-12 0 0)
(-1.74596035e-12 0 0)
(-1.25929458e-12 0 0)
(-9.55265175e-13 0 0)
(-8.40883087e-13 0 0)
(-1.33856e-12 0 0)
(-1.35239763e-12 0 0)
(-1.22765394e-12 0 0)
(-9.03931604e-13 0 0)
(-2.57538597e-14 0 0)
(-6.47643261e-13 0 0)
(-1.29273289e-12 0 0)
(-5.46547584e-13 0 0)
(2.41216922e-13 0 0)
(-3.67195878e-13 0 0)
(6.47456224e-13 0 0)
(-5.94645068e-14 0 0)
(-2.70366096e-13 0 0)
(-2.7721547e-13 0 0)
(9.27663596e-13 0 0)
(4.11300107e-13 0 0)
(4.0586187e-13 0 0)
(9.33701558e-13 0 0)
(1.07816825e-12 0 0)
(1.07777616e-12 0 0)
(4.70570316e-13 0 0)
(7.82418456e-13 0 0)
(9.08152576e-13 0 0)
(7.40029902e-13 0 0)
(5.63185842e-13 0 0)
(1.22635903e-12 0 0)
(7.90883289e-13 0 0)
(5.62004154e-13 0 0)
(9.69415318e-13 0 0)
(1.09417463e-12 0 0)
(8.50850492e-13 0 0)
(1.5913945e-12 0 0)
(8.55149275e-13 0 0)
(1.89509101e-12 0 0)
(7.09656755e-13 0 0)
(1.31202571e-12 0 0)
(1.03919177e-12 0 0)
(1.11108051e-12 0 0)
(1.58646477e-12 0 0)
(1.25363664e-12 0 0)
(1.38247503e-12 0 0)
(1.7091454e-12 0 0)
(1.34571756e-12 0 0)
(1.03607333e-12 0 0)
(3.99025781e-13 0 0)
(1.63093473e-12 0 0)
(1.29749353e-12 0 0)
(5.00165525e-13 0 0)
(1.28797149e-12 0 0)
(8.81543197e-13 0 0)
(5.29774198e-13 0 0)
(1.9019949e-13 0 0)
(9.44051938e-13 0 0)
(-1.52571677e-14 0 0)
(2.7005755e-13 0 0)
(5.84737158e-14 0 0)
(6.77473858e-13 0 0)
(-3.38826596e-13 0 0)
(1.13188555e-12 0 0)
(5.40040408e-14 0 0)
(4.61005769e-13 0 0)
(-5.17125618e-13 0 0)
(-8.86005715e-14 0 0)
(-5.06710143e-13 0 0)
(-8.48698717e-14 0 0)
(-4.93555674e-13 0 0)
(-1.62373968e-13 0 0)
(6.7331514e-15 0 0)
(-4.63263671e-13 0 0)
(-8.01543551e-13 0 0)
(-1.12460705e-13 0 0)
(-1.38405646e-13 0 0)
(-2.20923514e-13 0 0)
(-6.33282378e-13 0 0)
(-5.73263775e-13 0 0)
(-5.15595963e-13 0 0)
(-4.14272338e-13 0 0)
(-7.13821727e-13 0 0)
(-5.31952624e-13 0 0)
(-1.89122534e-12 0 0)
(-1.83605446e-12 0 0)
(-1.08072529e-12 0 0)
(-1.2915756e-12 0 0)
(-2.3986302e-12 0 0)
(-1.11681704e-12 0 0)
(-1.06396494e-13 0 0)
(-1.02862725e-12 0 0)
(-1.64105258e-12 0 0)
(-2.07710056e-13 0 0)
(-5.12000373e-13 0 0)
(-3.13770961e-13 0 0)
(3.5406567e-13 0 0)
(-4.76390957e-13 0 0)
(-7.68972947e-13 0 0)
(-1.02413498e-12 0 0)
(-9.62009876e-13 0 0)
(-7.12513099e-13 0 0)
(-1.43264949e-12 0 0)
(-1.04074392e-13 0 0)
(-5.14803064e-13 0 0)
(-1.05096146e-13 0 0)
(3.07191284e-13 0 0)
(-8.06348991e-14 0 0)
(-7.3292865e-13 0 0)
(-4.68606109e-13 0 0)
(7.82501652e-14 0 0)
(2.44759815e-13 0 0)
(5.9008415e-13 0 0)
(5.57662778e-14 0 0)
(3.11894109e-13 0 0)
(5.31129133e-13 0 0)
(2.59975574e-14 0 0)
(1.03731609e-13 0 0)
(-3.82763586e-14 0 0)
(-4.57316236e-14 0 0)
(3.31770377e-13 0 0)
(7.45523393e-14 0 0)
(-1.53799878e-13 0 0)
(6.64436697e-13 0 0)
(8.44553083e-13 0 0)
(4.46055692e-13 0 0)
(6.81942966e-13 0 0)
(3.18153163e-13 0 0)
(-4.03312729e-14 0 0)
(2.68628467e-13 0 0)
(8.36440389e-13 0 0)
(4.23197231e-13 0 0)
(8.91213091e-14 0 0)
(5.69144035e-13 0 0)
(3.62364174e-13 0 0)
(-3.4301967e-14 0 0)
(-3.46100425e-13 0 0)
(-8.46887287e-13 0 0)
(-6.64547484e-13 0 0)
(-9.66463608e-13 0 0)
(-1.57404914e-12 0 0)
(-9.07516781e-13 0 0)
(-2.04234522e-14 0 0)
(-1.8237885e-12 0 0)
(-1.2109154e-12 0 0)
(-1.19333271e-12 0 0)
(-6.6976821e-13 0 0)
(-1.12841282e-12 0 0)
(-7.35456387e-13 0 0)
(-5.59463497e-13 0 0)
(-6.7982832e-13 0 0)
(-4.69307658e-13 0 0)
(-9.53130764e-13 0 0)
(-1.10293955e-12 0 0)
(-1.62421709e-12 0 0)
(-2.03828819e-12 0 0)
(-1.41919357e-12 0 0)
(-1.80336973e-12 0 0)
(-1.34492633e-12 0 0)
(-9.18851791e-13 0 0)
(-7.53102086e-13 0 0)
(-7.78374928e-13 0 0)
(-1.03071604e-12 0 0)
(-1.38621293e-12 0 0)
(-1.49368686e-12 0 0)
(-1.33249193e-12 0 0)
(-7.36977006e-13 0 0)
(-1.32126679e-12 0 0)
(-8.63990123e-13 0 0)
(-1.10263309e-12 0 0)
(-8.44289994e-13 0 0)
(-1.57574736e-12 0 0)
(-1.16455709e-12 0 0)
(-1.43804405e-12 0 0)
(-1.71010737e-12 0 0)
(-1.02385174e-12 0 0)
(-1.21448273e-12 0 0)
(-9.5552699e-13 0 0)
(-8.98998062e-13 0 0)
(-1.47608906e-12 0 0)
(-8.76904519e-14 0 0)
(-8.86351177e-13 0 0)
(-3.84088043e-13 0 0)
(-1.28854373e-12 0 0)
(-8.17157352e-13 0 0)
(-5.57439982e-13 0 0)
(-1.23918031e-12 0 0)
(-8.74193456e-13 0 0)
(-1.75328504e-12 0 0)
(-1.12180354e-13 0 0)
(-1.66245229e-12 0 0)
(-9.67521024e-13 0 0)
(-1.05717889e-12 0 0)
(-6.02738007e-14 0 0)
(-6.01480382e-13 0 0)
(-4.89657555e-13 0 0)
(-2.24846621e-14 0 0)
(-2.19662794e-13 0 0)
(-9.78598201e-13 0 0)
(-6.75854931e-13 0 0)
(1.65998242e-13 0 0)
(-8.92934533e-13 0 0)
(-5.69568219e-13 0 0)
(-9.03450496e-14 0 0)
(2.55757049e-13 0 0)
(-4.87379934e-13 0 0)
(1.09588121e-13 0 0)
(1.63504042e-13 0 0)
(3.95322604e-13 0 0)
(9.20250733e-13 0 0)
(4.30405579e-13 0 0)
(5.82954595e-13 0 0)
(2.70902532e-14 0 0)
(2.13701333e-13 0 0)
(5.93418779e-13 0 0)
(6.72003124e-13 0 0)
(3.69958301e-13 0 0)
(1.32518867e-13 0 0)
(1.63488476e-13 0 0)
(2.82433616e-13 0 0)
(-1.39898373e-13 0 0)
(6.99720126e-13 0 0)
(-2.37141366e-14 0 0)
(-4.90903421e-13 0 0)
(6.41845424e-14 0 0)
(-4.39156094e-13 0 0)
(-8.2651813e-13 0 0)
(-7.87347821e-13 0 0)
(-1.13615179e-13 0 0)
(2.50384766e-13 0 0)
(-1.25784867e-13 0 0)
(-5.92753218e-13 0 0)
(-5.68071508e-13 0 0)
(-7.2242192e-13 0 0)
(-1.39211263e-12 0 0)
(-5.45709566e-13 0 0)
(-5.73443138e-13 0 0)
(-1.00402142e-12 0 0)
(-5.41381704e-13 0 0)
(-1.06867728e-12 0 0)
(-1.02751117e-12 0 0)
(-1.63940539e-12 0 0)
(-7.52209152e-13 0 0)
(-1.71526788e-12 0 0)
(-8.44023237e-13 0 0)
(-1.2261321e-12 0 0)
(-1.01032581e-12 0 0)
(-8.4253964e-13 0 0)
(-3.93910118e-13 0 0)
(-9.4219014e-13 0 0)
(-1.60645646e-12 0 0)
(-5.86984653e-13 0 0)
(-8.67455399e-13 0 0)
(-1.01127012e-12 0 0)
(-9.45745435e-13 0 0)
(-3.65467336e-13 0 0)
(-1.01744729e-12 0 0)
(-1.44905041e-12 0 0)
(-1.41450061e-12 0 0)
(-1.11944121e-12 0 0)
(-2.1636026e-12 0 0)
(-1.97200432e-12 0 0)
(-1.16098827e-12 0 0)
(-2.16400533e-12 0 0)
(-1.90705593e-12 0 0)
(-1.31178756e-12 0 0)
(-1.19695504e-12 0 0)
(-1.50564894e-12 0 0)
(-1.23354471e-12 0 0)
(-1.30611748e-12 0 0)
(-8.60660037e-13 0 0)
(-2.64199639e-13 0 0)
(-5.00699879e-13 0 0)
(1.93892184e-13 0 0)
(-5.14034463e-13 0 0)
(-1.13468479e-12 0 0)
(-4.49883794e-13 0 0)
(-5.24004501e-13 0 0)
(5.13394288e-13 0 0)
(6.17521815e-14 0 0)
(5.28636089e-14 0 0)
(6.32076967e-13 0 0)
(3.64167254e-13 0 0)
(2.98572992e-13 0 0)
(1.24784456e-13 0 0)
(7.34186231e-13 0 0)
(3.20082092e-13 0 0)
(6.17298336e-13 0 0)
(3.29039059e-13 0 0)
(1.07126968e-12 0 0)
(1.8578547e-12 0 0)
(1.54813261e-12 0 0)
(1.39338967e-12 0 0)
(1.52061832e-12 0 0)
(1.68157513e-12 0 0)
(7.34327256e-13 0 0)
(9.62317277e-13 0 0)
(1.20364332e-12 0 0)
(1.0659838e-12 0 0)
(1.19903239e-12 0 0)
(4.30317347e-13 0 0)
(8.22501177e-13 0 0)
(1.24708594e-12 0 0)
(9.70898731e-13 0 0)
(1.02770357e-12 0 0)
(1.08241608e-12 0 0)
(9.61211827e-13 0 0)
(1.86187145e-13 0 0)
(9.49981292e-13 0 0)
(6.53403485e-13 0 0)
(9.50859906e-13 0 0)
(6.35470573e-13 0 0)
(5.90666933e-13 0 0)