/*--------------------------------*- C++ -*----------------------------------*\
| =========                 |                                                 |
| \\      /  F ield         | OpenFOAM: The Open Source CFD Toolbox           |
|  \\    /   O peration     | Version:  2206                                  |
|   \\  /    A nd           | Website:  www.openfoam.com                      |
|    \\/     M anipulation  |                                                 |
\*---------------------------------------------------------------------------*/
FoamFile
{
    version     2.0;
    format      ascii;
    arch        "LSB;label=32;scalar=64";
    class       volScalarField;
    location    "3.2e-06";
    object      p;
}
// * * * * * * * * * * * * * * * * * * * * * * * * * * * * * * * * * * * * * //

dimensions      [1 -1 -2 0 0 0 0];

internalField   nonuniform List<scalar> 
3183
(
101325
101325
101325
101325
101325
101325
101325
101325
101325
101325
101325
101325
101325
101325
101325
101325
101325
101325
101325
101325
101325
101325
101325
101325
101325
101325
101325
101325
101325
101325
101325
101325
101325
101325
101325
101325
101325
101325
101325
101325
101325
101325
101325
101325
101325
101325
101325
101325
101325
101325
101325
101325
101325
101325
101325
101325
101325
101325
101325
101325
101325
101325
101325
101325
101325
101325
101325
101325
101325
101325
101325
101325
101325
101325
101325
101325
101325
101325
101325
101325
101325
101325
101325
101325
101325
101325
101325
101325
101325
101325
101325
101325
101325
101325
101325
101325
101325
101325
101325
101325
101325
101325
101325
101325
101325
101325
101325
101325
101325
101325
101325
101325
101325
101325
101325
101325
101325
101325
101325
101325
101325
101325
101325
101325
101325
101325
101325
101325
101325
101325
101325
101325
101325
101325
101325
101325
101325
101325
101325
101325
101325
101325
101325
101325
101325
101325
101325
101325
101325
101325
101325
101325
101325
101325
101325
101325
101325
101325
101325
101325
101325
101325
101325
101325
101325
101325
101325
101325
101325
101325
101325
101325
101325
101325
101325
101325
101325
101325
101325
101325
101325
101325
101325
101325
101325
101325
101325
101325
101325
101325
101325
101325
101325
101325
101325
101325
101325
101325
101325
101325
101325
101325
101325
101325
101325
101325
101325
101325
101325
101325
101325
101325
101325
101325
101325
101325
101325
101325
101325
101325
101325
101325
101325
101325
101325
101325
101325
101325
101325
101325
101325
101325
101325
101325
101325
101325
101325
101325
101325
101325
101325
101325
101325
101325
101325
101325
101325
101325
101325
101325
101325
101325
101325
101325
101325
101325
101325
101325
101325
101325
101325
101325
101325
101325
101325
101325
101325
101325
101325
101325
101325
101325
101325
101325
101325
101325
101325
101325
101325
101325
101325
101325
101325
101325
101325
101325
101325
101325
101325
101325
101325
101325
101325
101325
101325
101325
101325
101325
101325
101325
101325
101325
101325
101325
101325
101325
101325
101325
101325
101325
101325
101325
101325
101325
101325
101325
101325
101325
101325
101325
101325
101325
101325
101325
101325
101325
101325
101325
101325
101325
101325
101325
101325
101325
101325
101325
101325
101325
101325
101325
101325
101325
101325
101325
101325
101325
101325
101325
101325
101325
101325
101325
101325
101325
101325
101325
101325
101325
101325
101325
101325
101325
101325
101325
101325
101325
101325
101325
101325
101325
101325
101325
101325
101325
101325
101325
101325
101325
101325
101325
101325
101325
101325
101325
101325
101325
101325
101325
101325
101325
101325
101325
101325
101325
101325
101325
101325
101325
101325
101325
101325
101325
101325
101325
101325
101325
101325
101325
101325
101325
101325
101325
101325
101325
101325
101325
101325
101325
101325
101325
101325
101325
101325
101325
101325
101325
101325
101325
101325
101325
101325
101325
101325
101325
101325
101325
101325
101325
101325
101325
101325
101325
101325
101325
101325
101325
101325
101325
101325
101325
101325
101325
101325
101325
101325
101325
101325
101325
101325
101325
101325
101325
101325
101325
101325
101325
101325
101325
101325
101325
101325
101325
101325
101325
101325
101325
101325
101325
101325
101325
101325
101325
101325
101325
101325
101325
101325
101325
101325
101325
101325
101325
101325
101325
101325
101325
101325
101325
101325
101325
101325
101325
101325
101325
101325
101325
101325
101325
101325
101325
101325
101325
101325
101325
101325
101325
101325
101325
101325
101325
101325
101325
101325
101325
101325
101325
101325
101325
101325
101325
101325
101325
101325
101325
101325
101325
101325
101325
101325
101325
101325
101325
101325
101325
101325
101325
101325
101325
101325
101325
101325
101325
101325
101325
101325
101325
101325
101325
101325
101325
101325
101325
101325
101325
101325
101325
101325
101325
101325
101325
101325
101325
101325
101325
101325
101325
101325
101325
101325
101325
101325
101325
101325
101325
101325
101325
101325
101325
101325
101325
101325
101325
101325
101325
101325
101325
101325
101325
101325
101325
101325
101325
101325
101325
101325
101325
101325
101325
101325
101325
101325
101325
101325
101325
101325
101325
101325
101325
101325
101325
101325
101325
101325
101325
101325
101325
101325
101325
101325
101325
101325
101325
101325
101325
101325
101325
101325
101325
101325
101325
101325
101325
101325
101325
101325
101325
101325
101325
101325
101325
101325
101325
101325
101325
101325
101325
101325
101325
101325
101325
101325
101325
101325
101325
101325
101325
101325
101325
101325
101325
101325
101325
101325
101325
101325
101325
101325
101325
101325
101325
101325
101325
101325
101325
101325
101325
101325
101325
101325
101325
101325
101325
101325
101325
101325
101325
101325
101325
101325
101325
101325
101325
101325
101325
101325
101325
101325
101325
101325
101325
101325
101325
101325
101325
101325
101325
101325
101325
101325
101325
101325
101325
101325
101325
101325
101325
101325
101325
101325
101325
101325
101325
101325
101325
101325
101325
101325
101325
101325
101325
101325
101325
101325
101325
101325
101325
101325
101325
101325
101325
101325
101325
101325
101325
101325
101325
101325
101325
101325
101325
101325
101325
101325
101325
101325
101325
101325
101325
101325
101325
101325
101325
101325
101325
101325
101325
101325
101325
101325
101325
101325
101325
101325
101325
101325
101325
101325
101325
101325
101325
101325
101325
101325
101325
101325
101325
101325
101325
101325
101325
101325
101325
101325
101325
101325
101325
101325
101325
101325
101325
101325
101325
101325
101325
101325
101325
101325
101325
101325
101325
101325
101325
101325
101325
101325
101325
101325
101325
101325
101325
101325
101325
101325
101325
101325
101325
101325
101325
101325
101325
101325
101325
101325
101325
101325
101325
101325
101325
101325
101325
101325
101325
101325
101325
101325
101325
101325
101325
101325
101325
101325
101325
101325
101325
101325
101325
101325
101325
101325
101325
101325
101325
101325
101325
101325
101325
101325
101325
101325
101325
101325
101325
101325
101325
101325
101325
101325
101325
101325
101325
101325
101325
101325
101325
101325
101325
101325
101325
101325
101325
101325
101325
101325
101325
101325
101325
101325
101325
101325
101325
101325
101325
101325
101325
101325
101325
101325
101325
101325
101325
101325
101325
101325
101325
101325
101325
101325
101325
101325
101325
101325
101325
101325
101325
101325
101325
101325
101325
101325
101325
101325
101325
101325
101325
101325
101325
101325
101325
101325
101325
101325
101325
101325
101325
101325
101325
101325
101325
101325
101325
101325
101325
101325
101325
101325
101325
101325
101325
101325
101325
101325
101325
101325
101325
101325
101325
101325
101325
101325
101325
101325
101325
101325
101325
101325
101325
101325
101325
101325
101325
101325
101325
101325
101325
101325
101325
101325
101325
101325
101325
101325
101325
101325
101325
101325
101325
101325
101325
101325
101325
101325
101325
101325
101325
101325
101325
101325
101325
101325
101325
101325
101325
101325
101325
101325
101325
101325
101325
101325
101325
101325
101325
101325
101325
101325
101325
101325
101325
101325
101325
101325
101325
101325
101325
101325
101325
101325
101325
101325
101325
101325
101325
101325
101325
101325
101325
101325
101325
101325
101325
101325
101325
101325
101325
101325
101325
101325
101325
101325
101325
101325
101325
101325
101325
101325
101325
101325
101325
101325
101325
101325
101325
101325
101325
101325
101325
101325
101325
101325
101325
101325
101325
101325
101325
101325
101325
101325
101325
101325
101325
101325
101325
101325
101325
101325
101325
101325
101325
101325
101325
101325
101325
101325
101325
101325
101325
101325
101325
101325
101325
101325
101325
101325
101325
101325
101325
101325
101325
101325
101325
101325
101325
101325
101325
101325
101325
101325
101325
101325
101325
101325
101325
101325
101325
101325
101325
101325
101325
101325
101325
101325
101325
101325
101325
101325
101325
101325
101325
101325
101325
101325
101325
101325
101325
101325
101325
101325
101325
101325
101325
101325
101325
101325
101325
101325
101325
101325
101325
101325
101325
101325
101325
101325
101325
101325
101325
101325
101325
101325
101325
101325
101325
101325
101325
101325
101325
101325
101325
101325
101325
101325
101325
101325
101325
101325
101325
101325
101325
101325
101325
101325
101325
101325
101325
101325
101325
101325
101325
101325
101325
101325
101325
101325
101325
101325
101325
101325
101325
101325
101325
101325
101325
101325
101325
101325
101325
101325
101325
101325
101325
101325
101325
101325
101325
101325
101325
101325
101325
101325
101325
101325
101325
101325
101325
101325
101325
101325
101325
101325
101325
101325
101325
101325
101325
101325
101325
101325
101325
101325
101325
101325
101325
101325
101325
101325
101325
101325
101325
101325
101325
101325
101325
101325
101325
101325
101325
101325
101325
101325
101325
101325
101325
101325
101325
101325
101325
101325
101325
101325
101325
101325
101325
101325
101325
101325
101325
101325
101325
101325
101325
101325
101325
101325
101325
101325
101325
101325
101325
101325
101325
101325
101325
101325
101325
101325
101325
101325
101325
101325
101325
101325
101325
101325
101325
101325
101325
101325
101325
101325
101325
101325
101325
101325
101325
101325
101325
101325
101325
101325
101325
101325
101325
101325
101325
101325
101325
101325
101325
101325
101325
101325
101325
101325
101325
101325
101325
101325
101325
101325
101325
101325
101325
101325
101325
101325
101325
101325
101325
101325
101325
101325
101325
101325
101325
101325
101325
101325
101325
101325
101325
101325
101325
101325
101325
101325
101325
101325
101325
101325
101325
101325
101325
101325
101325
101325
101325
101325
101325
101325
101325
101325
101325
101325
101325
101325
101325
101325
101325
101325
101325
101325
101325
101325
101325
101325
101325
101325
101325
101325
101325
101325
101325
101325
101325
101325
101325
101325
101325
101325
101325
101325
101325
101325
101325
101325
101325
101325
101325
101325
101325
101325
101325
101325
101325
101325
101325
101325
101325
101325
101325
101325
101325
101325
101325
101325
101325
101325
101325
101325
101325
101325
101325
101325
101325
101325
101325
101325
101325
101325
101325
101325
101325
101325
101325
101325
101325
101325
101325
101325
101325
101325
101325
101325
101325
101325
101325
101325
101325
101325
101325
101325
101325
101325
101325
101325
101325
101325
101325
101325
101325
101325
101325
101325
101325
101325
101325
101325
101325
101325
101325
101325
101325
101325
101325
101325
101325
101325
101325
101325
101325
101325
101325
101325
101325
101325
101325
101325
101325
101325
101325
101325
101325
101325
101325
101325
101325
101325
101325
101325
101325
101325
101325
101325
101325
101325
101325
101325
101325
101325
101325
101325
101325
101325
101325
101325
101325
101325
101325
101325
101325
101325
101325
101325
101325
101325
101325
101325
101325
101325
101325
101325
101325
101325
101325
101325
101325
101325
101325
101325
101325
101325
101325
101325
101325
101325
101325
101325
101325
101325
101325
101325
101325
101325
101325
101325
101325
101325
101325
101325
101325
101325
101325
101325
101325
101325
101325
101325
101325
101325
101325
101325
101325
101325
101325
101325
101325
101325
101325
101325
101325
101325
101325
101325
101325
101325
101325
101325
101325
101325
101325
101325
101325
101325
101325
101325
101325
101325
101325
101325
101325
101325
101325
101325
101325
101325
101325
101325
101325
101325
101325
101325
101325
101325
101325
101325
101325
101325
101325
101325
101325
101325
101325
101325
101325
101325
101325
101325
101325
101325
101325
101325
101325
101325
101325
101325
101325
101325
101325
101325
101325
101325
101325
101325
101325
101325
101325
101325
101325
101325
101325
101325
101325
101325
101325
101325
101325
101325
101325
101325
101325
101325
101325
101325
101325
101325
101325
101325
101325
101325
101325
101325
101325
101325
101325
101325
101325
101325
101325
101325
101325
101325
101325
101325
101325
101325
101325
101325
101325
101325
101325
101325
101325
101325
101325
101325
101325
101325
101325
101325
101325
101325
101325
101325
101325
101325
101325
101325
101325
101325
101325
101325
101325
101325
101325
101325
101325
101325
101325
101325
101325
101325
101325
101325
101325
101325
101325
101325
101325
101325
101325
101325
101325
101325
101325
101325
101325
101325
101325
101325
101325
101325
101325
101325
101325
101325
101325
101325
101325
101325
101325
101325
101325
101325
101325
101325
101325
101325
101325
101325
101325
101325
101325
101325
101325
101325
101325
101325
101325
101325
101325
101325
101325
101325
101325
101325
101325
101325
101325
101325
101325
101325
101325
101325
101325
101325
101325
101325
101325
101325
101325
101325
101325
101325
101325
101325
101325
101325
101325
101325
101325
101325
101325
101325
101325
101325
101325
101325
101325
101325
101325
101325
101325
101325
101325
101325
101325
101325
101325
101325
101325
101325
101325
101325
101325
101325
101325
101325
101325
101325
101325
101325
101325
101325
101325
101325
101325
101325
101325
101325
101325
101325
101325
101325
101325
101325
101325
101325
101325
101325
101325
101325
101325
101325
101325
101325
101325
101325
101325
101325
101325
101325
101325
101325
101325
101325
101325
101325
101325
101325
101325
101325
101325
101325
101325
101325
101325
101325
101325
101325
101325
101325
101325
101325
101325
101325
101325
101325
101325
101325
101325
101325
101325
101325
101325
101325
101325
101325
101325
101325
101325
101325
101325
101325
101325
101325
101325
101325
101325
101325
101325
101325
101325
101325
101325
101325
101325
101325
101325
101325
101325
101325
101325
101325
101325
101325
101325
101325
101325
101325
101325
101325
101325
101325
101325
101325
101325
101325
101325
101325
101325
101325
101325
101325
101325
101325
101325
101325
101325
101325
101325
101325
101325
101325
101325
101325
101325
101325
101325
101325
101325
101325
101325
101325
101325
101325
101325
101325
101325
101325
101325
101325
101325
101325
101325
101325
101325
101325
101325
101325
101325
101325
101325
101325
101325
101325
101325
101325
101325
101325
101325
101325
101325
101325
101325
101325
101325
101325
101325
101325
101325
101325
101325
101325
101325
101325
101325
101325
101325
101325
101325
101325
101325
101325
101325
101325
101325
101325
101325
101325
101325
101325
101325
101325
101325
101325
101325
101325
101325
101325
101325
101325
101325
101325
101325
101325
101325
101325
101325
101325
101325
101325
101325
101325
101325
101325
101325
101325
101325
101325
101325
101325
101325
101325
101325
101325
101325
101325
101325
101325
101325
101325
101325
101325
101325
101325
101325
101325
101325
101325
101325
101325
101325
101325
101325
101325
101325
101325
101325
101325
101325
101325
101325
101325
101325
101325
101325
101325
101325
101325
101325
101325
101325
101325
101325
101325
101325
101325
101325
101325
101325
101325
101325
101325
101325
101325
101325
101325
101325
101325
101325
101325
101325
101325
101325
101325
101325
101325
101325
101325
101325
101325
101325
101325
101325
101325
101325
101325
101325
101325
101325
101325
101325
101325
101325
101325
101325
101325
101325
101325
101325
101325
101325
101325
101325
101325
101325
101325
101325
101325
101325
101325
101325
101325
101325
101325
101325
101325
101325
101325
101325
101325
101325
101325
101325
101325
101325
101325
101325
101325
101325
101325
101325
101325
101325
101325
101325
101325
101325
101325
101325
101325
101325
101325
101325
101325
101325
101325
101325
101325
101325
101325
101325
101325
101325
101325
101325
101325
101325
101325
101325
101325
101325
101325
101325
101325
101325
101325
101325
101325
101325
101325
101325
101325
101325
101325
101325
101325
101325
101325
101325
101325
101325
101325
101325
101325
101325
101325
101325
101325
101325
101325
101325
101325
101325
101325
101325
101325
101325
101325
101325
101325
101325
101325
101325
101325
101325
101325
101325
101325
101325
101325
101325
101325
101325
101325
101325
101325
101325
101325
101325
101325
101325
101325
101325
101325
101325
101325
101325
101325
101325
101325
101325
101325
101325
101325
101325
101325
101325
101325
101325
101325
101325
101325
101325
101325
101325
101325
101325
101325
101325
101325
101325
101325
101325
101325
101325
101325
101325
101325
101325
101325
101325
101325
101324.999
101324.999
101324.999
101324.999
101324.999
101324.999
101324.999
101324.999
101324.999
101324.999
101324.999
101324.998
101324.998
101324.998
101324.998
101324.998
101324.997
101324.997
101324.997
101324.997
101324.996
101324.996
101324.995
101324.995
101324.994
101324.994
101324.993
101324.993
101324.992
101324.991
101324.99
101324.989
101324.988
101324.987
101324.986
101324.984
101324.983
101324.981
101324.979
101324.977
101324.975
101324.972
101324.97
101324.967
101324.964
101324.96
101324.957
101324.953
101324.948
101324.943
101324.938
101324.932
101324.926
101324.919
101324.912
101324.904
101324.895
101324.886
101324.876
101324.865
101324.853
101324.84
101324.826
101324.81
101324.794
101324.776
101324.757
101324.736
101324.713
101324.689
101324.663
101324.635
101324.604
101324.571
101324.536
101324.497
101324.456
101324.412
101324.365
101324.314
101324.259
101324.2
101324.137
101324.07
101323.997
101323.92
101323.837
101323.748
101323.653
101323.552
101323.444
101323.328
101323.205
101323.074
101322.935
101322.786
101322.628
101322.461
101322.283
101322.094
101321.893
101321.681
101321.456
101321.218
101320.967
101320.701
101320.421
101320.125
101319.814
101319.486
101319.141
101318.779
101318.398
101317.998
101317.58
101317.141
101316.683
101316.203
101315.703
101315.181
101314.637
101314.071
101313.482
101312.871
101312.236
101311.579
101310.899
101310.196
101309.47
101308.721
101307.95
101307.158
101306.344
101305.509
101304.654
101303.78
101302.888
101301.978
101301.053
101300.113
101299.16
101298.195
101297.221
101296.238
101295.249
101294.256
101293.262
101292.268
101291.277
101290.291
101289.313
101288.347
101287.393
101286.456
101285.538
101284.642
101283.772
101282.929
101282.116
101281.338
101280.595
101279.892
101279.23
101278.612
101278.04
101277.517
101277.044
101276.623
101276.257
101275.945
101275.689
101275.49
101275.348
101275.263
101275.236
101275.266
101275.352
101275.493
101275.687
101275.934
101276.231
101276.576
101276.966
101277.399
101277.872
101278.382
101278.925
101279.498
101280.099
101280.722
101281.365
101282.025
101282.697
101283.379
101284.067
101284.759
101285.451
101286.142
101286.828
101287.508
101288.18
101288.843
101289.495
101290.136
101290.765
101291.383
101291.988
101292.583
101293.166
101293.74
101294.305
101294.863
101295.414
101295.96
101296.504
101297.045
101297.586
101298.127
101298.671
101299.218
101299.768
101300.324
101300.883
101301.448
101302.017
101302.589
101303.163
101303.736
101304.308
101304.873
101305.429
101305.971
101306.493
101306.99
101307.453
101307.877
101308.252
101308.572
101308.826
101309.01
101309.115
101309.138
101309.078
101308.939
101308.728
101308.46
101308.156
101307.841
101307.535
101307.28
101307.379
101307.544
101307.144
101305.065
101305.587
101305.963
101306.461
101306.632
101306.808
101306.953
101307.112
101307.278
101307.446
101307.612
101307.767
101307.906
101308.024
101308.117
101308.183
101308.22
101308.227
101308.204
101308.152
101308.073
101307.966
101307.835
101307.682
101307.509
101307.317
101307.11
101306.889
101306.657
101306.415
101306.165
101305.908
101305.646
101305.381
101305.113
101304.844
101304.574
101304.304
101304.034
101303.766
101303.499
101303.234
101302.971
101302.71
101302.452
101302.196
101301.942
101301.691
101301.442
101301.196
101300.952
101300.711
101300.471
101300.234
101299.998
101299.764
101299.532
101299.301
101299.071
101298.842
101298.614
101298.387
101298.16
101297.934
101297.707
101297.481
101297.254
101297.026
101296.797
101296.568
101296.337
101296.104
101295.87
101295.634
101295.395
101295.154
101294.91
101294.663
101294.413
101294.159
101293.902
101293.641
101293.376
101293.106
101292.832
101292.553
101292.27
101291.982
101291.688
101291.39
101291.086
101290.778
101290.463
101290.144
101289.819
101289.49
101289.154
101288.814
101288.469
101288.119
101287.764
101287.405
101287.041
101286.673
101286.302
101285.927
101285.548
101285.167
101284.783
101284.397
101284.009
101283.619
101283.229
101282.838
101282.447
101282.056
101281.666
101281.277
101280.89
101280.506
101280.124
101279.746
101279.371
101279.001
101278.636
101278.277
101277.923
101277.577
101277.237
101276.905
101276.581
101276.266
101275.96
101275.664
101275.378
101275.102
101274.838
101274.585
101274.343
101274.115
101273.899
101273.696
101273.506
101273.33
101273.168
101273.021
101272.888
101272.77
101272.667
101272.58
101272.507
101272.451
101272.41
101272.385
101272.376
101272.383
101272.406
101272.445
101272.5
101272.571
101272.658
101272.761
101272.88
101273.015
101273.165
101273.33
101273.511
101273.707
101273.918
101274.143
101274.383
101274.638
101274.906
101275.187
101275.482
101275.791
101276.112
101276.445
101276.79
101277.147
101277.516
101277.895
101278.286
101278.686
101279.096
101279.516
101279.945
101280.383
101280.829
101281.283
101281.744
101282.213
101282.688
101283.17
101283.658
101284.151
101284.649
101285.152
101285.66
101286.171
101286.686
101287.204
101287.725
101288.248
101288.773
101289.301
101289.829
101290.359
101290.889
101291.42
101291.95
101292.481
101293.011
101293.54
101294.068
101294.594
101295.119
101295.641
101296.162
101296.679
101297.195
101297.707
101298.216
101298.721
101299.223
101299.721
101300.216
101300.705
101301.191
101301.672
101302.149
101302.62
101303.087
101303.549
101304.005
101304.456
101304.902
101305.342
101305.777
101306.205
101306.629
101307.046
101307.457
101307.863
101308.262
101308.656
101309.043
101309.425
101309.8
101310.169
101310.532
101310.889
101311.239
101311.584
101311.922
101312.255
101312.581
101312.901
101313.215
101313.523
101313.825
101314.121
101314.411
101314.695
101314.973
101315.246
101315.513
101315.774
101316.029
101316.279
101316.524
101316.763
101316.996
101317.225
101317.448
101317.666
101317.879
101318.086
101318.289
101318.487
101318.68
101318.869
101319.053
101319.232
101319.406
101319.577
101319.742
101319.904
101320.061
101320.215
101320.364
101320.509
101320.651
101320.788
101320.922
101321.052
101321.179
101321.302
101321.421
101321.538
101321.651
101321.76
101321.867
101321.97
101322.071
101322.169
101322.263
101322.355
101322.444
101322.531
101322.615
101322.696
101322.775
101322.852
101322.926
101322.998
101323.067
101323.135
101323.2
101323.263
101323.325
101323.384
101323.441
101323.497
101323.551
101323.603
101323.653
101323.702
101323.749
101323.794
101323.838
101323.881
101323.922
101323.962
101324
101324.037
101324.073
101324.108
101324.141
101324.173
101324.205
101324.235
101324.264
101324.292
101324.319
101324.345
101324.37
101324.394
101324.417
101324.44
101324.462
101324.483
101324.503
101324.522
101324.541
101324.559
101324.576
101324.593
101324.609
101324.625
101324.64
101324.654
101324.668
101324.681
101324.694
101324.707
101324.718
101324.73
101324.741
101324.751
101324.762
101324.771
101324.781
101324.79
101324.798
101324.807
101324.815
101324.822
101324.83
101324.837
101324.844
101324.85
101324.857
101324.863
101324.868
101324.874
101324.879
101324.884
101324.889
101324.894
101324.899
101324.903
101324.907
101324.911
101324.915
101324.919
101324.922
101324.926
101324.929
101324.932
101324.935
101324.938
101324.94
101324.943
101324.946
101324.948
101324.95
101324.952
101324.955
101324.957
101324.959
101324.96
101324.962
101324.964
101324.965
101324.967
101324.969
101324.97
101324.971
101324.973
101324.974
101324.975
101324.976
101324.977
101324.978
101324.979
101324.98
101324.981
101324.982
101324.983
101324.984
101324.984
101324.985
101324.986
101324.987
101324.987
101324.988
101324.988
101324.989
101324.989
101324.99
101324.99
101324.991
101324.991
101324.992
101324.992
101324.992
101324.993
101324.993
101324.994
101324.994
101324.994
101324.994
101324.995
101324.995
101324.995
101324.995
101324.996
101324.996
101324.996
101324.996
101324.996
101324.997
101324.997
101324.997
101324.997
101324.997
101324.997
101324.998
101324.998
101324.998
101324.998
101324.998
101324.998
101324.998
101324.998
101324.998
101324.998
101324.999
101324.999
101324.999
101324.999
101324.999
101324.999
101324.999
101324.999
101324.999
101324.999
101324.999
101324.999
101324.999
101324.999
101324.999
101324.999
101324.999
101324.999
101324.999
101325
101325
101325
101325
101325
101325
101325
101325
101325
101325
101325
101325
101325
101325
101325
101325
101325
101325
101325
101325
101325
101325
101325
101325
101325
101325
101325
101325
101325
101325
101325
101325
101325
101325
101325
101325
101325
101325
101325
101325
101325
101325
101325
101325
101325
101325
101325
101325
101325
101325
101325
101325
101325
101325
101325
101325
101325
101325
101325
101325
101325
101325
101325
101325
101325
101325
101325
101325
101325
101325
101325
101325
101325
101325
101325
101325
101325
101325
101325
101325
)
;

boundaryField
{
    closed
    {
        type            zeroGradient;
    }
    open
    {
        type            waveTransmissive;
        gamma           1.25;
        fieldInf        101325;
        lInf            1;
        value           uniform 101325;
    }
    sides
    {
        type            empty;
    }
}


// ************************************************************************* //
