/*--------------------------------*- C++ -*----------------------------------*\
| =========                 |                                                 |
| \\      /  F ield         | OpenFOAM: The Open Source CFD Toolbox           |
|  \\    /   O peration     | Version:  2206                                  |
|   \\  /    A nd           | Website:  www.openfoam.com                      |
|    \\/     M anipulation  |                                                 |
\*---------------------------------------------------------------------------*/
FoamFile
{
    version     2.0;
    format      ascii;
    arch        "LSB;label=32;scalar=64";
    class       surfaceScalarField;
    location    "3.2e-06";
    object      phi;
}
// * * * * * * * * * * * * * * * * * * * * * * * * * * * * * * * * * * * * * //

dimensions      [1 0 -1 0 0 0 0];

oriented        oriented;

internalField   nonuniform List<scalar> 
3182
(
9.06213674e-19
-7.84450215e-19
2.1614392e-19
-4.46944125e-19
-5.73559849e-23
-1.54857189e-24
-1.12759758e-25
-1.58203965e-30
2.39843843e-29
8.25459463e-25
1.12842002e-23
8.87875003e-22
1.75625366e-18
-7.03539296e-19
-1.27221834e-18
-1.98129784e-23
1.32309475e-18
-1.40882227e-18
-2.6466145e-18
3.3373111e-18
2.12446518e-21
4.45936808e-23
5.4277047e-24
2.40430579e-23
3.14818241e-22
1.30298058e-18
2.95693248e-18
-1.99208485e-18
-1.51754306e-18
-1.19554784e-18
-1.23744126e-18
1.24071738e-18
-5.40053344e-20
-1.0256315e-18
3.24783375e-19
4.84855435e-19
-4.87643432e-19
-4.85121604e-19
4.86433298e-19
-3.29364674e-19
-2.16930722e-18
-1.40163754e-18
4.31706325e-19
1.08451061e-18
8.70716392e-19
1.40421362e-18
1.08397567e-18
6.48110008e-19
-8.6573451e-19
-1.08901771e-19
-6.53298065e-19
-1.50750816e-18
-4.32006399e-19
-1.12221232e-19
-1.6987041e-21
-4.31337053e-19
2.01140925e-21
-2.02050814e-21
2.16729872e-19
-2.15994393e-19
-8.63304674e-19
-1.08568675e-18
-2.22682588e-19
-1.46143464e-22
1.58592194e-20
4.40053052e-19
1.73890786e-18
1.7296395e-18
2.18067223e-18
2.58881955e-18
3.03522925e-18
3.49553342e-18
3.48212073e-18
4.34492465e-18
3.92105094e-18
4.37223953e-18
5.64906072e-18
6.5469502e-18
5.25778651e-18
6.15369908e-18
6.55125314e-18
5.16141862e-18
5.13535633e-18
4.30699499e-18
4.14878484e-18
2.48958201e-18
2.61205765e-18
1.63753125e-18
2.49433111e-18
3.29472275e-18
7.75924601e-19
-8.13761168e-19
-6.25228283e-19
7.46128617e-19
1.5481557e-18
2.13318005e-18
4.22711788e-19
3.48683606e-19
3.4941381e-18
3.04913084e-18
1.22688606e-18
1.33275975e-18
7.76923884e-19
1.9188553e-18
-3.32320265e-19
3.69061829e-19
3.94806448e-19
2.28379203e-18
5.81587298e-19
-1.60519546e-18
-2.19375877e-18
-1.78560154e-18
-4.80483628e-18
-6.89077867e-18
-8.93932699e-18
-6.40070451e-18
-6.20693017e-18
-5.09017528e-18
-3.51821555e-18
-3.70104787e-18
-1.90982241e-18
-3.77670034e-19
-8.67472883e-19
-1.81947613e-18
-2.02288609e-18
-2.34749276e-18
-1.5077917e-19
-3.3734286e-18
-1.44479731e-18
-2.91514143e-19
-9.72455483e-19
1.40462861e-18
1.06276612e-18
4.30630155e-18
1.92355479e-18
1.02506963e-18
-3.11000987e-18
3.49827164e-19
8.41168604e-19
-7.30351335e-19
7.39556719e-19
1.5191414e-18
2.20066864e-18
2.50475484e-18
3.11346115e-18
3.96145614e-18
6.34531997e-18
3.84732538e-18
8.5636363e-18
8.43112683e-18
9.47508607e-18
6.11442096e-18
7.24489685e-18
6.16183461e-18
7.99490831e-18
9.54964258e-18
1.01422293e-17
1.15442717e-17
1.09570594e-17
9.76149096e-18
9.82023865e-18
9.52621228e-18
9.91199514e-18
6.6949072e-18
9.6869782e-18
8.42473483e-18
1.04467102e-17
6.82276159e-18
8.38340544e-18
9.64201221e-18
8.88061507e-18
6.72792026e-18
6.32634587e-18
6.3619061e-18
9.20377937e-18
6.88375767e-18
7.16177231e-18
6.59603051e-18
5.93884461e-18
5.5121563e-18
5.52057983e-18
5.82027286e-18
5.15140605e-18
3.73241259e-18
5.05118363e-19
1.25024033e-18
2.67471264e-18
2.62175679e-18
3.42508756e-18
3.56375661e-18
2.83809168e-18
1.74280246e-18
2.0959973e-18
1.78884347e-18
3.03132736e-18
5.37560437e-18
1.6265198e-18
3.46095311e-18
4.87991338e-18
5.35485085e-18
4.5713723e-18
7.32729749e-18
5.10796848e-18
5.49380996e-18
6.40056183e-18
5.1262152e-18
4.33886205e-18
4.05508653e-18
1.399437e-18
3.10806475e-18
2.86797405e-18
4.35032146e-19
-1.83585152e-18
3.12167408e-18
1.04093339e-19
2.25419768e-18
2.12693317e-18
2.87191193e-18
2.60927645e-19
-1.24363502e-19
-2.14472949e-18
-2.05780261e-18
-3.27898696e-20
-8.8750049e-19
4.44765714e-19
-2.18417917e-18
-1.72379169e-18
-9.27719113e-19
-1.39864574e-18
-1.42772297e-18
1.03787785e-18
-6.57443707e-19
-1.18416845e-18
-1.87427383e-18
-3.28258698e-18
-4.09483789e-18
-2.78232112e-18
-6.54733277e-20
1.16566842e-19
-1.08266601e-18
1.46446218e-19
-1.52056049e-18
-3.74786105e-18
-4.59042228e-18
-4.76918943e-18
-7.69771948e-18
-1.18858718e-17
-1.05066547e-17
-1.16653819e-17
-1.32976781e-17
-1.48721931e-17
-1.11630561e-17
-1.04449765e-17
-7.77118018e-18
-7.57190933e-18
-8.36252077e-18
-1.13919372e-17
-9.81893676e-18
-1.27681667e-17
-1.50283246e-17
-1.23735613e-17
-1.33047244e-17
-1.28010889e-17
-1.20361272e-17
-1.41182685e-17
-1.53722078e-17
-1.20684053e-17
-1.59566396e-17
-1.50482244e-17
-1.41649338e-17
-1.36982641e-17
-1.40251327e-17
-1.24564632e-17
-1.16061562e-17
-1.27467206e-17
-1.01000641e-17
-9.54779137e-18
-1.2988031e-17
-1.12994941e-17
-1.47773101e-17
-1.37412366e-17
-1.78891449e-17
-1.57695432e-17
-2.16825245e-17
-1.94639777e-17
-2.22298088e-17
-2.509299e-17
-2.30817092e-17
-2.3060229e-17
-2.66058013e-17
-2.60103009e-17
-2.65663723e-17
-2.53159813e-17
-2.386584e-17
-2.17654406e-17
-2.44101371e-17
-2.3685255e-17
-2.81877335e-17
-2.8284431e-17
-2.53539472e-17
-2.37083182e-17
-2.4290663e-17
-2.16628407e-17
-2.58448314e-17
-2.42855281e-17
-2.74666449e-17
-2.6922491e-17
-2.57762635e-17
-2.68060734e-17
-2.73711614e-17
-2.77568783e-17
-2.80688894e-17
-2.89134478e-17
-2.88734548e-17
-3.13627157e-17
-3.1889715e-17
-3.43477689e-17
-3.47870096e-17
-3.3268633e-17
-3.49699276e-17
-3.33438867e-17
-3.54975395e-17
-3.52448231e-17
-3.58282966e-17
-3.56997841e-17
-3.06177534e-17
-3.11524594e-17
-3.07105859e-17
-3.40535798e-17
-3.26036554e-17
-3.23858598e-17
-2.87100837e-17
-3.30450853e-17
-2.912551e-17
-2.96114186e-17
-2.97028363e-17
-2.83701505e-17
-2.7964449e-17
-2.81387713e-17
-2.93938229e-17
-2.86453784e-17
-2.89520316e-17
-2.84952703e-17
-2.63076016e-17
-2.4542786e-17
-2.58112434e-17
-2.55821902e-17
-2.43151273e-17
-2.62216484e-17
-2.51486111e-17
-2.45940758e-17
-2.82278208e-17
-2.80382132e-17
-2.75937827e-17
-2.4674766e-17
-2.46877405e-17
-2.35035093e-17
-2.24873686e-17
-2.39655019e-17
-2.35613203e-17
-2.1460748e-17
-2.19816074e-17
-2.46586507e-17
-2.48523817e-17
-2.74886906e-17
-2.93397665e-17
-2.71724625e-17
-2.81053997e-17
-3.05758005e-17
-3.06442422e-17
-2.83302049e-17
-2.7659419e-17
-2.62627235e-17
-2.69412703e-17
-2.4992645e-17
-2.3593629e-17
-2.49096025e-17
-2.23931211e-17
-1.9903568e-17
-2.37976316e-17
-2.44054201e-17
-1.92050131e-17
-1.89284021e-17
-1.74626836e-17
-1.53384099e-17
-1.29381605e-17
-1.54657898e-17
-1.534875e-17
-1.39237666e-17
-2.02923363e-17
-1.62919379e-17
-1.76610392e-17
-1.74493512e-17
-1.51639081e-17
-1.81210453e-17
-1.4339356e-17
-1.25926434e-17
-1.05289196e-17
-1.42981903e-17
-9.26172856e-18
-7.99594418e-18
-8.48338317e-18
-8.8652817e-18
-8.82639648e-18
-6.85682028e-18
-7.31197846e-18
-7.7720698e-18
-4.46586126e-18
-9.47355188e-18
-4.15440601e-18
-4.05800846e-18
-2.53209285e-18
4.49894153e-19
-2.6354397e-18
-3.34782988e-18
6.36281943e-20
1.67424151e-18
5.68133268e-18
2.85742342e-18
-5.73726229e-19
1.1346369e-18
-1.99646256e-19
-1.86222522e-18
4.61965651e-19
-1.02697873e-18
-6.5308837e-19
-1.38088788e-18
4.44146502e-18
4.27493512e-18
2.24458857e-18
1.75653411e-18
1.42684906e-18
3.38269191e-18
1.72506878e-18
4.45597884e-18
1.16774751e-19
4.09510103e-18
1.98266681e-18
1.86730853e-19
9.38062694e-19
2.49857771e-18
-1.54399602e-18
-1.79933211e-18
-5.02843055e-19
-1.12971006e-19
-4.0743596e-18
-1.99439391e-19
-1.82136555e-19
1.78349285e-19
-3.70146793e-19
-1.45647887e-18
-1.17167241e-18
-1.21043579e-18
-6.55451681e-19
-3.49198411e-18
-1.40860575e-18
-2.25489257e-19
-3.8172817e-18
-1.24683891e-18
-2.4025255e-20
1.44509872e-19
3.06990673e-19
3.70724047e-18
4.38300347e-18
5.43641334e-18
3.22268428e-18
2.21401594e-18
4.28333149e-18
1.76340683e-18
4.32906017e-18
1.06388626e-18
1.9479485e-19
-3.48369039e-18
-2.76035613e-18
-1.2265814e-19
7.87561159e-19
-7.06792469e-19
-9.16817036e-19
9.58657806e-19
-9.56104407e-20
6.11487963e-20
-5.09068063e-19
-2.22262664e-18
7.65192972e-19
2.3494075e-18
5.57082693e-19
-4.17743134e-18
-1.48061456e-18
-2.20225225e-18
-2.2201844e-18
-1.03042411e-18
-1.11188526e-18
7.37109118e-19
-7.01517648e-20
-3.41474621e-18
-4.76274115e-18
-5.85224963e-18
-5.657521e-18
-8.92478069e-18
-7.91412806e-18
-5.81015972e-18
-1.28338818e-18
-3.73532938e-18
-2.29495547e-18
-2.5981507e-18
8.68385951e-19
4.14642312e-19
-1.3409943e-18
-6.64419478e-19
1.54081357e-18
3.04011323e-19
6.27331856e-19
-7.6877245e-19
-7.85561758e-19
-1.94340545e-18
2.0232452e-19
-2.89046199e-18
-3.06235448e-18
-2.95096871e-18
-2.93491814e-18
-2.7500506e-18
-2.64900003e-18
-7.60101404e-19
-3.56701205e-18
-2.12835223e-18
-1.16473203e-18
9.24948282e-19
2.92283577e-18
-2.31487251e-18
3.08958277e-19
-6.96593125e-19
-3.06511478e-18
-3.23084842e-18
-3.09451751e-19
1.0733734e-19
1.33343631e-19
-3.01986516e-19
-3.15638974e-18
-5.47534861e-18
-1.70363636e-18
-1.28960528e-18
-6.64443435e-19
-3.00515448e-18
-6.67579381e-18
-5.13974491e-18
-7.40565624e-18
-9.5384041e-18
-7.64128176e-18
-5.197845e-18
-3.30488477e-18
-4.15451974e-18
-3.17059728e-18
2.92247161e-21
-3.92880321e-18
-2.02612662e-18
-1.24838418e-18
-2.79547127e-18
-2.44106206e-19
1.18658089e-18
2.35528929e-18
2.49002479e-18
5.81418091e-18
4.95461232e-18
1.38282037e-18
5.19791665e-18
3.9136198e-18
3.9059259e-18
3.90112327e-18
4.53284014e-18
5.90242381e-18
4.61410764e-18
6.62499325e-18
8.16618843e-18
9.92314389e-18
8.73377685e-18
8.89180611e-18
1.07288902e-17
7.8587197e-18
8.87568271e-18
9.9083083e-18
7.6775755e-18
9.52770164e-18
9.15131138e-18
1.07248603e-17
6.28322294e-18
5.80814547e-18
4.07055181e-18
4.8164516e-18
8.04354127e-18
7.52740952e-18
4.74559454e-18
3.08389408e-18
5.21562479e-18
4.87089237e-18
3.93292807e-18
7.21024909e-18
6.81786561e-18
1.15334819e-17
1.18296162e-17
9.84978561e-18
9.74417898e-18
9.55759019e-18
7.46767057e-18
1.0515325e-17
9.05466791e-18
1.01996829e-17
1.09384332e-17
9.29875374e-18
1.02938596e-17
8.5372141e-18
6.40209868e-18
7.2506257e-18
8.85763067e-18
9.43926745e-18
1.03216867e-17
1.05151859e-17
9.4664687e-18
8.71729225e-18
8.14389859e-18
8.62078764e-18
1.03624759e-17
8.13311155e-18
8.75799611e-18
8.30187127e-18
9.14937047e-18
7.93010418e-18
9.3132046e-18
7.55251976e-18
6.86303809e-18
6.38176865e-18
5.741191e-18
1.00462401e-17
7.8456423e-18
1.20549383e-17
1.09155488e-17
1.08317562e-17
6.79381247e-18
5.47701079e-18
2.76530917e-18
1.37150301e-18
1.55797635e-18
4.44074471e-18
4.54553322e-18
5.230748e-18
1.05355626e-18
2.78517902e-18
5.93771541e-19
9.12358407e-19
2.09218345e-19
2.18877375e-18
3.0806645e-18
1.37645189e-18
4.16739098e-18
1.02689701e-18
4.95131399e-22
4.14293163e-18
2.02672161e-18
-1.33210707e-18
-9.16948025e-19
8.11394191e-19
9.92227457e-19
2.70188619e-18
1.52798938e-18
-3.9877865e-19
-1.00477933e-18
-1.30767176e-18
-2.55658809e-19
1.18127926e-18
-1.52748645e-18
-1.11480385e-18
-2.0460009e-18
-7.72256883e-19
2.01119072e-18
-1.2764206e-18
-7.40465623e-19
-1.38135576e-18
-3.35889016e-18
1.72305574e-18
-6.39055846e-19
-6.09232849e-19
-2.30306023e-18
-2.2533064e-18
-2.66566328e-19
1.17566354e-18
-1.71677981e-18
-9.1764312e-19
4.64667312e-20
-1.14535455e-18
1.85589121e-18
2.99477816e-18
1.85941671e-18
4.08110607e-18
4.70795884e-18
7.28130864e-18
1.06453252e-17
7.99591751e-18
1.27572341e-17
1.44441914e-17
1.4586187e-17
1.85685221e-17
1.9001323e-17
1.96542533e-17
1.82850015e-17
1.95251419e-17
1.92513244e-17
1.9358833e-17
1.94233035e-17
2.14901514e-17
1.48152531e-17
1.53488736e-17
1.63390001e-17
1.52535253e-17
1.5586571e-17
1.84910598e-17
1.91770294e-17
1.97977553e-17
1.80750046e-17
1.86638337e-17
1.47658949e-17
1.76793138e-17
1.72627784e-17
1.79284187e-17
1.72401359e-17
1.70606693e-17
1.58167195e-17
1.41297322e-17
1.41229979e-17
1.50849708e-17
1.13243176e-17
1.21341363e-17
1.22117766e-17
1.00376537e-17
1.15047281e-17
1.33306657e-17
1.40797299e-17
1.43157379e-17
1.33981101e-17
1.23417281e-17
1.20541885e-17
1.45130586e-17
1.190023e-17
1.33146769e-17
9.69178087e-18
1.08173952e-17
1.42041048e-17
9.48490679e-18
9.54076763e-18
9.3177211e-18
8.04393257e-18
1.13144825e-17
8.06963927e-18
9.97961421e-18
7.78632364e-18
9.06871271e-18
8.60165934e-18
6.57138415e-18
8.14097206e-18
1.00388541e-17
8.25751961e-18
8.40964511e-18
6.36465572e-18
7.23843667e-18
6.00082322e-18
6.33375265e-18
3.61909124e-18
5.2586118e-18
1.72666886e-18
4.13727404e-18
3.99306217e-18
7.39913471e-18
5.05939486e-18
6.93259339e-18
7.24434477e-18
7.45935611e-18
6.99631731e-18
4.29066127e-18
5.50119016e-18
7.55916359e-18
6.07206927e-18
6.05874456e-18
7.03012665e-18
4.60667318e-18
5.75238287e-19
-1.16135322e-18
-1.50367433e-18
-5.18480922e-18
-1.03699061e-18
-3.48493596e-18
-1.91903862e-18
-5.11499405e-18
-1.56995549e-18
-4.011892e-18
-9.06982382e-18
-3.86375493e-18
-1.40815995e-18
-2.35296862e-18
-2.41715303e-18
-1.88824521e-18
-4.10925221e-18
-5.85384269e-18
-4.39373697e-18
-7.49087709e-18
1.54504933e-18
-1.61347536e-18
-3.78142299e-18
1.51504794e-18
-2.60926135e-18
-6.27326066e-19
-2.25085246e-18
-1.52767214e-18
-5.77934784e-18
-3.95520337e-18
-3.37023672e-18
-5.84578657e-18
-6.00306139e-18
-6.48617974e-18
-7.48890171e-18
-9.95124132e-18
-7.31594951e-18
-8.98814952e-18
-4.05216173e-18
-4.08475972e-18
-2.6809345e-18
-4.17987623e-18
-4.49049922e-18
-1.31832903e-18
1.32596118e-18
5.97125049e-19
7.19321774e-19
-1.18777578e-18
-1.11547872e-18
-2.0546728e-18
-2.96634616e-19
-2.2878332e-19
1.20469735e-18
2.31444477e-18
2.31021827e-18
2.6798537e-18
4.37894889e-18
3.8840886e-18
5.35591066e-18
3.41180812e-18
2.70335337e-18
2.65948197e-18
9.10791808e-19
9.84987913e-19
3.49810718e-18
1.60900637e-18
5.25862434e-19
1.44415386e-18
3.34351257e-19
-1.22196366e-18
9.84310379e-19
3.28820435e-18
-2.12200618e-18
-1.39885227e-18
-1.14965367e-18
-2.30931879e-18
-3.20355294e-18
-6.93418306e-19
-3.25832612e-18
-8.68025249e-19
1.25635259e-19
-1.52515103e-18
-2.15182164e-18
-6.22200081e-19
3.2284269e-18
-9.27265082e-19
1.36889868e-18
9.18023353e-19
2.89193124e-18
-5.2713753e-19
2.78515227e-19
-1.31976334e-19
-1.36065603e-18
-1.63563681e-18
4.0154201e-19
-3.42630457e-18
-2.79318663e-18
-4.85026076e-18
-3.34233129e-18
-2.28224893e-18
-1.48466689e-18
-5.07871301e-19
-6.16620835e-19
1.25579541e-18
6.41189226e-19
-1.5467234e-19
-3.78840767e-19
-1.68890397e-18
2.62247193e-18
1.65338585e-18
1.40529497e-18
1.51884832e-18
1.84054333e-18
1.92228933e-18
1.50671575e-18
-1.98539014e-19
1.81260056e-18
7.46102632e-19
-5.66027384e-19
4.93537604e-19
-2.50453233e-19
1.61602904e-18
2.10404384e-18
3.75809304e-18
4.11162761e-18
4.13682824e-18
3.33163738e-18
5.35594671e-19
2.60826514e-18
2.37524885e-18
8.32986049e-20
1.30282612e-18
1.91380985e-18
3.68367107e-18
3.56300656e-18
6.27065248e-18
4.1720848e-18
4.1811781e-18
3.29798783e-18
7.91117872e-18
6.22729667e-18
4.83001722e-18
3.74361531e-18
3.0129281e-18
-5.22231585e-19
3.29481399e-18
2.72670332e-18
5.05269004e-18
3.13175244e-18
4.06760391e-18
2.12458927e-18
4.09954061e-18
5.9859624e-18
5.73656905e-18
4.94296857e-18
7.09384403e-18
7.4663687e-18
6.45760702e-18
7.47306832e-18
8.19518487e-18
1.00160695e-17
1.071339e-17
1.01728386e-17
1.31844233e-17
1.03667276e-17
1.20084257e-17
1.51096368e-17
1.36927676e-17
1.29894966e-17
1.31364865e-17
1.34355705e-17
1.06998556e-17
1.0935814e-17
1.01967453e-17
8.24291023e-18
6.99316849e-18
1.1707712e-17
1.15898751e-17
1.53749174e-17
1.32711133e-17
1.49823211e-17
1.59856116e-17
1.60503604e-17
2.16683993e-17
1.83970525e-17
1.69994758e-17
2.15843975e-17
1.92508047e-17
1.8651751e-17
1.83383418e-17
1.74917375e-17
1.88770576e-17
2.00765992e-17
2.27198788e-17
1.95541316e-17
2.03749515e-17
2.07303494e-17
1.94587458e-17
2.13929503e-17
1.9361172e-17
1.88028729e-17
1.95566932e-17
2.17106505e-17
1.75449716e-17
2.01327822e-17
1.99517357e-17
2.22702424e-17
2.00649475e-17
2.28115473e-17
2.35715859e-17
2.18573687e-17
2.38261983e-17
2.30346651e-17
2.12005198e-17
2.10824216e-17
2.13988232e-17
2.09524069e-17
1.93679601e-17
1.84449335e-17
1.62471927e-17
1.76451399e-17
1.57446167e-17
1.60146705e-17
1.60847731e-17
1.62862511e-17
1.52948333e-17
1.32398738e-17
1.20149345e-17
1.28001879e-17
1.16027065e-17
8.95456501e-18
1.01848899e-17
1.26183968e-17
1.47159596e-17
1.71747608e-17
1.54016598e-17
1.67823902e-17
1.49438063e-17
1.75385659e-17
1.54396007e-17
1.88118031e-17
1.7465267e-17
1.9712466e-17
2.00443427e-17
2.32032928e-17
2.28704026e-17
2.08420841e-17
1.97827965e-17
1.76559549e-17
1.56863655e-17
1.09490304e-17
1.14558801e-17
1.32372978e-17
1.14238786e-17
1.38580732e-17
1.27142414e-17
1.05789941e-17
1.10066059e-17
1.03266449e-17
1.22089884e-17
1.24021363e-17
1.13717887e-17
1.12768271e-17
1.02769925e-17
1.15985804e-17
1.05677775e-17
1.25435027e-17
1.23231935e-17
9.58357323e-18
9.87681435e-18
1.31182422e-17
1.4749047e-17
1.29951977e-17
1.42326237e-17
1.35272497e-17
9.23288514e-18
1.07985993e-17
1.0811745e-17
1.15960837e-17
1.15619871e-17
1.1218003e-17
1.37612909e-17
1.23056323e-17
1.11927423e-17
1.08580254e-17
1.05948866e-17
1.02310273e-17
9.98333523e-18
1.32290495e-17
1.38424856e-17
1.46087292e-17
1.2839428e-17
1.38023257e-17
1.34097497e-17
1.24447478e-17
9.00241626e-18
1.00810601e-17
1.20974752e-17
8.77159342e-18
9.65849794e-18
8.77907383e-18
5.78294812e-18
3.24832728e-18
3.44173228e-18
2.89257364e-18
2.85388549e-18
1.34895993e-18
1.91143874e-18
1.97987173e-18
1.7160823e-18
3.07852978e-18
-2.05473941e-18
-1.91281678e-18
-2.16379724e-18
-3.68507359e-18
-2.18676411e-18
-3.42201185e-18
-3.62772259e-18
-3.08508602e-18
-3.38814641e-18
-4.17107412e-18
-4.41179397e-18
-4.9265685e-18
-6.01065966e-18
-3.51570958e-18
-5.18984838e-18
-5.95284184e-18
-3.94553466e-18
-4.16421846e-18
-7.94218252e-18
-6.90455627e-18
-7.11407338e-18
-7.21527202e-18
-9.64171572e-18
-9.35112976e-18
-9.47622403e-18
-1.09895919e-17
-9.00626233e-18
-8.47473326e-18
-9.80730309e-18
-1.12941237e-17
-1.05114142e-17
-1.28521222e-17
-1.37987823e-17
-1.27371594e-17
-1.45133136e-17
-1.2954963e-17
-1.70854203e-17
-1.48680671e-17
-1.57351854e-17
-1.61453314e-17
-1.585071e-17
-1.71189225e-17
-1.31058733e-17
-1.39501957e-17
-1.26726715e-17
-9.98464068e-18
-1.17882774e-17
-1.25720727e-17
-1.01181388e-17
-8.24371718e-18
-1.06293492e-17
-1.01513275e-17
-1.15729616e-17
-1.06399242e-17
-9.81987397e-18
-6.51894222e-18
-5.37096402e-18
-1.50598192e-18
-9.31975112e-20
-7.7436381e-20
2.0845917e-18
-9.86069389e-19
-3.48205044e-18
-7.83030145e-19
-3.73506105e-18
-3.96064985e-18
-4.6784611e-18
-6.01737311e-18
-1.05119301e-18
-5.74992153e-18
-1.23082869e-18
1.59110903e-18
3.0607264e-18
-1.72845814e-18
-2.14425171e-18
-3.26719956e-18
-2.25779252e-18
-3.11181654e-18
-2.66575428e-18
-6.37148494e-18
-3.42470273e-18
-7.20914938e-18
-8.58207114e-18
-8.49282321e-18
-6.16324397e-18
-6.89037508e-18
-9.60688319e-18
-1.01251714e-17
-1.16552272e-17
-1.14659594e-17
-1.12661232e-17
-9.14839499e-18
-8.03012467e-18
-4.90258989e-18
-9.09530724e-18
-9.17657742e-18
-1.05298493e-17
-1.13453726e-17
-1.28271579e-17
-1.24723752e-17
-1.40388551e-17
-1.65025174e-17
-1.61519213e-17
-1.92880928e-17
-1.54888537e-17
-1.96549514e-17
-1.6840734e-17
-1.81164064e-17
-1.61361232e-17
-2.18739741e-17
-1.69413441e-17
-2.21549805e-17
-1.9331827e-17
-1.74058722e-17
-1.70970109e-17
-1.87267474e-17
-1.99459204e-17
-2.19239866e-17
-2.01710584e-17
-1.91467106e-17
-2.22063737e-17
-1.91348777e-17
-1.78428833e-17
-2.09444647e-17
-2.12925751e-17
-2.27814797e-17
-2.67365083e-17
-2.38901757e-17
-2.25065522e-17
-2.14346295e-17
-2.16166825e-17
-2.43332743e-17
-2.33134173e-17
-2.10478222e-17
-2.31621498e-17
-2.29064695e-17
-2.31820578e-17
-2.33024635e-17
-2.23353668e-17
-2.2263451e-17
-2.17446274e-17
-2.42446263e-17
-2.18846358e-17
-2.35669677e-17
-2.35379128e-17
-2.47470335e-17
-2.20181329e-17
-2.4096032e-17
-2.2617732e-17
-2.14248263e-17
-2.00519881e-17
-1.82240927e-17
-1.71462821e-17
-1.91104943e-17
-1.83742223e-17
-2.17822679e-17
-1.65328579e-17
-1.63883009e-17
-1.82729552e-17
-1.56497345e-17
-1.32149554e-17
-1.26591907e-17
-1.54361664e-17
-1.57523864e-17
-2.09637586e-17
-1.89313841e-17
-1.90327257e-17
-1.79337148e-17
-1.95126598e-17
-1.45760839e-17
-1.41365204e-17
-1.4259729e-17
-1.30383964e-17
-1.1668156e-17
-1.24383865e-17
-1.34437365e-17
-1.35285688e-17
-1.24181416e-17
-1.42293936e-17
-9.9382181e-18
-6.87540273e-18
-9.56081312e-18
-1.02626578e-17
-1.07786324e-17
-8.83498281e-18
-7.75806992e-18
-7.48594634e-18
-6.0072863e-18
-4.08807326e-18
-6.91898553e-18
-5.4694767e-18
-3.45279612e-18
-2.77328851e-18
-2.8871593e-18
-4.04705205e-18
-2.43119961e-18
-2.98934869e-18
-3.92148214e-18
-1.65742032e-18
-1.04161486e-18
-1.92184866e-19
6.34502079e-19
-3.66307369e-19
3.35581951e-19
-2.47422998e-19
8.7890071e-19
9.93270116e-19
8.91447637e-19
-1.43984997e-19
-8.48907399e-19
2.16071471e-18
-1.67572237e-18
-6.63808457e-20
-1.6081499e-18
-1.65735392e-18
2.78026651e-18
2.26668502e-19
1.49592535e-19
-1.6251355e-19
1.94904339e-18
-1.74833667e-18
-2.5132403e-18
-3.36296332e-18
4.554296e-19
3.13612178e-19
7.95893874e-20
-2.02973475e-18
-7.64053988e-19
-3.29723293e-18
-1.75993068e-18
-1.78552944e-19
-9.6915414e-19
-2.3623589e-18
-3.68225251e-18
-3.7313383e-18
-1.45732109e-18
4.25797809e-18
4.36387532e-18
3.5811219e-18
1.86393156e-18
-1.95859282e-18
-3.89890827e-18
-6.19653741e-18
-2.34695643e-18
-3.00845206e-18
-5.85691247e-18
-5.99072598e-18
-2.93349861e-18
-1.27507982e-18
-1.81347255e-18
3.21513989e-19
-1.09032782e-18
-3.55118081e-18
-1.93829376e-18
-4.3551353e-18
-4.95328021e-18
-3.2215947e-18
-2.85253653e-18
-7.99583449e-19
6.32210548e-19
5.4526274e-18
3.8957967e-18
5.74000971e-18
4.73391856e-18
5.65970239e-18
5.41137844e-18
8.02247898e-18
6.32043825e-18
5.86143415e-18
5.46694994e-18
3.60398769e-18
3.68369186e-18
7.32903602e-18
6.80222209e-18
7.93438133e-18
7.6189427e-18
7.45692766e-18
8.97138369e-18
7.22980541e-18
4.88774459e-18
5.78704838e-18
7.82004418e-18
8.22860444e-18
8.59761985e-18
7.50085868e-18
8.6472434e-18
5.30541971e-18
7.65707569e-18
5.97069069e-18
5.26644767e-18
4.09218067e-18
4.36382326e-18
3.1838362e-18
4.53910679e-18
5.90735269e-18
5.53526096e-18
8.8236068e-18
7.66717266e-18
7.00327692e-18
4.59895752e-18
3.71609055e-18
4.61544723e-18
4.6015375e-18
3.78546403e-18
6.1916363e-18
7.41438095e-18
2.16732129e-18
1.89553676e-18
-6.28319963e-19
8.77350062e-19
-1.48148857e-19
-9.44746988e-19
-9.56142128e-19
-6.29838481e-19
2.93053736e-19
2.84767243e-18
1.09606524e-18
1.38480285e-18
-2.00500402e-20
6.98524801e-19
1.67459384e-18
5.48145404e-18
2.84755327e-18
3.78516673e-19
2.4983975e-18
1.69429657e-18
4.48607013e-19
6.57836873e-19
1.45644753e-18
3.41547537e-18
3.13604768e-18
8.63340716e-19
2.15413482e-18
-1.67533421e-18
2.40419423e-19
-7.76002609e-19
1.13626478e-18
-3.39272707e-18
-2.16792175e-18
-3.0015546e-18
-1.82748881e-18
-1.623285e-18
1.89861209e-19
-4.33123907e-18
-2.78014724e-18
-1.4145324e-18
-7.08746396e-19
-1.33858428e-18
1.0816339e-18
3.84686059e-19
-2.10128387e-18
6.31636783e-19
-5.43115674e-19
5.92840224e-19
-9.29632059e-19
-4.44191215e-18
1.04246e-18
-3.49061363e-18
-2.7219401e-18
-4.47537998e-18
-5.361677e-18
-4.3571885e-18
-7.99174415e-18
-5.33211846e-18
-4.94120189e-18
-2.78451299e-18
-5.71438772e-18
-1.04383649e-17
-9.67217764e-18
-9.83634571e-18
-9.51014989e-18
-1.06454583e-17
-8.33057084e-18
-5.24816276e-18
-9.20191258e-18
-9.7866146e-18
-1.47864951e-17
-1.29327848e-17
-1.27714236e-17
-1.37651558e-17
-1.45926917e-17
-1.61307779e-17
-1.41141365e-17
-1.31362785e-17
-1.2545977e-17
-1.38203038e-17
-1.36624785e-17
-1.5796765e-17
-1.42450449e-17
-1.43214748e-17
-1.22776758e-17
-1.34090085e-17
-1.76229804e-17
-1.80998545e-17
-1.67610559e-17
-1.70631674e-17
-1.72120285e-17
-1.6473618e-17
-1.69549598e-17
-1.76784957e-17
-1.96619388e-17
-1.65623438e-17
-1.76537342e-17
-1.90543616e-17
-1.62876135e-17
-1.74477373e-17
-1.55938906e-17
-1.68967585e-17
-1.52019221e-17
-1.97329608e-17
-1.71815509e-17
-1.79714018e-17
-1.65154169e-17
-1.62956796e-17
-1.30411774e-17
-1.47211396e-17
-1.58042403e-17
-1.51152142e-17
-1.45465876e-17
-1.4691697e-17
-1.22994578e-17
-1.27290157e-17
-8.65094248e-18
-9.12717909e-18
-6.63246969e-18
-7.49887574e-18
-8.18492685e-18
-6.0950487e-18
-3.24433098e-18
-7.42278247e-18
-7.63866585e-18
-7.93238575e-18
-8.22477216e-18
-8.511419e-18
-3.30383148e-18
-2.09889345e-18
-2.29417251e-18
-2.29049162e-19
-2.47466966e-18
1.06120374e-19
2.73359026e-18
2.31348392e-18
1.84903709e-18
2.16502612e-18
-8.30876713e-19
2.38659934e-19
-3.00244925e-18
-6.54898512e-18
-5.36366686e-18
-2.80689593e-18
-3.4186537e-18
-4.96447203e-18
1.0640109e-18
3.26790575e-18
3.30045323e-18
1.7521853e-18
1.91964061e-18
5.71985073e-18
2.60247946e-18
4.73648051e-19
-1.47559699e-18
-2.88125248e-18
-2.89797858e-18
-2.90997778e-18
-2.26278298e-18
-5.27215647e-18
-5.49840486e-18
-5.97416913e-18
-3.17584342e-18
-3.93819704e-18
-5.72065401e-18
-3.45227269e-18
-4.39163769e-18
-1.56614204e-18
-2.48657009e-18
-4.20043944e-18
-9.194086e-18
-7.29283892e-18
-9.71759604e-18
-1.16372661e-17
-1.41472414e-17
-1.63018913e-17
-1.84458057e-17
-1.64362496e-17
-1.48684273e-17
-1.69238371e-17
-1.24068438e-17
-1.6628088e-17
-1.70896483e-17
-1.61542458e-17
-1.80411761e-17
-1.40259738e-17
-1.58006208e-17
-1.57343497e-17
-1.39544563e-17
-1.72169324e-17
-1.82874088e-17
-1.77959973e-17
-1.5367762e-17
-1.70013999e-17
-1.93068745e-17
-1.47031699e-17
-1.49796909e-17
-1.33031893e-17
-1.57932674e-17
-1.36695101e-17
-1.53082967e-17
-1.36427058e-17
-1.17265134e-17
-1.37041949e-17
-1.43426024e-17
-1.2853417e-17
-1.11726912e-17
-1.23686483e-17
-1.13146673e-17
-9.07430334e-18
-9.87021923e-18
-9.27000481e-18
-7.14881251e-18
-5.81372621e-18
-7.25994315e-18
-5.64968273e-18
-9.00707603e-18
-7.09539505e-18
-8.86342461e-18
-7.21051016e-18
-9.22389247e-18
-8.36162191e-18
-1.00668602e-17
-9.50722272e-18
-6.25059514e-18
-4.89639185e-18
-5.87925749e-18
-5.62117983e-18
-6.95775484e-18
-7.72318626e-18
-7.51811675e-18
-4.94916638e-18
-5.93711788e-18
-4.14459538e-18
-1.38220728e-18
-3.3699212e-18
-5.78283575e-18
-3.41069654e-18
-3.96959851e-18
-3.94256704e-18
-2.47777937e-18
-3.19479713e-18
-1.60277573e-18
-2.27179947e-18
-4.32907173e-18
-4.01613743e-18
-6.71443717e-18
-4.80695506e-18
-5.8697394e-18
-4.72947381e-18
-6.61553284e-18
-8.32604236e-18
-8.67868715e-18
-8.6620642e-18
-9.78014453e-18
-8.1694498e-18
-7.31712978e-18
-6.80539324e-18
-4.27552862e-18
-2.23230583e-18
-3.1262904e-18
-1.79430842e-18
-2.48408925e-18
-1.64907045e-19
-3.92078533e-18
-3.81558497e-18
-4.39013082e-19
-2.60640249e-18
-3.03134846e-18
-4.69578111e-18
-2.16792808e-18
-3.04071887e-18
-3.00804901e-19
-7.35925357e-19
-2.97445234e-18
-3.98433202e-18
-3.14994008e-18
-4.78762993e-18
-4.13902426e-18
-6.32633921e-18
-4.76497489e-18
-3.05386972e-18
-7.59119286e-18
-5.942983e-18
-6.16674766e-18
-2.61146106e-18
-1.95411698e-18
-3.79132836e-18
-7.21513921e-18
-4.02492966e-18
-3.93883491e-18
-2.41508577e-18
-2.01511254e-18
-2.07480395e-18
-9.80440388e-19
-1.74252408e-18
-1.40668309e-19
-2.71171454e-18
-2.99909351e-18
-5.24363118e-18
-1.8031537e-18
-2.71068033e-18
-6.07028456e-19
-3.17142377e-19
2.26674001e-18
1.84255688e-18
5.13705617e-18
4.00229898e-18
6.71141592e-18
6.07553028e-18
6.46994883e-18
7.79876228e-18
6.46043362e-18
4.71665021e-18
9.40566939e-18
6.87926409e-18
8.58215976e-18
5.75388187e-18
6.67777897e-18
6.22974271e-18
5.53967452e-18
7.51030231e-18
8.60022616e-18
7.31014946e-18
7.66569574e-18
5.40729064e-18
6.69268608e-18
5.73003402e-18
6.09462588e-18
5.99140825e-18
6.17460253e-18
8.60702234e-18
6.37475242e-18
7.10564448e-18
6.30868223e-18
3.40130875e-18
4.33247691e-18
7.55436194e-18
4.54766141e-18
3.47177088e-18
2.7468559e-18
5.73513421e-18
5.50431227e-18
7.31412141e-18
8.68172248e-18
1.06696163e-17
7.98124958e-18
8.89119157e-18
6.84160341e-18
9.8963977e-18
9.3557536e-18
8.48286789e-18
8.03681402e-18
7.83248429e-18
7.13084706e-18
5.92631025e-18
5.68548936e-18
4.03484818e-18
5.29866197e-18
2.47026984e-18
5.52026177e-18
3.78433968e-18
4.85617669e-18
7.30892578e-18
4.56410205e-18
4.8188462e-18
5.91871134e-18
6.67669323e-18
7.92179129e-18
6.27930301e-18
8.32098385e-18
8.16100897e-18
1.07623984e-17
1.06875893e-17
1.11038934e-17
1.22682774e-17
1.28540386e-17
1.24849905e-17
1.18435478e-17
1.50072506e-17
1.57352528e-17
1.5494287e-17
1.26036089e-17
1.18547574e-17
1.25213038e-17
1.08664741e-17
1.18489941e-17
9.48888032e-18
8.92766148e-18
1.33141526e-17
1.25800737e-17
1.2449869e-17
1.49682148e-17
1.41061396e-17
1.58426218e-17
1.62396377e-17
1.59464388e-17
1.72678128e-17
1.72332489e-17
1.54549775e-17
1.58890959e-17
1.80494723e-17
1.57418257e-17
1.62305517e-17
1.46206975e-17
1.62330034e-17
1.41915033e-17
1.62865311e-17
1.36137076e-17
1.48363545e-17
1.42163685e-17
1.2402343e-17
1.44849112e-17
1.35778226e-17
1.52922501e-17
1.11393912e-17
1.1615446e-17
1.36231598e-17
1.5844513e-17
1.60428161e-17
2.06649221e-17
1.94292673e-17
1.74769948e-17
1.86260676e-17
1.53276924e-17
1.66035918e-17
1.43015229e-17
1.54158078e-17
1.61698767e-17
1.88199887e-17
1.68654413e-17
1.85186993e-17
2.27486087e-17
1.98553384e-17
2.01031986e-17
2.02178646e-17
1.97505726e-17
1.87746587e-17
1.52664658e-17
1.8233972e-17
1.88942352e-17
2.13440082e-17
2.45199386e-17
2.47423163e-17
2.53237219e-17
2.55787584e-17
2.33971751e-17
2.22758331e-17
2.2739276e-17
2.1926123e-17
2.64440274e-17
2.9345638e-17
2.57913439e-17
2.69856584e-17
2.7464071e-17
2.91412884e-17
2.92888763e-17
2.99968769e-17
2.93035806e-17
2.91101463e-17
2.86058882e-17
2.98183285e-17
3.18720437e-17
2.84458739e-17
3.1967868e-17
3.13592819e-17
2.84041646e-17
2.92103597e-17
2.71411766e-17
2.46543972e-17
2.14003914e-17
2.55583596e-17
2.39350651e-17
2.33140044e-17
2.35307848e-17
2.09894534e-17
2.14425206e-17
2.25465993e-17
2.86280259e-17
2.79666157e-17
2.59085794e-17
2.74509539e-17
2.69602334e-17
2.4486387e-17
2.63301901e-17
2.67559391e-17
2.80300592e-17
2.90115305e-17
3.21588882e-17
3.05833662e-17