/*--------------------------------*- C++ -*----------------------------------*\
| =========                 |                                                 |
| \\      /  F ield         | OpenFOAM: The Open Source CFD Toolbox           |
|  \\    /   O peration     | Version:  2206                                  |
|   \\  /    A nd           | Website:  www.openfoam.com                      |
|    \\/     M anipulation  |                                                 |
\*---------------------------------------------------------------------------*/
FoamFile
{
    version     2.0;
    format      ascii;
    arch        "LSB;label=32;scalar=64";
    class       volScalarField;
    location    "1.06e-05";
    object      p;
}
// * * * * * * * * * * * * * * * * * * * * * * * * * * * * * * * * * * * * * //

dimensions      [1 -1 -2 0 0 0 0];

internalField   nonuniform List<scalar> 
3183
(
101325
101325
101325
101325
101325
101325
101325
101325
101325
101325
101325
101325
101325
101325
101325
101325
101325
101325
101325
101325
101325
101325
101325
101325
101325
101325
101325
101325
101325
101325
101325
101325
101325
101325
101325
101325
101325
101325
101325
101325
101325
101325
101325
101325
101325
101325
101325
101325
101325
101325
101325
101325
101325
101325
101325
101325
101325
101325
101325
101325
101325
101325
101325
101325
101325
101325
101325
101325
101325
101325
101325
101325
101325
101325
101325
101325
101325
101325
101325
101325
101325
101325
101325
101325
101325
101325
101325
101325
101325
101325
101325
101325
101325
101325
101325
101325
101325
101325
101325
101325
101325
101325
101325
101325
101325
101325
101325
101325
101325
101325
101325
101325
101325
101325
101325
101325
101325
101325
101325
101325
101325
101325
101325
101325
101325
101325
101325
101325
101325
101325
101325
101325
101325
101325
101325
101325
101325
101325
101325
101325
101325
101325
101325
101325
101325
101325
101325
101325
101325
101325
101325
101325
101325
101325
101325
101325
101325
101325
101325
101325
101325
101325
101325
101325
101325
101325
101325
101325
101325
101325
101325
101325
101325
101325
101325
101325
101325
101325
101325
101325
101325
101325
101325
101325
101325
101325
101325
101325
101325
101325
101325
101325
101325
101325
101325
101325
101325
101325
101325
101325
101325
101325
101325
101325
101325
101325
101325
101325
101325
101325
101325
101325
101325
101325
101325
101325
101325
101325
101325
101325
101325
101325
101325
101325
101325
101325
101325
101325
101325
101325
101325
101325
101325
101325
101325
101325
101325
101325
101325
101325
101325
101325
101325
101325
101325
101325
101325
101325
101325
101325
101325
101325
101325
101325
101325
101325
101325
101325
101325
101325
101325
101325
101325
101325
101325
101325
101325
101325
101325
101325
101325
101325
101325
101325
101325
101325
101325
101325
101325
101325
101325
101325
101325
101325
101325
101325
101325
101325
101325
101325
101325
101325
101325
101325
101325
101325
101325
101325
101325
101325
101325
101325
101325
101325
101325
101325
101325
101325
101325
101325
101325
101325
101325
101325
101325
101325
101325
101325
101325
101325
101325
101325
101325
101325
101325
101325
101325
101325
101325
101325
101325
101325
101325
101325
101325
101325
101325
101325
101325
101325
101325
101325
101325
101325
101325
101325
101325
101325
101325
101325
101325
101325
101325
101325
101325
101325
101325
101325
101325
101325
101325
101325
101325
101325
101325
101325
101325
101325
101325
101325
101325
101325
101325
101325
101325
101325
101325
101325
101325
101325
101325
101325
101325
101325
101325
101325
101325
101325
101325
101325
101325
101325
101325
101325
101325
101325
101325
101325
101325
101325
101325
101325
101325
101325
101325
101325
101325
101325
101325
101325
101325
101325
101325
101325
101325
101325
101325
101325
101325
101325
101325
101325
101325
101325
101325
101325
101325
101325
101325
101325
101325
101325
101325
101325
101325
101325
101325
101325
101325
101325
101325
101325
101325
101325
101325
101325
101325
101325
101325
101325
101325
101325
101325
101325
101325
101325
101325
101325
101325
101325
101325
101325
101325
101325
101325
101325
101325
101325
101325
101325
101325
101325
101325
101325
101325
101325
101325
101325
101325
101325
101325
101325
101325
101325
101325
101325
101325
101325
101325
101325
101325
101325
101325
101325
101325
101325
101325
101325
101325
101325
101325
101325
101325
101325
101325
101325
101325
101325
101325
101325
101325
101325
101325
101325
101325
101325
101325
101325
101325
101325
101325
101325
101325
101325
101325
101325
101325
101325
101325
101325
101325
101325
101325
101325
101325
101325
101325
101325
101325
101325
101325
101325
101325
101325
101325
101325
101325
101325
101325
101325
101325
101325
101325
101325
101325
101325
101325
101325
101325
101325
101325
101325
101325
101325
101325
101325
101325
101325
101325
101325
101325
101325
101325
101325
101325
101325
101325
101325
101325
101325
101325
101325
101325
101325
101325
101325
101325
101325
101325
101325
101325
101325
101325
101325
101325
101325
101325
101325
101325
101325
101325
101325
101325
101325
101325
101325
101325
101325
101325
101325
101325
101325
101325
101325
101325
101325
101325
101325
101325
101325
101325
101325
101325
101325
101325
101325
101325
101325
101325
101325
101325
101325
101325
101325
101325
101325
101325
101325
101325
101325
101325
101325
101325
101325
101325
101325
101325
101325
101325
101325
101325
101325
101325
101325
101325
101325
101325
101325
101325
101325
101325
101325
101325
101325
101325
101325
101325
101325
101325
101325
101325
101325
101325
101325
101325
101325
101325
101325
101325
101325
101325
101325
101325
101325
101325
101325
101325
101325
101325
101325
101325
101325
101325
101325
101325
101325
101325
101325
101325
101325
101325
101325
101325
101325
101325
101325
101325
101325
101325
101325
101325
101325
101325
101325
101325
101325
101325
101325
101325
101325
101325
101325
101325
101325
101325
101325
101325
101325
101325
101325
101325
101325
101325
101325
101325
101325
101325
101325
101325
101325
101325
101325
101325
101325
101325
101325
101325
101325
101325
101325
101325
101325
101325
101325
101325
101325
101325
101325
101325
101325
101325
101325
101325
101325
101325
101325
101325
101325
101325
101325
101325
101325
101325
101325
101325
101325
101325
101325
101325
101325
101325
101325
101325
101325
101325
101325
101325
101325
101325
101325
101325
101325
101325
101325
101325
101325
101325
101325
101325
101325
101325
101325
101325
101325
101325
101325
101325
101325
101325
101325
101325
101325
101325
101325
101325
101325
101325
101325
101325
101325
101325
101325
101325
101325
101325
101325
101325
101325
101325
101325
101325
101325
101325
101325
101325
101325
101325
101325
101325
101325
101325
101325
101325
101325
101325
101325
101325
101325
101325
101325
101325
101325
101325
101325
101325
101325
101325
101325
101325
101325
101325
101325
101325
101325
101325
101325
101325
101325
101325
101325
101325
101325
101325
101325
101325
101325
101325
101325
101325
101325
101325
101325
101325
101325
101325
101325
101325
101325
101325
101325
101325
101325
101325
101325
101325
101325
101325
101325
101325
101325
101325
101325
101325
101325
101325
101325
101325
101325
101325
101325
101325
101325
101325
101325
101325
101325
101325
101325
101325
101325
101325
101325
101325
101325
101325
101325
101325
101325
101325
101325
101325
101325
101325
101325
101325
101325
101325
101325
101325
101325
101325
101325
101325
101325
101325
101325
101325
101325
101325
101325
101325
101325
101325
101325
101325
101325
101325
101325
101325
101325
101325
101325
101325
101325
101325
101325
101325
101325
101325
101325
101325
101325
101325
101325
101325
101325
101325
101325
101325
101325
101325
101325
101325
101325
101325
101325
101325
101325
101325
101325
101325
101325
101325
101325
101325
101325
101325
101325
101325
101325
101325
101325
101325
101325
101325
101325
101325
101325
101325
101325
101325
101325
101325
101325
101325
101325
101325
101325
101325
101325
101325
101325
101325
101325
101325
101325
101325
101325
101325
101325
101325
101325
101325
101325
101325
101325
101325
101325
101325
101325
101325
101325
101325
101325
101325
101325
101325
101325
101325
101325
101325
101325
101325
101325
101325
101325
101325
101325
101325
101325
101325
101325
101325
101325
101325
101325
101325
101325
101325
101325
101325
101325
101325
101325
101325
101325
101325
101325
101325
101325
101325
101325
101325
101325
101325
101325
101325
101325
101325
101325
101325
101325
101325
101325
101325
101325
101325
101325
101325
101325
101325
101325
101325
101325
101325
101325
101325
101325
101325
101325
101325
101325
101325
101325
101325
101325
101325
101325
101325
101325
101325
101325
101325
101325
101325
101325
101325
101325
101325
101325
101325
101325
101325
101325
101325
101325
101325
101325
101325
101325
101325
101325
101325
101325
101325
101325
101325
101325
101325
101325
101325
101325
101325
101325
101325
101325
101325
101325
101325
101325
101325
101325
101325
101325
101325
101325
101325
101325
101325
101325
101325
101325
101325
101325
101325
101325
101325
101325
101325
101325
101325
101325
101325
101325
101325
101325
101325
101325
101325
101325
101325
101325
101325
101325
101325
101325
101325
101325
101325
101325
101325
101325
101325
101325
101325
101325
101325
101325
101325
101325
101325
101325
101325
101325
101325
101325
101325
101325
101325
101325
101325
101325
101325
101325
101325
101325
101325
101325
101325
101325
101325
101325
101325
101325
101325
101325
101325
101325
101325
101325
101325
101325
101325
101325
101325
101325
101325
101325
101325
101325
101325
101325
101325
101325
101325
101325
101325
101325
101325
101325
101325
101325
101325
101325
101325
101325
101325
101325
101325
101325
101325
101325
101325
101325
101325
101325
101325
101325
101325
101325
101325
101325
101325
101325
101325
101325
101325
101325
101325
101325
101325
101325
101325
101325
101325
101325
101325
101325
101325
101325
101325
101325
101325
101325
101325
101325
101325
101325
101325
101325
101325
101325
101325
101325
101325
101325
101325
101325
101325
101325
101325
101325
101325
101325
101325
101325
101325
101325
101325
101325
101325
101325
101325
101325
101325
101325
101325
101325
101325
101325
101325
101325
101325
101325
101325
101325
101325
101325
101325
101325
101325
101325
101325
101325
101325
101325
101325
101325
101325
101325
101325
101325
101325
101325
101325
101325
101325
101325
101325
101325
101325
101325
101325
101325
101325
101325
101325
101325
101325
101325
101325
101325
101325
101325
101325
101325
101325
101325
101325
101325
101325
101325
101325
101325
101325
101325
101325
101325
101325
101325
101325
101325
101325
101325
101325
101325
101325
101325
101325
101325
101325
101325
101325
101325
101325
101325
101325
101325
101325
101325
101325
101325
101325
101325
101325
101325
101325
101325
101325
101325
101325
101325
101325
101325
101325
101325
101325
101325
101325
101325
101325
101325
101325
101325
101325
101325
101325
101325
101325
101325
101325
101325
101325
101325
101325
101325
101325
101325
101325
101325
101325
101325
101325
101325
101325
101325
101325
101325
101325
101325
101325
101325
101325
101325
101325
101325
101325
101325
101325
101325
101325
101325
101325
101325
101325
101325
101325
101325
101325
101325
101325
101325
101325
101325
101325
101325
101325
101325
101325
101325
101325
101325
101325
101325
101325
101325
101325
101325
101325
101325
101325
101325
101325
101325
101325
101325
101325
101325
101325
101325
101325
101325
101325
101325
101325
101325
101325
101325
101325
101325
101325
101325
101325
101325
101325
101325
101325
101325
101325
101325
101325
101325
101325
101325
101325
101325
101325
101325
101325
101325
101325
101325
101325
101325
101325
101325
101325
101325
101325
101325
101325
101325
101325
101325
101325
101325
101325
101325
101325
101325
101325
101325
101325
101325
101325
101325
101325
101325
101325
101325
101325
101325
101325
101325
101325
101325
101325
101325
101325
101325
101325
101325
101325
101325
101325
101325
101325
101325
101325
101325
101325
101325
101325
101325
101325
101325
101325
101325
101325
101325
101325
101325
101325
101325
101325
101325
101325
101325
101325
101325
101325
101325
101325
101325
101325
101325
101325
101325
101325
101325
101325
101325
101325
101325
101325
101325
101325
101325
101325
101325
101325
101325
101325
101325
101325
101325
101325
101325
101325
101325
101325
101325
101325
101325
101325
101325
101325
101325
101325
101325
101325
101325
101325
101325
101325
101325
101325
101325
101325
101325
101325
101325
101325
101325
101325
101325
101325
101325
101325
101325
101325
101325
101325
101325
101325
101325
101325
101325
101325
101325
101325
101325
101325
101325
101325
101325
101325
101325
101325
101325
101325
101325
101325
101325
101325
101325
101325
101325
101325
101325
101325
101325
101325
101325
101325
101325
101325
101325
101325
101325
101325
101325
101325
101325
101325
101325
101325
101325
101325
101325
101325
101325
101325
101325
101325
101325
101325
101325
101325
101325
101325
101325
101325
101325
101325
101325
101325
101325
101325
101325
101325
101325
101325
101325
101325
101325
101325
101325
101325
101325
101325
101325
101325
101325
101325
101325
101325
101325
101325
101325
101325
101325
101325
101325
101325
101325
101325
101325
101325
101325
101325
101325
101325
101325
101325
101325
101325
101325
101325
101325
101325
101325
101325
101325
101325
101325
101325
101325
101325
101325
101325
101325
101325
101325
101325
101325
101325
101325
101325
101325
101325
101325
101325
101325
101325
101325
101325
101325
101325
101325
101325
101325
101325
101325
101325
101325
101325
101325
101325
101325
101325
101325
101325
101325
101325
101325
101325
101325
101325
101325
101325
101325
101325
101325
101325
101325
101325
101325
101325
101325
101325
101325
101325
101325
101325
101325
101325
101325
101325
101325
101325
101325
101325
101325
101325
101325
101325
101325
101325
101325
101325
101325
101325
101325
101325
101325
101325
101325
101325
101325
101325
101325
101325
101325
101325
101325
101325
101325
101325
101325
101325
101325
101325
101325
101325
101325
101325
101325
101325
101325
101325
101325
101325
101325
101325
101325
101325
101325
101325
101325
101325
101325
101325
101325
101325
101325
101325
101325
101325
101325
101325
101325
101325
101325
101325
101325
101325
101325
101325
101325
101325
101325
101325
101325
101325
101325
101325
101325
101325
101325
101325
101325
101325
101325
101325
101325
101325
101325
101325
101325
101325
101325
101325
101325
101325
101325
101325
101325
101325
101325
101325
101325
101325
101325
101325
101325
101325
101325
101325
101325
101325
101325
101325
101325
101325
101325
101325
101325
101325
101325
101325
101325
101325
101325
101325
101325
101325
101325
101325
101325
101325
101325
101325
101325
101325
101325
101325
101325
101325
101325
101325
101325
101325
101325
101325
101325
101325
101325
101325
101325
101325
101325
101325
101325
101325
101325
101325
101325
101325
101325
101325
101325
101325
101325
101325
101325
101325
101325
101325
101325
101325
101325
101325
101324.999
101324.999
101324.999
101324.999
101324.999
101324.999
101324.999
101324.999
101324.999
101324.999
101324.999
101324.999
101324.999
101324.999
101324.999
101324.999
101324.998
101324.998
101324.998
101324.998
101324.998
101324.998
101324.998
101324.998
101324.997
101324.997
101324.997
101324.997
101324.997
101324.996
101324.996
101324.996
101324.996
101324.995
101324.995
101324.995
101324.994
101324.994
101324.993
101324.993
101324.993
101324.992
101324.991
101324.991
101324.99
101324.99
101324.989
101324.988
101324.988
101324.987
101324.986
101324.985
101324.984
101324.983
101324.982
101324.981
101324.98
101324.978
101324.977
101324.976
101324.974
101324.972
101324.971
101324.969
101324.967
101324.965
101324.963
101324.961
101324.958
101324.956
101324.953
101324.95
101324.947
101324.944
101324.941
101324.937
101324.934
101324.93
101324.926
101324.921
101324.917
101324.912
101324.907
101324.901
101324.896
101324.89
101324.884
101324.877
101324.87
101324.863
101324.855
101324.847
101324.839
101324.83
101324.82
101324.811
101324.8
101324.789
101324.778
101324.766
101324.754
101324.74
101324.727
101324.712
101324.697
101324.681
101324.664
101324.647
101324.629
101324.61
101324.589
101324.569
101324.547
101324.524
101324.5
101324.475
101324.448
101324.421
101324.393
101324.363
101324.332
101324.299
101324.265
101324.23
101324.193
101324.155
101324.114
101324.073
101324.029
101323.984
101323.937
101323.888
101323.837
101323.784
101323.729
101323.672
101323.612
101323.55
101323.486
101323.42
101323.35
101323.279
101323.204
101323.127
101323.047
101322.964
101322.879
101322.79
101322.698
101322.603
101322.505
101322.403
101322.298
101322.189
101322.077
101321.961
101321.841
101321.718
101321.59
101321.459
101321.324
101321.184
101321.04
101320.892
101320.74
101320.583
101320.422
101320.256
101320.086
101319.911
101319.731
101319.546
101319.357
101319.163
101318.963
101318.759
101318.55
101318.335
101318.116
101317.891
101317.661
101317.426
101317.186
101316.941
101316.69
101316.435
101316.174
101315.907
101315.636
101315.359
101315.078
101314.791
101314.499
101314.203
101313.901
101313.594
101313.283
101312.967
101312.646
101312.321
101311.991
101311.657
101311.319
101310.977
101310.63
101310.28
101309.927
101309.569
101309.209
101308.845
101308.479
101308.109
101307.737
101307.363
101306.986
101306.608
101306.228
101305.846
101305.463
101305.08
101304.695
101304.31
101303.925
101303.54
101303.156
101302.772
101302.389
101302.007
101301.627
101301.249
101300.873
101300.499
101300.128
101299.76
101299.396
101299.036
101298.679
101298.327
101297.98
101297.637
101297.3
101296.969
101296.643
101296.324
101296.011
101295.705
101295.406
101295.115
101294.831
101294.555
101294.287
101294.028
101293.777
101293.536
101293.303
101293.08
101292.866
101292.662
101292.468
101292.284
101292.11
101291.947
101291.794
101291.651
101291.52
101291.399
101291.289
101291.189
101291.101
101291.024
101290.958
101290.902
101290.858
101290.824
101290.802
101290.79
101290.788
101290.798
101290.817
101290.847
101290.888
101290.938
101290.998
101291.068
101291.147
101291.236
101291.333
101291.439
101291.554
101291.677
101291.809
101291.948
101292.094
101292.248
101292.408
101292.575
101292.748
101292.928
101293.112
101293.302
101293.498
101293.697
101293.901
101294.109
101294.321
101294.536
101294.754
101294.974
101295.197
101295.422
101295.648
101295.876
101296.105
101296.334
101296.564
101296.795
101297.025
101297.254
101297.483
101297.711
101297.938
101298.164
101298.387
101298.609
101298.829
101299.047
101299.262
101299.475
101299.685
101299.892
101300.095
101300.296
101300.493
101300.687
101300.878
101301.064
101301.247
101301.427
101301.602
101301.774
101301.942
101302.106
101302.266
101302.422
101302.575
101302.723
101302.867
101303.008
101303.145
101303.278
101303.407
101303.533
101303.655
101303.774
101303.889
101304
101304.108
101304.213
101304.315
101304.414
101304.509
101304.602
101304.691
101304.778
101304.862
101304.944
101305.023
101305.099
101305.173
101305.245
101305.314
101305.382
101305.447
101305.51
101305.572
101305.631
101305.689
101305.745
101305.799
101305.852
101305.903
101305.953
101306.001
101306.048
101306.093
101306.138
101306.181
101306.223
101306.264
101306.305
101306.344
101306.382
101306.419
101306.456
101306.492
101306.527
101306.562
101306.596
101306.63
101306.663
101306.696
101306.728
101306.76
101306.792
101306.824
101306.856
101306.888
101306.92
101306.952
101306.984
101307.017
101307.049
101307.083
101307.116
101307.15
101307.185
101307.22
101307.256
101307.293
101307.331
101307.369
101307.408
101307.448
101307.489
101307.531
101307.574
101307.618
101307.663
101307.708
101307.755
101307.803
101307.852
101307.901
101307.952
101308.003
101308.055
101308.108
101308.162
101308.216
101308.271
101308.326
101308.382
101308.438
101308.494
101308.55
101308.606
101308.663
101308.719
101308.775
101308.83
101308.886
101308.94
101308.994
101309.047
101309.099
101309.151
101309.201
101309.25
101309.298
101309.345
101309.391
101309.435
101309.478
101309.519
101309.559
101309.597
101309.634
101309.669
101309.703
101309.736
101309.766
101309.796
101309.824
101309.85
101309.875
101309.899
101309.921
101309.943
101309.963
101309.982
101310
101310.017
101310.033
101310.048
101310.063
101310.076
101310.089
101310.102
101310.113
101310.125
101310.135
101310.146
101310.156
101310.165
101310.174
101310.182
101310.191
101310.198
101310.206
101310.212
101310.219
101310.224
101310.229
101310.234
101310.237
101310.24
101310.242
101310.243
101310.243
101310.242
101310.24
101310.236
101310.232
101310.225
101310.217
101310.208
101310.197
101310.184
101310.169
101310.153
101310.135
101310.116
101310.095
101310.072
101310.049
101310.024
101309.999
101309.972
101309.946
101309.92
101309.895
101309.872
101309.85
101309.831
101309.816
101309.804
101309.799
101309.799
101309.806
101309.822
101309.846
101309.881
101309.927
101309.984
101310.054
101310.137
101310.233
101310.343
101310.465
101310.599
101310.743
101310.897
101311.057
101311.22
101311.384
101311.543
101311.695
101311.834
101311.956
101312.056
101312.131
101312.178
101312.195
101312.185
101312.151
101312.1
101312.041
101311.987
101311.937
101311.901
101312.228
101312.343
101312.245
101311.409
101311.32
101311.358
101311.55
101311.659
101311.824
101311.921
101312.035
101312.113
101312.191
101312.254
101312.312
101312.36
101312.397
101312.422
101312.434
101312.432
101312.417
101312.387
101312.344
101312.288
101312.221
101312.143
101312.055
101311.959
101311.857
101311.749
101311.637
101311.522
101311.406
101311.289
101311.173
101311.058
101310.946
101310.837
101310.731
101310.629
101310.532
101310.44
101310.353
101310.271
101310.195
101310.124
101310.059
101309.999
101309.945
101309.896
101309.852
101309.813
101309.779
101309.749
101309.724
101309.702
101309.685
101309.671
101309.661
101309.654
101309.65
101309.648
101309.65
101309.653
101309.658
101309.666
101309.675
101309.685
101309.697
101309.71
101309.724
101309.739
101309.755
101309.771
101309.788
101309.805
101309.822
101309.839
101309.857
101309.874
101309.892
101309.909
101309.926
101309.943
101309.96
101309.976
101309.991
101310.007
101310.022
101310.036
101310.05
101310.063
101310.076
101310.088
101310.099
101310.11
101310.121
101310.131
101310.14
101310.149
101310.157
101310.164
101310.171
101310.177
101310.183
101310.188
101310.193
101310.197
101310.201
101310.204
101310.207
101310.209
101310.211
101310.212
101310.213
101310.213
101310.213
101310.213
101310.212
101310.211
101310.21
101310.208
101310.206
101310.203
101310.2
101310.197
101310.194
101310.19
101310.187
101310.183
101310.178
101310.174
101310.169
101310.164
101310.159
101310.154
101310.149
101310.143
101310.137
101310.131
101310.125
101310.119
101310.113
101310.107
101310.1
101310.094
101310.087
101310.08
101310.073
101310.066
101310.059
101310.052
101310.045
101310.037
101310.03
101310.022
101310.015
101310.007
101309.999
101309.991
101309.983
101309.975
101309.967
101309.959
101309.95
101309.942
101309.933
101309.924
101309.916
101309.906
101309.897
101309.888
101309.878
101309.869
101309.859
101309.849
101309.839
101309.829
101309.818
101309.807
101309.796
101309.785
101309.773
101309.761
101309.749
101309.737
101309.724
101309.711
101309.698
101309.685
101309.672
101309.658
101309.644
101309.629
101309.614
101309.599
101309.584
101309.568
101309.552
101309.536
101309.519
101309.502
101309.484
101309.467
101309.448
101309.43
101309.411
101309.392
101309.372
101309.352
101309.332
101309.312
101309.291
101309.269
101309.248
101309.226
101309.203
101309.181
101309.158
101309.134
101309.111
101309.087
101309.063
101309.038
101309.014
101308.988
101308.963
101308.938
101308.912
101308.886
101308.859
101308.833
101308.806
101308.779
101308.752
101308.725
101308.697
101308.67
101308.642
101308.614
101308.586
101308.558
101308.53
101308.501
101308.473
101308.445
101308.416
101308.388
101308.359
101308.33
101308.302
101308.273
101308.245
101308.216
101308.188
101308.16
101308.131
101308.103
101308.075
101308.047
101308.019
101307.991
101307.964
101307.936
101307.909
101307.881
101307.854
101307.827
101307.801
101307.774
101307.748
101307.722
101307.696
101307.67
101307.644
101307.619
101307.594
101307.569
101307.544
101307.52
101307.495
101307.471
101307.448
101307.424
101307.401
101307.378
101307.355
101307.332
101307.31
101307.288
101307.266
101307.244
101307.222
101307.201
101307.18
101307.159
101307.138
101307.118
101307.098
101307.078
101307.058
101307.038
101307.019
101306.999
101306.98
101306.961
101306.942
101306.923
101306.905
101306.886
101306.868
101306.85
101306.832
101306.814
101306.796
101306.778
101306.76
101306.743
101306.725
101306.708
101306.69
101306.673
101306.655
101306.638
101306.621
101306.603
101306.586
101306.569
101306.552
101306.534
101306.517
101306.499
101306.482
101306.465
101306.447
101306.429
101306.412
101306.394
101306.376
101306.358
101306.34
101306.322
101306.304
101306.286
101306.267
101306.249
101306.23
101306.211
101306.192
101306.173
101306.153
101306.134
101306.114
101306.094
101306.074
101306.054
101306.033
101306.013
101305.992
101305.971
101305.949
101305.928
101305.906
101305.884
101305.862
101305.839
101305.816
101305.793
101305.77
101305.746
101305.722
101305.698
101305.673
101305.648
101305.623
101305.598
101305.572
101305.546
101305.519
101305.492
101305.465
101305.437
101305.409
101305.381
101305.352
101305.323
101305.293
101305.263
101305.233
101305.202
101305.171
101305.139
101305.107
101305.074
101305.041
101305.008
101304.974
101304.939
101304.904
101304.868
101304.832
101304.796
101304.758
101304.72
101304.682
101304.643
101304.604
101304.563
101304.523
101304.481
101304.439
101304.397
101304.353
101304.309
101304.265
101304.219
101304.173
101304.126
101304.079
101304.031
101303.982
101303.932
101303.881
101303.83
101303.778
101303.725
101303.671
101303.617
101303.561
101303.505
101303.448
101303.39
101303.331
101303.272
101303.211
101303.15
101303.087
101303.024
101302.96
101302.894
101302.828
101302.761
101302.693
101302.624
101302.554
101302.483
101302.411
101302.338
101302.264
101302.189
101302.113
101302.036
101301.958
101301.878
101301.798
101301.717
101301.635
101301.552
101301.467
101301.382
101301.296
101301.208
101301.12
101301.03
101300.94
101300.848
101300.756
101300.662
101300.567
101300.472
101300.375
101300.278
101300.179
101300.079
101299.979
101299.877
101299.775
101299.672
101299.567
101299.462
101299.356
101299.249
101299.141
101299.032
101298.923
101298.812
101298.701
101298.589
101298.476
101298.363
101298.248
101298.133
101298.018
101297.901
101297.784
101297.667
101297.549
101297.43
101297.311
101297.191
101297.071
101296.95
101296.829
101296.703
101296.567
101296.421
101296.265
101296.097
101295.916
101295.722
101295.515
101295.292
101295.054
101294.799
101294.527
101294.238
101293.93
101293.603
101293.259
101292.897
101292.518
101292.126
101291.722
101291.312
101290.901
101290.498
101290.114
101289.762
101289.46
101289.228
101289.094
101289.086
101289.24
101289.594
101290.189
101291.066
101292.263
101293.81
101295.722
101297.997
101300.605
101303.489
101306.557
101309.692
101312.758
101315.617
101318.145
101320.256
101321.91
101323.117
101323.934
101324.443
101324.733
101324.883
101324.954
101324.983
101324.995
101324.999
101325
101325
101325
101325
101325
101325
101325
101325
101325
101325
101325
101325
101325
101325
101325
101325
101325
101325
101325
101325
101325
101325
)
;

boundaryField
{
    closed
    {
        type            zeroGradient;
    }
    open
    {
        type            waveTransmissive;
        gamma           1.25;
        fieldInf        101325;
        lInf            1;
        value           uniform 101325;
    }
    sides
    {
        type            empty;
    }
}


// ************************************************************************* //
