/*--------------------------------*- C++ -*----------------------------------*\
| =========                 |                                                 |
| \\      /  F ield         | OpenFOAM: The Open Source CFD Toolbox           |
|  \\    /   O peration     | Version:  2206                                  |
|   \\  /    A nd           | Website:  www.openfoam.com                      |
|    \\/     M anipulation  |                                                 |
\*---------------------------------------------------------------------------*/
FoamFile
{
    version     2.0;
    format      ascii;
    arch        "LSB;label=32;scalar=64";
    class       volScalarField;
    location    "1.06e-05";
    object      PVsourcePV;
}
// * * * * * * * * * * * * * * * * * * * * * * * * * * * * * * * * * * * * * //

dimensions      [1 -3 -1 0 0 0 0];

internalField   nonuniform List<scalar> 
3183
(
0
0
0
0
0
0
0
0
0
0
0
0
0
0
0
0
0
0
0
0
0
0
0
0
0
0
0
0
0
0
0
0
0
0
0
0
0
0
0
0
0
0
0
0
0
0
0
0
0
0
0
0
0
0
0
0
0
0
0
0
0
0
0
0
0
0
0
0
0
0
0
0
0
0
0
0
0
0
0
0
0
0
0
0
0
0
0
0
0
0
0
0
0
0
0
0
0
0
0
0
0
0
0
0
0
0
0
0
0
0
0
0
0
0
0
0
0
0
0
0
0
0
0
0
0
0
0
0
0
0
0
0
0
0
0
0
0
0
0
0
0
0
0
0
0
0
0
0
0
0
0
0
0
0
0
0
0
0
0
0
0
0
0
0
0
0
0
0
0
0
0
0
0
0
0
0
0
0
0
0
0
0
0
0
0
0
0
0
0
0
0
0
0
0
0
0
0
0
0
0
0
0
0
0
0
0
0
0
0
0
0
0
0
0
0
0
0
0
0
0
0
0
0
0
0
0
0
0
0
0
0
0
0
0
0
0
0
0
0
0
0
0
0
0
0
0
0
0
0
0
0
0
0
0
0
0
0
0
0
0
0
0
0
0
0
0
0
0
0
0
0
0
0
0
0
0
0
0
0
0
0
0
0
0
0
0
0
0
0
0
0
0
0
0
0
0
0
0
0
0
0
0
0
0
0
0
0
0
0
0
0
0
0
0
0
0
0
0
0
0
0
0
0
0
0
0
0
0
0
0
0
0
0
0
0
0
0
0
0
0
0
0
0
0
0
0
0
0
0
0
0
0
0
0
0
0
0
0
0
0
0
0
0
0
0
0
0
0
0
0
0
0
0
0
0
0
0
0
0
0
0
0
0
0
0
0
0
0
0
0
0
0
0
0
0
0
0
0
0
0
0
0
0
0
0
0
0
0
0
0
0
0
0
0
0
0
0
0
0
0
0
0
0
0
0
0
0
0
0
0
0
0
0
0
0
0
0
0
0
0
0
0
0
0
0
0
0
0
0
0
0
0
0
0
0
0
0
0
0
0
0
0
0
0
0
0
0
0
0
0
0
0
0
0
0
0
0
0
0
0
0
0
0
0
0
0
0
0
0
0
0
0
0
0
0
0
0
0
0
0
0
0
0
0
0
0
0
0
0
0
0
0
0
0
0
0
0
0
0
0
0
0
0
0
0
0
0
0
0
0
0
0
0
0
0
0
0
0
0
0
0
0
0
0
0
0
0
0
0
0
0
0
0
0
0
0
0
0
0
0
0
0
0
0
0
0
0
0
0
0
0
0
0
0
0
0
0
0
0
0
0
0
0
0
0
0
0
0
0
0
0
0
0
0
0
0
0
0
0
0
0
0
0
0
0
0
0
0
0
0
0
0
0
0
0
0
0
0
0
0
0
0
0
0
0
0
0
0
0
0
0
0
0
0
0
0
0
0
0
0
0
0
0
0
0
0
0
0
0
0
0
0
0
0
0
0
0
0
0
0
0
0
0
0
0
0
0
0
0
0
0
0
0
0
0
0
0
0
0
0
0
0
0
0
0
0
0
0
0
0
0
0
0
0
0
0
0
0
0
0
0
0
0
0
0
0
0
0
0
0
0
0
0
0
0
0
0
0
0
0
0
0
0
0
0
0
0
0
0
0
0
0
0
0
0
0
0
0
0
0
0
0
0
0
0
0
0
0
0
0
0
0
0
0
0
0
0
0
0
0
0
0
0
0
0
0
0
0
0
0
0
0
0
0
0
0
0
0
0
0
0
0
0
0
0
0
0
0
0
0
0
0
0
0
0
0
0
0
0
0
0
0
0
0
0
0
0
0
0
0
0
0
0
0
0
0
0
0
0
0
0
0
0
0
0
0
0
0
0
0
0
0
0
0
0
0
0
0
0
0
0
0
0
0
0
0
0
0
0
0
0
0
0
0
0
0
0
0
0
0
0
0
0
0
0
0
0
0
0
0
0
0
0
0
0
0
0
0
0
0
0
0
0
0
0
0
0
0
0
0
0
0
0
0
0
0
0
0
0
0
0
0
0
0
0
0
0
0
0
0
0
0
0
0
0
0
0
0
0
0
0
0
0
0
0
0
0
0
0
0
0
0
0
0
0
0
0
0
0
0
0
0
0
0
0
0
0
0
0
0
0
0
0
0
0
0
0
0
0
0
0
0
0
0
0
0
0
0
0
0
0
0
0
0
0
0
0
0
0
0
0
0
0
0
0
0
0
0
0
0
0
0
0
0
0
0
0
0
0
0
0
0
0
0
0
0
0
0
0
0
0
0
0
0
0
0
0
0
0
0
0
0
0
0
0
0
0
0
0
0
0
0
0
0
0
0
0
0
0
0
0
0
0
0
0
0
0
0
0
0
0
0
0
0
0
0
0
0
0
0
0
0
0
0
0
0
0
0
0
0
0
0
0
0
0
0
0
0
0
0
0
0
0
0
0
0
0
0
0
0
0
0
0
0
0
0
0
0
0
0
0
0
0
0
0
0
0
0
0
0
0
0
0
0
0
0
0
0
0
0
0
0
0
0
0
0
0
0
0
0
0
0
0
0
0
0
0
0
0
0
0
0
0
0
0
0
0
0
0
0
0
0
0
0
0
0
0
0
0
0
0
0
0
0
0
0
0
0
0
0
0
0
0
0
0
0
0
0
0
0
0
0
0
0
0
0
0
0
0
0
0
0
0
0
0
0
0
0
0
0
0
0
0
0
0
0
0
0
0
0
0
0
0
0
0
0
0
0
0
0
0
0
0
0
0
0
0
0
0
0
0
0
0
0
0
0
0
0
0
0
0
0
0
0
0
0
0
0
0
0
0
0
0
0
0
0
0
0
0
0
0
0
0
0
0
0
0
0
0
0
0
0
0
0
0
0
0
0
0
0
0
0
0
0
0
0
0
0
0
0
0
0
0
0
0
0
0
0
0
0
0
0
0
0
0
0
0
0
0
0
0
0
0
0
0
0
0
0
0
0
0
0
0
0
0
0
0
0
0
0
0
0
0
0
0
0
0
0
0
0
0
0
0
0
0
0
0
0
0
0
0
0
0
0
0
0
0
0
0
0
0
0
0
0
0
0
0
0
0
0
0
0
0
0
0
0
0
0
0
0
0
0
0
0
0
0
0
0
0
0
0
0
0
0
0
0
0
0
0
0
0
0
0
0
0
0
0
0
0
0
0
0
0
0
0
0
0
0
0
0
0
0
0
0
0
0
0
0
0
0
0
0
0
0
0
0
0
0
0
0
0
0
0
0
0
0
0
0
0
0
0
0
0
0
0
0
0
0
0
0
0
0
0
0
0
0
0
0
0
0
0
0
0
0
0
0
0
0
0
0
0
0
0
0
0
0
0
0
0
0
0
0
0
0
0
0
0
0
0
0
0
0
0
0
0
0
0
0
0
0
0
0
0
0
0
0
0
0
0
0
0
0
0
0
0
0
0
0
0
0
0
0
0
0
0
0
0
0
0
0
0
0
0
0
0
0
0
0
0
0
0
0
0
0
0
0
0
0
0
0
0
0
0
0
0
0
0
0
0
0
0
0
0
0
0
0
0
0
0
0
0
0
0
0
0
0
0
0
0
0
0
0
0
0
0
0
0
0
0
0
0
0
0
0
0
0
0
0
0
0
0
0
0
0
0
0
0
0
0
0
0
0
0
0
0
0
0
0
0
0
0
0
0
0
0
0
0
0
0
0
0
0
0
0
0
0
0
0
0
0
0
0
0
0
0
0
0
0
0
0
0
0
0
0
0
0
0
0
0
0
0
0
0
0
0
0
0
0
0
0
0
0
0
0
0
0
0
0
0
0
0
0
0
0
0
0
0
0
0
0
0
0
0
0
0
0
0
0
0
0
0
0
0
0
0
0
0
0
0
0
0
0
0
0
0
0
0
0
0
0
0
0
0
0
0
0
0
0
0
0
0
0
0
0
0
0
0
0
0
0
0
0
0
0
0
0
0
0
0
0
0
0
0
0
0
0
0
0
0
0
0
0
0
0
0
0
0
0
0
0
0
0
0
0
0
0
0
0
0
0
0
0
0
0
0
0
0
0
0
0
0
0
0
0
0
0
0
0
0
0
0
0
0
0
0
0
0
0
0
0
0
0
0
0
0
0
0
0
0
0
0
0
0
0
0
0
0
0
0
0
0
0
0
0
0
0
0
0
0
0
0
0
0
0
0
0
0
0
0
0
0
0
0
0
0
0
0
0
0
0
0
0
0
0
0
0
0
0
0
0
0
0
0
0
0
0
0
0
0
0
0
0
0
0
0
0
0
0
0
0
0
0
0
0
0
0
0
0
0
0
0
0
0
0
0
0
0
0
0
0
0
0
0
0
0
0
0
0
0
0
0
0
0
0
0
0
0
0
0
0
0
0
0
0
0
0
0
0
0
0
0
0
0
0
0
0
0
0
0
0
0
0
0
0
0
0
0
0
0
0
0
0
0
0
0
0
0
0
0
0
0
0
0
0
0
0
0
0
0
0
0
0
0
0
0
0
0
0
0
0
0
0
0
0
0
0
0
0
0
0
0
0
0
0
0
0
0
0
0
0
0
0
0
0
0
0
0
0
0
0
0
0
0
0
0
0
0
0
0
0
0
0
0
0
0
0
0
0
0
0
0
0
0
0
0
0
0
0
0
0
0
0
0
0
0
0
0
0
0
0
0
0
0
0
0
0
0
0
0
0
0
0
0
0
0
0
0
0
0
0
0
0
0
0
0
0
0
0
0
0
0
0
0
0
0
0
0
0
0
0
0
0
0
0
0
0
0
0
0
0
0
0
0
0
0
0
0
0
0
0
0
0
0
0
0
0
0
0
0
0
0
0
0
0
0
0
0
0
0
0
0
0
0
0
0
0
0
0
0
0
0
0
0
0
0
0
0
0
0
0
0
0
0
0
0
0
0
0
0
0
0
0
0
0
0
0
0
0
0
0
0
0
0
0
0
0
0
0
0
0
0
0
0
0
0
0
0
0
0
0
0
0
0
0
0
0
0
0
0
0
0
0
0
0
0
0
0
0
0
0
0
0
0
0
0
0
0
0
0
0
0
0
0
0
0
0
0
0
0
0
0
0
0
0
0
0
0
0
0
0
0
0
0
0
0
0
0
0
0
0
0
0
0
0
0
0
0
0
0
0
0
0
0
0
0
0
0
0
0
0
0
0
0
0
0
0
0
0
0
0
0
0
0
0
0
0
0
0
0
0
0
0
0
0
0
0
0
0
0
0
0
0
0
0
0
0
0
0
0
0
0
0
0
0
0
0
0
0
0
0
0
0
0
0
0
0
0
0
0
0
0
0
0
0
0
0
0
0
0
0
0
0
0
0
0
0
0
0
0
0
0
0
0
0
0
0
0
2.56123225e-299
0
2.46704359e-296
0
2.33208713e-293
1.45550717e-295
2.16408155e-290
5.29358241e-292
1.97186631e-287
8.36144023e-289
1.76467236e-284
1.04974416e-285
1.55144108e-281
1.18529378e-282
1.34025449e-278
1.23363838e-279
1.13791782e-275
1.21883192e-276
9.49712143e-273
1.15521957e-273
7.7931237e-270
1.05728625e-270
6.28848586e-267
9.38480796e-268
4.990771e-264
8.10398838e-265
3.89622621e-261
6.82328212e-262
2.99253744e-258
5.61116518e-259
2.26159089e-255
4.51292748e-256
1.68199214e-252
3.55363063e-253
1.23118192e-249
2.74202473e-250
8.87070893e-247
2.07475449e-247
6.29185105e-244
1.54034807e-244
4.39365058e-241
1.12266075e-241
3.02092158e-238
8.03608395e-239
2.04530038e-235
5.65157309e-236
1.36367974e-232
3.90628884e-233
8.95439779e-230
2.65431578e-230
5.79105064e-227
1.77354349e-227
3.68893384e-224
1.1655388e-224
2.3146736e-221
7.53512518e-222
1.43068581e-218
4.79298659e-219
8.71128145e-216
3.00011739e-216
5.22538359e-213
1.84817423e-213
3.08791428e-210
1.12064837e-210
1.79776655e-207
6.68898552e-208
1.03116925e-204
3.93054019e-205
5.82720572e-202
2.27392666e-202
3.24434605e-199
1.29526573e-199
1.77963383e-196
7.26474997e-197
9.61764154e-194
4.01216195e-194
5.12078214e-191
2.18194862e-191
2.6861277e-188
1.16849548e-188
1.38812964e-185
6.16212079e-186
7.06698679e-183
3.20003268e-183
3.54425314e-180
1.63642577e-180
1.75099188e-177
8.24041198e-178
8.52104016e-175
4.08603155e-175
4.08439406e-172
1.99498957e-172
1.92825274e-169
9.59065176e-170
8.96548011e-167
4.53944947e-167
4.10511717e-164
2.11534566e-164
1.85091383e-161
9.704086e-162
8.21710273e-159
4.38219393e-159
3.59156113e-156
1.94785754e-156
1.54538548e-153
8.52143634e-154
6.54535378e-151
3.66873317e-151
2.72849075e-148
1.55425078e-148
1.11931348e-145
6.47854973e-146
4.51818545e-143
2.65663783e-143
1.79431568e-140
1.07158543e-140
7.00957365e-138
4.25107672e-138
2.69323141e-135
1.65837299e-135
1.01758836e-132
6.36070851e-133
3.7801547e-130
2.3982415e-130
1.38039658e-127
8.88717353e-128
4.95413647e-125
3.2361731e-125
1.74706704e-122
1.15772588e-122
6.05244591e-120
4.06807103e-120
2.05934179e-117
1.40370862e-117
6.8800627e-115
4.75512109e-115
2.25635052e-112
1.58097932e-112
7.26185845e-110
5.15759812e-110
2.29290194e-107
1.65042073e-107
7.10037449e-105
5.17879625e-105
2.15569969e-102
1.59295134e-102
6.41432023e-100
4.8013029e-100
1.86983315e-97
1.4175297e-97
5.33788196e-95
4.09774284e-95
1.49163237e-92
1.1593334e-92
4.07832718e-90
3.20865115e-90
1.09047908e-87
8.68306974e-88
2.84997446e-85
2.29632029e-85
7.27630323e-83
5.93138548e-83
1.81370958e-80
1.49548972e-80
4.41097202e-78
3.67819524e-78
1.04595417e-75
8.81881519e-76
2.41647729e-73
2.0596216e-73
5.43500331e-71
4.68186869e-71
1.18902793e-68
1.03497795e-68
2.52788512e-66
2.22289071e-66
5.21746865e-64
4.63384444e-64
1.04430196e-61
9.36535766e-62
2.02460449e-59
1.83293686e-59
3.7969811e-57
3.46931238e-57
6.87864415e-55
6.34147161e-55
1.20185912e-52
1.11764332e-52
2.02180743e-50
1.89595219e-50
3.26835207e-48
3.08975932e-48
5.06632332e-46
4.82682477e-46
7.51264579e-44
7.21095058e-44
1.062817e-41
1.02740039e-41
1.43008881e-39
1.39176858e-39
1.82386195e-37
1.78626687e-37
2.19584924e-35
2.16325861e-35
2.48410994e-33
2.46016965e-33
2.62616674e-31
2.61179244e-31
2.57773568e-29
2.56762523e-29
2.3309312e-27
2.31407493e-27
1.92331114e-25
1.87291685e-25
1.43105746e-23
1.42886397e-23
9.44813021e-22
9.38795911e-22
5.42924534e-20
5.37263125e-20
2.63944158e-18
2.62376136e-18
1.04204846e-16
1.0408125e-16
3.13212279e-15
3.1367165e-15
2.37014815e-11
2.4626151e-11
0.0164694388
0.0665009461
0.723294717
0.765217224
0.414725949
0.345146451
0.0635228573
0.0514154951
0.00979126672
0.00888191012
0.00157801907
0.00150392122
0.000226473957
0.000224376876
3.0587263e-05
3.05388378e-05
4.29022234e-06
4.29807317e-06
1.07706415e-06
1.07874471e-06
7.17042574e-07
7.17110323e-07
6.79519874e-07
6.79537047e-07
6.75898587e-07
6.75901392e-07
6.75572331e-07
6.75573069e-07
6.75542556e-07
6.75545171e-07
6.7554168e-07
6.75542892e-07
6.7554085e-07
6.7554339e-07
6.75539354e-07
6.75542995e-07
6.75541284e-07
6.75541313e-07
6.75541472e-07
6.75540624e-07
6.75541959e-07
6.75540735e-07
6.75542528e-07
6.75541017e-07
6.75542023e-07
6.75541984e-07
6.75542216e-07
6.75541286e-07
6.75542045e-07
6.75541775e-07
6.75542261e-07
6.75540772e-07
6.75542654e-07
6.75541252e-07
6.7554179e-07
6.75542125e-07
6.75541305e-07
6.75542001e-07
6.75541547e-07
6.75541549e-07
6.75542157e-07
6.755418e-07
6.75541704e-07
6.75541606e-07
6.75541694e-07
6.75541345e-07
6.7554229e-07
6.75541659e-07
6.75541885e-07
6.75540681e-07
6.75541313e-07
6.75541584e-07
6.75540873e-07
6.75542133e-07
6.75540916e-07
6.75542178e-07
6.75541808e-07
6.75542468e-07
6.75541812e-07
6.7554248e-07
6.75541037e-07
6.75542564e-07
6.75541544e-07
6.75541839e-07
6.75541921e-07
6.75541178e-07
6.75542654e-07
6.75540257e-07
6.75542766e-07
6.75540791e-07
6.75542206e-07
6.75541396e-07
6.75541923e-07
6.75542315e-07
6.7554193e-07
6.7554221e-07
6.75542003e-07
6.7554169e-07
6.7554291e-07
6.75542106e-07
6.75541715e-07
6.7554257e-07
6.7554191e-07
6.75542749e-07
6.75542129e-07
6.75542081e-07
6.75541913e-07
6.75541826e-07
6.75541587e-07
6.75542376e-07
6.75541341e-07
6.75541558e-07
6.75541807e-07
6.75541565e-07
6.75541504e-07
6.75541842e-07
6.75541389e-07
6.75542086e-07
6.75541429e-07
6.75542702e-07
6.7554137e-07
6.75542693e-07
6.75541493e-07
6.75542537e-07
6.75541692e-07
6.75542649e-07
6.75541262e-07
6.75542684e-07
6.75541549e-07
6.75543103e-07
6.75541051e-07
6.75542834e-07
6.75542571e-07
6.75542733e-07
6.75542489e-07
6.75541654e-07
6.75543746e-07
6.75541582e-07
6.75542417e-07
6.75541657e-07
6.75541605e-07
6.75542148e-07
6.75541079e-07
6.75541575e-07
6.75541993e-07
6.75541431e-07
6.75541608e-07
6.75541471e-07
6.75542446e-07
6.75541529e-07
6.75542933e-07
6.75540811e-07
6.75543274e-07
6.75541399e-07
6.75542505e-07
6.75542069e-07
6.75541364e-07
6.75542124e-07
6.7554238e-07
6.75541908e-07
6.75543769e-07
6.755416e-07
6.75543214e-07
6.75541945e-07
6.75543179e-07
6.75541684e-07
6.75542208e-07
6.75541642e-07
6.75542071e-07
6.7554126e-07
6.75542413e-07
6.75541703e-07
6.75541414e-07
6.75542039e-07
6.75542307e-07
6.75542361e-07
6.75542643e-07
6.75543e-07
6.75542361e-07
6.75543239e-07
6.75543476e-07
6.7554279e-07
6.75543599e-07
6.75542326e-07
6.75542568e-07
6.75542133e-07
6.75542229e-07
6.7554216e-07
6.75542602e-07
6.75542422e-07
6.75542729e-07
6.75541599e-07
6.75543533e-07
6.75542332e-07
6.75543262e-07
6.75541809e-07
6.75542332e-07
6.7554187e-07
6.75542496e-07
6.75541215e-07
6.75543216e-07
6.75542347e-07
6.75543337e-07
6.75541525e-07
6.75542406e-07
6.75542292e-07
6.75542603e-07
6.75542068e-07
6.75543435e-07
6.75542851e-07
6.75543804e-07
6.7554192e-07
6.75543225e-07
6.75542601e-07
6.75542908e-07
6.75542636e-07
6.75542578e-07
6.75542619e-07
6.75542473e-07
6.75542429e-07
6.75542675e-07
6.75542981e-07
6.75542162e-07
6.75541576e-07
6.75542482e-07
6.75541821e-07
6.7554272e-07
6.75542627e-07
6.75542522e-07
6.75543427e-07
6.75542454e-07
6.75542458e-07
6.75543182e-07
6.75542566e-07
6.75542684e-07
6.75543097e-07
6.75542508e-07
6.7554325e-07
6.75542748e-07
6.75543426e-07
6.75542744e-07
6.75543366e-07
6.75542719e-07
6.75543477e-07
6.7554185e-07
6.75543824e-07
6.75542277e-07
6.75543095e-07
6.75541942e-07
6.75542197e-07
6.75543399e-07
6.75542861e-07
6.75543386e-07
6.75542815e-07
6.75541767e-07
6.75543535e-07
6.75542402e-07
6.75543414e-07
6.75543348e-07
6.7554228e-07
6.75543532e-07
6.7554263e-07
6.75543936e-07
6.75541931e-07
6.75544283e-07
6.75542099e-07
6.75542703e-07
6.75541976e-07
6.75542807e-07
6.75542183e-07
6.75543861e-07
6.75541787e-07
6.75542728e-07
6.7554317e-07
6.75542049e-07
6.7554337e-07
6.75542917e-07
6.75543483e-07
6.75542701e-07
6.75542906e-07
6.75543266e-07
6.75543194e-07
6.75542089e-07
6.75543773e-07
6.75542777e-07
6.755422e-07
6.75542974e-07
6.75542103e-07
6.75542789e-07
6.75543675e-07
6.75542592e-07
6.75543184e-07
6.75542803e-07
6.75543077e-07
6.7554265e-07
6.75542526e-07
6.7554258e-07
6.75543397e-07
6.75543098e-07
6.75543023e-07
6.75543067e-07
6.7554322e-07
6.75542815e-07
6.75543654e-07
6.75542623e-07
6.75543536e-07
6.75542602e-07
6.75543048e-07
6.75542764e-07
6.75543343e-07
6.75543002e-07
6.75543592e-07
6.75542432e-07
6.75543059e-07
6.75542874e-07
6.75542644e-07
6.75543852e-07
6.75542148e-07
6.75543885e-07
6.75542587e-07
6.7554333e-07
6.75542981e-07
6.75543358e-07
6.75542625e-07
6.75543801e-07
6.75542909e-07
6.75542611e-07
6.75543489e-07
6.7554303e-07
6.75543972e-07
6.75542304e-07
6.75543629e-07
6.75542833e-07
6.75543142e-07
6.75542783e-07
6.7554344e-07
6.75542859e-07
6.75543102e-07
6.75542385e-07
6.75543341e-07
6.75543026e-07
6.75543749e-07
6.75542394e-07
6.75543234e-07
6.75543994e-07
6.75543262e-07
6.75543214e-07
6.7554311e-07
6.75543418e-07
6.7554242e-07
6.75544125e-07
6.75543584e-07
6.75542601e-07
6.75543042e-07
6.75543467e-07
6.75542334e-07
6.75544355e-07
6.75543045e-07
6.75542827e-07
6.75543649e-07
6.75543666e-07
6.75542766e-07
6.75543632e-07
6.75543453e-07
6.75543934e-07
6.75543932e-07
6.75543206e-07
6.75544329e-07
6.75544008e-07
6.75543959e-07
6.75543996e-07
6.75544014e-07
6.75543854e-07
6.75543914e-07
6.75543017e-07
6.75543652e-07
6.75542738e-07
6.75543913e-07
6.75543602e-07
6.75544115e-07
6.75543389e-07
6.75543398e-07
6.75543841e-07
6.75543062e-07
6.75544068e-07
6.75542601e-07
6.75543423e-07
6.75543228e-07
6.75542812e-07
6.75543751e-07
6.75542973e-07
6.75543702e-07
6.75542997e-07
6.75543571e-07
6.75544049e-07
6.75543529e-07
6.75544145e-07
6.75543729e-07
6.75543925e-07
6.75543763e-07
6.75543403e-07
6.7554334e-07
6.75542884e-07
6.75544519e-07
6.75542819e-07
6.75544109e-07
6.75542981e-07
6.75544018e-07
6.75544041e-07
6.75543681e-07
6.75544031e-07
6.75544169e-07
6.75543335e-07
6.75544171e-07
6.75544166e-07
6.75543395e-07
6.75544071e-07
6.75543827e-07
6.75543684e-07
6.75543468e-07
6.75543579e-07
6.75544471e-07
6.75543007e-07
6.7554477e-07
6.75543927e-07
6.75544265e-07
6.75544067e-07
6.75544212e-07
6.7554302e-07
6.75544446e-07
6.75543445e-07
6.75543947e-07
6.75544741e-07
6.75544233e-07
6.75544064e-07
6.75543981e-07
6.75543333e-07
6.7554477e-07
6.75543795e-07
6.75544574e-07
6.75543798e-07
6.75544421e-07
6.75543436e-07
6.75544445e-07
6.75543576e-07
6.75544754e-07
6.75544224e-07
6.75544622e-07
6.75543578e-07
6.75544123e-07
6.75544154e-07
6.7554348e-07
6.75544308e-07
6.75543947e-07
6.75544407e-07
6.75544633e-07
6.7554351e-07
6.75544808e-07
6.75543896e-07
6.75543577e-07
6.7554462e-07
6.75544405e-07
6.75543495e-07
6.75544737e-07
6.755435e-07
6.75544988e-07
6.75544141e-07
6.7554418e-07
6.75544654e-07
6.75544216e-07
6.75544704e-07
6.75543402e-07
6.75544052e-07
6.75544783e-07
6.75543595e-07
6.7554478e-07
6.75543502e-07
6.75545028e-07
6.75543716e-07
6.75544482e-07
6.75543413e-07
6.75544754e-07
6.75543171e-07
6.7554397e-07
6.75543958e-07
6.75543768e-07
6.75544302e-07
6.75543547e-07
6.75545478e-07
6.75543512e-07
6.75544959e-07
6.75544007e-07
6.75544462e-07
6.75544268e-07
6.75545727e-07
6.75542922e-07
6.75545351e-07
6.75543013e-07
6.75545317e-07
6.75543113e-07
6.75544965e-07
6.75543542e-07
6.7554502e-07
6.75544657e-07
6.75544598e-07
6.75544561e-07
6.7554457e-07
6.75544742e-07
6.75544391e-07
6.75544299e-07
6.75544574e-07
6.7554411e-07
6.75544742e-07
6.75544577e-07
6.75544922e-07
6.75544686e-07
6.75544528e-07
6.75544784e-07
6.75544629e-07
6.75544558e-07
6.75544859e-07
6.75544913e-07
6.75544917e-07
6.75544917e-07
6.75544946e-07
6.7554497e-07
6.75545116e-07
6.75545168e-07
6.75545196e-07
6.75545318e-07
6.75545391e-07
6.75545534e-07
6.75545611e-07
6.75545662e-07
6.75545811e-07
6.75545917e-07
6.75545956e-07
6.7554607e-07
6.7554618e-07
6.75546307e-07
6.7554636e-07
6.75546416e-07
6.75546519e-07
6.75546535e-07
6.75546579e-07
6.75546625e-07
6.75546654e-07
6.75546617e-07
6.75546678e-07
6.75546658e-07
6.75546666e-07
6.75546666e-07
6.75546666e-07
6.75546673e-07
6.75546685e-07
6.75546676e-07
6.75546674e-07
6.75546657e-07
6.75546648e-07
6.75546676e-07
6.75546667e-07
6.75546672e-07
6.75546669e-07
6.75546667e-07
6.75546678e-07
6.75546672e-07
6.75546669e-07
6.75546686e-07
6.75546661e-07
6.75546666e-07
6.75546663e-07
6.75546677e-07
6.75546673e-07
6.75546666e-07
6.75546671e-07
6.75546658e-07
6.75546652e-07
6.75546685e-07
)
;

boundaryField
{
    closed
    {
        type            calculated;
        value           uniform 0;
    }
    open
    {
        type            calculated;
        value           uniform 0;
    }
    sides
    {
        type            empty;
    }
}


// ************************************************************************* //
