/*--------------------------------*- C++ -*----------------------------------*\
| =========                 |                                                 |
| \\      /  F ield         | OpenFOAM: The Open Source CFD Toolbox           |
|  \\    /   O peration     | Version:  2206                                  |
|   \\  /    A nd           | Website:  www.openfoam.com                      |
|    \\/     M anipulation  |                                                 |
\*---------------------------------------------------------------------------*/
FoamFile
{
    version     2.0;
    format      ascii;
    arch        "LSB;label=32;scalar=64";
    class       volScalarField;
    location    "1.06e-05";
    object      sourcePV;
}
// * * * * * * * * * * * * * * * * * * * * * * * * * * * * * * * * * * * * * //

dimensions      [1 -3 -1 0 0 0 0];

internalField   nonuniform List<scalar> 
3183
(
0
0
0
0
0
0
0
0
0
0
0
0
0
0
0
0
0
0
0
0
0
0
0
0
0
0
0
0
0
0
0
0
0
0
0
0
0
0
0
0
0
0
0
0
0
0
0
0
0
0
0
0
0
0
0
0
0
0
0
0
0
0
0
0
0
0
0
0
0
0
0
0
0
0
0
0
0
0
0
0
0
0
0
0
0
0
0
0
0
0
0
0
0
0
0
0
0
0
0
0
0
0
0
0
0
0
0
0
0
0
0
0
0
0
0
0
0
0
0
0
0
0
0
0
0
0
0
0
0
0
0
0
0
0
0
0
0
0
0
0
0
0
0
0
0
0
0
0
0
0
0
0
0
0
0
0
0
0
0
0
0
0
0
0
0
0
0
0
0
0
0
0
0
0
0
0
0
0
0
0
0
0
0
0
0
0
0
0
0
0
0
0
0
0
0
0
0
0
0
0
0
0
0
0
0
0
0
0
0
0
0
0
0
0
0
0
0
0
0
0
0
0
0
0
0
0
0
0
0
0
0
0
0
0
0
0
0
0
0
0
0
0
0
0
0
0
0
0
0
0
0
0
0
0
0
0
0
0
0
0
0
0
0
0
0
0
0
0
0
0
0
0
0
0
0
0
0
0
0
0
0
0
0
0
0
0
0
0
0
0
0
0
0
0
0
0
0
0
0
0
0
0
0
0
0
0
0
0
0
0
0
0
0
0
0
0
0
0
0
0
0
0
0
0
0
0
0
0
0
0
0
0
0
0
0
0
0
0
0
0
0
0
0
0
0
0
0
0
0
0
0
0
0
0
0
0
0
0
0
0
0
0
0
0
0
0
0
0
0
0
0
0
0
0
0
0
0
0
0
0
0
0
0
0
0
0
0
0
0
0
0
0
0
0
0
0
0
0
0
0
0
0
0
0
0
0
0
0
0
0
0
0
0
0
0
0
0
0
0
0
0
0
0
0
0
0
0
0
0
0
0
0
0
0
0
0
0
0
0
0
0
0
0
0
0
0
0
0
0
0
0
0
0
0
0
0
0
0
0
0
0
0
0
0
0
0
0
0
0
0
0
0
0
0
0
0
0
0
0
0
0
0
0
0
0
0
0
0
0
0
0
0
0
0
0
0
0
0
0
0
0
0
0
0
0
0
0
0
0
0
0
0
0
0
0
0
0
0
0
0
0
0
0
0
0
0
0
0
0
0
0
0
0
0
0
0
0
0
0
0
0
0
0
0
0
0
0
0
0
0
0
0
0
0
0
0
0
0
0
0
0
0
0
0
0
0
0
0
0
0
0
0
0
0
0
0
0
0
0
0
0
0
0
0
0
0
0
0
0
0
0
0
0
0
0
0
0
0
0
0
0
0
0
0
0
0
0
0
0
0
0
0
0
0
0
0
0
0
0
0
0
0
0
0
0
0
0
0
0
0
0
0
0
0
0
0
0
0
0
0
0
0
0
0
0
0
0
0
0
0
0
0
0
0
0
0
0
0
0
0
0
0
0
0
0
0
0
0
0
0
0
0
0
0
0
0
0
0
0
0
0
0
0
0
0
0
0
0
0
0
0
0
0
0
0
0
0
0
0
0
0
0
0
0
0
0
0
0
0
0
0
0
0
0
0
0
0
0
0
0
0
0
0
0
0
0
0
0
0
0
0
0
0
0
0
0
0
0
0
0
0
0
0
0
0
0
0
0
0
0
0
0
0
0
0
0
0
0
0
0
0
0
0
0
0
0
0
0
0
0
0
0
0
0
0
0
0
0
0
0
0
0
0
0
0
0
0
0
0
0
0
0
0
0
0
0
0
0
0
0
0
0
0
0
0
0
0
0
0
0
0
0
0
0
0
0
0
0
0
0
0
0
0
0
0
0
0
0
0
0
0
0
0
0
0
0
0
0
0
0
0
0
0
0
0
0
0
0
0
0
0
0
0
0
0
0
0
0
0
0
0
0
0
0
0
0
0
0
0
0
0
0
0
0
0
0
0
0
0
0
0
0
0
0
0
0
0
0
0
0
0
0
0
0
0
0
0
0
0
0
0
0
0
0
0
0
0
0
0
0
0
0
0
0
0
0
0
0
0
0
0
0
0
0
0
0
0
0
0
0
0
0
0
0
0
0
0
0
0
0
0
0
0
0
0
0
0
0
0
0
0
0
0
0
0
0
0
0
0
0
0
0
0
0
0
0
0
0
0
0
0
0
0
0
0
0
0
0
0
0
0
0
0
0
0
0
0
0
0
0
0
0
0
0
0
0
0
0
0
0
0
0
0
0
0
0
0
0
0
0
0
0
0
0
0
0
0
0
0
0
0
0
0
0
0
0
0
0
0
0
0
0
0
0
0
0
0
0
0
0
0
0
0
0
0
0
0
0
0
0
0
0
0
0
0
0
0
0
0
0
0
0
0
0
0
0
0
0
0
0
0
0
0
0
0
0
0
0
0
0
0
0
0
0
0
0
0
0
0
0
0
0
0
0
0
0
0
0
0
0
0
0
0
0
0
0
0
0
0
0
0
0
0
0
0
0
0
0
0
0
0
0
0
0
0
0
0
0
0
0
0
0
0
0
0
0
0
0
0
0
0
0
0
0
0
0
0
0
0
0
0
0
0
0
0
0
0
0
0
0
0
0
0
0
0
0
0
0
0
0
0
0
0
0
0
0
0
0
0
0
0
0
0
0
0
0
0
0
0
0
0
0
0
0
0
0
0
0
0
0
0
0
0
0
0
0
0
0
0
0
0
0
0
0
0
0
0
0
0
0
0
0
0
0
0
0
0
0
0
0
0
0
0
0
0
0
0
0
0
0
0
0
0
0
0
0
0
0
0
0
0
0
0
0
0
0
0
0
0
0
0
0
0
0
0
0
0
0
0
0
0
0
0
0
0
0
0
0
0
0
0
0
0
0
0
0
0
0
0
0
0
0
0
0
0
0
0
0
0
0
0
0
0
0
0
0
0
0
0
0
0
0
0
0
0
0
0
0
0
0
0
0
0
0
0
0
0
0
0
0
0
0
0
0
0
0
0
0
0
0
0
0
0
0
0
0
0
0
0
0
0
0
0
0
0
0
0
0
0
0
0
0
0
0
0
0
0
0
0
0
0
0
0
0
0
0
0
0
0
0
0
0
0
0
0
0
0
0
0
0
0
0
0
0
0
0
0
0
0
0
0
0
0
0
0
0
0
0
0
0
0
0
0
0
0
0
0
0
0
0
0
0
0
0
0
0
0
0
0
0
0
0
0
0
0
0
0
0
0
0
0
0
0
0
0
0
0
0
0
0
0
0
0
0
0
0
0
0
0
0
0
0
0
0
0
0
0
0
0
0
0
0
0
0
0
0
0
0
0
0
0
0
0
0
0
0
0
0
0
0
0
0
0
0
0
0
0
0
0
0
0
0
0
0
0
0
0
0
0
0
0
0
0
0
0
0
0
0
0
0
0
0
0
0
0
0
0
0
0
0
0
0
0
0
0
0
0
0
0
0
0
0
0
0
0
0
0
0
0
0
0
0
0
0
0
0
0
0
0
0
0
0
0
0
0
0
0
0
0
0
0
0
0
0
0
0
0
0
0
0
0
0
0
0
0
0
0
0
0
0
0
0
0
0
0
0
0
0
0
0
0
0
0
0
0
0
0
0
0
0
0
0
0
0
0
0
0
0
0
0
0
0
0
0
0
0
0
0
0
0
0
0
0
0
0
0
0
0
0
0
0
0
0
0
0
0
0
0
0
0
0
0
0
0
0
0
0
0
0
0
0
0
0
0
0
0
0
0
0
0
0
0
0
0
0
0
0
0
0
0
0
0
0
0
0
0
0
0
0
0
0
0
0
0
0
0
0
0
0
0
0
0
0
0
0
0
0
0
0
0
0
0
0
0
0
0
0
0
0
0
0
0
0
0
0
0
0
0
0
0
0
0
0
0
0
0
0
0
0
0
0
0
0
0
0
0
0
0
0
0
0
0
0
0
0
0
0
0
0
0
0
0
0
0
0
0
0
0
0
0
0
0
0
0
0
0
0
0
0
0
0
0
0
0
0
0
0
0
0
0
0
0
0
0
0
0
0
0
0
0
0
0
0
0
0
0
0
0
0
0
0
0
0
0
0
0
0
0
0
0
0
0
0
0
0
0
0
0
0
0
0
0
0
0
0
0
0
0
0
0
0
0
0
0
0
0
0
0
0
0
0
0
0
0
0
0
0
0
0
0
0
0
0
0
0
0
0
0
0
0
0
0
0
0
0
0
0
0
0
0
0
0
0
0
0
0
0
0
0
0
0
0
0
0
0
0
0
0
0
0
0
0
0
0
0
0
0
0
0
0
0
0
0
0
0
0
0
0
0
0
0
0
0
0
0
0
0
0
0
0
0
0
0
0
0
0
0
0
0
0
0
0
0
0
0
0
0
0
0
0
0
0
0
0
0
0
0
0
0
0
0
0
0
0
0
0
0
0
0
0
0
0
0
0
0
0
0
0
0
0
0
0
0
0
0
0
0
0
0
0
0
0
0
0
0
0
0
0
0
0
0
0
0
0
0
0
0
0
0
0
0
0
0
0
0
0
0
0
0
0
0
0
0
0
0
0
0
0
0
0
0
0
0
0
0
0
0
0
0
0
0
0
0
0
0
0
0
0
0
0
0
0
0
0
0
0
0
0
0
0
0
0
0
0
0
0
0
0
0
0
0
0
0
0
0
0
0
0
0
0
0
0
0
0
0
0
0
0
0
0
0
0
0
0
0
0
0
0
0
0
0
0
0
0
0
0
0
0
0
0
0
0
0
0
0
0
0
0
0
0
0
0
0
0
0
0
0
0
0
0
0
0
0
0
0
0
0
0
0
0
0
0
0
0
0
0
0
0
0
0
0
0
0
0
0
0
0
0
0
0
0
0
0
0
0
0
0
0
0
0
0
0
0
0
0
0
0
0
0
0
0
0
0
0
0
0
0
0
0
0
0
0
0
0
0
0
0
0
0
0
0
0
0
0
0
0
0
0
0
0
0
0
0
0
0
0
0
0
0
0
0
0
0
0
0
0
0
0
0
0
0
0
0
0
0
0
0
0
0
0
0
0
0
0
0
0
0
0
0
0
0
0
0
0
0
0
0
0
0
0
0
0
0
0
0
0
0
0
0
0
0
0
0
0
0
0
0
0
0
0
0
0
0
0
0
0
0
0
0
0
0
0
0
0
0
0
0
0
0
0
0
0
0
0
0
0
0
0
0
0
0
0
0
0
0
0
0
0
0
0
0
0
0
0
0
0
0
0
0
0
0
0
0
0
0
0
0
0
0
0
0
0
0
0
0
0
0
0
0
0
0
0
0
0
0
0
0
0
0
0
0
0
0
0
0
0
0
0
0
0
0
0
0
0
0
4.55462323e-299
0
4.47165415e-296
0
4.30721021e-293
0
4.07158979e-290
2.54116927e-292
3.77826893e-287
9.24206298e-289
3.44268044e-284
1.45982345e-285
3.08094062e-281
1.83274783e-282
2.70866024e-278
2.06940384e-279
2.33994967e-275
2.15380865e-276
1.98669017e-272
2.12795806e-273
1.65810197e-269
2.0168973e-270
1.36060109e-266
1.84591556e-267
1.09790644e-263
1.63849317e-264
8.71338469e-261
1.41487494e-261
6.80241947e-258
1.1912765e-258
5.22466968e-255
9.79653058e-256
3.94851045e-252
7.87911792e-253
2.93658926e-249
6.204282e-250
2.14951992e-246
4.78729966e-247
1.54873665e-243
3.62231287e-244
1.09849397e-240
2.68929296e-241
7.67087244e-238
1.96005286e-238
5.27422552e-235
1.40301951e-235
3.57088895e-232
9.86707874e-233
2.3808478e-229
6.81998781e-230
1.56334788e-226
4.63416864e-227
1.01105925e-223
3.09642872e-224
6.44050781e-221
2.03491364e-221
4.04118752e-218
1.31555714e-218
2.49783366e-215
8.36807298e-216
1.52090221e-212
5.23790351e-213
9.1229947e-210
3.22672649e-210
5.39118805e-207
1.95653946e-207
3.13871975e-204
1.16782966e-204
1.8003179e-201
6.86232823e-202
1.01737157e-198
3.97004746e-199
5.66430221e-196
2.26140382e-196
3.10706186e-193
1.26835235e-193
1.67914357e-190
7.00483162e-191
8.94037108e-188
3.80946305e-188
4.68970906e-185
2.04007569e-185
2.42353487e-182
1.07584437e-182
1.23382488e-179
5.58693551e-180
6.18790985e-177
2.85703497e-177
3.05705589e-174
1.43869313e-174
1.48768799e-171
7.13380052e-172
7.13094162e-169
3.48305132e-169
3.36653553e-166
1.67443143e-166
1.56528274e-163
7.92542264e-164
7.16712209e-161
3.69318097e-161
3.23150957e-158
1.69423591e-158
1.43462357e-155
7.65087027e-156
6.27050485e-153
3.40076355e-153
2.69808777e-150
1.48775716e-150
1.142753e-147
6.40523947e-148
4.76367069e-145
2.71356569e-145
1.95420886e-142
1.13108968e-142
7.8882978e-140
4.63822271e-140
3.13269488e-137
1.87088048e-137
1.22380113e-134
7.4219528e-135
4.70211142e-132
2.89535261e-132
1.77660703e-129
1.11051579e-129
6.59977028e-127
4.18708867e-127
2.41003372e-124
1.5516112e-124
8.64942448e-122
5.65003305e-122
3.0502035e-119
2.02127305e-119
1.05669624e-116
7.10244325e-117
3.59540384e-114
2.4507342e-114
1.20118982e-111
8.30196362e-112
3.93936129e-109
2.76023103e-109
1.26784752e-106
9.00464808e-107
4.0031764e-104
2.88146876e-104
1.23965404e-101
9.04165789e-102
3.76363505e-99
2.78113298e-99
1.11987586e-96
8.38259243e-97
3.2645408e-94
2.47486442e-94
9.31940555e-92
7.15424725e-92
2.60424024e-89
2.02407963e-89
7.12034945e-87
5.60198249e-87
1.90386691e-84
1.51597673e-84
4.97576904e-82
4.0091445e-82
1.27036943e-79
1.0355603e-79
3.16655468e-77
2.61097478e-77
7.70111393e-75
6.4217593e-75
1.82613088e-72
1.53967652e-72
4.21892654e-70
3.59589235e-70
9.48896966e-68
8.17407228e-68
2.07592328e-65
1.8069675e-65
4.41343341e-63
3.88094383e-63
9.10917601e-61
8.09022678e-61
1.8232463e-58
1.63509734e-58
3.534756e-56
3.20012359e-56
6.62914748e-54
6.05707081e-54
1.20094215e-51
1.10715722e-51
2.09832526e-49
1.95129294e-49
3.52987262e-47
3.31014202e-47
5.7062143e-45
5.39440931e-45
8.84529144e-43
8.42715105e-43
1.31163247e-40
1.25895951e-40
1.8555717e-38
1.79373785e-38
2.49679136e-36
2.42988809e-36
3.1842797e-34
3.11864247e-34
3.83373213e-32
3.77683217e-32
4.33700635e-30
4.29520901e-30
4.58502325e-28
4.55992716e-28
4.50046748e-26
4.48281566e-26
4.06957166e-24
4.04014231e-24
3.357908e-22
3.26992463e-22
2.49848254e-20
2.49465292e-20
1.6495486e-18
1.63904333e-18
9.47891683e-17
9.38007431e-17
4.60819979e-15
4.58082369e-15
1.81931191e-13
1.81715405e-13
5.46837167e-12
5.47639182e-12
4.20341954e-09
4.33711028e-09
0.349447461
1.26205176
9.9771436
10.2435858
5.05241177
4.17539076
0.749387213
0.605669427
0.114999705
0.104319193
0.0185340366
0.0176637476
0.00265996236
0.00263533188
0.000359247505
0.000358678745
5.03853206e-05
5.04775296e-05
1.26463571e-05
1.26660954e-05
8.4178565e-06
8.41865222e-06
7.97714747e-06
7.97734918e-06
7.93461498e-06
7.93464792e-06
7.93078306e-06
7.93079173e-06
7.93043336e-06
7.93046406e-06
7.93042306e-06
7.9304373e-06
7.93041332e-06
7.93044315e-06
7.93039575e-06
7.9304385e-06
7.93041841e-06
7.93041875e-06
7.93042062e-06
7.93041066e-06
7.93042634e-06
7.93041196e-06
7.93043302e-06
7.93041528e-06
7.9304271e-06
7.93042663e-06
7.93042935e-06
7.93041843e-06
7.93042735e-06
7.93042417e-06
7.93042989e-06
7.9304124e-06
7.9304345e-06
7.93041804e-06
7.93042435e-06
7.93042829e-06
7.93041865e-06
7.93042683e-06
7.9304215e-06
7.93042153e-06
7.93042866e-06
7.93042447e-06
7.93042335e-06
7.93042219e-06
7.93042323e-06
7.93041913e-06
7.93043023e-06
7.93042282e-06
7.93042548e-06
7.93041133e-06
7.93041875e-06
7.93042194e-06
7.93041358e-06
7.93042838e-06
7.93041409e-06
7.93042891e-06
7.93042456e-06
7.93043232e-06
7.93042462e-06
7.93043246e-06
7.93041551e-06
7.93043344e-06
7.93042146e-06
7.93042494e-06
7.93042589e-06
7.93041717e-06
7.9304345e-06
7.93040635e-06
7.93043582e-06
7.93041262e-06
7.93042924e-06
7.93041972e-06
7.93042592e-06
7.93043052e-06
7.93042599e-06
7.93042929e-06
7.93042685e-06
7.93042318e-06
7.93043751e-06
7.93042807e-06
7.93042347e-06
7.93043351e-06
7.93042576e-06
7.93043562e-06
7.93042834e-06
7.93042777e-06
7.93042579e-06
7.93042478e-06
7.93042197e-06
7.93043124e-06
7.93041908e-06
7.93042163e-06
7.93042455e-06
7.93042172e-06
7.930421e-06
7.93042497e-06
7.93041964e-06
7.93042783e-06
7.93042012e-06
7.93043506e-06
7.93041942e-06
7.93043497e-06
7.93042087e-06
7.93043312e-06
7.93042321e-06
7.93043445e-06
7.93041816e-06
7.93043485e-06
7.93042153e-06
7.93043977e-06
7.93041568e-06
7.93043662e-06
7.93043352e-06
7.93043543e-06
7.93043256e-06
7.93042275e-06
7.93044733e-06
7.93042192e-06
7.93043172e-06
7.9304228e-06
7.93042218e-06
7.93042856e-06
7.93041601e-06
7.93042183e-06
7.93042674e-06
7.93042014e-06
7.93042221e-06
7.9304206e-06
7.93043206e-06
7.93042129e-06
7.93043778e-06
7.93041285e-06
7.93044179e-06
7.93041976e-06
7.93043275e-06
7.93042764e-06
7.93041935e-06
7.93042827e-06
7.93043128e-06
7.93042574e-06
7.9304476e-06
7.93042212e-06
7.93044108e-06
7.93042617e-06
7.93044067e-06
7.93042311e-06
7.93042927e-06
7.93042262e-06
7.93042766e-06
7.93041813e-06
7.93043167e-06
7.93042334e-06
7.93041994e-06
7.93042728e-06
7.93043042e-06
7.93043106e-06
7.93043437e-06
7.93043857e-06
7.93043106e-06
7.93044137e-06
7.93044416e-06
7.9304361e-06
7.9304456e-06
7.93043064e-06
7.93043349e-06
7.93042838e-06
7.93042951e-06
7.93042871e-06
7.9304339e-06
7.93043178e-06
7.93043538e-06
7.93042211e-06
7.93044483e-06
7.93043072e-06
7.93044165e-06
7.93042458e-06
7.93043072e-06
7.9304253e-06
7.93043265e-06
7.93041761e-06
7.9304411e-06
7.9304309e-06
7.93044253e-06
7.93042124e-06
7.93043159e-06
7.93043025e-06
7.93043391e-06
7.93042762e-06
7.93044367e-06
7.93043682e-06
7.93044801e-06
7.93042588e-06
7.9304412e-06
7.93043389e-06
7.93043749e-06
7.93043429e-06
7.93043361e-06
7.93043409e-06
7.93043237e-06
7.93043186e-06
7.93043475e-06
7.93043834e-06
7.93042873e-06
7.93042184e-06
7.93043249e-06
7.93042472e-06
7.93043527e-06
7.93043418e-06
7.93043295e-06
7.93044358e-06
7.93043215e-06
7.9304322e-06
7.93044071e-06
7.93043347e-06
7.93043486e-06
7.9304397e-06
7.93043278e-06
7.9304415e-06
7.93043561e-06
7.93044357e-06
7.93043556e-06
7.93044287e-06
7.93043526e-06
7.93044417e-06
7.93042506e-06
7.93044825e-06
7.93043007e-06
7.93043968e-06
7.93042614e-06
7.93042914e-06
7.93044325e-06
7.93043694e-06
7.9304431e-06
7.9304364e-06
7.93042409e-06
7.93044485e-06
7.93043154e-06
7.93044343e-06
7.93044265e-06
7.9304301e-06
7.93044482e-06
7.93043422e-06
7.93044956e-06
7.93042602e-06
7.93045364e-06
7.93042799e-06
7.93043508e-06
7.93042653e-06
7.9304363e-06
7.93042897e-06
7.93044868e-06
7.93042432e-06
7.93043537e-06
7.93044056e-06
7.93042739e-06
7.93044291e-06
7.93043759e-06
7.93044424e-06
7.93043505e-06
7.93043746e-06
7.93044169e-06
7.93044084e-06
7.93042787e-06
7.93044764e-06
7.93043595e-06
7.93042917e-06
7.93043826e-06
7.93042803e-06
7.93043609e-06
7.93044649e-06
7.93043378e-06
7.93044073e-06
7.93043625e-06
7.93043947e-06
7.93043446e-06
7.930433e-06
7.93043363e-06
7.93044323e-06
7.93043972e-06
7.93043883e-06
7.93043935e-06
7.93044115e-06
7.9304364e-06
7.93044624e-06
7.93043414e-06
7.93044486e-06
7.9304339e-06
7.93043913e-06
7.93043579e-06
7.93044259e-06
7.93043859e-06
7.93044552e-06
7.93043189e-06
7.93043925e-06
7.93043708e-06
7.93043438e-06
7.93044857e-06
7.93042856e-06
7.93044896e-06
7.93043372e-06
7.93044244e-06
7.93043834e-06
7.93044277e-06
7.93043416e-06
7.93044797e-06
7.9304375e-06
7.930434e-06
7.93044431e-06
7.93043892e-06
7.93044998e-06
7.93043039e-06
7.93044595e-06
7.93043661e-06
7.93044024e-06
7.93043601e-06
7.93044373e-06
7.93043691e-06
7.93043976e-06
7.93043134e-06
7.93044257e-06
7.93043887e-06
7.93044737e-06
7.93043145e-06
7.93044131e-06
7.93045024e-06
7.93044164e-06
7.93044108e-06
7.93043986e-06
7.93044348e-06
7.93043176e-06
7.93045178e-06
7.93044543e-06
7.93043389e-06
7.93043905e-06
7.93044405e-06
7.93043074e-06
7.93045448e-06
7.9304391e-06
7.93043653e-06
7.93044619e-06
7.93044639e-06
7.93043582e-06
7.93044599e-06
7.93044388e-06
7.93044954e-06
7.93044952e-06
7.93044098e-06
7.93045418e-06
7.93045041e-06
7.93044984e-06
7.93045026e-06
7.93045047e-06
7.9304486e-06
7.93044931e-06
7.93043877e-06
7.93044622e-06
7.93043548e-06
7.93044928e-06
7.93044564e-06
7.93045167e-06
7.93044313e-06
7.93044324e-06
7.93044845e-06
7.9304393e-06
7.93045111e-06
7.93043389e-06
7.93044353e-06
7.93044125e-06
7.93043636e-06
7.93044739e-06
7.93043825e-06
7.93044681e-06
7.93043853e-06
7.93044527e-06
7.93045088e-06
7.93044478e-06
7.93045202e-06
7.93044712e-06
7.93044943e-06
7.93044753e-06
7.9304433e-06
7.93044256e-06
7.9304372e-06
7.93045641e-06
7.93043644e-06
7.93045159e-06
7.93043834e-06
7.93045052e-06
7.93045079e-06
7.93044656e-06
7.93045067e-06
7.93045229e-06
7.9304425e-06
7.93045232e-06
7.93045226e-06
7.93044321e-06
7.93045115e-06
7.93044828e-06
7.93044659e-06
7.93044406e-06
7.93044537e-06
7.93045584e-06
7.93043865e-06
7.93045936e-06
7.93044945e-06
7.93045343e-06
7.9304511e-06
7.9304528e-06
7.9304388e-06
7.93045554e-06
7.93044379e-06
7.93044969e-06
7.93045902e-06
7.93045304e-06
7.93045106e-06
7.93045009e-06
7.93044247e-06
7.93045936e-06
7.93044791e-06
7.93045705e-06
7.93044794e-06
7.93045526e-06
7.93044368e-06
7.93045553e-06
7.93044533e-06
7.93045917e-06
7.93045294e-06
7.93045762e-06
7.93044536e-06
7.93045175e-06
7.93045212e-06
7.9304442e-06
7.93045393e-06
7.93044969e-06
7.93045509e-06
7.93045775e-06
7.93044455e-06
7.9304598e-06
7.93044909e-06
7.93044534e-06
7.9304576e-06
7.93045507e-06
7.93044438e-06
7.93045896e-06
7.93044444e-06
7.93046192e-06
7.93045196e-06
7.93045243e-06
7.93045799e-06
7.93045284e-06
7.93045858e-06
7.93044329e-06
7.93045093e-06
7.9304595e-06
7.93044556e-06
7.93045947e-06
7.93044447e-06
7.93046239e-06
7.93044698e-06
7.93045597e-06
7.93044342e-06
7.93045917e-06
7.93044058e-06
7.93044996e-06
7.93044981e-06
7.93044759e-06
7.93045386e-06
7.930445e-06
7.93046767e-06
7.93044458e-06
7.93046157e-06
7.9304504e-06
7.93045573e-06
7.93045346e-06
7.93047059e-06
7.93043766e-06
7.93046618e-06
7.93043871e-06
7.93046577e-06
7.93043989e-06
7.93046164e-06
7.93044493e-06
7.93046229e-06
7.93045803e-06
7.93045733e-06
7.9304569e-06
7.93045701e-06
7.93045903e-06
7.9304549e-06
7.93045382e-06
7.93045706e-06
7.9304516e-06
7.93045903e-06
7.93045709e-06
7.93046114e-06
7.93045837e-06
7.93045651e-06
7.93045952e-06
7.93045769e-06
7.93045687e-06
7.93046041e-06
7.93046103e-06
7.93046108e-06
7.93046108e-06
7.93046142e-06
7.93046171e-06
7.93046342e-06
7.93046403e-06
7.93046436e-06
7.93046579e-06
7.93046664e-06
7.93046833e-06
7.93046924e-06
7.93046983e-06
7.93047158e-06
7.93047283e-06
7.93047328e-06
7.93047462e-06
7.93047592e-06
7.9304774e-06
7.93047803e-06
7.93047869e-06
7.93047989e-06
7.93048008e-06
7.9304806e-06
7.93048114e-06
7.93048148e-06
7.93048105e-06
7.93048177e-06
7.93048152e-06
7.93048162e-06
7.93048162e-06
7.93048162e-06
7.9304817e-06
7.93048184e-06
7.93048174e-06
7.93048171e-06
7.93048151e-06
7.93048141e-06
7.93048174e-06
7.93048163e-06
7.93048169e-06
7.93048166e-06
7.93048164e-06
7.93048177e-06
7.93048169e-06
7.93048166e-06
7.93048186e-06
7.93048157e-06
7.93048162e-06
7.93048159e-06
7.93048176e-06
7.9304817e-06
7.93048162e-06
7.93048168e-06
7.93048153e-06
7.93048146e-06
7.93048184e-06
)
;

boundaryField
{
    closed
    {
        type            calculated;
        value           uniform 0;
    }
    open
    {
        type            calculated;
        value           uniform 0;
    }
    sides
    {
        type            empty;
    }
}


// ************************************************************************* //
