/*--------------------------------*- C++ -*----------------------------------*\
| =========                 |                                                 |
| \\      /  F ield         | OpenFOAM: The Open Source CFD Toolbox           |
|  \\    /   O peration     | Version:  2206                                  |
|   \\  /    A nd           | Website:  www.openfoam.com                      |
|    \\/     M anipulation  |                                                 |
\*---------------------------------------------------------------------------*/
FoamFile
{
    version     2.0;
    format      ascii;
    arch        "LSB;label=32;scalar=64";
    class       volVectorField;
    location    "1.06e-05";
    object      U;
}
// * * * * * * * * * * * * * * * * * * * * * * * * * * * * * * * * * * * * * //

dimensions      [0 1 -1 0 0 0 0];

internalField   nonuniform List<vector> 
3183
(
(2.91091621e-13 0 0)
(3.22981261e-18 0 0)
(-1.87710571e-13 0 0)
(-1.39666748e-13 0 0)
(-1.13368841e-13 0 0)
(-4.87653761e-18 0 0)
(-3.847334e-19 0 0)
(-2.50612429e-23 0 0)
(1.80257823e-23 0 0)
(2.81760389e-19 0 0)
(6.20184877e-18 0 0)
(1.22991002e-13 0 0)
(4.4807206e-13 0 0)
(9.9616492e-14 0 0)
(2.45007473e-14 0 0)
(8.45976772e-14 0 0)
(-1.43245054e-13 0 0)
(-4.27546553e-13 0 0)
(-7.23752093e-13 0 0)
(-3.61402319e-14 0 0)
(3.60304251e-13 0 0)
(1.08848243e-16 0 0)
(3.52442413e-17 0 0)
(2.15579627e-13 0 0)
(2.96634055e-13 0 0)
(4.03954932e-13 0 0)
(4.44078744e-13 0 0)
(4.26752292e-13 0 0)
(1.78694161e-13 0 0)
(3.52338157e-13 0 0)
(-2.04945118e-13 0 0)
(-2.16198846e-13 0 0)
(-7.78106673e-13 0 0)
(-1.00232373e-12 0 0)
(-5.90466953e-13 0 0)
(-2.65409097e-13 0 0)
(-2.4634506e-13 0 0)
(-2.92709526e-13 0 0)
(-1.19368669e-13 0 0)
(-8.78381799e-14 0 0)
(-4.06735547e-13 0 0)
(-4.41262449e-13 0 0)
(-1.61726431e-13 0 0)
(-5.19410414e-13 0 0)
(-1.45465763e-13 0 0)
(1.67952528e-14 0 0)
(-2.50528059e-13 0 0)
(-1.31503426e-13 0 0)
(-1.56785191e-13 0 0)
(8.34245513e-14 0 0)
(2.84381302e-13 0 0)
(6.65957211e-13 0 0)
(3.41636279e-13 0 0)
(8.16770143e-13 0 0)
(1.22743119e-12 0 0)
(1.21919807e-12 0 0)
(1.63098096e-12 0 0)
(1.90541773e-12 0 0)
(2.0715471e-12 0 0)
(2.35069894e-12 0 0)
(2.47719652e-12 0 0)
(2.29933926e-12 0 0)
(2.33335883e-12 0 0)
(2.00325953e-12 0 0)
(2.27465201e-12 0 0)
(2.29313455e-12 0 0)
(1.93522125e-12 0 0)
(2.03141219e-12 0 0)
(1.99321163e-12 0 0)
(1.24895699e-12 0 0)
(1.55986268e-12 0 0)
(1.32315246e-12 0 0)
(1.16374678e-12 0 0)
(8.91355966e-13 0 0)
(6.52423945e-13 0 0)
(4.66058781e-14 0 0)
(1.94938622e-13 0 0)
(3.77965357e-14 0 0)
(-2.70465951e-13 0 0)
(-3.82844787e-13 0 0)
(-5.92931551e-13 0 0)
(-7.6050675e-13 0 0)
(-1.99143069e-13 0 0)
(-1.58709031e-12 0 0)
(-8.66223345e-13 0 0)
(-1.31199813e-12 0 0)
(-1.51761684e-12 0 0)
(-1.34757825e-12 0 0)
(-9.98044766e-13 0 0)
(-1.85866298e-12 0 0)
(-2.22241108e-12 0 0)
(-2.61828313e-12 0 0)
(-1.36606757e-12 0 0)
(-2.57418787e-12 0 0)
(-2.90924984e-12 0 0)
(-2.91411329e-12 0 0)
(-4.27329992e-12 0 0)
(-2.75959055e-12 0 0)
(-4.32488813e-12 0 0)
(-3.81708681e-12 0 0)
(-2.7295152e-12 0 0)
(-3.37808945e-12 0 0)
(-3.45150325e-12 0 0)
(-3.03043999e-12 0 0)
(-3.43194217e-12 0 0)
(-3.28645203e-12 0 0)
(-4.0373971e-12 0 0)
(-2.98251036e-12 0 0)
(-4.16934696e-12 0 0)
(-4.31820115e-12 0 0)
(-3.75635774e-12 0 0)
(-4.01968066e-12 0 0)
(-3.30623828e-12 0 0)
(-5.18794458e-12 0 0)
(-3.6703477e-12 0 0)
(-3.62381654e-12 0 0)
(-3.90823529e-12 0 0)
(-2.68476778e-12 0 0)
(-4.08615956e-12 0 0)
(-4.85671652e-12 0 0)
(-3.82340355e-12 0 0)
(-3.86071796e-12 0 0)
(-3.82214459e-12 0 0)
(-4.30931917e-12 0 0)
(-3.94800477e-12 0 0)
(-5.38275951e-12 0 0)
(-4.82707936e-12 0 0)
(-6.53068336e-12 0 0)
(-4.25598916e-12 0 0)
(-5.40813784e-12 0 0)
(-5.16751832e-12 0 0)
(-5.63767307e-12 0 0)
(-5.37587118e-12 0 0)
(-6.25763593e-12 0 0)
(-4.26262531e-12 0 0)
(-5.84917744e-12 0 0)
(-6.09993571e-12 0 0)
(-6.23074277e-12 0 0)
(-5.30158359e-12 0 0)
(-4.84120831e-12 0 0)
(-5.23134635e-12 0 0)
(-5.05682834e-12 0 0)
(-6.14876456e-12 0 0)
(-6.25456245e-12 0 0)
(-5.54442035e-12 0 0)
(-6.09614079e-12 0 0)
(-5.81918498e-12 0 0)
(-5.95321453e-12 0 0)
(-5.8617359e-12 0 0)
(-6.00759661e-12 0 0)
(-7.17425839e-12 0 0)
(-5.37045468e-12 0 0)
(-6.46197739e-12 0 0)
(-6.61719313e-12 0 0)
(-7.69720444e-12 0 0)
(-5.68309095e-12 0 0)
(-6.32875668e-12 0 0)
(-6.10734782e-12 0 0)
(-5.59184419e-12 0 0)
(-6.68883953e-12 0 0)
(-6.95756028e-12 0 0)
(-6.96770101e-12 0 0)
(-6.16675525e-12 0 0)
(-6.19131643e-12 0 0)
(-6.98417054e-12 0 0)
(-7.53574776e-12 0 0)
(-6.53377188e-12 0 0)
(-6.68694488e-12 0 0)
(-6.76134907e-12 0 0)
(-7.33201e-12 0 0)
(-8.1981996e-12 0 0)
(-8.00991957e-12 0 0)
(-7.61644914e-12 0 0)
(-7.24694493e-12 0 0)
(-7.87109388e-12 0 0)
(-7.48595109e-12 0 0)
(-8.56005564e-12 0 0)
(-7.16341947e-12 0 0)
(-7.47487252e-12 0 0)
(-8.41966361e-12 0 0)
(-7.00753182e-12 0 0)
(-8.09719813e-12 0 0)
(-7.69203437e-12 0 0)
(-7.79925796e-12 0 0)
(-9.03251122e-12 0 0)
(-9.35331389e-12 0 0)
(-7.86420926e-12 0 0)
(-8.41154092e-12 0 0)
(-8.80185648e-12 0 0)
(-7.36396513e-12 0 0)
(-8.57908241e-12 0 0)
(-7.83784726e-12 0 0)
(-8.2047516e-12 0 0)
(-8.52295499e-12 0 0)
(-8.81629314e-12 0 0)
(-7.75266004e-12 0 0)
(-8.4904589e-12 0 0)
(-8.21347232e-12 0 0)
(-8.4954834e-12 0 0)
(-8.60489416e-12 0 0)
(-7.78416192e-12 0 0)
(-8.18483625e-12 0 0)
(-7.38539351e-12 0 0)
(-7.66034586e-12 0 0)
(-8.35088532e-12 0 0)
(-7.96945626e-12 0 0)
(-7.78614686e-12 0 0)
(-7.79995e-12 0 0)
(-9.0325485e-12 0 0)
(-7.36297421e-12 0 0)
(-8.04194172e-12 0 0)
(-8.26906881e-12 0 0)
(-8.09629591e-12 0 0)
(-8.57347167e-12 0 0)
(-8.45982734e-12 0 0)
(-8.04643785e-12 0 0)
(-8.92157703e-12 0 0)
(-9.31389615e-12 0 0)
(-8.21330114e-12 0 0)
(-8.70209968e-12 0 0)
(-8.73558443e-12 0 0)
(-9.71055081e-12 0 0)
(-9.77273904e-12 0 0)
(-8.05424581e-12 0 0)
(-8.18766758e-12 0 0)
(-9.23482243e-12 0 0)
(-8.93164178e-12 0 0)
(-9.24282276e-12 0 0)
(-9.89036948e-12 0 0)
(-9.26434142e-12 0 0)
(-1.00836529e-11 0 0)
(-9.34728345e-12 0 0)
(-8.82096977e-12 0 0)
(-8.89716062e-12 0 0)
(-9.23681479e-12 0 0)
(-9.40674398e-12 0 0)
(-1.02488686e-11 0 0)
(-1.00863533e-11 0 0)
(-1.00163736e-11 0 0)
(-1.06959344e-11 0 0)
(-1.03541914e-11 0 0)
(-1.10592548e-11 0 0)
(-1.08074064e-11 0 0)
(-1.08285653e-11 0 0)
(-1.11806363e-11 0 0)
(-1.09383106e-11 0 0)
(-1.01598364e-11 0 0)
(-9.95631754e-12 0 0)
(-1.04472492e-11 0 0)
(-1.13492096e-11 0 0)
(-1.05969821e-11 0 0)
(-1.12175529e-11 0 0)
(-1.16884257e-11 0 0)
(-1.18862992e-11 0 0)
(-1.17136058e-11 0 0)
(-1.16537445e-11 0 0)
(-1.16089139e-11 0 0)
(-1.12416803e-11 0 0)
(-1.19405339e-11 0 0)
(-1.23052328e-11 0 0)
(-1.26844159e-11 0 0)
(-1.29213618e-11 0 0)
(-1.43386752e-11 0 0)
(-1.23458263e-11 0 0)
(-1.34511448e-11 0 0)
(-1.37525691e-11 0 0)
(-1.38711784e-11 0 0)
(-1.31185885e-11 0 0)
(-1.38928704e-11 0 0)
(-1.27665009e-11 0 0)
(-1.33384184e-11 0 0)
(-1.35628142e-11 0 0)
(-1.35260082e-11 0 0)
(-1.36933834e-11 0 0)
(-1.38100132e-11 0 0)
(-1.26972255e-11 0 0)
(-1.40971933e-11 0 0)
(-1.42815011e-11 0 0)
(-1.40587577e-11 0 0)
(-1.27321668e-11 0 0)
(-1.38402797e-11 0 0)
(-1.50426627e-11 0 0)
(-1.43343834e-11 0 0)
(-1.39203809e-11 0 0)
(-1.34001903e-11 0 0)
(-1.44816338e-11 0 0)
(-1.32077727e-11 0 0)
(-1.33111322e-11 0 0)
(-1.42436033e-11 0 0)
(-1.44845927e-11 0 0)
(-1.3933693e-11 0 0)
(-1.41816376e-11 0 0)
(-1.38417318e-11 0 0)
(-1.52920051e-11 0 0)
(-1.37632309e-11 0 0)
(-1.43291521e-11 0 0)
(-1.48527287e-11 0 0)
(-1.37308448e-11 0 0)
(-1.4323103e-11 0 0)
(-1.51121541e-11 0 0)
(-1.49188665e-11 0 0)
(-1.50990043e-11 0 0)
(-1.42366306e-11 0 0)
(-1.4681973e-11 0 0)
(-1.54459467e-11 0 0)
(-1.53453568e-11 0 0)
(-1.44976866e-11 0 0)
(-1.50970799e-11 0 0)
(-1.56620307e-11 0 0)
(-1.43359537e-11 0 0)
(-1.48789268e-11 0 0)
(-1.46685073e-11 0 0)
(-1.39720298e-11 0 0)
(-1.37996796e-11 0 0)
(-1.45175093e-11 0 0)
(-1.41640634e-11 0 0)
(-1.63641534e-11 0 0)
(-1.49881067e-11 0 0)
(-1.40749329e-11 0 0)
(-1.52975253e-11 0 0)
(-1.46629726e-11 0 0)
(-1.434968e-11 0 0)
(-1.50914658e-11 0 0)
(-1.49501419e-11 0 0)
(-1.53918315e-11 0 0)
(-1.48482193e-11 0 0)
(-1.57797162e-11 0 0)
(-1.48060676e-11 0 0)
(-1.50724706e-11 0 0)
(-1.51377839e-11 0 0)
(-1.38652551e-11 0 0)
(-1.58272453e-11 0 0)
(-1.45374321e-11 0 0)
(-1.3953561e-11 0 0)
(-1.32640987e-11 0 0)
(-1.50705893e-11 0 0)
(-1.40952215e-11 0 0)
(-1.59226788e-11 0 0)
(-1.48440405e-11 0 0)
(-1.44279508e-11 0 0)
(-1.46757365e-11 0 0)
(-1.52187802e-11 0 0)
(-1.51824685e-11 0 0)
(-1.38513739e-11 0 0)
(-1.49276116e-11 0 0)
(-1.51213689e-11 0 0)
(-1.59067904e-11 0 0)
(-1.42542788e-11 0 0)
(-1.46639894e-11 0 0)
(-1.50045859e-11 0 0)
(-1.39841895e-11 0 0)
(-1.53073616e-11 0 0)
(-1.50065055e-11 0 0)
(-1.44233556e-11 0 0)
(-1.37014126e-11 0 0)
(-1.50244691e-11 0 0)
(-1.48618903e-11 0 0)
(-1.4830648e-11 0 0)
(-1.53856657e-11 0 0)
(-1.46763966e-11 0 0)
(-1.33453229e-11 0 0)
(-1.44378915e-11 0 0)
(-1.46109154e-11 0 0)
(-1.45400479e-11 0 0)
(-1.33313619e-11 0 0)
(-1.45550052e-11 0 0)
(-1.40840615e-11 0 0)
(-1.50709574e-11 0 0)
(-1.44957643e-11 0 0)
(-1.42342521e-11 0 0)
(-1.35575179e-11 0 0)
(-1.4543113e-11 0 0)
(-1.35804807e-11 0 0)
(-1.27749685e-11 0 0)
(-1.34544863e-11 0 0)
(-1.41085718e-11 0 0)
(-1.3864755e-11 0 0)
(-1.33024571e-11 0 0)
(-1.44015605e-11 0 0)
(-1.36674289e-11 0 0)
(-1.37173956e-11 0 0)
(-1.3512619e-11 0 0)
(-1.36276098e-11 0 0)
(-1.3729461e-11 0 0)
(-1.29546597e-11 0 0)
(-1.34330077e-11 0 0)
(-1.23417725e-11 0 0)
(-1.23234396e-11 0 0)
(-1.2110915e-11 0 0)
(-1.21445157e-11 0 0)
(-1.27180532e-11 0 0)
(-1.22327354e-11 0 0)
(-1.15849549e-11 0 0)
(-1.16738088e-11 0 0)
(-1.1509272e-11 0 0)
(-1.12065886e-11 0 0)
(-1.08787891e-11 0 0)
(-1.19051424e-11 0 0)
(-1.03663819e-11 0 0)
(-1.09925574e-11 0 0)
(-1.01549368e-11 0 0)
(-1.095307e-11 0 0)
(-9.92522083e-12 0 0)
(-1.1493832e-11 0 0)
(-1.02007002e-11 0 0)
(-9.35926199e-12 0 0)
(-9.94096426e-12 0 0)
(-1.11210887e-11 0 0)
(-1.03528964e-11 0 0)
(-1.04236181e-11 0 0)
(-1.07961424e-11 0 0)
(-9.9867935e-12 0 0)
(-9.87290407e-12 0 0)
(-1.08131442e-11 0 0)
(-9.86182358e-12 0 0)
(-8.58494524e-12 0 0)
(-9.49207409e-12 0 0)
(-1.03269953e-11 0 0)
(-1.02354731e-11 0 0)
(-1.01672961e-11 0 0)
(-9.47657348e-12 0 0)
(-9.40214684e-12 0 0)
(-9.10285747e-12 0 0)
(-9.77729488e-12 0 0)
(-1.05869754e-11 0 0)
(-1.04808338e-11 0 0)
(-1.02576862e-11 0 0)
(-9.49204196e-12 0 0)
(-9.96034962e-12 0 0)
(-8.65849643e-12 0 0)
(-9.4204705e-12 0 0)
(-1.06718346e-11 0 0)
(-9.48244206e-12 0 0)
(-9.38839414e-12 0 0)
(-9.4771041e-12 0 0)
(-8.88936721e-12 0 0)
(-1.01451912e-11 0 0)
(-8.96499994e-12 0 0)
(-7.86880398e-12 0 0)
(-7.84377542e-12 0 0)
(-8.63215915e-12 0 0)
(-9.06822236e-12 0 0)
(-8.34862698e-12 0 0)
(-7.94119358e-12 0 0)
(-7.48793893e-12 0 0)
(-8.74274933e-12 0 0)
(-7.80356107e-12 0 0)
(-8.43076889e-12 0 0)
(-8.18344305e-12 0 0)
(-8.04744229e-12 0 0)
(-8.1358252e-12 0 0)
(-7.0618345e-12 0 0)
(-7.10425667e-12 0 0)
(-7.81098355e-12 0 0)
(-7.88986641e-12 0 0)
(-6.57308016e-12 0 0)
(-6.70895229e-12 0 0)
(-6.42153574e-12 0 0)
(-6.75265354e-12 0 0)
(-5.46702394e-12 0 0)
(-6.59060595e-12 0 0)
(-6.99082455e-12 0 0)
(-5.80534417e-12 0 0)
(-5.67290995e-12 0 0)
(-6.37804428e-12 0 0)
(-5.79621177e-12 0 0)
(-5.50824972e-12 0 0)
(-5.3470763e-12 0 0)
(-5.78906416e-12 0 0)
(-5.55531302e-12 0 0)
(-4.48680709e-12 0 0)
(-4.76956673e-12 0 0)
(-4.374424e-12 0 0)
(-5.14369576e-12 0 0)
(-4.50152798e-12 0 0)
(-5.80365418e-12 0 0)
(-5.96541941e-12 0 0)
(-5.68411812e-12 0 0)
(-5.28515675e-12 0 0)
(-5.6084141e-12 0 0)
(-5.75021621e-12 0 0)
(-5.35085257e-12 0 0)
(-5.11045033e-12 0 0)
(-4.92155096e-12 0 0)
(-5.15382652e-12 0 0)
(-4.56353062e-12 0 0)
(-4.5035798e-12 0 0)
(-5.70326496e-12 0 0)
(-5.56385268e-12 0 0)
(-5.4875074e-12 0 0)
(-5.45527002e-12 0 0)
(-5.33536001e-12 0 0)
(-6.07257599e-12 0 0)
(-4.74002745e-12 0 0)
(-6.14537117e-12 0 0)
(-6.20432418e-12 0 0)
(-5.3120141e-12 0 0)
(-6.21010364e-12 0 0)
(-5.39809595e-12 0 0)
(-6.96359344e-12 0 0)
(-5.69397879e-12 0 0)
(-6.25503875e-12 0 0)
(-5.11529842e-12 0 0)
(-5.13681291e-12 0 0)
(-4.79902407e-12 0 0)
(-5.8796934e-12 0 0)
(-5.41057046e-12 0 0)
(-5.07828698e-12 0 0)
(-4.47718636e-12 0 0)
(-5.75383722e-12 0 0)
(-3.66758497e-12 0 0)
(-4.51167452e-12 0 0)
(-3.93256734e-12 0 0)
(-4.17245032e-12 0 0)
(-4.02573552e-12 0 0)
(-4.32590652e-12 0 0)
(-4.66544129e-12 0 0)
(-4.08301697e-12 0 0)
(-4.0101509e-12 0 0)
(-4.4812218e-12 0 0)
(-4.54487088e-12 0 0)
(-4.40657185e-12 0 0)
(-3.91039172e-12 0 0)
(-4.44285371e-12 0 0)
(-5.54858035e-12 0 0)
(-2.97746639e-12 0 0)
(-4.29007075e-12 0 0)
(-3.83511762e-12 0 0)
(-2.68840362e-12 0 0)
(-3.30322525e-12 0 0)
(-3.40256474e-12 0 0)
(-3.13502482e-12 0 0)
(-4.0544284e-12 0 0)
(-2.8935183e-12 0 0)
(-2.22286753e-12 0 0)
(-2.41572967e-12 0 0)
(-2.37145764e-12 0 0)
(-1.4409449e-12 0 0)
(-2.29305668e-12 0 0)
(-1.84726297e-12 0 0)
(-1.32542128e-12 0 0)
(-1.43320645e-12 0 0)
(-1.4698127e-12 0 0)
(-1.07502965e-12 0 0)
(-5.98928273e-13 0 0)
(-1.72133771e-12 0 0)
(-6.5116286e-13 0 0)
(-4.79342687e-13 0 0)
(-1.59879891e-12 0 0)
(-1.27570436e-12 0 0)
(-4.08805783e-13 0 0)
(1.50996951e-13 0 0)
(5.50503637e-14 0 0)
(-1.75099824e-13 0 0)
(-7.25012172e-13 0 0)
(7.12850627e-13 0 0)
(2.61476292e-13 0 0)
(1.66762841e-13 0 0)
(7.08624937e-13 0 0)
(-4.82020146e-13 0 0)
(-8.45091625e-13 0 0)
(-1.33148785e-12 0 0)
(-6.20439742e-14 0 0)
(-8.42401304e-13 0 0)
(-1.19039592e-12 0 0)
(3.16865705e-13 0 0)
(2.71812808e-13 0 0)
(5.29291655e-13 0 0)
(1.0421792e-12 0 0)
(3.38835616e-13 0 0)
(-3.73052375e-13 0 0)
(-8.70109426e-13 0 0)
(8.79099287e-13 0 0)
(9.99303731e-13 0 0)
(1.26654242e-12 0 0)
(-6.44063041e-13 0 0)
(-2.19537225e-13 0 0)
(9.67189662e-13 0 0)
(-1.7115405e-13 0 0)
(6.87239654e-13 0 0)
(2.44260782e-13 0 0)
(1.22604832e-12 0 0)
(1.4334677e-12 0 0)
(1.32472519e-12 0 0)
(1.36469567e-12 0 0)
(1.52559903e-12 0 0)
(3.11134122e-12 0 0)
(2.95961956e-12 0 0)
(1.5767036e-12 0 0)
(2.22917416e-12 0 0)
(3.23759445e-12 0 0)
(3.02537985e-12 0 0)
(2.81985048e-12 0 0)
(3.02188945e-12 0 0)
(3.13922905e-12 0 0)
(2.48736378e-12 0 0)
(2.39204455e-12 0 0)
(3.21372096e-12 0 0)
(2.80969147e-12 0 0)
(3.55835519e-12 0 0)
(2.26456286e-12 0 0)
(2.26458963e-12 0 0)
(2.8946382e-12 0 0)
(2.84755256e-12 0 0)
(2.89569928e-12 0 0)
(2.81722266e-12 0 0)
(3.24963789e-12 0 0)
(2.16212025e-12 0 0)
(2.72429524e-12 0 0)
(1.79605378e-12 0 0)
(1.99715065e-12 0 0)
(2.24037507e-12 0 0)
(1.78554222e-12 0 0)
(2.08301679e-12 0 0)
(2.00061744e-12 0 0)
(2.58483785e-12 0 0)
(2.00183962e-12 0 0)
(3.47418335e-12 0 0)
(2.30771624e-12 0 0)
(3.33128325e-12 0 0)
(3.25500656e-12 0 0)
(2.56921063e-12 0 0)
(2.4548966e-12 0 0)
(3.93202895e-12 0 0)
(3.51587237e-12 0 0)
(3.87456283e-12 0 0)
(3.18779872e-12 0 0)
(3.33994241e-12 0 0)
(3.86393842e-12 0 0)
(4.11460609e-12 0 0)
(4.26706185e-12 0 0)
(3.76730624e-12 0 0)
(3.6775874e-12 0 0)
(3.60028436e-12 0 0)
(3.66277433e-12 0 0)
(4.29858217e-12 0 0)
(4.59087127e-12 0 0)
(3.90180499e-12 0 0)
(4.7696991e-12 0 0)
(4.61241248e-12 0 0)
(3.7186756e-12 0 0)
(4.15257319e-12 0 0)
(4.94005242e-12 0 0)
(3.87963968e-12 0 0)
(4.80450962e-12 0 0)
(4.68550368e-12 0 0)
(4.99525832e-12 0 0)
(5.19090881e-12 0 0)
(5.2259951e-12 0 0)
(5.7983284e-12 0 0)
(6.06767771e-12 0 0)
(5.87066397e-12 0 0)
(4.64697885e-12 0 0)
(6.13343212e-12 0 0)
(6.17047832e-12 0 0)
(6.42978873e-12 0 0)
(5.29759139e-12 0 0)
(6.00305946e-12 0 0)
(4.73921997e-12 0 0)
(4.71681208e-12 0 0)
(4.72808045e-12 0 0)
(5.79442005e-12 0 0)
(5.18371985e-12 0 0)
(4.56087853e-12 0 0)
(4.50450708e-12 0 0)
(4.9056219e-12 0 0)
(5.22191195e-12 0 0)
(5.64941192e-12 0 0)
(5.79246407e-12 0 0)
(5.74600305e-12 0 0)
(6.59694207e-12 0 0)
(5.339896e-12 0 0)
(5.82174516e-12 0 0)
(6.17857564e-12 0 0)
(5.19643984e-12 0 0)
(4.40659644e-12 0 0)
(5.03580079e-12 0 0)
(5.074233e-12 0 0)
(5.00035101e-12 0 0)
(5.54090086e-12 0 0)
(5.78460578e-12 0 0)
(5.49507642e-12 0 0)
(6.56584486e-12 0 0)
(6.58468181e-12 0 0)
(6.4055163e-12 0 0)
(7.0499583e-12 0 0)
(6.9121119e-12 0 0)
(6.07705671e-12 0 0)
(7.15113121e-12 0 0)
(6.30110909e-12 0 0)
(6.97414862e-12 0 0)
(6.5505242e-12 0 0)
(6.45299873e-12 0 0)
(6.80088098e-12 0 0)
(5.97780478e-12 0 0)
(6.09818554e-12 0 0)
(6.23176479e-12 0 0)
(6.65012346e-12 0 0)
(6.16275075e-12 0 0)
(6.74619135e-12 0 0)
(6.28752297e-12 0 0)
(5.67560767e-12 0 0)
(6.58052734e-12 0 0)
(6.49737873e-12 0 0)
(6.14876326e-12 0 0)
(6.96686113e-12 0 0)
(7.09235374e-12 0 0)
(6.39028377e-12 0 0)
(7.13136838e-12 0 0)
(6.73617972e-12 0 0)
(7.58471338e-12 0 0)
(6.09460335e-12 0 0)
(6.90571755e-12 0 0)
(6.67396975e-12 0 0)
(6.62671526e-12 0 0)
(6.2641894e-12 0 0)
(6.21784043e-12 0 0)
(6.26733555e-12 0 0)
(6.98364381e-12 0 0)
(6.13950395e-12 0 0)
(6.500716e-12 0 0)
(6.10082943e-12 0 0)
(7.20927991e-12 0 0)
(6.59659297e-12 0 0)
(6.83331289e-12 0 0)
(5.36506066e-12 0 0)
(5.77401681e-12 0 0)
(5.4703447e-12 0 0)
(6.34171465e-12 0 0)
(5.3326254e-12 0 0)
(5.78426866e-12 0 0)
(4.82249764e-12 0 0)
(5.05565196e-12 0 0)
(5.6206465e-12 0 0)
(5.56320566e-12 0 0)
(5.27778352e-12 0 0)
(5.24128471e-12 0 0)
(5.39630455e-12 0 0)
(5.92883161e-12 0 0)
(5.30528425e-12 0 0)
(6.04622819e-12 0 0)
(5.46064913e-12 0 0)
(5.6970926e-12 0 0)
(5.49336049e-12 0 0)
(6.58751448e-12 0 0)
(6.15497721e-12 0 0)
(5.57648459e-12 0 0)
(6.4653897e-12 0 0)
(5.84327516e-12 0 0)
(6.15025432e-12 0 0)
(5.68031838e-12 0 0)
(6.40407378e-12 0 0)
(5.58455816e-12 0 0)
(7.14077757e-12 0 0)
(5.72302524e-12 0 0)
(6.63106423e-12 0 0)
(7.39319435e-12 0 0)
(6.22147366e-12 0 0)
(6.98036029e-12 0 0)
(5.77426773e-12 0 0)
(6.24080651e-12 0 0)
(6.10561379e-12 0 0)
(6.46886044e-12 0 0)
(6.21161054e-12 0 0)
(5.4432369e-12 0 0)
(4.98734503e-12 0 0)
(4.76465417e-12 0 0)
(5.84059278e-12 0 0)
(5.53884601e-12 0 0)
(5.43410785e-12 0 0)
(6.30309625e-12 0 0)
(6.15231632e-12 0 0)
(5.94973299e-12 0 0)
(7.31921193e-12 0 0)
(5.85927412e-12 0 0)
(5.45064043e-12 0 0)
(6.47278268e-12 0 0)
(5.11724196e-12 0 0)
(5.59225857e-12 0 0)
(6.06891149e-12 0 0)
(5.74110726e-12 0 0)
(5.40752991e-12 0 0)
(6.23579597e-12 0 0)
(6.67600512e-12 0 0)
(6.8138188e-12 0 0)
(6.61626121e-12 0 0)
(6.63658659e-12 0 0)
(6.38790314e-12 0 0)
(6.45115364e-12 0 0)
(5.86173724e-12 0 0)
(7.15829461e-12 0 0)
(6.51044899e-12 0 0)
(6.77004582e-12 0 0)
(5.90994144e-12 0 0)
(5.75750284e-12 0 0)
(5.4576849e-12 0 0)
(6.23882805e-12 0 0)
(5.49811089e-12 0 0)
(5.36146283e-12 0 0)
(5.7120479e-12 0 0)
(5.73110112e-12 0 0)
(6.25830543e-12 0 0)
(5.98375628e-12 0 0)
(6.04852474e-12 0 0)
(5.20958571e-12 0 0)
(4.94103867e-12 0 0)
(6.83304782e-12 0 0)
(6.17917016e-12 0 0)
(6.34441795e-12 0 0)
(5.81241612e-12 0 0)
(5.83420271e-12 0 0)
(5.99293903e-12 0 0)
(6.07511304e-12 0 0)
(5.87372131e-12 0 0)
(6.33543743e-12 0 0)
(5.21453767e-12 0 0)
(5.66859913e-12 0 0)
(5.21410009e-12 0 0)
(5.09036332e-12 0 0)
(4.99544986e-12 0 0)
(5.00974913e-12 0 0)
(6.06209071e-12 0 0)
(5.69459458e-12 0 0)
(5.87397321e-12 0 0)
(6.17175729e-12 0 0)
(6.3385673e-12 0 0)
(4.7792529e-12 0 0)
(6.99344219e-12 0 0)
(7.4787318e-12 0 0)
(6.21870252e-12 0 0)
(6.29504921e-12 0 0)
(6.89407888e-12 0 0)
(6.29275754e-12 0 0)
(7.43528396e-12 0 0)
(5.41302499e-12 0 0)
(6.51900233e-12 0 0)
(6.33338582e-12 0 0)
(7.82150005e-12 0 0)
(6.54447023e-12 0 0)
(7.46160973e-12 0 0)
(6.81294063e-12 0 0)
(6.46791664e-12 0 0)
(6.91241481e-12 0 0)
(6.92329467e-12 0 0)
(6.32443359e-12 0 0)
(7.34577602e-12 0 0)
(7.37900417e-12 0 0)
(7.61300094e-12 0 0)
(6.64748655e-12 0 0)
(8.59884059e-12 0 0)
(8.53695648e-12 0 0)
(7.56287618e-12 0 0)
(8.70001049e-12 0 0)
(9.33972464e-12 0 0)
(8.34685153e-12 0 0)
(7.35443507e-12 0 0)
(7.12120366e-12 0 0)
(9.04565717e-12 0 0)
(8.40579226e-12 0 0)
(8.15725689e-12 0 0)
(7.82162185e-12 0 0)
(7.74030124e-12 0 0)
(9.0312761e-12 0 0)
(7.90445343e-12 0 0)
(8.33957285e-12 0 0)
(7.45159299e-12 0 0)
(8.54383116e-12 0 0)
(7.91827807e-12 0 0)
(8.66083913e-12 0 0)
(7.35182986e-12 0 0)
(7.10171515e-12 0 0)
(8.6187068e-12 0 0)
(7.36344319e-12 0 0)
(7.3203396e-12 0 0)
(7.48305729e-12 0 0)
(7.84255488e-12 0 0)
(8.21983265e-12 0 0)
(7.04913486e-12 0 0)
(8.41107841e-12 0 0)
(7.62864281e-12 0 0)
(7.94586011e-12 0 0)
(7.28706656e-12 0 0)
(7.29373257e-12 0 0)
(7.45411083e-12 0 0)
(7.75789379e-12 0 0)
(7.52911454e-12 0 0)
(7.37296175e-12 0 0)
(6.99703535e-12 0 0)
(8.35516137e-12 0 0)
(7.22853722e-12 0 0)
(7.49558306e-12 0 0)
(6.74914888e-12 0 0)
(7.01724245e-12 0 0)
(7.29956479e-12 0 0)
(7.28426627e-12 0 0)
(7.81625832e-12 0 0)
(7.76933563e-12 0 0)
(7.99878684e-12 0 0)
(7.52309681e-12 0 0)
(7.09362842e-12 0 0)
(6.95279851e-12 0 0)
(8.5848644e-12 0 0)
(8.07146602e-12 0 0)
(7.5385194e-12 0 0)
(8.15070859e-12 0 0)
(8.75694757e-12 0 0)
(7.76684114e-12 0 0)
(7.25116771e-12 0 0)
(8.65839183e-12 0 0)
(6.52573471e-12 0 0)
(6.90253474e-12 0 0)
(7.69544401e-12 0 0)
(7.64750866e-12 0 0)
(7.21714506e-12 0 0)
(7.02055081e-12 0 0)
(8.70273616e-12 0 0)
(7.9103823e-12 0 0)
(7.40890094e-12 0 0)
(8.18755199e-12 0 0)
(7.34101786e-12 0 0)
(7.77218904e-12 0 0)
(7.75705309e-12 0 0)
(6.81068622e-12 0 0)
(8.13327358e-12 0 0)
(8.05526684e-12 0 0)
(7.4624602e-12 0 0)
(7.38318775e-12 0 0)
(7.92756998e-12 0 0)
(8.82730302e-12 0 0)
(7.57983071e-12 0 0)
(8.22170655e-12 0 0)
(7.82105958e-12 0 0)
(9.04220108e-12 0 0)
(8.58810665e-12 0 0)
(8.32057076e-12 0 0)
(9.16419133e-12 0 0)
(8.56816844e-12 0 0)
(8.85552146e-12 0 0)
(7.61165689e-12 0 0)
(8.17723613e-12 0 0)
(8.99243627e-12 0 0)
(8.26368218e-12 0 0)
(9.16929436e-12 0 0)
(8.34585232e-12 0 0)
(9.11010189e-12 0 0)
(8.88409375e-12 0 0)
(8.63309397e-12 0 0)
(8.36187153e-12 0 0)
(9.33271753e-12 0 0)
(9.58048488e-12 0 0)
(8.66159087e-12 0 0)
(9.43432905e-12 0 0)
(9.54279887e-12 0 0)
(8.40753233e-12 0 0)
(9.58151907e-12 0 0)
(8.91149288e-12 0 0)
(9.7498976e-12 0 0)
(8.57716592e-12 0 0)
(8.38440612e-12 0 0)
(8.54790553e-12 0 0)
(8.58981864e-12 0 0)
(9.63997612e-12 0 0)
(9.30682678e-12 0 0)
(9.30404089e-12 0 0)
(9.80006684e-12 0 0)
(8.60120977e-12 0 0)
(8.87479035e-12 0 0)
(9.67708956e-12 0 0)
(9.48017352e-12 0 0)
(8.6322927e-12 0 0)
(9.29994049e-12 0 0)
(8.64767861e-12 0 0)
(1.02036032e-11 0 0)
(8.77628782e-12 0 0)
(8.47504895e-12 0 0)
(8.72822504e-12 0 0)
(8.60058867e-12 0 0)
(7.76850882e-12 0 0)
(8.22350434e-12 0 0)
(9.60551149e-12 0 0)
(8.61923325e-12 0 0)
(8.52144392e-12 0 0)
(8.44936896e-12 0 0)
(9.92219285e-12 0 0)
(8.942752e-12 0 0)
(8.57862105e-12 0 0)
(7.84176758e-12 0 0)
(8.33146315e-12 0 0)
(8.79137173e-12 0 0)
(7.66167194e-12 0 0)
(7.49146636e-12 0 0)
(7.70322766e-12 0 0)
(7.77480664e-12 0 0)
(7.98189816e-12 0 0)
(7.33439139e-12 0 0)
(8.11958912e-12 0 0)
(7.60016577e-12 0 0)
(8.64708285e-12 0 0)
(8.04339489e-12 0 0)
(8.63527332e-12 0 0)
(8.26271883e-12 0 0)
(7.48989708e-12 0 0)
(7.91009421e-12 0 0)
(7.65578113e-12 0 0)
(7.6711058e-12 0 0)
(7.37602103e-12 0 0)
(7.52825587e-12 0 0)
(7.67192097e-12 0 0)
(7.18812589e-12 0 0)
(7.6235857e-12 0 0)
(7.86919472e-12 0 0)
(7.0339269e-12 0 0)
(6.77751743e-12 0 0)
(5.48560819e-12 0 0)
(6.48764183e-12 0 0)
(5.86974269e-12 0 0)
(6.19280018e-12 0 0)
(6.26563192e-12 0 0)
(6.84301586e-12 0 0)
(4.87973217e-12 0 0)
(5.5768059e-12 0 0)
(5.89629289e-12 0 0)
(6.064964e-12 0 0)
(5.10577688e-12 0 0)
(5.54049199e-12 0 0)
(4.19236598e-12 0 0)
(4.92725895e-12 0 0)
(4.63988429e-12 0 0)
(3.69460579e-12 0 0)
(4.72503853e-12 0 0)
(3.77029096e-12 0 0)
(3.57103979e-12 0 0)
(3.75109178e-12 0 0)
(4.61234864e-12 0 0)
(4.83445383e-12 0 0)
(3.2747741e-12 0 0)
(3.7835447e-12 0 0)
(2.74129856e-12 0 0)
(2.89559472e-12 0 0)
(2.54859323e-12 0 0)
(2.89227306e-12 0 0)
(2.9672621e-12 0 0)
(2.2473078e-12 0 0)
(2.88252058e-12 0 0)
(2.34294052e-12 0 0)
(3.03878727e-12 0 0)
(2.56067716e-12 0 0)
(2.97232157e-12 0 0)
(2.40284666e-12 0 0)
(2.12184514e-12 0 0)
(2.9652963e-12 0 0)
(1.17882983e-12 0 0)
(2.26317443e-12 0 0)
(1.83934558e-12 0 0)
(2.03106167e-12 0 0)
(1.51454829e-12 0 0)
(1.97455837e-12 0 0)
(1.74618796e-12 0 0)
(1.83271428e-12 0 0)
(6.96350316e-13 0 0)
(1.35316603e-12 0 0)
(8.41829598e-13 0 0)
(8.68151925e-13 0 0)
(1.927251e-12 0 0)
(5.74067865e-13 0 0)
(1.52831635e-12 0 0)
(2.15896628e-12 0 0)
(1.76641148e-12 0 0)
(1.80374442e-12 0 0)
(1.5339985e-12 0 0)
(2.90867268e-12 0 0)
(2.34017128e-12 0 0)
(1.54009353e-12 0 0)
(1.72179186e-12 0 0)
(1.63728044e-12 0 0)
(1.25848255e-12 0 0)
(1.91510015e-12 0 0)
(1.92879582e-12 0 0)
(1.56144251e-12 0 0)
(1.26059236e-12 0 0)
(1.29649441e-12 0 0)
(1.4214902e-12 0 0)
(1.67534766e-12 0 0)
(1.73266124e-12 0 0)
(1.1598383e-12 0 0)
(1.25234782e-12 0 0)
(2.72064985e-13 0 0)
(9.39533201e-13 0 0)
(1.23904314e-12 0 0)
(4.25487829e-13 0 0)
(7.33408414e-13 0 0)
(3.41287162e-13 0 0)
(-8.19101366e-13 0 0)
(5.04432384e-13 0 0)
(1.81403611e-13 0 0)
(-2.44191929e-13 0 0)
(-4.64219051e-14 0 0)
(1.07151208e-12 0 0)
(5.24378109e-13 0 0)
(2.11354884e-13 0 0)
(4.61444007e-13 0 0)
(-8.77063988e-13 0 0)
(-3.05527069e-13 0 0)
(-1.28328204e-12 0 0)
(-1.03412347e-12 0 0)
(-3.14894144e-13 0 0)
(-5.69790339e-13 0 0)
(-1.45241755e-12 0 0)
(-1.2719332e-12 0 0)
(-1.09831244e-12 0 0)
(-1.94883539e-12 0 0)
(-1.53100296e-12 0 0)
(-2.73483646e-12 0 0)
(-2.43311626e-12 0 0)
(-3.43335488e-12 0 0)
(-2.43689412e-12 0 0)
(-2.70762275e-12 0 0)
(-2.38692763e-12 0 0)
(-2.92070767e-12 0 0)
(-2.97701718e-12 0 0)
(-3.50549086e-12 0 0)
(-3.0581223e-12 0 0)
(-3.07086754e-12 0 0)
(-4.13338821e-12 0 0)
(-3.06586977e-12 0 0)
(-3.88152091e-12 0 0)
(-3.65857288e-12 0 0)
(-3.66562019e-12 0 0)
(-4.19808041e-12 0 0)
(-4.4557965e-12 0 0)
(-4.00680924e-12 0 0)
(-5.30116364e-12 0 0)
(-5.013385e-12 0 0)
(-4.57087828e-12 0 0)
(-4.79999063e-12 0 0)
(-4.87675553e-12 0 0)
(-4.83936373e-12 0 0)
(-4.441812e-12 0 0)
(-3.99798159e-12 0 0)
(-4.65722235e-12 0 0)
(-4.40302153e-12 0 0)
(-4.64000912e-12 0 0)
(-5.0919611e-12 0 0)
(-5.69765437e-12 0 0)
(-5.09193429e-12 0 0)
(-4.03153364e-12 0 0)
(-5.43291944e-12 0 0)
(-4.93884869e-12 0 0)
(-3.4023936e-12 0 0)
(-4.00956767e-12 0 0)
(-4.52685488e-12 0 0)
(-4.97857545e-12 0 0)
(-4.27317755e-12 0 0)
(-4.28124918e-12 0 0)
(-4.85318326e-12 0 0)
(-4.09881837e-12 0 0)
(-4.32883496e-12 0 0)
(-3.84235033e-12 0 0)
(-3.48741252e-12 0 0)
(-3.63298837e-12 0 0)
(-2.85370982e-12 0 0)
(-2.99322509e-12 0 0)
(-3.21458204e-12 0 0)
(-3.65471111e-12 0 0)
(-3.3263817e-12 0 0)
(-3.70093597e-12 0 0)
(-2.96183408e-12 0 0)
(-3.46945968e-12 0 0)
(-3.34069925e-12 0 0)
(-3.39794655e-12 0 0)
(-3.42101208e-12 0 0)
(-4.218493e-12 0 0)
(-4.28172133e-12 0 0)
(-4.25716097e-12 0 0)
(-4.26288819e-12 0 0)
(-4.79527767e-12 0 0)
(-5.60046403e-12 0 0)
(-4.95334535e-12 0 0)
(-4.66162972e-12 0 0)
(-4.88062066e-12 0 0)
(-4.49261129e-12 0 0)
(-4.94503671e-12 0 0)
(-4.89053477e-12 0 0)
(-4.77365238e-12 0 0)
(-4.46832576e-12 0 0)
(-5.27454468e-12 0 0)
(-5.02444384e-12 0 0)
(-4.83772449e-12 0 0)
(-5.30429672e-12 0 0)
(-5.19144537e-12 0 0)
(-5.69002927e-12 0 0)
(-5.02792041e-12 0 0)
(-5.8572098e-12 0 0)
(-5.77098021e-12 0 0)
(-3.11747048e-12 0 0)
(-5.29678659e-12 0 0)
(-5.93521372e-12 0 0)
(-5.58928741e-12 0 0)
(-5.41688109e-12 0 0)
(-7.69625144e-12 0 0)
(-5.65418705e-12 0 0)
(-5.6000787e-12 0 0)
(-5.86682855e-12 0 0)
(-6.69289753e-12 0 0)
(-5.81083814e-12 0 0)
(-6.48838262e-12 0 0)
(-6.03734523e-12 0 0)
(-6.02078744e-12 0 0)
(-5.89253134e-12 0 0)
(-5.59797406e-12 0 0)
(-5.11600067e-12 0 0)
(-5.36254683e-12 0 0)
(-5.43179935e-12 0 0)
(-6.38246837e-12 0 0)
(-5.34260978e-12 0 0)
(-5.29769101e-12 0 0)
(-6.02472502e-12 0 0)
(-6.46117328e-12 0 0)
(-5.79490132e-12 0 0)
(-5.79584866e-12 0 0)
(-5.39684896e-12 0 0)
(-5.63730892e-12 0 0)
(-5.48993996e-12 0 0)
(-6.18610871e-12 0 0)
(-6.67518158e-12 0 0)
(-6.17333148e-12 0 0)
(-5.75448826e-12 0 0)
(-6.0934728e-12 0 0)
(-5.68425634e-12 0 0)
(-6.00203701e-12 0 0)
(-5.86672208e-12 0 0)
(-6.01504684e-12 0 0)
(-5.74774151e-12 0 0)
(-5.8955997e-12 0 0)
(-6.08336799e-12 0 0)
(-6.06107347e-12 0 0)
(-6.49490001e-12 0 0)
(-6.67919596e-12 0 0)
(-5.7335267e-12 0 0)
(-5.66553018e-12 0 0)
(-6.21716585e-12 0 0)
(-6.43649305e-12 0 0)
(-5.94684669e-12 0 0)
(-6.16324066e-12 0 0)
(-5.45274546e-12 0 0)
(-5.59530148e-12 0 0)
(-5.52094168e-12 0 0)
(-5.82360422e-12 0 0)
(-6.23826395e-12 0 0)
(-5.60579468e-12 0 0)
(-5.36218342e-12 0 0)
(-5.11936952e-12 0 0)
(-5.69365994e-12 0 0)
(-6.07012522e-12 0 0)
(-6.22742045e-12 0 0)
(-5.88762587e-12 0 0)
(-5.70865312e-12 0 0)
(-6.93866707e-12 0 0)
(-6.16069703e-12 0 0)
(-5.52770996e-12 0 0)
(-5.8764442e-12 0 0)
(-6.19722513e-12 0 0)
(-6.45828309e-12 0 0)
(-6.32670588e-12 0 0)
(-6.16470508e-12 0 0)
(-6.68085232e-12 0 0)
(-6.27832208e-12 0 0)
(-6.64521091e-12 0 0)
(-6.5063625e-12 0 0)
(-6.88039838e-12 0 0)
(-8.15451077e-12 0 0)
(-6.9858379e-12 0 0)
(-7.04098077e-12 0 0)
(-6.69692703e-12 0 0)
(-7.02222878e-12 0 0)
(-7.5655868e-12 0 0)
(-8.01420936e-12 0 0)
(-7.99616363e-12 0 0)
(-8.3114997e-12 0 0)
(-7.69336863e-12 0 0)
(-8.73609938e-12 0 0)
(-8.00555302e-12 0 0)
(-7.47301849e-12 0 0)
(-7.45471993e-12 0 0)
(-8.1435567e-12 0 0)
(-7.60287781e-12 0 0)
(-8.54898393e-12 0 0)
(-8.34675248e-12 0 0)
(-8.67661039e-12 0 0)
(-7.95995333e-12 0 0)
(-8.4558904e-12 0 0)
(-9.0276538e-12 0 0)
(-7.93587103e-12 0 0)
(-7.84552454e-12 0 0)
(-9.06225492e-12 0 0)
(-8.36352464e-12 0 0)
(-8.32607515e-12 0 0)
(-8.42858958e-12 0 0)
(-8.89376606e-12 0 0)
(-7.25521456e-12 0 0)
(-7.99922133e-12 0 0)
(-7.7706214e-12 0 0)
(-9.13047194e-12 0 0)
(-8.61006016e-12 0 0)
(-8.98143307e-12 0 0)
(-8.19877862e-12 0 0)
(-8.95512596e-12 0 0)
(-9.47909531e-12 0 0)
(-9.45439111e-12 0 0)
(-1.04210227e-11 0 0)
(-1.04390929e-11 0 0)
(-9.64829642e-12 0 0)
(-1.01227514e-11 0 0)
(-9.93321665e-12 0 0)
(-8.7393501e-12 0 0)
(-1.01713615e-11 0 0)
(-9.74141615e-12 0 0)
(-9.62914613e-12 0 0)
(-9.41286752e-12 0 0)
(-9.74576706e-12 0 0)
(-9.28476372e-12 0 0)
(-9.68197758e-12 0 0)
(-9.26365091e-12 0 0)
(-8.88732941e-12 0 0)
(-9.18328395e-12 0 0)
(-8.80626459e-12 0 0)
(-8.59428164e-12 0 0)
(-9.56338898e-12 0 0)
(-8.61341226e-12 0 0)
(-8.93366622e-12 0 0)
(-9.5534249e-12 0 0)
(-8.78298031e-12 0 0)
(-8.89040209e-12 0 0)
(-9.04356107e-12 0 0)
(-8.85921318e-12 0 0)
(-8.87420172e-12 0 0)
(-8.16724964e-12 0 0)
(-8.68745043e-12 0 0)
(-8.7198717e-12 0 0)
(-7.48114849e-12 0 0)
(-7.63734908e-12 0 0)
(-8.59180479e-12 0 0)
(-8.89422773e-12 0 0)
(-9.44560887e-12 0 0)
(-7.86038422e-12 0 0)
(-7.65965317e-12 0 0)
(-7.34945103e-12 0 0)
(-7.82858124e-12 0 0)
(-8.23738755e-12 0 0)
(-7.97734856e-12 0 0)
(-7.37491869e-12 0 0)
(-7.17881858e-12 0 0)
(-7.95738191e-12 0 0)
(-6.55083993e-12 0 0)
(-5.94207791e-12 0 0)