/*--------------------------------*- C++ -*----------------------------------*\
| =========                 |                                                 |
| \\      /  F ield         | OpenFOAM: The Open Source CFD Toolbox           |
|  \\    /   O peration     | Version:  2206                                  |
|   \\  /    A nd           | Website:  www.openfoam.com                      |
|    \\/     M anipulation  |                                                 |
\*---------------------------------------------------------------------------*/
FoamFile
{
    version     2.0;
    format      ascii;
    arch        "LSB;label=32;scalar=64";
    class       volScalarField;
    location    "1.72e-05";
    object      p;
}
// * * * * * * * * * * * * * * * * * * * * * * * * * * * * * * * * * * * * * //

dimensions      [1 -1 -2 0 0 0 0];

internalField   nonuniform List<scalar> 
3183
(
101325
101325
101325
101325
101325
101325
101325
101325
101325
101325
101325
101325
101325
101325
101325
101325
101325
101325
101325
101325
101325
101325
101325
101325
101325
101325
101325
101325
101325
101325
101325
101325
101325
101325
101325
101325
101325
101325
101325
101325
101325
101325
101325
101325
101325
101325
101325
101325
101325
101325
101325
101325
101325
101325
101325
101325
101325
101325
101325
101325
101325
101325
101325
101325
101325
101325
101325
101325
101325
101325
101325
101325
101325
101325
101325
101325
101325
101325
101325
101325
101325
101325
101325
101325
101325
101325
101325
101325
101325
101325
101325
101325
101325
101325
101325
101325
101325
101325
101325
101325
101325
101325
101325
101325
101325
101325
101325
101325
101325
101325
101325
101325
101325
101325
101325
101325
101325
101325
101325
101325
101325
101325
101325
101325
101325
101325
101325
101325
101325
101325
101325
101325
101325
101325
101325
101325
101325
101325
101325
101325
101325
101325
101325
101325
101325
101325
101325
101325
101325
101325
101325
101325
101325
101325
101325
101325
101325
101325
101325
101325
101325
101325
101325
101325
101325
101325
101325
101325
101325
101325
101325
101325
101325
101325
101325
101325
101325
101325
101325
101325
101325
101325
101325
101325
101325
101325
101325
101325
101325
101325
101325
101325
101325
101325
101325
101325
101325
101325
101325
101325
101325
101325
101325
101325
101325
101325
101325
101325
101325
101325
101325
101325
101325
101325
101325
101325
101325
101325
101325
101325
101325
101325
101325
101325
101325
101325
101325
101325
101325
101325
101325
101325
101325
101325
101325
101325
101325
101325
101325
101325
101325
101325
101325
101325
101325
101325
101325
101325
101325
101325
101325
101325
101325
101325
101325
101325
101325
101325
101325
101325
101325
101325
101325
101325
101325
101325
101325
101325
101325
101325
101325
101325
101325
101325
101325
101325
101325
101325
101325
101325
101325
101325
101325
101325
101325
101325
101325
101325
101325
101325
101325
101325
101325
101325
101325
101325
101325
101325
101325
101325
101325
101325
101325
101325
101325
101325
101325
101325
101325
101325
101325
101325
101325
101325
101325
101325
101325
101325
101325
101325
101325
101325
101325
101325
101325
101325
101325
101325
101325
101325
101325
101325
101325
101325
101325
101325
101325
101325
101325
101325
101325
101325
101325
101325
101325
101325
101325
101325
101325
101325
101325
101325
101325
101325
101325
101325
101325
101325
101325
101325
101325
101325
101325
101325
101325
101325
101325
101325
101325
101325
101325
101325
101325
101325
101325
101325
101325
101325
101325
101325
101325
101325
101325
101325
101325
101325
101325
101325
101325
101325
101325
101325
101325
101325
101325
101325
101325
101325
101325
101325
101325
101325
101325
101325
101325
101325
101325
101325
101325
101325
101325
101325
101325
101325
101325
101325
101325
101325
101325
101325
101325
101325
101325
101325
101325
101325
101325
101325
101325
101325
101325
101325
101325
101325
101325
101325
101325
101325
101325
101325
101325
101325
101325
101325
101325
101325
101325
101325
101325
101325
101325
101325
101325
101325
101325
101325
101325
101325
101325
101325
101325
101325
101325
101325
101325
101325
101325
101325
101325
101325
101325
101325
101325
101325
101325
101325
101325
101325
101325
101325
101325
101325
101325
101325
101325
101325
101325
101325
101325
101325
101325
101325
101325
101325
101325
101325
101325
101325
101325
101325
101325
101325
101325
101325
101325
101325
101325
101325
101325
101325
101325
101325
101325
101325
101325
101325
101325
101325
101325
101325
101325
101325
101325
101325
101325
101325
101325
101325
101325
101325
101325
101325
101325
101325
101325
101325
101325
101325
101325
101325
101325
101325
101325
101325
101325
101325
101325
101325
101325
101325
101325
101325
101325
101325
101325
101325
101325
101325
101325
101325
101325
101325
101325
101325
101325
101325
101325
101325
101325
101325
101325
101325
101325
101325
101325
101325
101325
101325
101325
101325
101325
101325
101325
101325
101325
101325
101325
101325
101325
101325
101325
101325
101325
101325
101325
101325
101325
101325
101325
101325
101325
101325
101325
101325
101325
101325
101325
101325
101325
101325
101325
101325
101325
101325
101325
101325
101325
101325
101325
101325
101325
101325
101325
101325
101325
101325
101325
101325
101325
101325
101325
101325
101325
101325
101325
101325
101325
101325
101325
101325
101325
101325
101325
101325
101325
101325
101325
101325
101325
101325
101325
101325
101325
101325
101325
101325
101325
101325
101325
101325
101325
101325
101325
101325
101325
101325
101325
101325
101325
101325
101325
101325
101325
101325
101325
101325
101325
101325
101325
101325
101325
101325
101325
101325
101325
101325
101325
101325
101325
101325
101325
101325
101325
101325
101325
101325
101325
101325
101325
101325
101325
101325
101325
101325
101325
101325
101325
101325
101325
101325
101325
101325
101325
101325
101325
101325
101325
101325
101325
101325
101325
101325
101325
101325
101325
101325
101325
101325
101325
101325
101325
101325
101325
101325
101325
101325
101325
101325
101325
101325
101325
101325
101325
101325
101325
101325
101325
101325
101325
101325
101325
101325
101325
101325
101325
101325
101325
101325
101325
101325
101325
101325
101325
101325
101325
101325
101325
101325
101325
101325
101325
101325
101325
101325
101325
101325
101325
101325
101325
101325
101325
101325
101325
101325
101325
101325
101325
101325
101325
101325
101325
101325
101325
101325
101325
101325
101325
101325
101325
101325
101325
101325
101325
101325
101325
101325
101325
101325
101325
101325
101325
101325
101325
101325
101325
101325
101325
101325
101325
101325
101325
101325
101325
101325
101325
101325
101325
101325
101325
101325
101325
101325
101325
101325
101325
101325
101325
101325
101325
101325
101325
101325
101325
101325
101325
101325
101325
101325
101325
101325
101325
101325
101325
101325
101325
101325
101325
101325
101325
101325
101325
101325
101325
101325
101325
101325
101325
101325
101325
101325
101325
101325
101325
101325
101325
101325
101325
101325
101325
101325
101325
101325
101325
101325
101325
101325
101325
101325
101325
101325
101325
101325
101325
101325
101325
101325
101325
101325
101325
101325
101325
101325
101325
101325
101325
101325
101325
101325
101325
101325
101325
101325
101325
101325
101325
101325
101325
101325
101325
101325
101325
101325
101325
101325
101325
101325
101325
101325
101325
101325
101325
101325
101325
101325
101325
101325
101325
101325
101325
101325
101325
101325
101325
101325
101325
101325
101325
101325
101325
101325
101325
101325
101325
101325
101325
101325
101325
101325
101325
101325
101325
101325
101325
101325
101325
101325
101325
101325
101325
101325
101325
101325
101325
101325
101325
101325
101325
101325
101325
101325
101325
101325
101325
101325
101325
101325
101325
101325
101325
101325
101325
101325
101325
101325
101325
101325
101325
101325
101325
101325
101325
101325
101325
101325
101325
101325
101325
101325
101325
101325
101325
101325
101325
101325
101325
101325
101325
101325
101325
101325
101325
101325
101325
101325
101325
101325
101325
101325
101325
101325
101325
101325
101325
101325
101325
101325
101325
101325
101325
101325
101325
101325
101325
101325
101325
101325
101325
101325
101325
101325
101325
101325
101325
101325
101325
101325
101325
101325
101325
101325
101325
101325
101325
101325
101325
101325
101325
101325
101325
101325
101325
101325
101325
101325
101325
101325
101325
101325
101325
101325
101325
101325
101325
101325
101325
101325
101325
101325
101325
101325
101325
101325
101325
101325
101325
101325
101325
101325
101325
101325
101325
101325
101325
101325
101325
101325
101325
101325
101325
101325
101325
101325
101325
101325
101325
101325
101325
101325
101325
101325
101325
101325
101325
101325
101325
101325
101325
101325
101325
101325
101325
101325
101325
101325
101325
101325
101325
101325
101325
101325
101325
101325
101325
101325
101325
101325
101325
101325
101325
101325
101325
101325
101325
101325
101325
101325
101325
101325
101325
101325
101325
101325
101325
101325
101325
101325
101325
101325
101325
101325
101325
101325
101325
101325
101325
101325
101325
101325
101325
101325
101325
101325
101325
101325
101325
101325
101325
101325
101325
101325
101325
101325
101325
101325
101325
101325
101325
101325
101325
101325
101325
101325
101325
101325
101325
101325
101325
101325
101325
101325
101325
101325
101325
101325
101325
101325
101325
101325
101325
101325
101325
101325
101325
101325
101325
101325
101325
101325
101325
101325
101325
101325
101325
101325
101325
101325
101325
101325
101325
101325
101325
101325
101325
101325
101325
101325
101325
101325
101325
101325
101325
101325
101325
101325
101325
101325
101325
101325
101325
101325
101325
101325
101325
101325
101325
101325
101325
101325
101325
101325
101325
101325
101325
101325
101325
101325
101325
101325
101325
101325
101325
101325
101325
101325
101325
101325
101325
101325
101325
101325
101325
101325
101325
101325
101325
101325
101325
101325
101325
101325
101325
101325
101325
101325
101325
101325
101325
101325
101325
101325
101325
101325
101325
101325
101325
101325
101325
101325
101325
101325
101325
101325
101325
101325
101325
101325
101325
101325
101325
101325
101325
101325
101325
101325
101325
101325
101325
101325
101325
101325
101325
101325
101325
101325
101325
101325
101325
101325
101325
101325
101325
101325
101325
101325
101325
101325
101325
101325
101325
101325
101325
101325
101325
101325
101325
101325
101325
101325
101325
101325
101325
101325
101325
101325
101325
101325
101325
101325
101325
101325
101325
101325
101325
101325
101325
101325
101325
101325
101325
101325
101325
101325
101325
101325
101325
101325
101325
101325
101325
101325
101325
101325
101325
101325
101325
101325
101325
101325
101325
101325
101325
101325
101325
101325
101325
101325
101325
101325
101325
101325
101325
101325
101325
101325
101325
101325
101325
101325
101325
101325
101325
101325
101325
101325
101325
101325
101325
101325
101325
101325
101325
101325
101325
101325
101325
101325
101325
101325
101325
101325
101325
101325
101325
101325
101325
101325
101325
101325
101325
101325
101325
101325
101325
101325
101325
101325
101325
101325
101325
101325
101325
101325
101325
101325
101325
101325
101325
101325
101325
101325
101325
101325
101325
101325
101325
101325
101325
101325
101325
101325
101325
101325
101325
101325
101325
101325
101325
101325
101325
101325
101325
101325
101325
101325
101325
101325
101325
101325
101325
101325
101325
101325
101325
101325
101325
101325
101325
101325
101325
101325
101325
101325
101325
101325
101325
101325
101325
101325
101325
101325
101325
101325
101325
101325
101325
101325
101325
101325
101325
101325
101325
101325
101325
101325
101325
101325
101325
101325
101325
101325
101325
101325
101325
101325
101325
101325
101325
101325
101325
101325
101325
101325
101325
101325
101325
101325
101325
101325
101325
101325
101325
101325
101325
101325
101325
101325
101325
101325
101325
101325
101325
101325
101325
101325
101325
101325
101325
101325
101325
101325
101325
101325
101325
101325
101325
101325
101325
101325
101325
101325
101325
101325
101325
101325
101325
101325
101325
101325
101325
101325
101325
101325
101325
101325
101325
101325
101325
101325
101325
101325
101325
101325
101325
101325
101325
101325
101325
101325
101325
101325
101325
101325
101325
101325
101325
101325
101325
101325
101325
101325
101325
101325
101325
101325
101325
101325
101325
101325
101325
101325
101325
101325
101325
101325
101325
101325
101325
101325
101325
101325
101325
101325
101325
101325
101325
101325
101325
101325
101325
101325
101325
101325
101325
101325
101325
101325
101325
101325
101325
101325
101325
101325
101325
101325
101325
101325
101325
101325
101325
101325
101325
101325
101325
101325
101325
101325
101325
101325
101325
101325
101325
101325
101325
101325
101325
101325
101325
101325
101325
101325
101325
101325
101325
101325
101325
101325
101325
101325
101325
101325
101325
101325
101325
101325
101325
101325
101325
101325
101325
101325
101325
101325
101325
101325
101325
101325
101325
101325
101325
101325
101325
101325
101325
101325
101325
101325
101325
101325
101325
101325
101325
101325
101325
101325
101325
101325
101325
101325
101325
101325
101325
101325
101325
101325
101325
101325
101325
101325
101325
101325
101325
101325
101325
101324.999
101324.999
101324.999
101324.999
101324.999
101324.999
101324.999
101324.999
101324.999
101324.999
101324.999
101324.999
101324.999
101324.999
101324.999
101324.999
101324.999
101324.999
101324.999
101324.998
101324.998
101324.998
101324.998
101324.998
101324.998
101324.998
101324.998
101324.998
101324.997
101324.997
101324.997
101324.997
101324.997
101324.997
101324.997
101324.996
101324.996
101324.996
101324.996
101324.995
101324.995
101324.995
101324.995
101324.994
101324.994
101324.994
101324.993
101324.993
101324.993
101324.992
101324.992
101324.991
101324.991
101324.99
101324.99
101324.989
101324.989
101324.988
101324.987
101324.987
101324.986
101324.985
101324.985
101324.984
101324.983
101324.982
101324.981
101324.98
101324.979
101324.978
101324.977
101324.976
101324.975
101324.973
101324.972
101324.971
101324.969
101324.967
101324.966
101324.964
101324.962
101324.96
101324.959
101324.956
101324.954
101324.952
101324.95
101324.947
101324.945
101324.942
101324.939
101324.936
101324.933
101324.93
101324.927
101324.923
101324.92
101324.916
101324.912
101324.908
101324.903
101324.899
101324.894
101324.889
101324.884
101324.879
101324.873
101324.867
101324.861
101324.855
101324.849
101324.842
101324.835
101324.827
101324.82
101324.812
101324.803
101324.795
101324.786
101324.776
101324.767
101324.756
101324.746
101324.735
101324.724
101324.712
101324.699
101324.687
101324.673
101324.66
101324.646
101324.631
101324.615
101324.599
101324.583
101324.566
101324.548
101324.53
101324.511
101324.491
101324.47
101324.449
101324.427
101324.405
101324.381
101324.357
101324.332
101324.305
101324.279
101324.251
101324.222
101324.192
101324.161
101324.129
101324.097
101324.063
101324.028
101323.991
101323.954
101323.916
101323.876
101323.835
101323.793
101323.749
101323.704
101323.658
101323.61
101323.561
101323.51
101323.458
101323.404
101323.349
101323.292
101323.233
101323.173
101323.111
101323.047
101322.982
101322.915
101322.845
101322.774
101322.702
101322.627
101322.55
101322.471
101322.39
101322.307
101322.221
101322.134
101322.044
101321.953
101321.859
101321.762
101321.664
101321.562
101321.459
101321.353
101321.245
101321.134
101321.021
101320.905
101320.786
101320.665
101320.542
101320.416
101320.287
101320.155
101320.021
101319.884
101319.744
101319.601
101319.456
101319.308
101319.157
101319.003
101318.846
101318.687
101318.525
101318.36
101318.192
101318.021
101317.847
101317.671
101317.491
101317.309
101317.124
101316.936
101316.745
101316.552
101316.356
101316.157
101315.955
101315.75
101315.543
101315.333
101315.121
101314.906
101314.688
101314.468
101314.246
101314.021
101313.793
101313.564
101313.332
101313.098
101312.861
101312.623
101312.383
101312.14
101311.896
101311.65
101311.402
101311.152
101310.901
101310.649
101310.395
101310.139
101309.883
101309.625
101309.366
101309.106
101308.846
101308.584
101308.322
101308.06
101307.797
101307.533
101307.27
101307.006
101306.743
101306.479
101306.216
101305.953
101305.691
101305.429
101305.168
101304.908
101304.649
101304.391
101304.134
101303.879
101303.625
101303.373
101303.123
101302.874
101302.628
101302.384
101302.142
101301.902
101301.665
101301.431
101301.2
101300.971
101300.745
101300.523
101300.304
101300.088
101299.876
101299.668
101299.463
101299.262
101299.066
101298.873
101298.684
101298.5
101298.32
101298.145
101297.974
101297.808
101297.646
101297.489
101297.338
101297.191
101297.049
101296.912
101296.781
101296.655
101296.534
101296.418
101296.307
101296.203
101296.103
101296.009
101295.92
101295.837
101295.76
101295.688
101295.621
101295.561
101295.505
101295.455
101295.411
101295.372
101295.339
101295.311
101295.289
101295.272
101295.26
101295.254
101295.252
101295.256
101295.266
101295.28
101295.299
101295.323
101295.353
101295.387
101295.425
101295.468
101295.516
101295.568
101295.625
101295.686
101295.751
101295.82
101295.893
101295.97
101296.05
101296.135
101296.222
101296.313
101296.408
101296.505
101296.606
101296.709
101296.816
101296.924
101297.036
101297.15
101297.266
101297.384
101297.505
101297.627
101297.751
101297.877
101298.004
101298.133
101298.263
101298.394
101298.527
101298.66
101298.794
101298.929
101299.065
101299.201
101299.337
101299.474
101299.611
101299.748
101299.885
101300.022
101300.159
101300.295
101300.431
101300.567
101300.702
101300.837
101300.971
101301.104
101301.236
101301.367
101301.498
101301.627
101301.755
101301.883
101302.009
101302.133
101302.257
101302.379
101302.5
101302.62
101302.738
101302.854
101302.969
101303.083
101303.195
101303.306
101303.415
101303.522
101303.628
101303.732
101303.835
101303.936
101304.036
101304.133
101304.23
101304.324
101304.418
101304.509
101304.599
101304.688
101304.775
101304.86
101304.944
101305.027
101305.108
101305.187
101305.265
101305.342
101305.418
101305.492
101305.564
101305.636
101305.706
101305.775
101305.843
101305.91
101305.975
101306.039
101306.103
101306.165
101306.226
101306.286
101306.346
101306.404
101306.461
101306.518
101306.574
101306.629
101306.683
101306.736
101306.789
101306.841
101306.892
101306.942
101306.992
101307.042
101307.091
101307.139
101307.186
101307.234
101307.28
101307.326
101307.372
101307.417
101307.462
101307.507
101307.551
101307.595
101307.638
101307.681
101307.724
101307.766
101307.808
101307.85
101307.891
101307.932
101307.973
101308.014
101308.054
101308.094
101308.134
101308.174
101308.213
101308.252
101308.291
101308.329
101308.367
101308.405
101308.443
101308.48
101308.518
101308.555
101308.591
101308.628
101308.664
101308.7
101308.735
101308.77
101308.805
101308.84
101308.874
101308.908
101308.942
101308.975
101309.008
101309.041
101309.073
101309.105
101309.137
101309.168
101309.199
101309.23
101309.26
101309.29
101309.319
101309.348
101309.377
101309.405
101309.433
101309.46
101309.487
101309.514
101309.54
101309.566
101309.592
101309.617
101309.641
101309.666
101309.689
101309.713
101309.736
101309.759
101309.781
101309.803
101309.825
101309.846
101309.867
101309.888
101309.908
101309.928
101309.948
101309.967
101309.986
101310.005
101310.023
101310.042
101310.06
101310.078
101310.095
101310.113
101310.13
101310.147
101310.164
101310.18
101310.197
101310.214
101310.23
101310.246
101310.262
101310.279
101310.295
101310.311
101310.327
101310.343
101310.359
101310.375
101310.391
101310.407
101310.423
101310.44
101310.456
101310.472
101310.489
101310.505
101310.522
101310.539
101310.556
101310.573
101310.59
101310.608
101310.625
101310.643
101310.661
101310.678
101310.697
101310.715
101310.733
101310.752
101310.771
101310.789
101310.808
101310.828
101310.847
101310.866
101310.886
101310.906
101310.925
101310.945
101310.965
101310.985
101311.005
101311.026
101311.046
101311.066
101311.087
101311.107
101311.127
101311.148
101311.168
101311.189
101311.209
101311.229
101311.249
101311.27
101311.29
101311.31
101311.33
101311.349
101311.369
101311.388
101311.408
101311.427
101311.446
101311.465
101311.484
101311.502
101311.52
101311.538
101311.556
101311.574
101311.591
101311.609
101311.626
101311.642
101311.659
101311.675
101311.691
101311.707
101311.723
101311.738
101311.753
101311.768
101311.783
101311.797
101311.812
101311.826
101311.839
101311.853
101311.867
101311.88
101311.893
101311.906
101311.918
101311.931
101311.943
101311.955
101311.967
101311.979
101311.991
101312.003
101312.014
101312.025
101312.037
101312.048
101312.059
101312.07
101312.081
101312.091
101312.102
101312.113
101312.123
101312.134
101312.144
101312.155
101312.165
101312.175
101312.185
101312.195
101312.205
101312.215
101312.225
101312.235
101312.245
101312.255
101312.265
101312.274
101312.284
101312.294
101312.303
101312.313
101312.322
101312.332
101312.341
101312.35
101312.359
101312.369
101312.378
101312.387
101312.396
101312.405
101312.414
101312.423
101312.432
101312.441
101312.449
101312.458
101312.467
101312.475
101312.484
101312.493
101312.501
101312.51
101312.518
101312.527
101312.535
101312.544
101312.553
101312.561
101312.57
101312.578
101312.587
101312.596
101312.604
101312.613
101312.622
101312.631
101312.64
101312.649
101312.658
101312.667
101312.676
101312.686
101312.695
101312.705
101312.715
101312.725
101312.735
101312.746
101312.756
101312.767
101312.778
101312.789
101312.801
101312.813
101312.825
101312.838
101312.851
101312.864
101312.878
101312.893
101312.908
101312.924
101312.94
101312.958
101312.976
101312.995
101313.015
101313.037
101313.059
101313.083
101313.109
101313.136
101313.165
101313.196
101313.229
101313.264
101313.302
101313.343
101313.386
101313.432
101313.482
101313.535
101313.591
101313.651
101313.716
101313.784
101313.857
101313.934
101314.015
101314.102
101314.192
101314.288
101314.388
101314.492
101314.601
101314.714
101314.831
101314.951
101315.074
101315.2
101315.328
101315.458
101315.587
101315.717
101315.845
101315.971
101316.095
101316.214
101316.328
101316.436
101316.536
101316.629
101316.714
101316.789
101316.854
101316.91
101316.955
101316.992
101317.019
101317.039
101317.052
101317.06
101317.064
101317.066
101317.068
101317.07
101317.081
101317.129
101317.105
101317.382
101317.519
101317.493
101317.014
101316.909
101316.86
101316.918
101316.937
101316.992
101317.006
101317.044
101317.045
101317.049
101317.032
101317.013
101316.985
101316.955
101316.921
101316.886
101316.848
101316.808
101316.766
101316.723
101316.677
101316.63
101316.582
101316.531
101316.479
101316.425
101316.37
101316.314
101316.256
101316.198
101316.138
101316.077
101316.015
101315.953
101315.89
101315.827
101315.763
101315.699
101315.635
101315.571
101315.507
101315.443
101315.379
101315.316
101315.253
101315.19
101315.129
101315.067
101315.007
101314.947
101314.888
101314.829
101314.772
101314.716
101314.66
101314.606
101314.552
101314.5
101314.449
101314.399
101314.35
101314.302
101314.255
101314.209
101314.164
101314.121
101314.078
101314.037
101313.997
101313.958
101313.92
101313.883
101313.847
101313.813
101313.779
101313.746
101313.715
101313.684
101313.654
101313.625
101313.597
101313.57
101313.544
101313.519
101313.494
101313.471
101313.448
101313.426
101313.404
101313.384
101313.364
101313.344
101313.326
101313.308
101313.29
101313.273
101313.257
101313.241
101313.226
101313.211
101313.197
101313.183
101313.17
101313.157
101313.144
101313.132
101313.12
101313.109
101313.098
101313.087
101313.076
101313.066
101313.056
101313.047
101313.037
101313.028
101313.019
101313.011
101313.002
101312.994
101312.986
101312.978
101312.97
101312.962
101312.955
101312.948
101312.941
101312.934
101312.927
101312.92
101312.913
101312.907
101312.9
101312.894
101312.888
101312.881
101312.875
101312.869
101312.863
101312.857
101312.852
101312.846
101312.84
101312.835
101312.829
101312.824
101312.818
101312.813
101312.807
101312.802
101312.797
101312.792
101312.786
101312.781
101312.776
101312.771
101312.766
101312.761
101312.756
101312.751
101312.746
101312.741
101312.737
101312.732
101312.727
101312.722
101312.718
101312.713
101312.708
101312.704
101312.699
101312.694
101312.69
101312.685
101312.681
101312.676
101312.672
101312.667
101312.663
101312.658
101312.654
101312.649
101312.645
101312.641
101312.636
101312.632
101312.628
101312.623
101312.619
101312.615
101312.61
101312.606
101312.602
101312.598
101312.593
101312.589
101312.585
101312.581
101312.576
101312.572
101312.568
101312.564
101312.559
101312.555
101312.551
101312.547
101312.542
101312.538
101312.534
101312.53
101312.525
101312.521
101312.517
101312.513
101312.508
101312.504
101312.5
101312.495
101312.491
101312.487
101312.482
101312.478
101312.474
101312.469
101312.465
101312.46
101312.456
101312.452
101312.447
101312.443
101312.438
101312.434
101312.429
101312.425
101312.42
101312.416
101312.411
101312.406
101312.402
101312.397
101312.392
101312.388
101312.383
101312.378
101312.374
101312.369
101312.364
101312.359
101312.355
101312.35
101312.345
101312.34
101312.335
101312.331
101312.326
101312.321
101312.316
101312.311
101312.306
101312.301
101312.296
101312.291
101312.286
101312.281
101312.276
101312.271
101312.266
101312.261
101312.255
101312.25
101312.245
101312.24
101312.235
101312.229
101312.224
101312.219
101312.214
101312.208
101312.203
101312.198
101312.192
101312.187
101312.182
101312.176
101312.171
101312.165
101312.16
101312.154
101312.149
101312.143
101312.138
101312.132
101312.127
101312.121
101312.116
101312.11
101312.104
101312.099
101312.093
101312.087
101312.081
101312.076
101312.07
101312.064
101312.058
101312.052
101312.046
101312.04
101312.034
101312.028
101312.022
101312.016
101312.01
101312.004
101311.998
101311.992
101311.985
101311.979
101311.973
101311.966
101311.96
101311.954
101311.947
101311.941
101311.934
101311.928
101311.921
101311.914
101311.908
101311.901
101311.894
101311.887
101311.88
101311.874
101311.867
101311.86
101311.853
101311.845
101311.838
101311.831
101311.824
101311.817
101311.809
101311.802
101311.794
101311.787
101311.779
101311.772
101311.764
101311.756
101311.748
101311.741
101311.733
101311.725
101311.717
101311.709
101311.701
101311.692
101311.684
101311.676
101311.668
101311.659
101311.651
101311.642
101311.634
101311.625
101311.616
101311.608
101311.599
101311.59
101311.581
101311.572
101311.563
101311.554
101311.545
101311.536
101311.527
101311.517
101311.508
101311.499
101311.489
101311.48
101311.47
101311.461
101311.451
101311.442
101311.432
101311.422
101311.412
101311.403
101311.393
101311.383
101311.373
101311.363
101311.353
101311.343
101311.333
101311.323
101311.313
101311.302
101311.292
101311.282
101311.272
101311.262
101311.251
101311.241
101311.231
101311.22
101311.21
101311.2
101311.189
101311.179
101311.168
101311.158
101311.147
101311.137
101311.127
101311.116
101311.106
101311.095
101311.085
101311.074
101311.064
101311.053
101311.043
101311.033
101311.022
101311.012
101311.001
101310.991
101310.981
101310.97
101310.96
101310.949
101310.939
101310.929
101310.919
101310.908
101310.898
101310.888
101310.878
101310.867
101310.857
101310.847
101310.837
101310.827
101310.817
101310.807
101310.797
101310.787
101310.777
101310.767
101310.757
101310.748
101310.738
101310.728
101310.718
101310.709
101310.699
101310.689
101310.68
101310.67
101310.66
101310.651
101310.642
101310.632
101310.623
101310.613
101310.604
101310.595
101310.585
101310.576
101310.567
101310.558
101310.548
101310.539
101310.53
101310.521
101310.512
101310.503
101310.494
101310.485
101310.476
101310.467
101310.458
101310.449
101310.441
101310.432
101310.423
101310.414
101310.405
101310.396
101310.388
101310.379
101310.37
101310.361
101310.353
101310.344
101310.335
101310.326
101310.317
101310.308
101310.297
101310.286
101310.274
101310.261
101310.248
101310.233
101310.217
101310.2
101310.182
101310.162
101310.14
101310.117
101310.092
101310.065
101310.036
101310.004
101309.969
101309.93
101309.888
101309.841
101309.79
101309.732
101309.668
101309.597
101309.517
101309.427
101309.325
101309.211
101309.082
101308.938
101308.775
101308.594
101308.391
101308.164
101307.913
101307.633
101307.318
101306.961
101306.546
101306.05
101305.438
101304.66
101303.654
101302.352
101300.71
101298.757
101296.662
101294.803
101293.778
101294.275
101296.795
101301.321
101307.165
101313.137
101318.097
101321.503
101323.459
101324.409
101324.802
101324.942
101324.986
101324.997
101325
101325.001
101325.001
101325.001
101325.001
101325.001
101325.001
101325.001
101325.001
101325.001
101325.001
101325
101325
)
;

boundaryField
{
    closed
    {
        type            zeroGradient;
    }
    open
    {
        type            waveTransmissive;
        gamma           1.25;
        fieldInf        101325;
        lInf            1;
        value           uniform 101325;
    }
    sides
    {
        type            empty;
    }
}


// ************************************************************************* //
