/*--------------------------------*- C++ -*----------------------------------*\
| =========                 |                                                 |
| \\      /  F ield         | OpenFOAM: The Open Source CFD Toolbox           |
|  \\    /   O peration     | Version:  2206                                  |
|   \\  /    A nd           | Website:  www.openfoam.com                      |
|    \\/     M anipulation  |                                                 |
\*---------------------------------------------------------------------------*/
FoamFile
{
    version     2.0;
    format      ascii;
    arch        "LSB;label=32;scalar=64";
    class       volScalarField;
    location    "1.72e-05";
    object      PVsourcePV;
}
// * * * * * * * * * * * * * * * * * * * * * * * * * * * * * * * * * * * * * //

dimensions      [1 -3 -1 0 0 0 0];

internalField   nonuniform List<scalar> 
3183
(
0
0
0
0
0
0
0
0
0
0
0
0
0
0
0
0
0
0
0
0
0
0
0
0
0
0
0
0
0
0
0
0
0
0
0
0
0
0
0
0
0
0
0
0
0
0
0
0
0
0
0
0
0
0
0
0
0
0
0
0
0
0
0
0
0
0
0
0
0
0
0
0
0
0
0
0
0
0
0
0
0
0
0
0
0
0
0
0
0
0
0
0
0
0
0
0
0
0
0
0
0
0
0
0
0
0
0
0
0
0
0
0
0
0
0
0
0
0
0
0
0
0
0
0
0
0
0
0
0
0
0
0
0
0
0
0
0
0
0
0
0
0
0
0
0
0
0
0
0
0
0
0
0
0
0
0
0
0
0
0
0
0
0
0
0
0
0
0
0
0
0
0
0
0
0
0
0
0
0
0
0
0
0
0
0
0
0
0
0
0
0
0
0
0
0
0
0
0
0
0
0
0
0
0
0
0
0
0
0
0
0
0
0
0
0
0
0
0
0
0
0
0
0
0
0
0
0
0
0
0
0
0
0
0
0
0
0
0
0
0
0
0
0
0
0
0
0
0
0
0
0
0
0
0
0
0
0
0
0
0
0
0
0
0
0
0
0
0
0
0
0
0
0
0
0
0
0
0
0
0
0
0
0
0
0
0
0
0
0
0
0
0
0
0
0
0
0
0
0
0
0
0
0
0
0
0
0
0
0
0
0
0
0
0
0
0
0
0
0
0
0
0
0
0
0
0
0
0
0
0
0
0
0
0
0
0
0
0
0
0
0
0
0
0
0
0
0
0
0
0
0
0
0
0
0
0
0
0
0
0
0
0
0
0
0
0
0
0
0
0
0
0
0
0
0
0
0
0
0
0
0
0
0
0
0
0
0
0
0
0
0
0
0
0
0
0
0
0
0
0
0
0
0
0
0
0
0
0
0
0
0
0
0
0
0
0
0
0
0
0
0
0
0
0
0
0
0
0
0
0
0
0
0
0
0
0
0
0
0
0
0
0
0
0
0
0
0
0
0
0
0
0
0
0
0
0
0
0
0
0
0
0
0
0
0
0
0
0
0
0
0
0
0
0
0
0
0
0
0
0
0
0
0
0
0
0
0
0
0
0
0
0
0
0
0
0
0
0
0
0
0
0
0
0
0
0
0
0
0
0
0
0
0
0
0
0
0
0
0
0
0
0
0
0
0
0
0
0
0
0
0
0
0
0
0
0
0
0
0
0
0
0
0
0
0
0
0
0
0
0
0
0
0
0
0
0
0
0
0
0
0
0
0
0
0
0
0
0
0
0
0
0
0
0
0
0
0
0
0
0
0
0
0
0
0
0
0
0
0
0
0
0
0
0
0
0
0
0
0
0
0
0
0
0
0
0
0
0
0
0
0
0
0
0
0
0
0
0
0
0
0
0
0
0
0
0
0
0
0
0
0
0
0
0
0
0
0
0
0
0
0
0
0
0
0
0
0
0
0
0
0
0
0
0
0
0
0
0
0
0
0
0
0
0
0
0
0
0
0
0
0
0
0
0
0
0
0
0
0
0
0
0
0
0
0
0
0
0
0
0
0
0
0
0
0
0
0
0
0
0
0
0
0
0
0
0
0
0
0
0
0
0
0
0
0
0
0
0
0
0
0
0
0
0
0
0
0
0
0
0
0
0
0
0
0
0
0
0
0
0
0
0
0
0
0
0
0
0
0
0
0
0
0
0
0
0
0
0
0
0
0
0
0
0
0
0
0
0
0
0
0
0
0
0
0
0
0
0
0
0
0
0
0
0
0
0
0
0
0
0
0
0
0
0
0
0
0
0
0
0
0
0
0
0
0
0
0
0
0
0
0
0
0
0
0
0
0
0
0
0
0
0
0
0
0
0
0
0
0
0
0
0
0
0
0
0
0
0
0
0
0
0
0
0
0
0
0
0
0
0
0
0
0
0
0
0
0
0
0
0
0
0
0
0
0
0
0
0
0
0
0
0
0
0
0
0
0
0
0
0
0
0
0
0
0
0
0
0
0
0
0
0
0
0
0
0
0
0
0
0
0
0
0
0
0
0
0
0
0
0
0
0
0
0
0
0
0
0
0
0
0
0
0
0
0
0
0
0
0
0
0
0
0
0
0
0
0
0
0
0
0
0
0
0
0
0
0
0
0
0
0
0
0
0
0
0
0
0
0
0
0
0
0
0
0
0
0
0
0
0
0
0
0
0
0
0
0
0
0
0
0
0
0
0
0
0
0
0
0
0
0
0
0
0
0
0
0
0
0
0
0
0
0
0
0
0
0
0
0
0
0
0
0
0
0
0
0
0
0
0
0
0
0
0
0
0
0
0
0
0
0
0
0
0
0
0
0
0
0
0
0
0
0
0
0
0
0
0
0
0
0
0
0
0
0
0
0
0
0
0
0
0
0
0
0
0
0
0
0
0
0
0
0
0
0
0
0
0
0
0
0
0
0
0
0
0
0
0
0
0
0
0
0
0
0
0
0
0
0
0
0
0
0
0
0
0
0
0
0
0
0
0
0
0
0
0
0
0
0
0
0
0
0
0
0
0
0
0
0
0
0
0
0
0
0
0
0
0
0
0
0
0
0
0
0
0
0
0
0
0
0
0
0
0
0
0
0
0
0
0
0
0
0
0
0
0
0
0
0
0
0
0
0
0
0
0
0
0
0
0
0
0
0
0
0
0
0
0
0
0
0
0
0
0
0
0
0
0
0
0
0
0
0
0
0
0
0
0
0
0
0
0
0
0
0
0
0
0
0
0
0
0
0
0
0
0
0
0
0
0
0
0
0
0
0
0
0
0
0
0
0
0
0
0
0
0
0
0
0
0
0
0
0
0
0
0
0
0
0
0
0
0
0
0
0
0
0
0
0
0
0
0
0
0
0
0
0
0
0
0
0
0
0
0
0
0
0
0
0
0
0
0
0
0
0
0
0
0
0
0
0
0
0
0
0
0
0
0
0
0
0
0
0
0
0
0
0
0
0
0
0
0
0
0
0
0
0
0
0
0
0
0
0
0
0
0
0
0
0
0
0
0
0
0
0
0
0
0
0
0
0
0
0
0
0
0
0
0
0
0
0
0
0
0
0
0
0
0
0
0
0
0
0
0
0
0
0
0
0
0
0
0
0
0
0
0
0
0
0
0
0
0
0
0
0
0
0
0
0
0
0
0
0
0
0
0
0
0
0
0
0
0
0
0
0
0
0
0
0
0
0
0
0
0
0
0
0
0
0
0
0
0
0
0
0
0
0
0
0
0
0
0
0
0
0
0
0
0
0
0
0
0
0
0
0
0
0
0
0
0
0
0
0
0
0
0
0
0
0
0
0
0
0
0
0
0
0
0
0
0
0
0
0
0
0
0
0
0
0
0
0
0
0
0
0
0
0
0
0
0
0
0
0
0
0
0
0
0
0
0
0
0
0
0
0
0
0
0
0
0
0
0
0
0
0
0
0
0
0
0
0
0
0
0
0
0
0
0
0
0
0
0
0
0
0
0
0
0
0
0
0
0
0
0
0
0
0
0
0
0
0
0
0
0
0
0
0
0
0
0
0
0
0
0
0
0
0
0
0
0
0
0
0
0
0
0
0
0
0
0
0
0
0
0
0
0
0
0
0
0
0
0
0
0
0
0
0
0
0
0
0
0
0
0
0
0
0
0
0
0
0
0
0
0
0
0
0
0
0
0
0
0
0
0
0
0
0
0
0
0
0
0
0
0
0
0
0
0
0
0
0
0
0
0
0
0
0
0
0
0
0
0
0
0
0
0
0
0
0
0
0
0
0
0
0
0
0
0
0
0
0
0
0
0
0
0
0
0
0
0
0
0
0
0
0
0
0
0
0
0
0
0
0
0
0
0
0
0
0
0
0
0
0
0
0
0
0
0
0
0
0
0
0
0
0
0
0
0
0
0
0
0
0
0
0
0
0
0
0
0
0
0
0
0
0
0
0
0
0
0
0
0
0
0
0
0
0
0
0
0
0
0
0
0
0
0
0
0
0
0
0
0
0
0
0
0
0
0
0
0
0
0
0
0
0
0
0
0
0
0
0
0
0
0
0
0
0
0
0
0
0
0
0
0
0
0
0
0
0
0
0
0
0
0
0
0
0
0
0
0
0
0
0
0
0
0
0
0
0
0
0
0
0
0
0
0
0
0
0
0
0
0
0
0
0
0
0
0
0
0
0
0
0
0
0
0
0
0
0
0
0
0
0
0
0
0
0
0
0
0
0
0
0
0
0
0
0
0
0
0
0
0
0
0
0
0
0
0
0
0
0
0
0
0
0
0
0
0
0
0
0
0
0
0
0
0
0
0
0
0
0
0
0
0
0
0
0
0
0
0
0
0
0
0
0
0
0
0
0
0
0
0
0
0
0
0
0
0
0
0
0
0
0
0
0
0
0
0
0
0
0
0
0
0
0
0
0
0
0
0
0
0
0
0
0
0
0
0
0
0
0
0
0
0
0
0
0
0
0
0
0
0
0
0
0
0
0
0
0
0
0
0
0
0
0
0
0
0
0
0
0
0
0
0
0
0
0
0
0
0
0
0
0
0
0
0
0
0
0
0
0
0
0
0
0
0
0
0
0
0
0
0
0
0
0
0
0
0
0
0
0
0
0
0
0
0
0
0
0
0
0
0
0
0
0
0
0
0
0
0
0
0
0
0
0
0
0
0
0
0
0
0
0
0
0
0
0
0
0
0
0
0
0
0
0
0
0
0
0
0
0
0
0
0
0
0
0
0
0
0
0
0
0
0
0
0
0
0
0
0
0
0
0
0
0
0
0
0
0
0
0
0
0
0
0
0
0
0
0
0
0
0
0
0
0
0
0
0
0
0
0
0
0
0
0
0
0
0
0
0
0
0
0
0
0
0
0
0
0
0
0
0
0
0
0
0
0
0
0
0
0
0
0
0
0
0
0
0
0
0
0
0
0
0
0
0
0
0
0
0
0
0
0
0
0
0
0
0
0
0
0
0
0
0
0
0
0
0
0
0
0
0
0
0
0
0
0
0
0
0
0
0
0
0
0
0
0
0
0
0
0
0
0
0
0
0
0
0
0
0
0
0
0
0
0
0
0
0
0
0
0
0
0
0
0
0
0
0
0
0
0
0
0
0
0
0
0
0
0
0
0
0
0
0
0
0
0
0
0
0
0
0
0
0
0
0
0
0
0
0
0
0
0
0
0
0
0
0
0
0
0
0
0
0
0
0
0
0
0
0
0
0
0
0
0
0
0
0
0
0
0
0
0
0
0
0
0
0
0
0
0
0
0
0
0
0
0
0
0
0
0
0
0
0
0
0
0
0
0
0
0
0
0
0
0
0
0
0
0
2.0756679e-300
1.03198634e-300
1.08796476e-297
5.46443929e-298
5.65010217e-295
2.86652041e-295
2.90722036e-292
1.48970074e-292
1.48209094e-289
7.66964585e-290
7.48585599e-287
3.91183939e-287
3.74603355e-284
1.97654783e-284
1.85720003e-281
9.89361154e-282
9.12210696e-279
4.90590784e-279
4.43887688e-276
2.40975169e-276
2.13985268e-273
1.17258971e-273
1.02192311e-270
5.65225758e-271
4.83466319e-268
2.698243e-268
2.26577779e-265
1.27638636e-265
1.05186563e-262
5.98029222e-263
4.83707877e-260
2.77597118e-260
2.20329885e-257
1.27576151e-257
9.94071716e-255
5.80698907e-255
4.44224076e-252
2.61785915e-252
1.96612812e-249
1.168803e-249
8.61849498e-247
5.16798653e-247
3.74149138e-244
2.26292881e-244
1.60855089e-241
9.81236096e-242
6.84831712e-239
4.21319997e-239
2.8871769e-236
1.79130095e-236
1.20526921e-233
7.5409161e-234
4.9819079e-231
3.14310589e-231
2.03885942e-228
1.29703789e-228
8.26108215e-226
5.29887352e-226
3.3137665e-223
2.14303496e-223
1.31588667e-220
8.57958726e-221
5.17251885e-218
3.39993516e-218
2.01255201e-215
1.33357254e-215
7.7504518e-213
5.17699893e-213
2.95402546e-210
1.98896683e-210
1.11424359e-207
7.56199837e-208
4.15905884e-205
2.84495651e-205
1.53613083e-202
1.059044e-202
5.61367976e-200
3.90049599e-200
2.02964578e-197
1.42121593e-197
7.259584e-195
5.12271739e-195
2.56854108e-192
1.82643933e-192
8.98892436e-190
6.44076911e-190
3.1112661e-187
2.24625769e-187
1.0649647e-184
7.74695649e-185
3.60463135e-182
2.64186867e-182
1.2063451e-179
8.90752922e-180
3.9913817e-177
2.96910123e-177
1.30548015e-174
9.78292308e-175
4.2205131e-172
3.18596235e-172
1.34852535e-169
1.02539627e-169
4.25795413e-167
3.26115039e-167
1.32842817e-164
1.02476653e-164
4.09463969e-162
3.18125941e-162
1.24674334e-159
9.75520195e-160
3.74941304e-157
2.9544545e-157
1.11355907e-154
8.8361037e-155
3.2656042e-152
2.60929399e-152
9.45471134e-150
7.60672549e-150
2.70208516e-147
2.18885123e-147
7.62157537e-145
6.2159439e-145
2.12134622e-142
1.74179095e-142
5.8253584e-140
4.81510639e-140
1.57796789e-137
1.31297477e-137
4.21555712e-135
3.53072564e-135
1.11046937e-132
9.36141954e-133
2.88378503e-130
2.44680317e-130
7.38125135e-128
6.30291711e-128
1.86170153e-125
1.59981967e-125
4.62595061e-123
4.00022806e-123
1.13212993e-120
9.85089508e-121
2.72825313e-118
2.38853748e-118
6.47217005e-116
5.7008162e-116
1.51102104e-113
1.33896276e-113
3.47071761e-111
3.09384572e-111
7.84084868e-109
7.03062137e-109
1.74165596e-106
1.57077319e-106
3.8025143e-104
3.44914102e-104
8.15708446e-102
7.44100904e-102
1.71867338e-99
1.57657286e-99
3.55530117e-97
3.27934551e-97
7.21781176e-95
6.69378675e-95
1.43744988e-92
1.34022953e-92
2.80698099e-90
2.63093317e-90
5.37200413e-88
5.0611983e-88
1.00707506e-85
9.53646318e-86
1.84833868e-83
1.75904229e-83
3.31930384e-81
3.17446515e-81
5.82900581e-79
5.60151052e-79
1.00033088e-76
9.65824445e-77
1.6764714e-74
1.62610762e-74
2.74178676e-72
2.67139125e-72
4.37236405e-70
4.2787684e-70
6.79329165e-68
6.67609062e-68
1.02739016e-65
1.01377964e-65
1.51099342e-63
1.49668566e-63
2.1587903e-61
2.14557393e-61
2.99290023e-59
2.98187653e-59
4.02144337e-57
4.00799207e-57
5.23011435e-55
5.19531705e-55
6.57449281e-53
6.48274969e-53
7.97547404e-51
7.77421962e-51
9.32057756e-49
9.31592253e-49
1.04702562e-46
1.04339865e-46
1.12882952e-44
1.12071093e-44
1.16505651e-42
1.15257136e-42
1.14811864e-40
1.1317293e-40
1.07717953e-38
1.0607992e-38
9.58995674e-37
9.36716151e-37
8.07236494e-35
8.06729023e-35
6.39433004e-33
6.38679903e-33
4.74616244e-31
4.73415214e-31
3.28117993e-29
3.26418391e-29
2.09853969e-27
2.08013647e-27
1.23162358e-25
1.21704257e-25
6.56773096e-24
6.48928516e-24
3.14333149e-22
3.11517101e-22
1.3293562e-20
1.31954742e-20
4.86820589e-19
4.86619127e-19
1.501256e-17
1.49933273e-17
3.74810106e-16
3.74229388e-16
1.12056484e-14
1.12838888e-14
1.46567316e-10
1.47086941e-10
0.00276982542
0.0124309716
0.463544966
0.577770326
0.71675728
0.661035559
0.269336026
0.224076837
0.0497349059
0.0400746115
0.0108739984
0.00978653428
0.00235326831
0.00219374989
0.000457248212
0.000442227002
8.16851252e-05
8.12005754e-05
1.41471094e-05
1.41400271e-05
2.74458166e-06
2.74789106e-06
9.62860157e-07
9.63063364e-07
7.03261386e-07
7.03241144e-07
6.67865033e-07
6.67868296e-07
6.63342725e-07
6.63342698e-07
6.62796361e-07
6.62797514e-07
6.6273375e-07
6.627352e-07
6.62726515e-07
6.62728832e-07
6.62726245e-07
6.62726347e-07
6.62726976e-07
6.6272537e-07
6.62727188e-07
6.62725863e-07
6.62727004e-07
6.62726353e-07
6.62727323e-07
6.62725815e-07
6.62727344e-07
6.62726665e-07
6.62727399e-07
6.62726883e-07
6.62727735e-07
6.62727007e-07
6.62727497e-07
6.62726947e-07
6.62727665e-07
6.62727022e-07
6.6272643e-07
6.62728359e-07
6.6272614e-07
6.6272743e-07
6.62726715e-07
6.62726809e-07
6.62726338e-07
6.62726543e-07
6.62725914e-07
6.62726619e-07
6.62726248e-07
6.62727234e-07
6.62725589e-07
6.62727662e-07
6.62725735e-07
6.62726775e-07
6.62725861e-07
6.62727432e-07
6.62725666e-07
6.62727829e-07
6.62725963e-07
6.62728221e-07
6.62726395e-07
6.62727385e-07
6.62726459e-07
6.62726592e-07
6.62726566e-07
6.62726309e-07
6.62727412e-07
6.62726087e-07
6.62726818e-07
6.62726096e-07
6.62727142e-07
6.62725355e-07
6.62728457e-07
6.62726021e-07
6.6272761e-07
6.62726402e-07
6.62728152e-07
6.62725858e-07
6.62727546e-07
6.62726694e-07
6.62727263e-07
6.62727136e-07
6.62727411e-07
6.62726836e-07
6.62727073e-07
6.62726731e-07
6.62726344e-07
6.62727988e-07
6.62725882e-07
6.62726873e-07
6.62726867e-07
6.62726541e-07
6.62726532e-07
6.62726876e-07
6.62726079e-07
6.62726595e-07
6.62726647e-07
6.62727029e-07
6.62725468e-07
6.62727764e-07
6.62725864e-07
6.62728148e-07
6.62725715e-07
6.62728342e-07
6.62725263e-07
6.62727078e-07
6.6272703e-07
6.6272735e-07
6.62726277e-07
6.62728223e-07
6.62726408e-07
6.62727818e-07
6.62727608e-07
6.62727197e-07
6.62727711e-07
6.6272797e-07
6.62727336e-07
6.62728216e-07
6.62727045e-07
6.62727905e-07
6.62727044e-07
6.62727004e-07
6.62726767e-07
6.62726757e-07
6.62726295e-07
6.6272705e-07
6.62725934e-07
6.62726793e-07
6.62725446e-07
6.62727989e-07
6.62726133e-07
6.6272643e-07
6.62728336e-07
6.62725435e-07
6.62728202e-07
6.62726011e-07
6.6272769e-07
6.62727247e-07
6.62727479e-07
6.62725949e-07
6.62727781e-07
6.62725775e-07
6.62728594e-07
6.62725866e-07
6.62729193e-07
6.62726071e-07
6.62728937e-07
6.62726421e-07
6.62727275e-07
6.62727173e-07
6.62727024e-07
6.6272576e-07
6.62727023e-07
6.62726277e-07
6.62726294e-07
6.6272769e-07
6.62725765e-07
6.6272846e-07
6.62728751e-07
6.62747771e-07
6.62749429e-07
6.62952471e-07
6.6295142e-07
6.62747867e-07
6.62748414e-07
6.62729177e-07
6.62727679e-07
6.62727001e-07
6.62727483e-07
6.62726824e-07
6.62727589e-07
6.62726619e-07
6.62728046e-07
6.62726062e-07
6.62728114e-07
6.62726769e-07
6.62727657e-07
6.62726784e-07
6.62727522e-07
6.62726665e-07
6.62727653e-07
6.62726434e-07
6.62728416e-07
6.62726113e-07
6.62728928e-07
6.62726031e-07
6.62728299e-07
6.62726537e-07
6.62727482e-07
6.62727045e-07
6.62728326e-07
6.62727109e-07
6.62727902e-07
6.62727322e-07
6.62727933e-07
6.62726914e-07
6.62727791e-07
6.62727363e-07
6.62727463e-07
6.62727228e-07
6.62726968e-07
6.62727887e-07
6.6272694e-07
6.62727261e-07
6.6272709e-07
6.6272811e-07
6.6272665e-07
6.6272717e-07
6.62728568e-07
6.6272575e-07
6.62727976e-07
6.62727564e-07
6.62726954e-07
6.62728129e-07
6.62727353e-07
6.62727335e-07
6.62727501e-07
6.62728249e-07
6.62727427e-07
6.62728045e-07
6.62727474e-07
6.62727855e-07
6.62727931e-07
6.62728619e-07
6.6272651e-07
6.62729498e-07
6.62725836e-07
6.62728839e-07
6.62726225e-07
6.62728102e-07
6.62727114e-07
6.6272656e-07
6.62728063e-07
6.62727136e-07
6.62727326e-07
6.62727358e-07
6.62728368e-07
6.62727653e-07
6.62726264e-07
6.62728432e-07
6.62727202e-07
6.627281e-07
6.6272822e-07
6.62727766e-07
6.62727675e-07
6.62727127e-07
6.6272784e-07
6.62726323e-07
6.62727853e-07
6.62726862e-07
6.62727605e-07
6.62726616e-07
6.62728678e-07
6.62725868e-07
6.62727996e-07
6.62727571e-07
6.62727727e-07
6.62727994e-07
6.62727305e-07
6.62727487e-07
6.62727793e-07
6.62726987e-07
6.62727842e-07
6.62727275e-07
6.62727381e-07
6.62726979e-07
6.6272772e-07
6.62727028e-07
6.62727263e-07
6.62727711e-07
6.62727304e-07
6.62727661e-07
6.62727966e-07
6.62727566e-07
6.62728316e-07
6.62726383e-07
6.62727394e-07
6.62727545e-07
6.62727418e-07
6.62727703e-07
6.62728651e-07
6.62727965e-07
6.62728104e-07
6.62728247e-07
6.62728179e-07
6.62728032e-07
6.62727362e-07
6.62728234e-07
6.62727556e-07
6.62727215e-07
6.62726727e-07
6.62728686e-07
6.62726077e-07
6.62728634e-07
6.627264e-07
6.62728264e-07
6.62727769e-07
6.62727509e-07
6.62728475e-07
6.62727373e-07
6.62728372e-07
6.62726218e-07
6.62728583e-07
6.62725609e-07
6.62729206e-07
6.62726684e-07
6.62728939e-07
6.62727427e-07
6.62727335e-07
6.62728039e-07
6.627284e-07
6.62727842e-07
6.62728118e-07
6.62727175e-07
6.62728111e-07
6.62727655e-07
6.6272764e-07
6.62727809e-07
6.62727922e-07
6.6272847e-07
6.62727507e-07
6.6272772e-07
6.62728162e-07
6.62728672e-07
6.62728076e-07
6.62728152e-07
6.62728598e-07
6.62728096e-07
6.62727522e-07
6.6272817e-07
6.62728122e-07
6.62727323e-07
6.62728473e-07
6.62727909e-07
6.6272773e-07
6.62727534e-07
6.62727202e-07
6.62727686e-07
6.62728092e-07
6.62727422e-07
6.62728558e-07
6.62727378e-07
6.62727616e-07
6.62728202e-07
6.62727977e-07
6.62727962e-07
6.62728201e-07
6.62727408e-07
6.62728331e-07
6.62727399e-07
6.62729022e-07
6.62727621e-07
6.62728505e-07
6.62728233e-07
6.62728166e-07
6.62728105e-07
6.62729478e-07
6.62727496e-07
6.6272829e-07
6.62727996e-07
6.62728706e-07
6.62728353e-07
6.62728271e-07
6.62727852e-07
6.6272817e-07
6.62728252e-07
6.6272841e-07
6.62727887e-07
6.62727235e-07
6.62729395e-07
6.62726342e-07
6.62728526e-07
6.62727065e-07
6.62728436e-07
6.6272763e-07
6.62727877e-07
6.62728615e-07
6.62728225e-07
6.6272783e-07
6.6272852e-07
6.6272778e-07
6.62728374e-07
6.62728138e-07
6.62728196e-07
6.62727132e-07
6.62729133e-07
6.6272632e-07
6.62729381e-07
6.6272639e-07
6.62729287e-07
6.62727858e-07
6.62727718e-07
6.62728427e-07
6.62728351e-07
6.62728563e-07
6.62727897e-07
6.62727882e-07
6.62728304e-07
6.62728155e-07
6.627282e-07
6.62728478e-07
6.62729237e-07
6.62728333e-07
6.62729014e-07
6.6272746e-07
6.6272988e-07
6.62727635e-07
6.62729565e-07
6.62728014e-07
6.62729062e-07
6.62727852e-07
6.62728658e-07
6.62728285e-07
6.62728647e-07
6.62728882e-07
6.62728586e-07
6.62729162e-07
6.62727678e-07
6.62729675e-07
6.62727628e-07
6.62729181e-07
6.62728607e-07
6.62728358e-07
6.62729047e-07
6.62727449e-07
6.62729206e-07
6.62728167e-07
6.62728689e-07
6.62728335e-07
6.6272872e-07
6.62728618e-07
6.62728584e-07
6.62728487e-07
6.62728647e-07
6.62728269e-07
6.62727982e-07
6.62728005e-07
6.62728939e-07
6.62728355e-07
6.62727852e-07
6.62728478e-07
6.62728891e-07
6.62728126e-07
6.62728329e-07
6.62727897e-07
6.62729314e-07
6.62727547e-07
6.62730059e-07
6.62728773e-07
6.62729093e-07
6.62728184e-07
6.62729978e-07
6.62727398e-07
6.62728788e-07
6.62727668e-07
6.62727887e-07
6.62728305e-07
6.62729033e-07
6.62728521e-07
6.62729244e-07
6.6272856e-07
6.62727966e-07
6.62728351e-07
6.62728424e-07
6.62728271e-07
6.62729147e-07
6.62727964e-07
6.62728573e-07
6.62728162e-07
6.62727623e-07
6.62728626e-07
6.6272763e-07
6.62729424e-07
6.62727748e-07
6.62730715e-07
6.62727528e-07
6.62729903e-07
6.62726939e-07
6.62729807e-07
6.62727894e-07
6.62728725e-07
6.62728399e-07
6.62728689e-07
6.62728853e-07
6.62728404e-07
6.62729108e-07
6.62728562e-07
6.62727541e-07
6.62729562e-07
6.62728132e-07
6.62728621e-07
6.62728844e-07
6.6272883e-07
6.62728314e-07
6.62728748e-07
6.62728575e-07
6.62728808e-07
6.6272857e-07
6.62728757e-07
6.62728951e-07
6.62728619e-07
6.62728611e-07
6.62728924e-07
6.62728794e-07
6.62728874e-07
6.62728711e-07
6.62728918e-07
6.62728759e-07
6.62728873e-07
6.62728921e-07
6.62728981e-07
6.62728945e-07
6.62729005e-07
6.6272913e-07
6.62729148e-07
6.62729106e-07
6.62729238e-07
6.62729291e-07
6.62729291e-07
6.62729381e-07
6.62729455e-07
6.62729583e-07
6.62729621e-07
6.6272971e-07
6.62729832e-07
6.62729906e-07
6.62730043e-07
6.62730208e-07
6.62730373e-07
6.62730509e-07
6.62730758e-07
6.62730994e-07
6.62731271e-07
6.62731591e-07
6.6273191e-07
6.62732238e-07
6.62732558e-07
6.62732812e-07
6.62732975e-07
6.62733071e-07
6.62733137e-07
6.62733202e-07
6.6273319e-07
6.62733215e-07
6.62733216e-07
6.62733208e-07
6.62733218e-07
6.62733218e-07
6.62733202e-07
6.62733232e-07
6.62733197e-07
6.62733202e-07
6.62733204e-07
6.62733207e-07
6.62733205e-07
6.62733204e-07
6.62733212e-07
6.62733202e-07
6.62733193e-07
6.62733227e-07
)
;

boundaryField
{
    closed
    {
        type            calculated;
        value           uniform 0;
    }
    open
    {
        type            calculated;
        value           uniform 0;
    }
    sides
    {
        type            empty;
    }
}


// ************************************************************************* //
