/*--------------------------------*- C++ -*----------------------------------*\
| =========                 |                                                 |
| \\      /  F ield         | OpenFOAM: The Open Source CFD Toolbox           |
|  \\    /   O peration     | Version:  2206                                  |
|   \\  /    A nd           | Website:  www.openfoam.com                      |
|    \\/     M anipulation  |                                                 |
\*---------------------------------------------------------------------------*/
FoamFile
{
    version     2.0;
    format      ascii;
    arch        "LSB;label=32;scalar=64";
    class       volVectorField;
    location    "1.72e-05";
    object      U;
}
// * * * * * * * * * * * * * * * * * * * * * * * * * * * * * * * * * * * * * //

dimensions      [0 1 -1 0 0 0 0];

internalField   nonuniform List<vector> 
3183
(
(5.17091837e-13 0 0)
(2.37852922e-13 0 0)
(-3.75410675e-13 0 0)
(-4.6886906e-13 0 0)
(-1.82652741e-13 0 0)
(-1.34556134e-17 0 0)
(-1.01267413e-18 0 0)
(-1.00827008e-22 0 0)
(7.45285738e-20 0 0)
(2.76651854e-18 0 0)
(4.56306189e-14 0 0)
(3.20948626e-13 0 0)
(7.63569354e-13 0 0)
(3.15504131e-13 0 0)
(1.99218665e-13 0 0)
(-7.37344682e-15 0 0)
(-4.29565844e-13 0 0)
(-7.16586439e-13 0 0)
(-1.03201023e-12 0 0)
(-2.84128874e-13 0 0)
(3.60076152e-13 0 0)
(2.26016483e-16 0 0)
(1.6817726e-13 0 0)
(4.08983608e-13 0 0)
(5.00245476e-13 0 0)
(1.02813064e-12 0 0)
(9.33435104e-13 0 0)
(5.95940502e-13 0 0)
(2.07486515e-13 0 0)
(1.04476859e-13 0 0)
(-4.69229697e-14 0 0)
(4.10391371e-14 0 0)
(-5.50565339e-13 0 0)
(-8.08757758e-13 0 0)
(-6.96922627e-13 0 0)
(-7.34217087e-13 0 0)
(-1.18943334e-12 0 0)
(-1.45426586e-12 0 0)
(-1.18764095e-12 0 0)
(-9.61876894e-13 0 0)
(-5.9015935e-13 0 0)
(1.54040913e-14 0 0)
(6.80550974e-13 0 0)
(6.00300593e-13 0 0)
(1.30428733e-12 0 0)
(1.88008658e-12 0 0)
(1.74866228e-12 0 0)
(1.74451156e-12 0 0)
(1.30623037e-12 0 0)
(1.01737836e-12 0 0)
(4.17344266e-13 0 0)
(8.60292064e-14 0 0)
(-8.88662595e-13 0 0)
(-9.95062109e-13 0 0)
(-1.48336193e-12 0 0)
(-2.2498845e-12 0 0)
(-2.79368416e-12 0 0)
(-3.34575637e-12 0 0)
(-3.97420824e-12 0 0)
(-4.22632815e-12 0 0)
(-4.55227339e-12 0 0)
(-5.20053925e-12 0 0)
(-5.17305266e-12 0 0)
(-5.91466728e-12 0 0)
(-5.40876201e-12 0 0)
(-5.88701966e-12 0 0)
(-6.09959774e-12 0 0)
(-5.68014679e-12 0 0)
(-5.84620914e-12 0 0)
(-6.43574787e-12 0 0)
(-6.51187051e-12 0 0)
(-6.6983129e-12 0 0)
(-6.17163487e-12 0 0)
(-6.74629643e-12 0 0)
(-7.54895958e-12 0 0)
(-6.99511799e-12 0 0)
(-7.54846045e-12 0 0)
(-7.14813675e-12 0 0)
(-7.55835309e-12 0 0)
(-7.91212808e-12 0 0)
(-9.23881399e-12 0 0)
(-7.69573462e-12 0 0)
(-8.4536454e-12 0 0)
(-9.46711565e-12 0 0)
(-8.57313107e-12 0 0)
(-8.33719894e-12 0 0)
(-9.17788374e-12 0 0)
(-9.57584677e-12 0 0)
(-8.64232081e-12 0 0)
(-9.44673419e-12 0 0)
(-1.03635872e-11 0 0)
(-1.04102577e-11 0 0)
(-9.49363156e-12 0 0)
(-9.94649938e-12 0 0)
(-1.0456961e-11 0 0)
(-1.06448724e-11 0 0)
(-1.03032356e-11 0 0)
(-1.00203321e-11 0 0)
(-1.06152351e-11 0 0)
(-1.04382652e-11 0 0)
(-1.04668081e-11 0 0)
(-1.09154693e-11 0 0)
(-1.09624029e-11 0 0)
(-1.0026384e-11 0 0)
(-9.58446913e-12 0 0)
(-1.00819673e-11 0 0)
(-1.04887988e-11 0 0)
(-1.11587536e-11 0 0)
(-1.15091598e-11 0 0)
(-1.07447174e-11 0 0)
(-9.85075685e-12 0 0)
(-9.98942251e-12 0 0)
(-9.51821066e-12 0 0)
(-1.04716174e-11 0 0)
(-1.01186277e-11 0 0)
(-1.11426027e-11 0 0)
(-1.06370502e-11 0 0)
(-1.04659949e-11 0 0)
(-1.14548296e-11 0 0)
(-1.14827653e-11 0 0)
(-1.19147971e-11 0 0)
(-1.08829525e-11 0 0)
(-1.02436434e-11 0 0)
(-1.08325618e-11 0 0)
(-1.13922827e-11 0 0)
(-1.14381965e-11 0 0)
(-1.23372119e-11 0 0)
(-1.23560713e-11 0 0)
(-1.16041846e-11 0 0)
(-1.26972385e-11 0 0)
(-1.23505295e-11 0 0)
(-1.14684796e-11 0 0)
(-1.30121981e-11 0 0)
(-1.34965176e-11 0 0)
(-1.08077658e-11 0 0)
(-1.37687679e-11 0 0)
(-1.37663558e-11 0 0)
(-1.28630335e-11 0 0)
(-1.37564778e-11 0 0)
(-1.35638877e-11 0 0)
(-1.43859604e-11 0 0)
(-1.3787218e-11 0 0)
(-1.41209454e-11 0 0)
(-1.44452808e-11 0 0)
(-1.28856638e-11 0 0)
(-1.39968684e-11 0 0)
(-1.32847994e-11 0 0)
(-1.42378669e-11 0 0)
(-1.35067034e-11 0 0)
(-1.33282101e-11 0 0)
(-1.37756243e-11 0 0)
(-1.43261218e-11 0 0)
(-1.34578183e-11 0 0)
(-1.33226367e-11 0 0)
(-1.41911119e-11 0 0)
(-1.27368343e-11 0 0)
(-1.48695267e-11 0 0)
(-1.38158069e-11 0 0)
(-1.30033562e-11 0 0)
(-1.34940743e-11 0 0)
(-1.38056534e-11 0 0)
(-1.34090771e-11 0 0)
(-1.34966622e-11 0 0)
(-1.31941901e-11 0 0)
(-1.41249521e-11 0 0)
(-1.34483618e-11 0 0)
(-1.33526805e-11 0 0)
(-1.26270028e-11 0 0)
(-1.27482825e-11 0 0)
(-1.40875865e-11 0 0)
(-1.30127545e-11 0 0)
(-1.23834442e-11 0 0)
(-1.30345479e-11 0 0)
(-1.2979793e-11 0 0)
(-1.26102982e-11 0 0)
(-1.34112769e-11 0 0)
(-1.4448544e-11 0 0)
(-1.26668112e-11 0 0)
(-1.35157466e-11 0 0)
(-1.44560114e-11 0 0)
(-1.34004023e-11 0 0)
(-1.38633393e-11 0 0)
(-1.34838202e-11 0 0)
(-1.41707784e-11 0 0)
(-1.43680394e-11 0 0)
(-1.53414254e-11 0 0)
(-1.42568341e-11 0 0)
(-1.47619794e-11 0 0)
(-1.53787836e-11 0 0)
(-1.4750761e-11 0 0)
(-1.49388125e-11 0 0)
(-1.54993403e-11 0 0)
(-1.54364721e-11 0 0)
(-1.58498442e-11 0 0)
(-1.56410549e-11 0 0)
(-1.53779563e-11 0 0)
(-1.51826325e-11 0 0)
(-1.46142182e-11 0 0)
(-1.57022835e-11 0 0)
(-1.56902018e-11 0 0)
(-1.4742963e-11 0 0)
(-1.55655063e-11 0 0)
(-1.46338942e-11 0 0)
(-1.56398055e-11 0 0)
(-1.48458383e-11 0 0)
(-1.47241111e-11 0 0)
(-1.53844497e-11 0 0)
(-1.53779101e-11 0 0)
(-1.68564519e-11 0 0)
(-1.54428248e-11 0 0)
(-1.52868455e-11 0 0)
(-1.65803089e-11 0 0)
(-1.57305694e-11 0 0)
(-1.71742208e-11 0 0)
(-1.57246266e-11 0 0)
(-1.6977795e-11 0 0)
(-1.61854639e-11 0 0)
(-1.54253431e-11 0 0)
(-1.62299875e-11 0 0)
(-1.69764899e-11 0 0)
(-1.63091907e-11 0 0)
(-1.70082854e-11 0 0)
(-1.64532217e-11 0 0)
(-1.68803227e-11 0 0)
(-1.60080382e-11 0 0)
(-1.56874019e-11 0 0)
(-1.61325204e-11 0 0)
(-1.69616619e-11 0 0)
(-1.70542432e-11 0 0)
(-1.67943326e-11 0 0)
(-1.65447119e-11 0 0)
(-1.73953504e-11 0 0)
(-1.74108456e-11 0 0)
(-1.80916208e-11 0 0)
(-1.69010651e-11 0 0)
(-1.66310686e-11 0 0)
(-1.68051476e-11 0 0)
(-1.71998179e-11 0 0)
(-1.68032467e-11 0 0)
(-1.66249632e-11 0 0)
(-1.74966932e-11 0 0)
(-1.70709949e-11 0 0)
(-1.61881043e-11 0 0)
(-1.64180293e-11 0 0)
(-1.67783658e-11 0 0)
(-1.68288258e-11 0 0)
(-1.60999919e-11 0 0)
(-1.54169412e-11 0 0)
(-1.56684192e-11 0 0)
(-1.55019373e-11 0 0)
(-1.63749531e-11 0 0)
(-1.62822772e-11 0 0)
(-1.65051906e-11 0 0)
(-1.55029611e-11 0 0)
(-1.66691013e-11 0 0)
(-1.5114171e-11 0 0)
(-1.68909223e-11 0 0)
(-1.60794321e-11 0 0)
(-1.60998393e-11 0 0)
(-1.71234031e-11 0 0)
(-1.68555338e-11 0 0)
(-1.72605717e-11 0 0)
(-1.65804939e-11 0 0)
(-1.71467444e-11 0 0)
(-1.74028435e-11 0 0)
(-1.74516982e-11 0 0)
(-1.71017149e-11 0 0)
(-1.76382096e-11 0 0)
(-1.75975878e-11 0 0)
(-1.78182878e-11 0 0)
(-1.85954596e-11 0 0)
(-1.96876344e-11 0 0)
(-1.92669453e-11 0 0)
(-1.88402746e-11 0 0)
(-1.96687475e-11 0 0)
(-1.85622479e-11 0 0)
(-2.00715371e-11 0 0)
(-2.00331627e-11 0 0)
(-1.94609921e-11 0 0)
(-1.98435899e-11 0 0)
(-1.90344722e-11 0 0)
(-1.97028315e-11 0 0)
(-2.02263868e-11 0 0)
(-2.02492052e-11 0 0)
(-1.97878806e-11 0 0)
(-2.03704169e-11 0 0)
(-2.02107661e-11 0 0)
(-1.9668022e-11 0 0)
(-2.0740494e-11 0 0)
(-1.90691765e-11 0 0)
(-1.95113093e-11 0 0)
(-1.9641009e-11 0 0)
(-1.92434434e-11 0 0)
(-1.93034636e-11 0 0)
(-1.98282811e-11 0 0)
(-1.92294749e-11 0 0)
(-1.9298902e-11 0 0)
(-2.05113027e-11 0 0)
(-1.95639089e-11 0 0)
(-1.99845843e-11 0 0)
(-1.9449681e-11 0 0)
(-2.0278663e-11 0 0)
(-1.8674571e-11 0 0)
(-1.9460275e-11 0 0)
(-1.97436939e-11 0 0)
(-2.08177857e-11 0 0)
(-1.88518946e-11 0 0)
(-1.96845947e-11 0 0)
(-2.12846425e-11 0 0)
(-2.01734658e-11 0 0)
(-2.16356753e-11 0 0)
(-2.17214101e-11 0 0)
(-2.06175995e-11 0 0)
(-2.14011062e-11 0 0)
(-2.14092601e-11 0 0)
(-2.21150661e-11 0 0)
(-2.09149834e-11 0 0)
(-2.17208638e-11 0 0)
(-2.13945854e-11 0 0)
(-2.18639424e-11 0 0)
(-2.19508943e-11 0 0)
(-2.2176006e-11 0 0)
(-2.12127693e-11 0 0)
(-2.07731997e-11 0 0)
(-2.23923484e-11 0 0)
(-2.0761174e-11 0 0)
(-2.14571772e-11 0 0)
(-2.04375284e-11 0 0)
(-2.07848142e-11 0 0)
(-2.1536501e-11 0 0)
(-2.05097053e-11 0 0)
(-2.10977656e-11 0 0)
(-2.06840733e-11 0 0)
(-2.08461194e-11 0 0)
(-1.97120015e-11 0 0)
(-1.95954226e-11 0 0)
(-1.90692831e-11 0 0)
(-1.98527351e-11 0 0)
(-1.99878785e-11 0 0)
(-1.93241585e-11 0 0)
(-1.82105427e-11 0 0)
(-1.94709471e-11 0 0)
(-1.89948259e-11 0 0)
(-1.78119387e-11 0 0)
(-1.93381386e-11 0 0)
(-1.94807232e-11 0 0)
(-1.88343355e-11 0 0)
(-1.88262442e-11 0 0)
(-1.92556816e-11 0 0)
(-1.96346055e-11 0 0)
(-1.88396683e-11 0 0)
(-1.98546184e-11 0 0)
(-1.99695703e-11 0 0)
(-1.94699051e-11 0 0)
(-1.88170263e-11 0 0)
(-1.91463697e-11 0 0)
(-1.98833759e-11 0 0)
(-1.88013609e-11 0 0)
(-1.89807181e-11 0 0)
(-1.82535294e-11 0 0)
(-1.8934867e-11 0 0)
(-1.92895111e-11 0 0)
(-1.86873725e-11 0 0)
(-1.81521982e-11 0 0)
(-1.86682824e-11 0 0)
(-1.88893997e-11 0 0)
(-1.86863547e-11 0 0)
(-1.9198477e-11 0 0)
(-1.86823842e-11 0 0)
(-1.84864759e-11 0 0)
(-1.76916062e-11 0 0)
(-1.81070317e-11 0 0)
(-1.77434304e-11 0 0)
(-1.60344483e-11 0 0)
(-1.75689681e-11 0 0)
(-1.80460123e-11 0 0)
(-1.69492999e-11 0 0)
(-1.72451325e-11 0 0)
(-1.67622487e-11 0 0)
(-1.70114122e-11 0 0)
(-1.72571773e-11 0 0)
(-1.67555993e-11 0 0)
(-1.61617461e-11 0 0)
(-1.56197244e-11 0 0)
(-1.67485104e-11 0 0)
(-1.71758475e-11 0 0)
(-1.63345911e-11 0 0)
(-1.80001051e-11 0 0)
(-1.68579537e-11 0 0)
(-1.70772277e-11 0 0)
(-1.61700984e-11 0 0)
(-1.72651913e-11 0 0)
(-1.61227319e-11 0 0)
(-1.60359186e-11 0 0)
(-1.66035581e-11 0 0)
(-1.64216554e-11 0 0)
(-1.62561162e-11 0 0)
(-1.71066747e-11 0 0)
(-1.60323396e-11 0 0)
(-1.54329386e-11 0 0)
(-1.62772938e-11 0 0)
(-1.62675996e-11 0 0)
(-1.52049536e-11 0 0)
(-1.56667573e-11 0 0)
(-1.55303284e-11 0 0)
(-1.49240946e-11 0 0)
(-1.51195922e-11 0 0)
(-1.4930549e-11 0 0)
(-1.44698481e-11 0 0)
(-1.57270084e-11 0 0)
(-1.50569339e-11 0 0)
(-1.46299906e-11 0 0)
(-1.45740469e-11 0 0)
(-1.45724664e-11 0 0)
(-1.58278627e-11 0 0)
(-1.42207479e-11 0 0)
(-1.4385438e-11 0 0)
(-1.37172237e-11 0 0)
(-1.45872441e-11 0 0)
(-1.47136545e-11 0 0)
(-1.44257029e-11 0 0)
(-1.39128205e-11 0 0)
(-1.41527698e-11 0 0)
(-1.36710913e-11 0 0)
(-1.30201245e-11 0 0)
(-1.33705964e-11 0 0)
(-1.31221599e-11 0 0)
(-1.28883259e-11 0 0)
(-1.32849179e-11 0 0)
(-1.24822788e-11 0 0)
(-1.27083982e-11 0 0)
(-1.319552e-11 0 0)
(-1.33184278e-11 0 0)
(-1.28609099e-11 0 0)
(-1.27387341e-11 0 0)
(-1.33897994e-11 0 0)
(-1.38573766e-11 0 0)
(-1.35731828e-11 0 0)
(-1.26929695e-11 0 0)
(-1.29164771e-11 0 0)
(-1.24445614e-11 0 0)
(-1.28683391e-11 0 0)
(-1.28576878e-11 0 0)
(-1.24756082e-11 0 0)
(-1.27659097e-11 0 0)
(-1.14342036e-11 0 0)
(-1.28395453e-11 0 0)
(-1.2910493e-11 0 0)
(-1.28459441e-11 0 0)
(-1.23968484e-11 0 0)
(-1.32821964e-11 0 0)
(-1.36011765e-11 0 0)
(-1.40266771e-11 0 0)
(-1.31361753e-11 0 0)
(-1.23548927e-11 0 0)
(-1.25820903e-11 0 0)
(-1.29028456e-11 0 0)
(-1.28281853e-11 0 0)
(-1.24242691e-11 0 0)
(-1.17854657e-11 0 0)
(-1.30531641e-11 0 0)
(-1.20799696e-11 0 0)
(-1.35932975e-11 0 0)
(-1.31267829e-11 0 0)
(-1.25966268e-11 0 0)
(-1.25836276e-11 0 0)
(-1.31741899e-11 0 0)
(-1.21421297e-11 0 0)
(-1.14986103e-11 0 0)
(-1.29616803e-11 0 0)
(-1.16726541e-11 0 0)
(-1.13084465e-11 0 0)
(-1.12583059e-11 0 0)
(-1.17809113e-11 0 0)
(-1.05426053e-11 0 0)
(-1.15258676e-11 0 0)
(-1.14398721e-11 0 0)
(-1.22851062e-11 0 0)
(-1.1117535e-11 0 0)
(-1.08820531e-11 0 0)
(-1.14162526e-11 0 0)
(-1.21649171e-11 0 0)
(-1.19033642e-11 0 0)
(-1.06960521e-11 0 0)
(-1.13236514e-11 0 0)
(-1.14477187e-11 0 0)
(-1.11626178e-11 0 0)
(-1.2044197e-11 0 0)
(-1.0431708e-11 0 0)
(-1.009587e-11 0 0)
(-1.05634693e-11 0 0)
(-1.07550749e-11 0 0)
(-1.19356322e-11 0 0)
(-1.18257226e-11 0 0)
(-1.12266596e-11 0 0)
(-1.1110818e-11 0 0)
(-1.11622791e-11 0 0)
(-1.16918251e-11 0 0)
(-1.08973052e-11 0 0)
(-1.02579116e-11 0 0)
(-1.05142622e-11 0 0)
(-9.77523488e-12 0 0)
(-9.92232233e-12 0 0)
(-9.46996789e-12 0 0)
(-8.66033809e-12 0 0)
(-9.3901427e-12 0 0)
(-8.97573967e-12 0 0)
(-7.41901211e-12 0 0)
(-8.59605104e-12 0 0)
(-8.71487224e-12 0 0)
(-8.35251793e-12 0 0)
(-8.47963756e-12 0 0)
(-8.23554179e-12 0 0)
(-8.31118223e-12 0 0)
(-8.14350661e-12 0 0)
(-8.64026266e-12 0 0)
(-8.57227279e-12 0 0)
(-7.513101e-12 0 0)
(-7.55805852e-12 0 0)
(-7.91157144e-12 0 0)
(-8.81740692e-12 0 0)
(-7.66053937e-12 0 0)
(-7.16838377e-12 0 0)
(-9.01725794e-12 0 0)
(-7.79203748e-12 0 0)
(-7.21864488e-12 0 0)
(-8.00885229e-12 0 0)
(-6.95116449e-12 0 0)
(-6.88432003e-12 0 0)
(-7.9869462e-12 0 0)
(-7.27062214e-12 0 0)
(-5.95769184e-12 0 0)
(-7.1880057e-12 0 0)
(-8.11161566e-12 0 0)
(-6.60562462e-12 0 0)
(-6.4036642e-12 0 0)
(-6.24676629e-12 0 0)
(-6.15125834e-12 0 0)
(-6.1624904e-12 0 0)
(-6.60968986e-12 0 0)
(-5.44052679e-12 0 0)
(-5.33276719e-12 0 0)
(-5.00863414e-12 0 0)
(-5.85185753e-12 0 0)
(-5.0918831e-12 0 0)
(-4.38512521e-12 0 0)
(-4.88591993e-12 0 0)
(-5.1511494e-12 0 0)
(-5.03069252e-12 0 0)
(-4.45678821e-12 0 0)
(-4.1237794e-12 0 0)
(-4.47415894e-12 0 0)
(-5.86257916e-12 0 0)
(-4.96109648e-12 0 0)
(-5.41151247e-12 0 0)
(-4.97523918e-12 0 0)
(-4.80718158e-12 0 0)
(-3.99170964e-12 0 0)
(-5.42573831e-12 0 0)
(-4.43620003e-12 0 0)
(-4.71976497e-12 0 0)
(-5.01085904e-12 0 0)
(-4.57415257e-12 0 0)
(-3.86432033e-12 0 0)
(-4.53448051e-12 0 0)
(-3.09327591e-12 0 0)
(-2.97409238e-12 0 0)
(-3.60829638e-12 0 0)
(-2.02185149e-12 0 0)
(-2.80161626e-12 0 0)
(-2.98895472e-12 0 0)
(-2.77788687e-12 0 0)
(-1.5095342e-12 0 0)
(-1.67816481e-12 0 0)
(-1.41174082e-12 0 0)
(-1.75563302e-12 0 0)
(-1.57878964e-12 0 0)
(-8.80886217e-13 0 0)
(-2.95296801e-13 0 0)
(-9.90668218e-13 0 0)
(-8.64608386e-13 0 0)
(-4.68547505e-13 0 0)
(8.85137539e-13 0 0)
(-2.30430837e-13 0 0)
(1.12826906e-13 0 0)
(1.61158351e-13 0 0)
(3.33824133e-13 0 0)
(1.26893317e-13 0 0)
(8.20440051e-13 0 0)
(1.11548911e-12 0 0)
(1.35336035e-12 0 0)
(1.27539195e-12 0 0)
(1.16336874e-12 0 0)
(2.17321572e-12 0 0)
(4.77860722e-13 0 0)
(1.19818435e-12 0 0)
(9.46628129e-13 0 0)
(1.4406314e-12 0 0)
(4.97421217e-13 0 0)
(6.71854277e-13 0 0)
(7.89333089e-13 0 0)
(7.9132316e-13 0 0)
(5.98100125e-13 0 0)
(6.98037955e-13 0 0)
(1.38730474e-12 0 0)
(-5.79682499e-14 0 0)
(1.49713132e-12 0 0)
(1.15330423e-12 0 0)
(3.00890497e-13 0 0)
(1.36444998e-12 0 0)
(1.05633915e-12 0 0)
(1.20253945e-12 0 0)
(1.47931478e-12 0 0)
(9.0835834e-13 0 0)
(8.77687465e-13 0 0)
(1.34691178e-12 0 0)
(1.73608176e-12 0 0)
(1.57111144e-12 0 0)
(8.87799748e-13 0 0)
(1.23611129e-12 0 0)
(1.45977919e-12 0 0)
(2.08702273e-13 0 0)
(9.6343327e-13 0 0)
(5.08224985e-13 0 0)
(9.65814019e-13 0 0)
(2.74532078e-13 0 0)
(9.47106862e-13 0 0)
(9.86298108e-13 0 0)
(1.44388419e-12 0 0)
(1.66818389e-12 0 0)
(1.47106774e-12 0 0)
(1.01700989e-12 0 0)
(1.86072475e-12 0 0)
(9.49032717e-13 0 0)
(1.47716442e-12 0 0)
(1.56206371e-12 0 0)
(1.67141039e-12 0 0)
(1.12850284e-12 0 0)
(1.36383477e-12 0 0)
(9.65944753e-13 0 0)
(1.89457011e-12 0 0)
(2.05664317e-12 0 0)
(1.9453818e-12 0 0)
(1.75617367e-12 0 0)
(2.54286643e-12 0 0)
(1.5843648e-12 0 0)
(1.76975939e-12 0 0)
(1.69530152e-12 0 0)
(1.28581966e-12 0 0)
(1.9863972e-12 0 0)
(1.56407075e-12 0 0)
(2.56013954e-12 0 0)
(1.89261374e-12 0 0)
(2.1893525e-12 0 0)
(1.86875196e-12 0 0)
(2.10792529e-12 0 0)
(2.83038314e-12 0 0)
(2.07604327e-12 0 0)
(2.6481197e-12 0 0)
(2.04269286e-12 0 0)
(2.44366205e-12 0 0)
(3.76316116e-12 0 0)
(2.64273629e-12 0 0)
(2.33818375e-12 0 0)
(3.22616185e-12 0 0)
(2.61727996e-12 0 0)
(3.08212346e-12 0 0)
(2.89286943e-12 0 0)
(3.47154402e-12 0 0)
(3.33399918e-12 0 0)
(4.07251288e-12 0 0)
(2.81297424e-12 0 0)
(3.38066382e-12 0 0)
(2.70884584e-12 0 0)
(3.4982896e-12 0 0)
(3.70202255e-12 0 0)
(4.19636185e-12 0 0)
(3.47476159e-12 0 0)
(3.9364048e-12 0 0)
(4.1997231e-12 0 0)
(4.36998565e-12 0 0)
(5.15802933e-12 0 0)
(5.11216864e-12 0 0)
(5.222706e-12 0 0)
(4.84751805e-12 0 0)
(4.59284385e-12 0 0)
(5.22400222e-12 0 0)
(5.78208428e-12 0 0)
(5.23889291e-12 0 0)
(5.46554776e-12 0 0)
(5.20513216e-12 0 0)
(5.69001207e-12 0 0)
(4.56614939e-12 0 0)
(4.47404164e-12 0 0)
(6.52574245e-12 0 0)
(6.52739017e-12 0 0)
(5.35556482e-12 0 0)
(5.43593113e-12 0 0)
(6.46119054e-12 0 0)
(7.29923374e-12 0 0)
(6.10301462e-12 0 0)
(6.5745362e-12 0 0)
(6.94580692e-12 0 0)
(6.66105221e-12 0 0)
(7.00937421e-12 0 0)
(7.76988477e-12 0 0)
(7.8754508e-12 0 0)
(7.29164219e-12 0 0)
(7.17536105e-12 0 0)
(7.63336743e-12 0 0)
(7.67225713e-12 0 0)
(7.46299989e-12 0 0)
(7.15946026e-12 0 0)
(7.86188201e-12 0 0)
(7.19119214e-12 0 0)
(7.1415398e-12 0 0)
(7.5607002e-12 0 0)
(7.26745426e-12 0 0)
(7.91096488e-12 0 0)
(7.53833556e-12 0 0)
(7.73148325e-12 0 0)
(7.07874892e-12 0 0)
(8.01351374e-12 0 0)
(8.70760499e-12 0 0)
(7.20562128e-12 0 0)
(8.17792257e-12 0 0)
(7.29118754e-12 0 0)
(7.58635496e-12 0 0)
(7.96151899e-12 0 0)
(8.55893981e-12 0 0)
(7.85924093e-12 0 0)
(7.5092149e-12 0 0)
(7.51859593e-12 0 0)
(7.07952754e-12 0 0)
(8.22092515e-12 0 0)
(7.5410356e-12 0 0)
(8.1777714e-12 0 0)
(7.46282435e-12 0 0)
(7.57213071e-12 0 0)
(7.86573275e-12 0 0)
(7.78938675e-12 0 0)
(7.931315e-12 0 0)
(6.47220986e-12 0 0)
(7.53060195e-12 0 0)
(7.78952632e-12 0 0)
(6.92069069e-12 0 0)
(8.50365751e-12 0 0)
(7.51237779e-12 0 0)
(8.78252755e-12 0 0)
(8.36319518e-12 0 0)
(7.63125503e-12 0 0)
(7.96805562e-12 0 0)
(8.18085416e-12 0 0)
(7.28210611e-12 0 0)
(8.33441888e-12 0 0)
(8.10375421e-12 0 0)
(7.86961466e-12 0 0)
(6.80505956e-12 0 0)
(7.85301006e-12 0 0)
(6.96211416e-12 0 0)
(7.25316962e-12 0 0)
(6.80672721e-12 0 0)
(6.80246443e-12 0 0)
(7.0322359e-12 0 0)
(7.34274303e-12 0 0)
(7.88405088e-12 0 0)
(7.20563152e-12 0 0)
(7.1512697e-12 0 0)
(7.58805256e-12 0 0)
(7.0479835e-12 0 0)
(7.81450863e-12 0 0)
(7.1458204e-12 0 0)
(6.90925023e-12 0 0)
(7.70096968e-12 0 0)
(6.90893437e-12 0 0)
(7.69166807e-12 0 0)
(7.55138467e-12 0 0)
(8.21329824e-12 0 0)
(7.59962304e-12 0 0)
(8.05707582e-12 0 0)
(8.73417498e-12 0 0)
(8.12526388e-12 0 0)
(9.06919986e-12 0 0)
(7.47257962e-12 0 0)
(8.64486778e-12 0 0)
(8.60963293e-12 0 0)
(8.38765949e-12 0 0)
(8.49307833e-12 0 0)
(7.89338521e-12 0 0)
(8.19700814e-12 0 0)
(8.75710372e-12 0 0)
(8.64829144e-12 0 0)
(7.43340874e-12 0 0)
(7.05724266e-12 0 0)
(9.20232922e-12 0 0)
(8.47220736e-12 0 0)
(8.15564964e-12 0 0)
(9.00661953e-12 0 0)
(9.09050049e-12 0 0)
(8.10638243e-12 0 0)
(8.04388739e-12 0 0)
(7.75624358e-12 0 0)
(9.16369001e-12 0 0)
(9.53945565e-12 0 0)
(9.06893451e-12 0 0)
(9.54179283e-12 0 0)
(1.00165621e-11 0 0)
(9.24151402e-12 0 0)
(8.99147799e-12 0 0)
(9.13512375e-12 0 0)
(9.62891774e-12 0 0)
(8.27791068e-12 0 0)
(9.11765784e-12 0 0)
(9.96791432e-12 0 0)
(8.39538507e-12 0 0)
(8.73686502e-12 0 0)
(9.14714115e-12 0 0)
(8.90303009e-12 0 0)
(8.65666851e-12 0 0)
(8.88931608e-12 0 0)
(9.4634359e-12 0 0)
(9.56919093e-12 0 0)
(9.07707405e-12 0 0)
(9.38894006e-12 0 0)
(9.17663463e-12 0 0)
(9.67140895e-12 0 0)
(8.9416068e-12 0 0)
(8.51656884e-12 0 0)
(8.97957183e-12 0 0)
(9.99251928e-12 0 0)
(8.639629e-12 0 0)
(8.81580336e-12 0 0)
(8.6490754e-12 0 0)
(9.088245e-12 0 0)
(9.01189015e-12 0 0)
(9.07592035e-12 0 0)
(8.90178293e-12 0 0)
(9.62070488e-12 0 0)
(9.58257547e-12 0 0)
(9.98835737e-12 0 0)
(9.38225681e-12 0 0)
(8.87159137e-12 0 0)
(1.00805372e-11 0 0)
(9.7030898e-12 0 0)
(9.80591095e-12 0 0)
(9.40007882e-12 0 0)
(9.72401465e-12 0 0)
(9.92008246e-12 0 0)
(9.62879635e-12 0 0)
(8.42295551e-12 0 0)
(8.64231879e-12 0 0)
(8.75886911e-12 0 0)
(9.62978189e-12 0 0)
(9.22757984e-12 0 0)
(9.26643979e-12 0 0)
(9.41640732e-12 0 0)
(1.02037585e-11 0 0)
(9.6939777e-12 0 0)
(9.75601763e-12 0 0)
(9.83123099e-12 0 0)
(9.18814152e-12 0 0)
(9.85135698e-12 0 0)
(1.01606212e-11 0 0)
(1.10033692e-11 0 0)
(1.00114164e-11 0 0)
(9.64997406e-12 0 0)
(1.05164844e-11 0 0)
(1.02139181e-11 0 0)
(1.02863886e-11 0 0)
(1.07340763e-11 0 0)
(1.02356262e-11 0 0)
(1.05678724e-11 0 0)
(1.13499394e-11 0 0)
(1.0781009e-11 0 0)
(1.1378926e-11 0 0)
(1.11830803e-11 0 0)
(1.11283389e-11 0 0)
(1.13917183e-11 0 0)
(1.02407112e-11 0 0)
(1.14279447e-11 0 0)
(1.12326549e-11 0 0)
(1.10693391e-11 0 0)
(1.01724892e-11 0 0)
(1.15637501e-11 0 0)
(1.18505672e-11 0 0)
(1.08911335e-11 0 0)
(1.20378634e-11 0 0)
(1.18972191e-11 0 0)
(1.2185271e-11 0 0)
(1.07052306e-11 0 0)
(1.14413659e-11 0 0)
(1.12574632e-11 0 0)
(1.23504462e-11 0 0)
(1.27661274e-11 0 0)
(9.99465615e-12 0 0)
(1.11886365e-11 0 0)
(1.05601484e-11 0 0)
(1.07988177e-11 0 0)
(1.09310899e-11 0 0)
(1.06270848e-11 0 0)
(1.05202164e-11 0 0)
(1.03243163e-11 0 0)
(1.04882564e-11 0 0)
(1.06057109e-11 0 0)
(1.0680323e-11 0 0)
(9.89125664e-12 0 0)
(9.23504217e-12 0 0)
(8.28404176e-12 0 0)
(9.27523214e-12 0 0)
(9.15603787e-12 0 0)
(8.96072895e-12 0 0)
(8.96031888e-12 0 0)
(9.3141337e-12 0 0)
(8.76786622e-12 0 0)
(9.42066431e-12 0 0)
(9.14343824e-12 0 0)
(9.77195517e-12 0 0)
(9.08253984e-12 0 0)
(9.312934e-12 0 0)
(9.74649033e-12 0 0)
(9.3913659e-12 0 0)
(8.84263895e-12 0 0)
(8.40776341e-12 0 0)
(9.670391e-12 0 0)
(8.91472224e-12 0 0)
(9.42889363e-12 0 0)
(9.65442867e-12 0 0)
(9.73127492e-12 0 0)
(9.03688066e-12 0 0)
(8.66617228e-12 0 0)
(1.00855453e-11 0 0)
(9.69691537e-12 0 0)
(1.0484414e-11 0 0)
(9.97138866e-12 0 0)
(1.0473205e-11 0 0)
(9.97798204e-12 0 0)
(8.86626235e-12 0 0)
(9.73189076e-12 0 0)
(1.01658385e-11 0 0)
(9.12626863e-12 0 0)
(8.41718384e-12 0 0)
(1.01620147e-11 0 0)
(9.6629578e-12 0 0)
(9.51393742e-12 0 0)
(8.01943958e-12 0 0)
(9.20645947e-12 0 0)
(9.65706149e-12 0 0)
(9.41743052e-12 0 0)
(9.45439398e-12 0 0)
(9.14364438e-12 0 0)
(9.65168e-12 0 0)
(9.33011833e-12 0 0)
(9.07705197e-12 0 0)
(9.81357803e-12 0 0)
(9.53664334e-12 0 0)
(1.0109062e-11 0 0)
(9.75880822e-12 0 0)
(1.01130128e-11 0 0)
(1.04660704e-11 0 0)
(1.00403926e-11 0 0)
(1.05963242e-11 0 0)
(1.12240892e-11 0 0)
(1.02124224e-11 0 0)
(1.05009719e-11 0 0)
(1.0083607e-11 0 0)
(1.02209441e-11 0 0)
(9.80216752e-12 0 0)
(9.35626344e-12 0 0)
(1.04119309e-11 0 0)
(1.04350392e-11 0 0)
(9.56557599e-12 0 0)
(1.03010092e-11 0 0)
(1.01290286e-11 0 0)
(1.01234488e-11 0 0)
(1.10161622e-11 0 0)
(9.60826113e-12 0 0)
(1.03401794e-11 0 0)
(9.51678397e-12 0 0)
(1.01554348e-11 0 0)
(1.07942398e-11 0 0)
(1.01866594e-11 0 0)
(1.02457295e-11 0 0)
(1.06536483e-11 0 0)
(9.86372727e-12 0 0)
(1.02321536e-11 0 0)
(9.44062578e-12 0 0)
(1.01417552e-11 0 0)
(1.04021961e-11 0 0)
(1.03027116e-11 0 0)
(1.03704884e-11 0 0)
(1.0113424e-11 0 0)
(9.98526668e-12 0 0)
(1.01399088e-11 0 0)
(8.99829086e-12 0 0)
(1.02283337e-11 0 0)
(9.87041847e-12 0 0)
(9.6301928e-12 0 0)
(9.5273614e-12 0 0)
(9.89672043e-12 0 0)
(9.31250465e-12 0 0)
(9.36650237e-12 0 0)
(8.90697656e-12 0 0)
(8.79019411e-12 0 0)
(9.02713544e-12 0 0)
(9.36284288e-12 0 0)
(8.5868086e-12 0 0)
(8.38801863e-12 0 0)
(8.98468154e-12 0 0)
(8.1349463e-12 0 0)
(8.28152671e-12 0 0)
(8.37574497e-12 0 0)
(7.98433672e-12 0 0)
(7.63384648e-12 0 0)
(8.44357181e-12 0 0)
(7.74251438e-12 0 0)
(7.48661826e-12 0 0)
(7.71274529e-12 0 0)
(7.54401253e-12 0 0)
(7.01825511e-12 0 0)
(6.89933966e-12 0 0)
(6.80325134e-12 0 0)
(6.91624102e-12 0 0)
(6.38264612e-12 0 0)
(5.93797293e-12 0 0)
(7.02606499e-12 0 0)
(5.41812139e-12 0 0)
(6.57679665e-12 0 0)
(6.04465428e-12 0 0)
(4.86130638e-12 0 0)
(4.91513929e-12 0 0)
(6.02976334e-12 0 0)
(4.93668217e-12 0 0)
(5.47436261e-12 0 0)
(5.92846391e-12 0 0)
(5.74527283e-12 0 0)
(5.43384635e-12 0 0)
(5.31021118e-12 0 0)
(5.09094849e-12 0 0)
(4.00151143e-12 0 0)
(4.14540246e-12 0 0)
(4.82101948e-12 0 0)
(4.95942656e-12 0 0)
(4.63802741e-12 0 0)
(4.0114446e-12 0 0)
(4.73390136e-12 0 0)
(4.31167621e-12 0 0)
(5.06323467e-12 0 0)
(4.4783043e-12 0 0)
(4.28444002e-12 0 0)
(4.18110072e-12 0 0)
(4.92123112e-12 0 0)
(3.17782827e-12 0 0)
(4.1733101e-12 0 0)
(3.96639134e-12 0 0)
(2.80982661e-12 0 0)
(3.63230693e-12 0 0)
(3.81204334e-12 0 0)
(4.8501372e-12 0 0)
(3.88093532e-12 0 0)
(4.3593982e-12 0 0)
(3.61044376e-12 0 0)
(5.22048882e-12 0 0)
(3.70126971e-12 0 0)
(4.70362529e-12 0 0)
(4.21001764e-12 0 0)
(4.21199797e-12 0 0)
(4.21931448e-12 0 0)
(3.82835946e-12 0 0)
(3.60987849e-12 0 0)
(3.00240738e-12 0 0)
(3.97328108e-12 0 0)
(3.97406067e-12 0 0)
(3.71464505e-12 0 0)
(2.8147381e-12 0 0)
(3.4646596e-12 0 0)
(3.55167463e-12 0 0)
(3.32668504e-12 0 0)
(2.75324938e-12 0 0)
(2.663904e-12 0 0)
(2.18061119e-12 0 0)
(1.72373584e-12 0 0)
(2.13134066e-12 0 0)
(2.2318919e-12 0 0)
(1.83302828e-12 0 0)
(1.55947292e-12 0 0)
(8.96040081e-13 0 0)
(8.94814343e-13 0 0)
(5.99586552e-13 0 0)
(4.26346014e-13 0 0)
(1.07755757e-12 0 0)
(7.08039312e-13 0 0)
(-8.02577914e-14 0 0)
(2.29235843e-13 0 0)
(-2.45386719e-13 0 0)
(-1.5000761e-13 0 0)
(-1.33445464e-13 0 0)
(-5.03607256e-13 0 0)
(-5.09355388e-13 0 0)
(-3.61256428e-13 0 0)
(-1.66166191e-12 0 0)
(3.51336362e-13 0 0)
(-2.79241875e-13 0 0)
(-1.2423628e-12 0 0)
(-1.44002955e-12 0 0)
(-8.69029269e-13 0 0)
(-2.27132613e-12 0 0)
(-1.23512601e-12 0 0)
(-7.13833376e-13 0 0)
(-1.81359949e-12 0 0)
(-1.76649463e-12 0 0)
(-2.63889372e-12 0 0)
(-2.05863671e-12 0 0)
(-2.82122141e-12 0 0)
(-2.41729348e-12 0 0)
(-1.81848002e-12 0 0)
(-1.62183557e-12 0 0)
(-2.12905605e-12 0 0)
(-1.38031265e-12 0 0)
(-2.66206002e-12 0 0)
(-2.26463476e-12 0 0)
(-3.99077595e-12 0 0)
(-2.88085683e-12 0 0)
(-2.24029922e-12 0 0)
(-3.29348285e-12 0 0)
(-2.87423681e-12 0 0)
(-2.58691791e-12 0 0)
(-2.80166034e-12 0 0)
(-2.72370175e-12 0 0)
(-2.97387529e-12 0 0)
(-3.01496935e-12 0 0)
(-3.10267493e-12 0 0)
(-2.7862351e-12 0 0)
(-3.3792042e-12 0 0)
(-4.60370892e-12 0 0)
(-4.05310399e-12 0 0)
(-3.69170808e-12 0 0)
(-4.1144415e-12 0 0)
(-3.78900192e-12 0 0)
(-4.97555823e-12 0 0)
(-3.72653141e-12 0 0)
(-3.9633775e-12 0 0)
(-3.59609971e-12 0 0)
(-4.34395181e-12 0 0)
(-4.20369228e-12 0 0)
(-4.10435561e-12 0 0)
(-4.96852649e-12 0 0)
(-4.05250726e-12 0 0)
(-3.56355671e-12 0 0)
(-3.86109285e-12 0 0)
(-3.38978089e-12 0 0)
(-2.9749931e-12 0 0)
(-3.1469045e-12 0 0)
(-3.29769452e-12 0 0)
(-3.60529958e-12 0 0)
(-3.89747069e-12 0 0)
(-3.39845293e-12 0 0)
(-2.9829133e-12 0 0)
(-3.07141714e-12 0 0)
(-3.6745508e-12 0 0)
(-3.3182488e-12 0 0)
(-3.5166268e-12 0 0)
(-3.58008622e-12 0 0)
(-3.85415753e-12 0 0)
(-3.42323387e-12 0 0)
(-4.36920904e-12 0 0)
(-3.79231132e-12 0 0)
(-3.70016328e-12 0 0)
(-3.35206511e-12 0 0)
(-5.24192579e-12 0 0)
(-3.8935965e-12 0 0)
(-4.6022108e-12 0 0)
(-5.73473608e-12 0 0)
(-4.6836554e-12 0 0)
(-5.44996064e-12 0 0)
(-5.86348886e-12 0 0)
(-5.97932394e-12 0 0)
(-5.84242361e-12 0 0)
(-5.89471748e-12 0 0)
(-6.53207735e-12 0 0)
(-6.40335008e-12 0 0)
(-6.54594955e-12 0 0)
(-7.33062351e-12 0 0)
(-7.69248857e-12 0 0)
(-7.22474537e-12 0 0)
(-7.07823317e-12 0 0)
(-7.00820669e-12 0 0)
(-7.22770531e-12 0 0)
(-7.91387926e-12 0 0)
(-6.97774594e-12 0 0)
(-7.07070186e-12 0 0)
(-7.86614067e-12 0 0)
(-7.94036298e-12 0 0)
(-7.78030372e-12 0 0)
(-7.80285409e-12 0 0)
(-6.8317067e-12 0 0)
(-7.4624026e-12 0 0)
(-7.70171374e-12 0 0)
(-7.85323019e-12 0 0)
(-7.47558123e-12 0 0)
(-8.98905811e-12 0 0)
(-7.66680985e-12 0 0)
(-8.97772294e-12 0 0)
(-8.57475865e-12 0 0)
(-8.92339457e-12 0 0)
(-8.84963642e-12 0 0)
(-8.84360555e-12 0 0)
(-8.47193146e-12 0 0)
(-7.23803055e-12 0 0)
(-8.30306521e-12 0 0)
(-8.70146958e-12 0 0)
(-7.9602245e-12 0 0)
(-8.5474206e-12 0 0)
(-9.0468169e-12 0 0)
(-8.46363917e-12 0 0)
(-9.02413344e-12 0 0)
(-9.88070801e-12 0 0)
(-9.36822545e-12 0 0)
(-9.08315576e-12 0 0)
(-1.00842189e-11 0 0)
(-9.11997386e-12 0 0)
(-9.66611341e-12 0 0)
(-9.80623814e-12 0 0)
(-9.93654489e-12 0 0)
(-9.15794988e-12 0 0)
(-9.09721111e-12 0 0)
(-1.03752437e-11 0 0)
(-1.01117544e-11 0 0)
(-9.73983675e-12 0 0)
(-9.85931671e-12 0 0)
(-1.03746826e-11 0 0)
(-9.88423056e-12 0 0)
(-1.06364834e-11 0 0)
(-1.09651255e-11 0 0)
(-1.0957461e-11 0 0)
(-1.15130057e-11 0 0)
(-1.19692084e-11 0 0)
(-1.14335788e-11 0 0)
(-1.17978685e-11 0 0)
(-1.2130464e-11 0 0)
(-1.1530726e-11 0 0)
(-1.09750137e-11 0 0)
(-1.26763852e-11 0 0)
(-1.24149902e-11 0 0)
(-1.22774701e-11 0 0)
(-1.16786843e-11 0 0)
(-1.18274083e-11 0 0)
(-1.15066363e-11 0 0)
(-1.23885422e-11 0 0)
(-1.20835262e-11 0 0)
(-1.22398504e-11 0 0)
(-1.1649099e-11 0 0)
(-1.13387161e-11 0 0)
(-1.22918537e-11 0 0)
(-1.24645361e-11 0 0)
(-1.21612108e-11 0 0)
(-1.18644574e-11 0 0)
(-1.23272294e-11 0 0)
(-1.22606601e-11 0 0)
(-1.21085566e-11 0 0)
(-1.13423049e-11 0 0)
(-1.14364686e-11 0 0)
(-1.17669018e-11 0 0)
(-1.12518129e-11 0 0)
(-1.15870703e-11 0 0)
(-1.12896338e-11 0 0)
(-1.12387447e-11 0 0)
(-1.13670116e-11 0 0)
(-1.23971093e-11 0 0)
(-1.20016782e-11 0 0)
(-1.19194138e-11 0 0)
(-1.23305891e-11 0 0)
(-1.20389106e-11 0 0)
(-1.15518636e-11 0 0)
(-1.19596868e-11 0 0)
(-1.14748705e-11 0 0)
(-1.14887395e-11 0 0)
(-1.19968415e-11 0 0)
(-1.1741637e-11 0 0)
(-1.1918971e-11 0 0)
(-1.21732708e-11 0 0)
(-1.21873084e-11 0 0)
(-1.39203515e-11 0 0)
(-1.27115974e-11 0 0)
(-1.27912414e-11 0 0)
(-1.27577065e-11 0 0)
(-1.23117222e-11 0 0)
(-1.28264146e-11 0 0)
(-1.2740548e-11 0 0)
(-1.30984839e-11 0 0)
(-1.23862488e-11 0 0)
(-1.21094804e-11 0 0)
(-1.29219476e-11 0 0)
(-1.19487994e-11 0 0)
(-1.19756074e-11 0 0)
(-1.2010144e-11 0 0)
(-1.15422463e-11 0 0)
(-1.12804624e-11 0 0)
(-1.16905569e-11 0 0)
(-1.15101669e-11 0 0)
(-1.18840814e-11 0 0)
(-1.18659626e-11 0 0)
(-1.19626153e-11 0 0)
(-1.1232304e-11 0 0)
(-1.21254217e-11 0 0)
(-1.22456167e-11 0 0)
(-1.24305201e-11 0 0)
(-1.22531374e-11 0 0)
(-1.16926132e-11 0 0)
(-1.21762198e-11 0 0)
(-1.23062738e-11 0 0)
(-1.17904319e-11 0 0)
(-1.29990297e-11 0 0)
(-1.25606986e-11 0 0)
(-1.18193772e-11 0 0)
(-1.26254857e-11 0 0)
(-1.25636838e-11 0 0)
(-1.17190011e-11 0 0)
(-1.1634783e-11 0 0)
(-1.24964217e-11 0 0)
(-1.1898744e-11 0 0)
(-1.2515771e-11 0 0)
(-1.22541204e-11 0 0)
(-1.23595795e-11 0 0)
(-1.19545203e-11 0 0)
(-1.21956037e-11 0 0)
(-1.20916668e-11 0 0)
(-1.22813376e-11 0 0)
(-1.2373533e-11 0 0)
(-1.28148324e-11 0 0)
(-1.27505848e-11 0 0)
(-1.21242867e-11 0 0)
(-1.28290987e-11 0 0)
(-1.25115723e-11 0 0)
(-1.16400595e-11 0 0)
(-1.20186326e-11 0 0)
(-1.15963366e-11 0 0)
(-1.10709515e-11 0 0)
(-1.14758737e-11 0 0)
(-1.22365444e-11 0 0)
(-1.17303071e-11 0 0)
(-1.02640438e-11 0 0)
(-1.20254388e-11 0 0)
(-1.14162591e-11 0 0)
(-1.02861485e-11 0 0)
(-1.08473182e-11 0 0)
(-1.13475637e-11 0 0)
(-1.03747018e-11 0 0)
(-1.1288553e-11 0 0)
(-9.69084456e-12 0 0)
(-9.7806702e-12 0 0)
(-1.02327305e-11 0 0)
(-1.07227664e-11 0 0)
(-9.94367868e-12 0 0)
(-9.85043471e-12 0 0)