/*--------------------------------*- C++ -*----------------------------------*\
| =========                 |                                                 |
| \\      /  F ield         | OpenFOAM: The Open Source CFD Toolbox           |
|  \\    /   O peration     | Version:  2206                                  |
|   \\  /    A nd           | Website:  www.openfoam.com                      |
|    \\/     M anipulation  |                                                 |
\*---------------------------------------------------------------------------*/
FoamFile
{
    version     2.0;
    format      ascii;
    arch        "LSB;label=32;scalar=64";
    class       volScalarField;
    location    "1.3e-05";
    object      p;
}
// * * * * * * * * * * * * * * * * * * * * * * * * * * * * * * * * * * * * * //

dimensions      [1 -1 -2 0 0 0 0];

internalField   nonuniform List<scalar> 
3183
(
101325
101325
101325
101325
101325
101325
101325
101325
101325
101325
101325
101325
101325
101325
101325
101325
101325
101325
101325
101325
101325
101325
101325
101325
101325
101325
101325
101325
101325
101325
101325
101325
101325
101325
101325
101325
101325
101325
101325
101325
101325
101325
101325
101325
101325
101325
101325
101325
101325
101325
101325
101325
101325
101325
101325
101325
101325
101325
101325
101325
101325
101325
101325
101325
101325
101325
101325
101325
101325
101325
101325
101325
101325
101325
101325
101325
101325
101325
101325
101325
101325
101325
101325
101325
101325
101325
101325
101325
101325
101325
101325
101325
101325
101325
101325
101325
101325
101325
101325
101325
101325
101325
101325
101325
101325
101325
101325
101325
101325
101325
101325
101325
101325
101325
101325
101325
101325
101325
101325
101325
101325
101325
101325
101325
101325
101325
101325
101325
101325
101325
101325
101325
101325
101325
101325
101325
101325
101325
101325
101325
101325
101325
101325
101325
101325
101325
101325
101325
101325
101325
101325
101325
101325
101325
101325
101325
101325
101325
101325
101325
101325
101325
101325
101325
101325
101325
101325
101325
101325
101325
101325
101325
101325
101325
101325
101325
101325
101325
101325
101325
101325
101325
101325
101325
101325
101325
101325
101325
101325
101325
101325
101325
101325
101325
101325
101325
101325
101325
101325
101325
101325
101325
101325
101325
101325
101325
101325
101325
101325
101325
101325
101325
101325
101325
101325
101325
101325
101325
101325
101325
101325
101325
101325
101325
101325
101325
101325
101325
101325
101325
101325
101325
101325
101325
101325
101325
101325
101325
101325
101325
101325
101325
101325
101325
101325
101325
101325
101325
101325
101325
101325
101325
101325
101325
101325
101325
101325
101325
101325
101325
101325
101325
101325
101325
101325
101325
101325
101325
101325
101325
101325
101325
101325
101325
101325
101325
101325
101325
101325
101325
101325
101325
101325
101325
101325
101325
101325
101325
101325
101325
101325
101325
101325
101325
101325
101325
101325
101325
101325
101325
101325
101325
101325
101325
101325
101325
101325
101325
101325
101325
101325
101325
101325
101325
101325
101325
101325
101325
101325
101325
101325
101325
101325
101325
101325
101325
101325
101325
101325
101325
101325
101325
101325
101325
101325
101325
101325
101325
101325
101325
101325
101325
101325
101325
101325
101325
101325
101325
101325
101325
101325
101325
101325
101325
101325
101325
101325
101325
101325
101325
101325
101325
101325
101325
101325
101325
101325
101325
101325
101325
101325
101325
101325
101325
101325
101325
101325
101325
101325
101325
101325
101325
101325
101325
101325
101325
101325
101325
101325
101325
101325
101325
101325
101325
101325
101325
101325
101325
101325
101325
101325
101325
101325
101325
101325
101325
101325
101325
101325
101325
101325
101325
101325
101325
101325
101325
101325
101325
101325
101325
101325
101325
101325
101325
101325
101325
101325
101325
101325
101325
101325
101325
101325
101325
101325
101325
101325
101325
101325
101325
101325
101325
101325
101325
101325
101325
101325
101325
101325
101325
101325
101325
101325
101325
101325
101325
101325
101325
101325
101325
101325
101325
101325
101325
101325
101325
101325
101325
101325
101325
101325
101325
101325
101325
101325
101325
101325
101325
101325
101325
101325
101325
101325
101325
101325
101325
101325
101325
101325
101325
101325
101325
101325
101325
101325
101325
101325
101325
101325
101325
101325
101325
101325
101325
101325
101325
101325
101325
101325
101325
101325
101325
101325
101325
101325
101325
101325
101325
101325
101325
101325
101325
101325
101325
101325
101325
101325
101325
101325
101325
101325
101325
101325
101325
101325
101325
101325
101325
101325
101325
101325
101325
101325
101325
101325
101325
101325
101325
101325
101325
101325
101325
101325
101325
101325
101325
101325
101325
101325
101325
101325
101325
101325
101325
101325
101325
101325
101325
101325
101325
101325
101325
101325
101325
101325
101325
101325
101325
101325
101325
101325
101325
101325
101325
101325
101325
101325
101325
101325
101325
101325
101325
101325
101325
101325
101325
101325
101325
101325
101325
101325
101325
101325
101325
101325
101325
101325
101325
101325
101325
101325
101325
101325
101325
101325
101325
101325
101325
101325
101325
101325
101325
101325
101325
101325
101325
101325
101325
101325
101325
101325
101325
101325
101325
101325
101325
101325
101325
101325
101325
101325
101325
101325
101325
101325
101325
101325
101325
101325
101325
101325
101325
101325
101325
101325
101325
101325
101325
101325
101325
101325
101325
101325
101325
101325
101325
101325
101325
101325
101325
101325
101325
101325
101325
101325
101325
101325
101325
101325
101325
101325
101325
101325
101325
101325
101325
101325
101325
101325
101325
101325
101325
101325
101325
101325
101325
101325
101325
101325
101325
101325
101325
101325
101325
101325
101325
101325
101325
101325
101325
101325
101325
101325
101325
101325
101325
101325
101325
101325
101325
101325
101325
101325
101325
101325
101325
101325
101325
101325
101325
101325
101325
101325
101325
101325
101325
101325
101325
101325
101325
101325
101325
101325
101325
101325
101325
101325
101325
101325
101325
101325
101325
101325
101325
101325
101325
101325
101325
101325
101325
101325
101325
101325
101325
101325
101325
101325
101325
101325
101325
101325
101325
101325
101325
101325
101325
101325
101325
101325
101325
101325
101325
101325
101325
101325
101325
101325
101325
101325
101325
101325
101325
101325
101325
101325
101325
101325
101325
101325
101325
101325
101325
101325
101325
101325
101325
101325
101325
101325
101325
101325
101325
101325
101325
101325
101325
101325
101325
101325
101325
101325
101325
101325
101325
101325
101325
101325
101325
101325
101325
101325
101325
101325
101325
101325
101325
101325
101325
101325
101325
101325
101325
101325
101325
101325
101325
101325
101325
101325
101325
101325
101325
101325
101325
101325
101325
101325
101325
101325
101325
101325
101325
101325
101325
101325
101325
101325
101325
101325
101325
101325
101325
101325
101325
101325
101325
101325
101325
101325
101325
101325
101325
101325
101325
101325
101325
101325
101325
101325
101325
101325
101325
101325
101325
101325
101325
101325
101325
101325
101325
101325
101325
101325
101325
101325
101325
101325
101325
101325
101325
101325
101325
101325
101325
101325
101325
101325
101325
101325
101325
101325
101325
101325
101325
101325
101325
101325
101325
101325
101325
101325
101325
101325
101325
101325
101325
101325
101325
101325
101325
101325
101325
101325
101325
101325
101325
101325
101325
101325
101325
101325
101325
101325
101325
101325
101325
101325
101325
101325
101325
101325
101325
101325
101325
101325
101325
101325
101325
101325
101325
101325
101325
101325
101325
101325
101325
101325
101325
101325
101325
101325
101325
101325
101325
101325
101325
101325
101325
101325
101325
101325
101325
101325
101325
101325
101325
101325
101325
101325
101325
101325
101325
101325
101325
101325
101325
101325
101325
101325
101325
101325
101325
101325
101325
101325
101325
101325
101325
101325
101325
101325
101325
101325
101325
101325
101325
101325
101325
101325
101325
101325
101325
101325
101325
101325
101325
101325
101325
101325
101325
101325
101325
101325
101325
101325
101325
101325
101325
101325
101325
101325
101325
101325
101325
101325
101325
101325
101325
101325
101325
101325
101325
101325
101325
101325
101325
101325
101325
101325
101325
101325
101325
101325
101325
101325
101325
101325
101325
101325
101325
101325
101325
101325
101325
101325
101325
101325
101325
101325
101325
101325
101325
101325
101325
101325
101325
101325
101325
101325
101325
101325
101325
101325
101325
101325
101325
101325
101325
101325
101325
101325
101325
101325
101325
101325
101325
101325
101325
101325
101325
101325
101325
101325
101325
101325
101325
101325
101325
101325
101325
101325
101325
101325
101325
101325
101325
101325
101325
101325
101325
101325
101325
101325
101325
101325
101325
101325
101325
101325
101325
101325
101325
101325
101325
101325
101325
101325
101325
101325
101325
101325
101325
101325
101325
101325
101325
101325
101325
101325
101325
101325
101325
101325
101325
101325
101325
101325
101325
101325
101325
101325
101325
101325
101325
101325
101325
101325
101325
101325
101325
101325
101325
101325
101325
101325
101325
101325
101325
101325
101325
101325
101325
101325
101325
101325
101325
101325
101325
101325
101325
101325
101325
101325
101325
101325
101325
101325
101325
101325
101325
101325
101325
101325
101325
101325
101325
101325
101325
101325
101325
101325
101325
101325
101325
101325
101325
101325
101325
101325
101325
101325
101325
101325
101325
101325
101325
101325
101325
101325
101325
101325
101325
101325
101325
101325
101325
101325
101325
101325
101325
101325
101325
101325
101325
101325
101325
101325
101325
101325
101325
101325
101325
101325
101325
101325
101325
101325
101325
101325
101325
101325
101325
101325
101325
101325
101325
101325
101325
101325
101325
101325
101325
101325
101325
101325
101325
101325
101325
101325
101325
101325
101325
101325
101325
101325
101325
101325
101325
101325
101325
101325
101325
101325
101325
101325
101325
101325
101325
101325
101325
101325
101325
101325
101325
101325
101325
101325
101325
101325
101325
101325
101325
101325
101325
101325
101325
101325
101325
101325
101325
101325
101325
101325
101325
101325
101325
101325
101325
101325
101325
101325
101325
101325
101325
101325
101325
101325
101325
101325
101325
101325
101325
101325
101325
101325
101325
101325
101325
101325
101325
101325
101325
101325
101325
101325
101325
101325
101325
101325
101325
101325
101325
101325
101325
101325
101325
101325
101325
101325
101325
101325
101325
101325
101325
101325
101325
101325
101325
101325
101325
101325
101325
101325
101325
101325
101325
101325
101325
101325
101325
101325
101325
101325
101325
101325
101325
101325
101325
101325
101325
101325
101325
101325
101325
101325
101325
101325
101325
101325
101325
101325
101325
101325
101325
101325
101325
101325
101325
101325
101325
101325
101325
101325
101325
101325
101325
101325
101325
101325
101325
101325
101325
101325
101325
101325
101325
101325
101325
101325
101325
101325
101325
101325
101325
101325
101325
101325
101325
101325
101325
101325
101325
101325
101325
101325
101325
101325
101325
101325
101325
101325
101325
101325
101325
101325
101325
101325
101325
101325
101325
101325
101325
101325
101325
101325
101325
101325
101325
101325
101325
101325
101325
101325
101325
101325
101325
101325
101325
101325
101325
101325
101325
101325
101325
101325
101325
101325
101325
101325
101325
101325
101325
101325
101325
101325
101325
101325
101325
101325
101325
101325
101325
101325
101325
101325
101325
101325
101325
101325
101325
101325
101325
101325
101325
101325
101325
101325
101325
101325
101325
101325
101325
101325
101325
101325
101325
101325
101325
101325
101325
101325
101325
101325
101325
101325
101325
101325
101325
101325
101325
101325
101325
101325
101325
101325
101325
101325
101325
101325
101325
101325
101325
101325
101325
101325
101325
101325
101325
101325
101325
101325
101325
101325
101325
101325
101325
101325
101325
101325
101325
101325
101325
101325
101325
101325
101325
101325
101325
101325
101325
101325
101325
101325
101325
101325
101325
101325
101325
101325
101325
101325
101325
101325
101325
101325
101325
101325
101325
101325
101325
101325
101325
101325
101325
101325
101325
101325
101325
101325
101325
101325
101325
101325
101325
101325
101325
101325
101325
101325
101325
101325
101325
101325
101325
101325
101325
101325
101325
101325
101325
101325
101325
101325
101325
101325
101325
101325
101325
101325
101325
101325
101325
101325
101325
101325
101325
101325
101325
101325
101325
101325
101325
101325
101325
101325
101325
101325
101325
101325
101325
101325
101325
101325
101325
101325
101325
101325
101325
101325
101325
101325
101325
101325
101325
101325
101325
101325
101325
101325
101325
101325
101325
101325
101325
101325
101325
101325
101325
101325
101325
101325
101325
101325
101325
101325
101325
101325
101325
101325
101325
101325
101325
101325
101325
101325
101325
101325
101325
101325
101325
101325
101325
101325
101325
101325
101325
101325
101325
101325
101325
101325
101325
101325
101325
101325
101325
101325
101325
101325
101325
101325
101325
101325
101325
101325
101325
101325
101325
101325
101325
101325
101325
101325
101325
101325
101325
101325
101325
101325
101325
101325
101325
101325
101325
101325
101325
101325
101325
101325
101325
101325
101325
101325
101325
101325
101325
101325
101325
101325
101325
101325
101325
101325
101325
101325
101325
101325
101325
101325
101325
101325
101325
101325
101325
101325
101325
101325
101325
101325
101325
101325
101325
101325
101325
101325
101325
101325
101325
101325
101325
101325
101325
101325
101325
101325
101325
101325
101325
101325
101325
101325
101325
101325
101325
101325
101325
101325
101325
101325
101325
101325
101325
101325
101325
101325
101325
101325
101325
101325
101325
101325
101325
101325
101325
101325
101325
101325
101325
101325
101325
101325
101325
101325
101325
101325
101325
101325
101325
101325
101325
101325
101325
101325
101325
101325
101325
101325
101325
101325
101325
101325
101325
101325
101325
101325
101325
101325
101325
101325
101325
101325
101325
101325
101325
101325
101325
101325
101325
101325
101325
101325
101325
101325
101325
101325
101325
101325
101325
101325
101325
101325
101325
101325
101325
101325
101325
101325
101325
101325
101325
101325
101325
101325
101325
101325
101325
101325
101324.999
101324.999
101324.999
101324.999
101324.999
101324.999
101324.999
101324.999
101324.999
101324.999
101324.999
101324.999
101324.999
101324.999
101324.999
101324.999
101324.999
101324.998
101324.998
101324.998
101324.998
101324.998
101324.998
101324.998
101324.998
101324.997
101324.997
101324.997
101324.997
101324.997
101324.997
101324.996
101324.996
101324.996
101324.996
101324.995
101324.995
101324.995
101324.994
101324.994
101324.994
101324.993
101324.993
101324.993
101324.992
101324.992
101324.991
101324.991
101324.99
101324.989
101324.989
101324.988
101324.987
101324.987
101324.986
101324.985
101324.984
101324.983
101324.982
101324.981
101324.98
101324.979
101324.978
101324.976
101324.975
101324.974
101324.972
101324.971
101324.969
101324.967
101324.965
101324.963
101324.961
101324.959
101324.957
101324.954
101324.952
101324.949
101324.947
101324.944
101324.941
101324.937
101324.934
101324.93
101324.927
101324.923
101324.919
101324.914
101324.91
101324.905
101324.9
101324.895
101324.889
101324.883
101324.877
101324.871
101324.864
101324.857
101324.85
101324.842
101324.834
101324.826
101324.817
101324.808
101324.799
101324.789
101324.778
101324.767
101324.756
101324.744
101324.731
101324.718
101324.705
101324.69
101324.676
101324.66
101324.644
101324.627
101324.61
101324.591
101324.572
101324.552
101324.532
101324.51
101324.488
101324.464
101324.44
101324.415
101324.388
101324.361
101324.332
101324.303
101324.272
101324.24
101324.207
101324.172
101324.137
101324.099
101324.061
101324.021
101323.979
101323.936
101323.892
101323.845
101323.798
101323.748
101323.697
101323.643
101323.588
101323.531
101323.472
101323.411
101323.348
101323.283
101323.216
101323.146
101323.074
101323
101322.923
101322.844
101322.763
101322.679
101322.592
101322.502
101322.41
101322.315
101322.218
101322.117
101322.013
101321.907
101321.797
101321.684
101321.568
101321.449
101321.327
101321.201
101321.072
101320.939
101320.803
101320.663
101320.52
101320.373
101320.223
101320.069
101319.911
101319.749
101319.584
101319.415
101319.241
101319.064
101318.883
101318.698
101318.51
101318.317
101318.12
101317.919
101317.714
101317.505
101317.292
101317.074
101316.853
101316.628
101316.399
101316.166
101315.928
101315.687
101315.442
101315.193
101314.94
101314.684
101314.423
101314.159
101313.891
101313.62
101313.345
101313.066
101312.784
101312.499
101312.21
101311.919
101311.624
101311.327
101311.026
101310.723
101310.417
101310.109
101309.798
101309.485
101309.17
101308.853
101308.534
101308.213
101307.891
101307.568
101307.243
101306.918
101306.591
101306.264
101305.937
101305.609
101305.281
101304.953
101304.625
101304.298
101303.971
101303.646
101303.321
101302.998
101302.676
101302.356
101302.038
101301.722
101301.408
101301.097
101300.789
101300.484
101300.182
101299.883
101299.588
101299.297
101299.01
101298.728
101298.45
101298.176
101297.908
101297.645
101297.386
101297.134
101296.887
101296.646
101296.411
101296.182
101295.96
101295.744
101295.535
101295.333
101295.138
101294.95
101294.769
101294.596
101294.43
101294.272
101294.121
101293.978
101293.844
101293.717
101293.598
101293.487
101293.384
101293.29
101293.203
101293.125
101293.055
101292.994
101292.94
101292.895
101292.858
101292.829
101292.808
101292.795
101292.79
101292.793
101292.803
101292.822
101292.848
101292.881
101292.922
101292.97
101293.025
101293.088
101293.157
101293.232
101293.315
101293.403
101293.498
101293.599
101293.705
101293.817
101293.935
101294.058
101294.186
101294.318
101294.456
101294.597
101294.743
101294.893
101295.047
101295.204
101295.364
101295.528
101295.694
101295.863
101296.035
101296.208
101296.384
101296.562
101296.741
101296.921
101297.103
101297.285
101297.469
101297.653
101297.837
101298.021
101298.206
101298.39
101298.574
101298.758
101298.941
101299.122
101299.303
101299.483
101299.662
101299.839
101300.015
101300.189
101300.361
101300.531
101300.7
101300.866
101301.03
101301.193
101301.352
101301.51
101301.665
101301.817
101301.967
101302.114
101302.259
101302.401
101302.54
101302.677
101302.811
101302.942
101303.071
101303.197
101303.32
101303.44
101303.558
101303.673
101303.785
101303.895
101304.002
101304.106
101304.208
101304.307
101304.404
101304.499
101304.591
101304.681
101304.768
101304.853
101304.936
101305.017
101305.096
101305.173
101305.248
101305.321
101305.392
101305.461
101305.528
101305.594
101305.658
101305.721
101305.782
101305.842
101305.9
101305.957
101306.013
101306.067
101306.12
101306.173
101306.224
101306.274
101306.323
101306.372
101306.419
101306.466
101306.512
101306.558
101306.602
101306.647
101306.69
101306.733
101306.776
101306.818
101306.86
101306.902
101306.943
101306.985
101307.026
101307.066
101307.107
101307.148
101307.188
101307.229
101307.269
101307.31
101307.35
101307.391
101307.431
101307.472
101307.513
101307.554
101307.595
101307.636
101307.678
101307.719
101307.761
101307.803
101307.845
101307.888
101307.93
101307.973
101308.016
101308.059
101308.102
101308.145
101308.189
101308.232
101308.276
101308.319
101308.363
101308.407
101308.45
101308.494
101308.538
101308.581
101308.625
101308.668
101308.711
101308.754
101308.796
101308.838
101308.88
101308.922
101308.963
101309.004
101309.045
101309.084
101309.124
101309.163
101309.201
101309.239
101309.276
101309.312
101309.348
101309.383
101309.417
101309.451
101309.484
101309.516
101309.547
101309.577
101309.607
101309.636
101309.664
101309.691
101309.717
101309.742
101309.767
101309.791
101309.813
101309.835
101309.857
101309.877
101309.896
101309.915
101309.933
101309.95
101309.967
101309.982
101309.997
101310.011
101310.025
101310.038
101310.05
101310.062
101310.073
101310.084
101310.094
101310.103
101310.113
101310.121
101310.13
101310.138
101310.145
101310.153
101310.16
101310.167
101310.173
101310.18
101310.186
101310.193
101310.199
101310.206
101310.212
101310.219
101310.225
101310.232
101310.24
101310.247
101310.255
101310.263
101310.272
101310.281
101310.29
101310.3
101310.311
101310.322
101310.334
101310.347
101310.36
101310.375
101310.39
101310.406
101310.423
101310.44
101310.459
101310.478
101310.499
101310.52
101310.543
101310.566
101310.591
101310.616
101310.642
101310.669
101310.697
101310.726
101310.755
101310.785
101310.816
101310.848
101310.88
101310.912
101310.945
101310.978
101311.011
101311.045
101311.078
101311.112
101311.145
101311.178
101311.21
101311.242
101311.274
101311.305
101311.335
101311.365
101311.394
101311.422
101311.448
101311.474
101311.499
101311.523
101311.545
101311.567
101311.587
101311.607
101311.625
101311.642
101311.658
101311.674
101311.688
101311.701
101311.714
101311.726
101311.737
101311.747
101311.757
101311.767
101311.776
101311.785
101311.794
101311.802
101311.81
101311.819
101311.827
101311.835
101311.844
101311.852
101311.861
101311.869
101311.878
101311.887
101311.896
101311.905
101311.915
101311.924
101311.933
101311.943
101311.953
101311.963
101311.972
101311.982
101311.992
101312.002
101312.012
101312.021
101312.031
101312.041
101312.051
101312.06
101312.07
101312.08
101312.089
101312.099
101312.108
101312.117
101312.126
101312.135
101312.144
101312.152
101312.16
101312.168
101312.176
101312.184
101312.192
101312.201
101312.21
101312.221
101312.234
101312.247
101312.249
101312.24
101312.604
101312.801
101312.743
101312.075
101311.952
101311.912
101312.008
101312.043
101312.133
101312.157
101312.205
101312.214
101312.225
101312.221
101312.219
101312.213
101312.208
101312.203
101312.198
101312.193
101312.189
101312.185
101312.18
101312.176
101312.172
101312.168
101312.163
101312.159
101312.154
101312.15
101312.145
101312.14
101312.135
101312.13
101312.125
101312.12
101312.115
101312.11
101312.104
101312.099
101312.094
101312.088
101312.083
101312.077
101312.072
101312.066
101312.061
101312.055
101312.05
101312.044
101312.038
101312.033
101312.027
101312.021
101312.016
101312.01
101312.004
101311.999
101311.993
101311.987
101311.982
101311.976
101311.97
101311.964
101311.958
101311.953
101311.947
101311.941
101311.935
101311.929
101311.923
101311.918
101311.912
101311.906
101311.9
101311.894
101311.888
101311.883
101311.877
101311.871
101311.865
101311.86
101311.854
101311.849
101311.843
101311.838
101311.832
101311.827
101311.821
101311.816
101311.811
101311.805
101311.8
101311.795
101311.79
101311.785
101311.78
101311.775
101311.77
101311.765
101311.76
101311.755
101311.75
101311.745
101311.74
101311.735
101311.73
101311.725
101311.72
101311.715
101311.71
101311.705
101311.699
101311.694
101311.688
101311.683
101311.677
101311.671
101311.665
101311.659
101311.652
101311.646
101311.639
101311.632
101311.625
101311.617
101311.609
101311.601
101311.593
101311.585
101311.576
101311.567
101311.558
101311.548
101311.539
101311.528
101311.518
101311.507
101311.496
101311.485
101311.474
101311.462
101311.45
101311.437
101311.425
101311.412
101311.398
101311.385
101311.371
101311.357
101311.343
101311.328
101311.313
101311.298
101311.283
101311.268
101311.252
101311.237
101311.221
101311.204
101311.188
101311.172
101311.155
101311.139
101311.122
101311.105
101311.088
101311.072
101311.055
101311.038
101311.021
101311.004
101310.987
101310.97
101310.953
101310.936
101310.919
101310.902
101310.886
101310.869
101310.852
101310.836
101310.819
101310.803
101310.786
101310.77
101310.755
101310.739
101310.724
101310.709
101310.694
101310.679
101310.664
101310.65
101310.636
101310.622
101310.608
101310.595
101310.581
101310.568
101310.555
101310.543
101310.53
101310.518
101310.506
101310.495
101310.483
101310.472
101310.461
101310.451
101310.44
101310.43
101310.42
101310.41
101310.401
101310.392
101310.382
101310.374
101310.365
101310.357
101310.348
101310.34
101310.333
101310.325
101310.318
101310.311
101310.304
101310.297
101310.29
101310.284
101310.277
101310.271
101310.265
101310.259
101310.253
101310.248
101310.242
101310.237
101310.232
101310.226
101310.221
101310.216
101310.212
101310.207
101310.202
101310.197
101310.193
101310.188
101310.184
101310.18
101310.175
101310.171
101310.167
101310.162
101310.158
101310.154
101310.15
101310.146
101310.141
101310.137
101310.133
101310.129
101310.125
101310.12
101310.116
101310.112
101310.107
101310.103
101310.099
101310.094
101310.089
101310.085
101310.08
101310.075
101310.071
101310.066
101310.061
101310.056
101310.051
101310.045
101310.04
101310.035
101310.029
101310.023
101310.018
101310.012
101310.006
101310
101309.993
101309.987
101309.981
101309.974
101309.967
101309.96
101309.953
101309.946
101309.939
101309.931
101309.924
101309.916
101309.908
101309.9
101309.892
101309.883
101309.875
101309.866
101309.857
101309.848
101309.838
101309.829
101309.819
101309.81
101309.8
101309.789
101309.779
101309.768
101309.758
101309.747
101309.736
101309.724
101309.713
101309.701
101309.689
101309.677
101309.665
101309.652
101309.639
101309.626
101309.613
101309.6
101309.586
101309.573
101309.559
101309.545
101309.53
101309.516
101309.501
101309.486
101309.471
101309.455
101309.44
101309.424
101309.408
101309.392
101309.376
101309.359
101309.343
101309.326
101309.309
101309.291
101309.274
101309.256
101309.239
101309.221
101309.202
101309.184
101309.166
101309.147
101309.128
101309.109
101309.09
101309.071
101309.051
101309.032
101309.012
101308.992
101308.972
101308.952
101308.931
101308.911
101308.89
101308.87
101308.849
101308.828
101308.807
101308.786
101308.765
101308.743
101308.722
101308.7
101308.679
101308.657
101308.635
101308.614
101308.592
101308.57
101308.548
101308.526
101308.503
101308.481
101308.459
101308.437
101308.414
101308.392
101308.369
101308.347
101308.324
101308.302
101308.279
101308.257
101308.234
101308.212
101308.189
101308.167
101308.144
101308.121
101308.099
101308.076
101308.054
101308.031
101308.009
101307.986
101307.964
101307.941
101307.919
101307.896
101307.874
101307.851
101307.829
101307.807
101307.784
101307.762
101307.74
101307.718
101307.696
101307.673
101307.651
101307.629
101307.607
101307.585
101307.563
101307.541
101307.52
101307.498
101307.476
101307.454
101307.433
101307.411
101307.389
101307.368
101307.346
101307.325
101307.303
101307.282
101307.26
101307.239
101307.218
101307.196
101307.175
101307.154
101307.132
101307.111
101307.09
101307.069
101307.047
101307.026
101307.005
101306.984
101306.962
101306.941
101306.92
101306.899
101306.877
101306.856
101306.835
101306.813
101306.792
101306.77
101306.749
101306.727
101306.706
101306.684
101306.663
101306.641
101306.619
101306.597
101306.575
101306.553
101306.531
101306.509
101306.487
101306.464
101306.442
101306.419
101306.397
101306.374
101306.351
101306.328
101306.305
101306.281
101306.258
101306.234
101306.21
101306.187
101306.162
101306.138
101306.114
101306.089
101306.064
101306.039
101306.014
101305.989
101305.963
101305.936
101305.907
101305.876
101305.842
101305.805
101305.764
101305.721
101305.673
101305.621
101305.564
101305.502
101305.434
101305.359
101305.276
101305.185
101305.084
101304.971
101304.846
101304.705
101304.547
101304.37
101304.168
101303.94
101303.68
101303.382
101303.042
101302.65
101302.2
101301.681
101301.086
101300.404
101299.626
101298.748
101297.77
101296.698
101295.556
101294.384
101293.248
101292.244
101291.501
101291.177
101291.449
101292.484
101294.403
101297.24
101300.9
101305.145
101309.611
101313.879
101317.573
101320.456
101322.472
101323.73
101324.427
101324.769
101324.917
101324.973
101324.993
101324.998
101325
101325
101325
101325
101325
101325
101325
101325
101325
101325
101325
101325
101325
101325
101325
101325
101325
101325
)
;

boundaryField
{
    closed
    {
        type            zeroGradient;
    }
    open
    {
        type            waveTransmissive;
        gamma           1.25;
        fieldInf        101325;
        lInf            1;
        value           uniform 101325;
    }
    sides
    {
        type            empty;
    }
}


// ************************************************************************* //
