/*--------------------------------*- C++ -*----------------------------------*\
| =========                 |                                                 |
| \\      /  F ield         | OpenFOAM: The Open Source CFD Toolbox           |
|  \\    /   O peration     | Version:  2206                                  |
|   \\  /    A nd           | Website:  www.openfoam.com                      |
|    \\/     M anipulation  |                                                 |
\*---------------------------------------------------------------------------*/
FoamFile
{
    version     2.0;
    format      ascii;
    arch        "LSB;label=32;scalar=64";
    class       volScalarField;
    location    "1.3e-05";
    object      PVsourcePV;
}
// * * * * * * * * * * * * * * * * * * * * * * * * * * * * * * * * * * * * * //

dimensions      [1 -3 -1 0 0 0 0];

internalField   nonuniform List<scalar> 
3183
(
0
0
0
0
0
0
0
0
0
0
0
0
0
0
0
0
0
0
0
0
0
0
0
0
0
0
0
0
0
0
0
0
0
0
0
0
0
0
0
0
0
0
0
0
0
0
0
0
0
0
0
0
0
0
0
0
0
0
0
0
0
0
0
0
0
0
0
0
0
0
0
0
0
0
0
0
0
0
0
0
0
0
0
0
0
0
0
0
0
0
0
0
0
0
0
0
0
0
0
0
0
0
0
0
0
0
0
0
0
0
0
0
0
0
0
0
0
0
0
0
0
0
0
0
0
0
0
0
0
0
0
0
0
0
0
0
0
0
0
0
0
0
0
0
0
0
0
0
0
0
0
0
0
0
0
0
0
0
0
0
0
0
0
0
0
0
0
0
0
0
0
0
0
0
0
0
0
0
0
0
0
0
0
0
0
0
0
0
0
0
0
0
0
0
0
0
0
0
0
0
0
0
0
0
0
0
0
0
0
0
0
0
0
0
0
0
0
0
0
0
0
0
0
0
0
0
0
0
0
0
0
0
0
0
0
0
0
0
0
0
0
0
0
0
0
0
0
0
0
0
0
0
0
0
0
0
0
0
0
0
0
0
0
0
0
0
0
0
0
0
0
0
0
0
0
0
0
0
0
0
0
0
0
0
0
0
0
0
0
0
0
0
0
0
0
0
0
0
0
0
0
0
0
0
0
0
0
0
0
0
0
0
0
0
0
0
0
0
0
0
0
0
0
0
0
0
0
0
0
0
0
0
0
0
0
0
0
0
0
0
0
0
0
0
0
0
0
0
0
0
0
0
0
0
0
0
0
0
0
0
0
0
0
0
0
0
0
0
0
0
0
0
0
0
0
0
0
0
0
0
0
0
0
0
0
0
0
0
0
0
0
0
0
0
0
0
0
0
0
0
0
0
0
0
0
0
0
0
0
0
0
0
0
0
0
0
0
0
0
0
0
0
0
0
0
0
0
0
0
0
0
0
0
0
0
0
0
0
0
0
0
0
0
0
0
0
0
0
0
0
0
0
0
0
0
0
0
0
0
0
0
0
0
0
0
0
0
0
0
0
0
0
0
0
0
0
0
0
0
0
0
0
0
0
0
0
0
0
0
0
0
0
0
0
0
0
0
0
0
0
0
0
0
0
0
0
0
0
0
0
0
0
0
0
0
0
0
0
0
0
0
0
0
0
0
0
0
0
0
0
0
0
0
0
0
0
0
0
0
0
0
0
0
0
0
0
0
0
0
0
0
0
0
0
0
0
0
0
0
0
0
0
0
0
0
0
0
0
0
0
0
0
0
0
0
0
0
0
0
0
0
0
0
0
0
0
0
0
0
0
0
0
0
0
0
0
0
0
0
0
0
0
0
0
0
0
0
0
0
0
0
0
0
0
0
0
0
0
0
0
0
0
0
0
0
0
0
0
0
0
0
0
0
0
0
0
0
0
0
0
0
0
0
0
0
0
0
0
0
0
0
0
0
0
0
0
0
0
0
0
0
0
0
0
0
0
0
0
0
0
0
0
0
0
0
0
0
0
0
0
0
0
0
0
0
0
0
0
0
0
0
0
0
0
0
0
0
0
0
0
0
0
0
0
0
0
0
0
0
0
0
0
0
0
0
0
0
0
0
0
0
0
0
0
0
0
0
0
0
0
0
0
0
0
0
0
0
0
0
0
0
0
0
0
0
0
0
0
0
0
0
0
0
0
0
0
0
0
0
0
0
0
0
0
0
0
0
0
0
0
0
0
0
0
0
0
0
0
0
0
0
0
0
0
0
0
0
0
0
0
0
0
0
0
0
0
0
0
0
0
0
0
0
0
0
0
0
0
0
0
0
0
0
0
0
0
0
0
0
0
0
0
0
0
0
0
0
0
0
0
0
0
0
0
0
0
0
0
0
0
0
0
0
0
0
0
0
0
0
0
0
0
0
0
0
0
0
0
0
0
0
0
0
0
0
0
0
0
0
0
0
0
0
0
0
0
0
0
0
0
0
0
0
0
0
0
0
0
0
0
0
0
0
0
0
0
0
0
0
0
0
0
0
0
0
0
0
0
0
0
0
0
0
0
0
0
0
0
0
0
0
0
0
0
0
0
0
0
0
0
0
0
0
0
0
0
0
0
0
0
0
0
0
0
0
0
0
0
0
0
0
0
0
0
0
0
0
0
0
0
0
0
0
0
0
0
0
0
0
0
0
0
0
0
0
0
0
0
0
0
0
0
0
0
0
0
0
0
0
0
0
0
0
0
0
0
0
0
0
0
0
0
0
0
0
0
0
0
0
0
0
0
0
0
0
0
0
0
0
0
0
0
0
0
0
0
0
0
0
0
0
0
0
0
0
0
0
0
0
0
0
0
0
0
0
0
0
0
0
0
0
0
0
0
0
0
0
0
0
0
0
0
0
0
0
0
0
0
0
0
0
0
0
0
0
0
0
0
0
0
0
0
0
0
0
0
0
0
0
0
0
0
0
0
0
0
0
0
0
0
0
0
0
0
0
0
0
0
0
0
0
0
0
0
0
0
0
0
0
0
0
0
0
0
0
0
0
0
0
0
0
0
0
0
0
0
0
0
0
0
0
0
0
0
0
0
0
0
0
0
0
0
0
0
0
0
0
0
0
0
0
0
0
0
0
0
0
0
0
0
0
0
0
0
0
0
0
0
0
0
0
0
0
0
0
0
0
0
0
0
0
0
0
0
0
0
0
0
0
0
0
0
0
0
0
0
0
0
0
0
0
0
0
0
0
0
0
0
0
0
0
0
0
0
0
0
0
0
0
0
0
0
0
0
0
0
0
0
0
0
0
0
0
0
0
0
0
0
0
0
0
0
0
0
0
0
0
0
0
0
0
0
0
0
0
0
0
0
0
0
0
0
0
0
0
0
0
0
0
0
0
0
0
0
0
0
0
0
0
0
0
0
0
0
0
0
0
0
0
0
0
0
0
0
0
0
0
0
0
0
0
0
0
0
0
0
0
0
0
0
0
0
0
0
0
0
0
0
0
0
0
0
0
0
0
0
0
0
0
0
0
0
0
0
0
0
0
0
0
0
0
0
0
0
0
0
0
0
0
0
0
0
0
0
0
0
0
0
0
0
0
0
0
0
0
0
0
0
0
0
0
0
0
0
0
0
0
0
0
0
0
0
0
0
0
0
0
0
0
0
0
0
0
0
0
0
0
0
0
0
0
0
0
0
0
0
0
0
0
0
0
0
0
0
0
0
0
0
0
0
0
0
0
0
0
0
0
0
0
0
0
0
0
0
0
0
0
0
0
0
0
0
0
0
0
0
0
0
0
0
0
0
0
0
0
0
0
0
0
0
0
0
0
0
0
0
0
0
0
0
0
0
0
0
0
0
0
0
0
0
0
0
0
0
0
0
0
0
0
0
0
0
0
0
0
0
0
0
0
0
0
0
0
0
0
0
0
0
0
0
0
0
0
0
0
0
0
0
0
0
0
0
0
0
0
0
0
0
0
0
0
0
0
0
0
0
0
0
0
0
0
0
0
0
0
0
0
0
0
0
0
0
0
0
0
0
0
0
0
0
0
0
0
0
0
0
0
0
0
0
0
0
0
0
0
0
0
0
0
0
0
0
0
0
0
0
0
0
0
0
0
0
0
0
0
0
0
0
0
0
0
0
0
0
0
0
0
0
0
0
0
0
0
0
0
0
0
0
0
0
0
0
0
0
0
0
0
0
0
0
0
0
0
0
0
0
0
0
0
0
0
0
0
0
0
0
0
0
0
0
0
0
0
0
0
0
0
0
0
0
0
0
0
0
0
0
0
0
0
0
0
0
0
0
0
0
0
0
0
0
0
0
0
0
0
0
0
0
0
0
0
0
0
0
0
0
0
0
0
0
0
0
0
0
0
0
0
0
0
0
0
0
0
0
0
0
0
0
0
0
0
0
0
0
0
0
0
0
0
0
0
0
0
0
0
0
0
0
0
0
0
0
0
0
0
0
0
0
0
0
0
0
0
0
0
0
0
0
0
0
0
0
0
0
0
0
0
0
0
0
0
0
0
0
0
0
0
0
0
0
0
0
0
0
0
0
0
0
0
0
0
0
0
0
0
0
0
0
0
0
0
0
0
0
0
0
0
0
0
0
0
0
0
0
0
0
0
0
0
0
0
0
0
0
0
0
0
0
0
0
0
0
0
0
0
0
0
0
0
0
0
0
0
0
0
0
0
0
0
0
0
0
0
0
0
0
0
0
0
0
0
0
0
0
0
0
0
0
0
0
0
0
0
0
0
0
0
0
0
0
0
0
0
0
0
0
0
0
0
0
0
0
0
0
0
0
0
0
0
0
0
0
0
0
0
0
0
0
0
0
0
0
0
0
0
0
0
0
0
0
0
0
0
0
0
0
0
0
0
0
0
0
0
0
0
0
0
0
0
0
0
0
0
0
0
0
0
0
0
0
0
0
0
0
0
0
0
0
0
0
0
0
0
0
0
0
0
0
0
0
0
0
0
0
0
0
0
0
0
0
0
0
0
0
0
0
0
0
0
0
0
0
0
0
0
0
0
0
0
0
0
0
0
0
0
0
0
0
0
0
0
0
0
0
0
0
0
0
0
0
0
0
0
0
0
0
0
0
0
0
0
0
0
0
0
0
0
0
0
0
0
0
0
0
0
0
0
0
0
0
0
0
0
0
0
0
0
0
0
0
0
0
0
0
0
0
0
0
0
0
0
0
0
0
0
0
0
0
0
0
0
0
0
0
0
0
0
0
0
0
0
0
0
0
0
0
0
0
0
0
0
0
0
0
0
0
0
0
0
0
0
0
0
0
0
0
0
0
0
0
0
0
0
0
0
0
0
0
0
0
0
0
0
0
0
0
0
0
0
0
0
0
0
0
0
0
0
0
0
0
0
0
0
0
0
0
0
0
0
0
0
0
0
0
0
0
0
0
0
0
0
0
0
0
0
0
0
0
0
0
0
0
0
0
0
0
0
0
0
0
0
0
0
0
0
0
0
0
0
0
0
0
0
0
0
0
0
0
0
0
0
0
0
0
0
0
0
0
0
0
0
0
0
0
0
0
0
0
0
0
0
0
0
0
0
0
0
0
0
0
0
0
0
0
0
0
0
0
0
0
0
0
0
0
0
0
0
0
0
0
0
0
0
0
0
0
0
0
0
0
0
0
0
0
0
0
0
0
0
0
0
0
0
0
0
0
0
0
0
0
0
0
0
0
0
0
0
0
0
0
0
0
0
0
0
0
0
0
0
0
0
0
0
0
0
0
0
0
0
0
0
0
0
0
0
0
0
0
0
0
0
0
0
0
0
0
0
0
0
0
0
0
0
0
0
0
0
0
0
0
0
0
0
0
0
0
0
0
0
2.91747559e-300
0
2.08005068e-297
5.65684782e-298
1.46416903e-294
4.10835886e-295
1.01762318e-291
2.94197096e-292
6.98372954e-289
2.07702101e-289
4.73278754e-286
1.44664055e-286
3.16736926e-283
9.94003369e-284
2.09340769e-280
6.7334559e-281
1.36647645e-277
4.50556238e-278
8.8097174e-275
2.97445972e-275
5.60983468e-272
1.93952621e-272
3.52843165e-269
1.24679885e-269
2.19215251e-266
7.91156242e-267
1.34533254e-263
4.95594886e-264
8.15585228e-261
3.06492828e-261
4.88426794e-258
1.87141421e-258
2.88953687e-255
1.12823587e-255
1.68873872e-252
6.7163265e-253
9.75006706e-250
3.94806756e-250
5.56119042e-247
2.29178956e-247
3.13361539e-244
1.31376125e-244
1.74438671e-241
7.4374083e-242
9.59310148e-239
4.1581487e-239
5.21186537e-236
2.29593338e-236
2.79732262e-233
1.25200208e-233
1.48321165e-230
6.74281075e-231
7.7690787e-228
3.58648284e-228
4.02008279e-225
1.88403182e-225
2.05490354e-222
9.7745631e-223
1.03759853e-219
5.008322e-220
5.17532727e-217
2.53435355e-217
2.54979077e-214
1.26652779e-214
1.24084e-211
6.25065482e-212
5.96425714e-209
3.04641101e-209
2.83145464e-206
1.46619181e-206
1.32756988e-203
6.96815397e-204
6.14723823e-201
3.27003861e-201
2.81097096e-198
1.51522787e-198
1.26929787e-195
6.93222826e-196
5.6594891e-193
3.13123499e-193
2.49155995e-190
1.39631232e-190
1.08297432e-187
6.14678311e-188
4.64716634e-185
2.67106222e-185
1.96856734e-182
1.14567475e-182
8.23135355e-180
4.85007353e-180
3.39716159e-177
2.02633544e-177
1.38372001e-174
8.35438877e-175
5.56196698e-172
3.39875999e-172
2.20605217e-169
1.36423357e-169
8.63310889e-167
5.40227962e-167
3.33301591e-164
2.11028358e-164
1.26934196e-161
8.1307936e-162
4.76805138e-159
3.08961125e-159
1.76632955e-156
1.15771421e-156
6.45232072e-154
4.27730951e-154
2.32389096e-151
1.55795228e-151
8.25107445e-149
5.59359814e-149
2.8875975e-146
1.97933119e-146
9.95927113e-144
6.90190657e-144
3.38464666e-141
2.37122684e-141
1.13323704e-138
8.02522321e-139
3.7374298e-136
2.67512511e-136
1.21391891e-133
8.78118679e-134
3.88227444e-131
2.83791695e-131
1.22228971e-128
9.02806171e-129
3.78756886e-126
2.82646978e-126
1.15490925e-123
8.70665089e-124
3.46444565e-121
2.63822561e-121
1.02214069e-118
7.86173872e-119
2.96527955e-116
2.30333714e-116
8.45628954e-114
6.63298708e-114
2.36989069e-111
1.87692894e-111
6.52498491e-109
5.21724504e-109
1.7643912e-106
1.42413122e-106
4.68412412e-104
3.81616603e-104
1.2204669e-101
1.00350159e-101
3.11978807e-99
2.58856372e-99
7.82084774e-97
6.54752007e-97
1.9218987e-94
1.62326429e-94
4.62767328e-92
3.94278025e-92
1.09130596e-89
9.37803398e-90
2.51921752e-87
2.18322938e-87
5.6897121e-85
4.97203475e-85
1.25653889e-82
1.10705789e-82
2.71182835e-80
2.40849659e-80
5.71572433e-78
5.11660534e-78
1.1757266e-75
1.0606681e-75
2.35857501e-73
2.14397315e-73
4.61063401e-71
4.22239523e-71
8.77552678e-69
8.09524738e-69
1.62477511e-66
1.50951308e-66
2.92344949e-64
2.73496426e-64
5.1064636e-62
4.80963435e-62
8.64904897e-60
8.2000526e-60
1.41872245e-57
1.35369245e-57
2.25069019e-55
2.16086245e-55
3.4480659e-53
3.33032366e-53
5.09290621e-51
4.9474519e-51
7.2393885e-49
7.07164812e-49
9.88361771e-47
9.7055796e-47
1.29312988e-44
1.27610892e-44
1.61733888e-42
1.60311178e-42
1.92832109e-40
1.91800289e-40
2.18476958e-38
2.17628438e-38
2.34379771e-36
2.32915968e-36
2.37102139e-34
2.33661317e-34
2.25103584e-32
2.18596168e-32
1.99446418e-30
1.95416224e-30
1.63770971e-28
1.63386469e-28
1.23653421e-26
1.22923814e-26
8.50494157e-25
8.42592106e-25
5.26313754e-23
5.20096043e-23
2.88532004e-21
2.83978894e-21
1.37302056e-19
1.37101541e-19
5.51257467e-18
5.46386412e-18
1.79492503e-16
1.78744663e-16
4.44268952e-15
4.44531175e-15
5.0919267e-11
5.17747108e-11
0.00804591637
0.0347610817
0.63012642
0.716799183
0.559075542
0.482747279
0.124951129
0.100943157
0.0192267329
0.0170875425
0.00370358435
0.00343380422
0.000629666266
0.000609607536
9.73570299e-05
9.72044196e-05
1.45460793e-05
1.45741404e-05
2.50000801e-06
2.50657175e-06
8.9560151e-07
8.95308834e-07
6.96362991e-07
6.96408811e-07
6.7357233e-07
6.73578664e-07
6.71126285e-07
6.71127466e-07
6.70878773e-07
6.7088073e-07
6.70854874e-07
6.70856396e-07
6.70852885e-07
6.70855396e-07
6.70851407e-07
6.70854531e-07
6.70852514e-07
6.70853164e-07
6.70852703e-07
6.70851848e-07
6.70853994e-07
6.70852152e-07
6.70854751e-07
6.7085205e-07
6.70853703e-07
6.70853136e-07
6.70854216e-07
6.7085282e-07
6.70853529e-07
6.70853183e-07
6.70854209e-07
6.70852687e-07
6.70853773e-07
6.70853326e-07
6.70853666e-07
6.70853225e-07
6.70853184e-07
6.7085416e-07
6.7085262e-07
6.70853489e-07
6.70853243e-07
6.70853858e-07
6.70853441e-07
6.70852843e-07
6.70853266e-07
6.70853022e-07
6.70853767e-07
6.70852674e-07
6.70853501e-07
6.70852354e-07
6.70853287e-07
6.70853189e-07
6.70852453e-07
6.70853315e-07
6.70852398e-07
6.70853645e-07
6.7085302e-07
6.70854395e-07
6.70852852e-07
6.70854398e-07
6.70852038e-07
6.70854275e-07
6.7085281e-07
6.70853091e-07
6.70853519e-07
6.70852197e-07
6.70854014e-07
6.70852172e-07
6.70853946e-07
6.70852186e-07
6.70854064e-07
6.70853017e-07
6.70854054e-07
6.70853082e-07
6.70853847e-07
6.70853219e-07
6.70853507e-07
6.70853025e-07
6.70854604e-07
6.70853998e-07
6.70853454e-07
6.70853426e-07
6.70853189e-07
6.70853518e-07
6.70853779e-07
6.70853418e-07
6.70853249e-07
6.70853906e-07
6.708531e-07
6.70854033e-07
6.70852456e-07
6.70853752e-07
6.70853261e-07
6.70852922e-07
6.70853157e-07
6.70852781e-07
6.7085283e-07
6.70854287e-07
6.70852511e-07
6.70854153e-07
6.70853033e-07
6.70854344e-07
6.70852255e-07
6.70853296e-07
6.70853595e-07
6.70853304e-07
6.70853161e-07
6.70854261e-07
6.70852926e-07
6.70854542e-07
6.70853565e-07
6.70853264e-07
6.7085454e-07
6.70854136e-07
6.70854133e-07
6.70853733e-07
6.70854311e-07
6.70853295e-07
6.70853588e-07
6.70853376e-07
6.70852545e-07
6.70853704e-07
6.70852656e-07
6.70853226e-07
6.70852956e-07
6.70853506e-07
6.70852333e-07
6.70853488e-07
6.70853829e-07
6.70852541e-07
6.7085422e-07
6.70852407e-07
6.70854631e-07
6.70853148e-07
6.70854173e-07
6.70853265e-07
6.70853927e-07
6.70854008e-07
6.70853618e-07
6.7085342e-07
6.70855509e-07
6.70852674e-07
6.7085484e-07
6.70853632e-07
6.70855041e-07
6.70852628e-07
6.70854653e-07
6.70853008e-07
6.70853222e-07
6.7085315e-07
6.70852895e-07
6.70853428e-07
6.70852181e-07
6.70853888e-07
6.70853e-07
6.70854055e-07
6.70853669e-07
6.708547e-07
6.70853504e-07
6.70854816e-07
6.70854803e-07
6.70854638e-07
6.70854845e-07
6.70854518e-07
6.70853836e-07
6.70853362e-07
6.7085438e-07
6.7085251e-07
6.7085469e-07
6.70853757e-07
6.70854179e-07
6.70853174e-07
6.70854814e-07
6.70853076e-07
6.70855296e-07
6.70853027e-07
6.70853601e-07
6.70852811e-07
6.7085443e-07
6.70852792e-07
6.70854757e-07
6.708528e-07
6.70855252e-07
6.70852989e-07
6.70853983e-07
6.70854299e-07
6.70853633e-07
6.70853912e-07
6.70855241e-07
6.70854252e-07
6.70854497e-07
6.70853939e-07
6.70854347e-07
6.70853905e-07
6.70854677e-07
6.70853743e-07
6.70853913e-07
6.70854069e-07
6.70853867e-07
6.70854006e-07
6.70854115e-07
6.70853656e-07
6.70853729e-07
6.70854079e-07
6.70854231e-07
6.70853542e-07
6.70854909e-07
6.70853326e-07
6.70854507e-07
6.70854695e-07
6.70854178e-07
6.70854092e-07
6.70853872e-07
6.70854441e-07
6.70854288e-07
6.70854567e-07
6.70854036e-07
6.70854966e-07
6.70853785e-07
6.70855069e-07
6.70854108e-07
6.70855326e-07
6.70853628e-07
6.70855606e-07
6.70852844e-07
6.70855437e-07
6.70853524e-07
6.70853569e-07
6.70854211e-07
6.70853409e-07
6.70854307e-07
6.70854624e-07
6.70854223e-07
6.70853937e-07
6.70854059e-07
6.70854051e-07
6.7085401e-07
6.70854037e-07
6.70854083e-07
6.70854792e-07
6.70854473e-07
6.7085352e-07
6.70855598e-07
6.70853387e-07
6.70855334e-07
6.70853208e-07
6.7085454e-07
6.70854091e-07
6.70854127e-07
6.70853015e-07
6.70854885e-07
6.70853282e-07
6.70853904e-07
6.70854399e-07
6.70853105e-07
6.70855467e-07
6.7085372e-07
6.70854981e-07
6.70854509e-07
6.70853244e-07
6.7085499e-07
6.70853633e-07
6.70854203e-07
6.70854585e-07
6.70854111e-07
6.70853697e-07
6.70853885e-07
6.70854543e-07
6.70854086e-07
6.7085456e-07
6.70854266e-07
6.70854134e-07
6.70855215e-07
6.70853153e-07
6.70853765e-07
6.7085444e-07
6.70854217e-07
6.70854439e-07
6.70854671e-07
6.70854518e-07
6.70854315e-07
6.70854742e-07
6.70855106e-07
6.70854031e-07
6.70855374e-07
6.70853866e-07
6.70853869e-07
6.70854401e-07
6.70853764e-07
6.70854644e-07
6.70853875e-07
6.70855057e-07
6.70853376e-07
6.70855882e-07
6.70853674e-07
6.70854396e-07
6.70854303e-07
6.708543e-07
6.7085462e-07
6.70853622e-07
6.70855226e-07
6.70853417e-07
6.70855592e-07
6.70853705e-07
6.7085523e-07
6.70853789e-07
6.70854463e-07
6.70855317e-07
6.708539e-07
6.70855353e-07
6.70853709e-07
6.70855059e-07
6.70854344e-07
6.70854253e-07
6.70854303e-07
6.70854133e-07
6.70854735e-07
6.70854947e-07
6.70853543e-07
6.7085487e-07
6.70854365e-07
6.7085506e-07
6.70854612e-07
6.7085482e-07
6.70854689e-07
6.70855201e-07
6.70854289e-07
6.70854235e-07
6.70855243e-07
6.7085373e-07
6.7085501e-07
6.70855206e-07
6.70853855e-07
6.70854387e-07
6.70854666e-07
6.70854026e-07
6.70855357e-07
6.70854195e-07
6.70855248e-07
6.70854864e-07
6.70854641e-07
6.70853927e-07
6.7085461e-07
6.70854649e-07
6.70855337e-07
6.70854418e-07
6.70855141e-07
6.70855103e-07
6.70855695e-07
6.70855095e-07
6.70855809e-07
6.70855138e-07
6.7085498e-07
6.70854902e-07
6.70854925e-07
6.70854362e-07
6.70854506e-07
6.7085495e-07
6.70854678e-07
6.70855611e-07
6.70855109e-07
6.70854115e-07
6.70855429e-07
6.70854757e-07
6.70855075e-07
6.70854527e-07
6.70854425e-07
6.70854968e-07
6.70853901e-07
6.70855414e-07
6.70854196e-07
6.70854854e-07
6.70854014e-07
6.7085476e-07
6.70855243e-07
6.70854579e-07
6.70855729e-07
6.70855147e-07
6.70855381e-07
6.70854515e-07
6.70854815e-07
6.70854692e-07
6.70854375e-07
6.70856242e-07
6.70853409e-07
6.7085559e-07
6.70853956e-07
6.70855303e-07
6.70855377e-07
6.70854791e-07
6.70854994e-07
6.70855329e-07
6.7085583e-07
6.70854979e-07
6.70855608e-07
6.70854946e-07
6.7085536e-07
6.70854509e-07
6.70855359e-07
6.70854647e-07
6.70855416e-07
6.70855388e-07
6.70854531e-07
6.70856345e-07
6.70855269e-07
6.70855571e-07
6.70854985e-07
6.70856158e-07
6.70854143e-07
6.70856287e-07
6.70854818e-07
6.70855986e-07
6.70855289e-07
6.70855576e-07
6.70855952e-07
6.70855097e-07
6.70855205e-07
6.70855769e-07
6.70855071e-07
6.70856319e-07
6.7085455e-07
6.70855706e-07
6.70854873e-07
6.70855327e-07
6.70854628e-07
6.70856226e-07
6.70855057e-07
6.7085638e-07
6.70854833e-07
6.70854852e-07
6.70856125e-07
6.70854973e-07
6.70855745e-07
6.70854978e-07
6.70854965e-07
6.70856103e-07
6.70854528e-07
6.70855278e-07
6.70855648e-07
6.70854724e-07
6.70855622e-07
6.70855586e-07
6.70854544e-07
6.70856437e-07
6.70854422e-07
6.70856817e-07
6.70854961e-07
6.70855857e-07
6.70855085e-07
6.70855574e-07
6.70855054e-07
6.70855323e-07
6.7085515e-07
6.70855219e-07
6.70854948e-07
6.70856068e-07
6.7085454e-07
6.70856048e-07
6.70854472e-07
6.70855589e-07
6.70854341e-07
6.70855555e-07
6.7085437e-07
6.7085538e-07
6.70854689e-07
6.70854732e-07
6.70855288e-07
6.70854467e-07
6.70856858e-07
6.70853938e-07
6.70856027e-07
6.70854635e-07
6.70856502e-07
6.7085472e-07
6.70856458e-07
6.70853652e-07
6.70857447e-07
6.70853426e-07
6.70856666e-07
6.70854025e-07
6.70856306e-07
6.70854921e-07
6.70855273e-07
6.70856114e-07
6.70856097e-07
6.70855161e-07
6.70856057e-07
6.70855103e-07
6.70855485e-07
6.70855364e-07
6.70855755e-07
6.708552e-07
6.7085568e-07
6.70855567e-07
6.70855923e-07
6.70855662e-07
6.70855565e-07
6.70855885e-07
6.70855584e-07
6.70855462e-07
6.70855845e-07
6.70855836e-07
6.70855794e-07
6.70855794e-07
6.70855823e-07
6.70855768e-07
6.70855906e-07
6.70855944e-07
6.70855966e-07
6.7085605e-07
6.70856062e-07
6.70856207e-07
6.70856281e-07
6.70856281e-07
6.70856418e-07
6.70856527e-07
6.7085658e-07
6.70856704e-07
6.70856863e-07
6.70857033e-07
6.70857153e-07
6.70857321e-07
6.70857537e-07
6.70857685e-07
6.70857885e-07
6.70858089e-07
6.70858261e-07
6.70858367e-07
6.70858534e-07
6.70858624e-07
6.70858689e-07
6.70858748e-07
6.70858773e-07
6.70858786e-07
6.70858807e-07
6.70858804e-07
6.70858805e-07
6.7085878e-07
6.70858772e-07
6.7085881e-07
6.70858794e-07
6.70858797e-07
6.708588e-07
6.70858801e-07
6.70858808e-07
6.70858809e-07
6.70858801e-07
6.70858821e-07
6.70858795e-07
6.70858803e-07
6.70858794e-07
6.70858801e-07
6.70858803e-07
6.70858799e-07
6.70858804e-07
6.70858795e-07
6.70858781e-07
6.70858823e-07
)
;

boundaryField
{
    closed
    {
        type            calculated;
        value           uniform 0;
    }
    open
    {
        type            calculated;
        value           uniform 0;
    }
    sides
    {
        type            empty;
    }
}


// ************************************************************************* //
