/*--------------------------------*- C++ -*----------------------------------*\
| =========                 |                                                 |
| \\      /  F ield         | OpenFOAM: The Open Source CFD Toolbox           |
|  \\    /   O peration     | Version:  2206                                  |
|   \\  /    A nd           | Website:  www.openfoam.com                      |
|    \\/     M anipulation  |                                                 |
\*---------------------------------------------------------------------------*/
FoamFile
{
    version     2.0;
    format      ascii;
    arch        "LSB;label=32;scalar=64";
    class       volScalarField;
    location    "1.3e-05";
    object      sourcePV;
}
// * * * * * * * * * * * * * * * * * * * * * * * * * * * * * * * * * * * * * //

dimensions      [1 -3 -1 0 0 0 0];

internalField   nonuniform List<scalar> 
3183
(
0
0
0
0
0
0
0
0
0
0
0
0
0
0
0
0
0
0
0
0
0
0
0
0
0
0
0
0
0
0
0
0
0
0
0
0
0
0
0
0
0
0
0
0
0
0
0
0
0
0
0
0
0
0
0
0
0
0
0
0
0
0
0
0
0
0
0
0
0
0
0
0
0
0
0
0
0
0
0
0
0
0
0
0
0
0
0
0
0
0
0
0
0
0
0
0
0
0
0
0
0
0
0
0
0
0
0
0
0
0
0
0
0
0
0
0
0
0
0
0
0
0
0
0
0
0
0
0
0
0
0
0
0
0
0
0
0
0
0
0
0
0
0
0
0
0
0
0
0
0
0
0
0
0
0
0
0
0
0
0
0
0
0
0
0
0
0
0
0
0
0
0
0
0
0
0
0
0
0
0
0
0
0
0
0
0
0
0
0
0
0
0
0
0
0
0
0
0
0
0
0
0
0
0
0
0
0
0
0
0
0
0
0
0
0
0
0
0
0
0
0
0
0
0
0
0
0
0
0
0
0
0
0
0
0
0
0
0
0
0
0
0
0
0
0
0
0
0
0
0
0
0
0
0
0
0
0
0
0
0
0
0
0
0
0
0
0
0
0
0
0
0
0
0
0
0
0
0
0
0
0
0
0
0
0
0
0
0
0
0
0
0
0
0
0
0
0
0
0
0
0
0
0
0
0
0
0
0
0
0
0
0
0
0
0
0
0
0
0
0
0
0
0
0
0
0
0
0
0
0
0
0
0
0
0
0
0
0
0
0
0
0
0
0
0
0
0
0
0
0
0
0
0
0
0
0
0
0
0
0
0
0
0
0
0
0
0
0
0
0
0
0
0
0
0
0
0
0
0
0
0
0
0
0
0
0
0
0
0
0
0
0
0
0
0
0
0
0
0
0
0
0
0
0
0
0
0
0
0
0
0
0
0
0
0
0
0
0
0
0
0
0
0
0
0
0
0
0
0
0
0
0
0
0
0
0
0
0
0
0
0
0
0
0
0
0
0
0
0
0
0
0
0
0
0
0
0
0
0
0
0
0
0
0
0
0
0
0
0
0
0
0
0
0
0
0
0
0
0
0
0
0
0
0
0
0
0
0
0
0
0
0
0
0
0
0
0
0
0
0
0
0
0
0
0
0
0
0
0
0
0
0
0
0
0
0
0
0
0
0
0
0
0
0
0
0
0
0
0
0
0
0
0
0
0
0
0
0
0
0
0
0
0
0
0
0
0
0
0
0
0
0
0
0
0
0
0
0
0
0
0
0
0
0
0
0
0
0
0
0
0
0
0
0
0
0
0
0
0
0
0
0
0
0
0
0
0
0
0
0
0
0
0
0
0
0
0
0
0
0
0
0
0
0
0
0
0
0
0
0
0
0
0
0
0
0
0
0
0
0
0
0
0
0
0
0
0
0
0
0
0
0
0
0
0
0
0
0
0
0
0
0
0
0
0
0
0
0
0
0
0
0
0
0
0
0
0
0
0
0
0
0
0
0
0
0
0
0
0
0
0
0
0
0
0
0
0
0
0
0
0
0
0
0
0
0
0
0
0
0
0
0
0
0
0
0
0
0
0
0
0
0
0
0
0
0
0
0
0
0
0
0
0
0
0
0
0
0
0
0
0
0
0
0
0
0
0
0
0
0
0
0
0
0
0
0
0
0
0
0
0
0
0
0
0
0
0
0
0
0
0
0
0
0
0
0
0
0
0
0
0
0
0
0
0
0
0
0
0
0
0
0
0
0
0
0
0
0
0
0
0
0
0
0
0
0
0
0
0
0
0
0
0
0
0
0
0
0
0
0
0
0
0
0
0
0
0
0
0
0
0
0
0
0
0
0
0
0
0
0
0
0
0
0
0
0
0
0
0
0
0
0
0
0
0
0
0
0
0
0
0
0
0
0
0
0
0
0
0
0
0
0
0
0
0
0
0
0
0
0
0
0
0
0
0
0
0
0
0
0
0
0
0
0
0
0
0
0
0
0
0
0
0
0
0
0
0
0
0
0
0
0
0
0
0
0
0
0
0
0
0
0
0
0
0
0
0
0
0
0
0
0
0
0
0
0
0
0
0
0
0
0
0
0
0
0
0
0
0
0
0
0
0
0
0
0
0
0
0
0
0
0
0
0
0
0
0
0
0
0
0
0
0
0
0
0
0
0
0
0
0
0
0
0
0
0
0
0
0
0
0
0
0
0
0
0
0
0
0
0
0
0
0
0
0
0
0
0
0
0
0
0
0
0
0
0
0
0
0
0
0
0
0
0
0
0
0
0
0
0
0
0
0
0
0
0
0
0
0
0
0
0
0
0
0
0
0
0
0
0
0
0
0
0
0
0
0
0
0
0
0
0
0
0
0
0
0
0
0
0
0
0
0
0
0
0
0
0
0
0
0
0
0
0
0
0
0
0
0
0
0
0
0
0
0
0
0
0
0
0
0
0
0
0
0
0
0
0
0
0
0
0
0
0
0
0
0
0
0
0
0
0
0
0
0
0
0
0
0
0
0
0
0
0
0
0
0
0
0
0
0
0
0
0
0
0
0
0
0
0
0
0
0
0
0
0
0
0
0
0
0
0
0
0
0
0
0
0
0
0
0
0
0
0
0
0
0
0
0
0
0
0
0
0
0
0
0
0
0
0
0
0
0
0
0
0
0
0
0
0
0
0
0
0
0
0
0
0
0
0
0
0
0
0
0
0
0
0
0
0
0
0
0
0
0
0
0
0
0
0
0
0
0
0
0
0
0
0
0
0
0
0
0
0
0
0
0
0
0
0
0
0
0
0
0
0
0
0
0
0
0
0
0
0
0
0
0
0
0
0
0
0
0
0
0
0
0
0
0
0
0
0
0
0
0
0
0
0
0
0
0
0
0
0
0
0
0
0
0
0
0
0
0
0
0
0
0
0
0
0
0
0
0
0
0
0
0
0
0
0
0
0
0
0
0
0
0
0
0
0
0
0
0
0
0
0
0
0
0
0
0
0
0
0
0
0
0
0
0
0
0
0
0
0
0
0
0
0
0
0
0
0
0
0
0
0
0
0
0
0
0
0
0
0
0
0
0
0
0
0
0
0
0
0
0
0
0
0
0
0
0
0
0
0
0
0
0
0
0
0
0
0
0
0
0
0
0
0
0
0
0
0
0
0
0
0
0
0
0
0
0
0
0
0
0
0
0
0
0
0
0
0
0
0
0
0
0
0
0
0
0
0
0
0
0
0
0
0
0
0
0
0
0
0
0
0
0
0
0
0
0
0
0
0
0
0
0
0
0
0
0
0
0
0
0
0
0
0
0
0
0
0
0
0
0
0
0
0
0
0
0
0
0
0
0
0
0
0
0
0
0
0
0
0
0
0
0
0
0
0
0
0
0
0
0
0
0
0
0
0
0
0
0
0
0
0
0
0
0
0
0
0
0
0
0
0
0
0
0
0
0
0
0
0
0
0
0
0
0
0
0
0
0
0
0
0
0
0
0
0
0
0
0
0
0
0
0
0
0
0
0
0
0
0
0
0
0
0
0
0
0
0
0
0
0
0
0
0
0
0
0
0
0
0
0
0
0
0
0
0
0
0
0
0
0
0
0
0
0
0
0
0
0
0
0
0
0
0
0
0
0
0
0
0
0
0
0
0
0
0
0
0
0
0
0
0
0
0
0
0
0
0
0
0
0
0
0
0
0
0
0
0
0
0
0
0
0
0
0
0
0
0
0
0
0
0
0
0
0
0
0
0
0
0
0
0
0
0
0
0
0
0
0
0
0
0
0
0
0
0
0
0
0
0
0
0
0
0
0
0
0
0
0
0
0
0
0
0
0
0
0
0
0
0
0
0
0
0
0
0
0
0
0
0
0
0
0
0
0
0
0
0
0
0
0
0
0
0
0
0
0
0
0
0
0
0
0
0
0
0
0
0
0
0
0
0
0
0
0
0
0
0
0
0
0
0
0
0
0
0
0
0
0
0
0
0
0
0
0
0
0
0
0
0
0
0
0
0
0
0
0
0
0
0
0
0
0
0
0
0
0
0
0
0
0
0
0
0
0
0
0
0
0
0
0
0
0
0
0
0
0
0
0
0
0
0
0
0
0
0
0
0
0
0
0
0
0
0
0
0
0
0
0
0
0
0
0
0
0
0
0
0
0
0
0
0
0
0
0
0
0
0
0
0
0
0
0
0
0
0
0
0
0
0
0
0
0
0
0
0
0
0
0
0
0
0
0
0
0
0
0
0
0
0
0
0
0
0
0
0
0
0
0
0
0
0
0
0
0
0
0
0
0
0
0
0
0
0
0
0
0
0
0
0
0
0
0
0
0
0
0
0
0
0
0
0
0
0
0
0
0
0
0
0
0
0
0
0
0
0
0
0
0
0
0
0
0
0
0
0
0
0
0
0
0
0
0
0
0
0
0
0
0
0
0
0
0
0
0
0
0
0
0
0
0
0
0
0
0
0
0
0
0
0
0
0
0
0
0
0
0
0
0
0
0
0
0
0
0
0
0
0
0
0
0
0
0
0
0
0
0
0
0
0
0
0
0
0
0
0
0
0
0
0
0
0
0
0
0
0
0
0
0
0
0
0
0
0
0
0
0
0
0
0
0
0
0
0
0
0
0
0
0
0
0
0
0
0
0
0
0
0
0
0
0
0
0
0
0
0
0
0
0
0
0
0
0
0
0
0
0
0
0
0
0
0
0
0
0
0
0
0
0
0
0
0
0
0
0
0
0
0
0
0
0
0
0
0
0
0
0
0
0
0
0
0
0
0
0
0
0
0
0
0
0
0
0
0
0
0
0
0
0
0
0
0
0
0
0
0
0
0
0
0
0
0
0
0
0
0
0
0
0
0
0
0
0
0
0
0
0
0
0
0
0
0
0
0
0
0
0
0
0
0
0
0
0
0
0
0
0
0
0
0
0
0
0
0
0
0
0
0
0
0
0
0
0
0
0
0
0
0
0
0
0
0
0
0
0
0
0
0
0
0
0
0
0
0
0
0
0
0
0
0
0
0
0
0
0
0
0
0
0
0
0
0
0
0
0
0
0
0
0
0
0
0
0
0
0
0
0
0
0
0
0
0
0
0
0
0
0
0
0
0
0
0
0
0
0
0
0
0
0
0
0
0
0
0
0
0
0
0
0
0
0
0
0
0
0
0
0
0
0
0
0
0
0
0
0
0
0
0
0
0
0
0
0
0
0
0
0
0
0
0
0
0
0
0
0
0
0
0
0
0
0
0
0
0
0
0
0
0
0
0
0
0
0
0
0
0
0
0
0
0
0
0
0
0
0
0
0
0
0
0
0
0
0
0
0
0
0
0
0
0
0
0
0
0
0
0
0
0
0
0
0
0
0
7.05311261e-300
1.7930435e-300
5.09361923e-297
1.34054593e-297
3.63155949e-294
9.87628789e-295
2.55629201e-291
7.17278176e-292
1.77666782e-288
5.13638568e-289
1.219289e-285
3.62626997e-286
8.26297148e-283
2.52568903e-283
5.52990847e-280
1.73543e-280
3.65487948e-277
1.17559374e-277
2.38573058e-274
7.86625918e-275
1.53808814e-271
5.1931078e-272
9.79420767e-269
3.38621787e-269
6.16028712e-266
2.17678551e-266
3.827278e-263
1.3812793e-263
2.34881543e-260
8.65258873e-261
1.42392986e-257
5.35105681e-258
8.52744104e-255
3.26730116e-255
5.04484102e-252
1.96978646e-252
2.94836811e-249
1.17260312e-249
1.70226374e-246
6.89292926e-247
9.70927967e-244
4.0012343e-244
5.4709776e-241
2.29369513e-241
3.04552392e-238
1.29849676e-238
1.67485913e-235
7.25970982e-236
9.09939324e-233
4.00846899e-233
4.88384422e-230
2.18586983e-230
2.5895385e-227
1.177227e-227
1.35640308e-224
6.26163866e-225
7.01866061e-222
3.28933024e-222
3.5876551e-219
1.7065405e-219
1.81154277e-216
8.74402697e-217
9.03560138e-214
4.42472665e-214
4.45167847e-211
2.21123026e-211
2.16638197e-208
1.09130152e-208
1.04129937e-205
5.31872751e-206
4.9434353e-203
2.55982358e-203
2.31780362e-200
1.21656967e-200
1.07324603e-197
5.70915883e-198
4.90767285e-195
2.64543561e-195
2.21606655e-192
1.2102974e-192
9.88089929e-190
5.46682165e-190
4.35001331e-187
2.43782101e-187
1.89076435e-184
1.07316657e-184
8.11348548e-182
4.66340624e-182
3.43692076e-179
2.00023299e-179
1.43711162e-176
8.46774105e-177
5.93110278e-174
3.53777806e-174
2.41583611e-171
1.45859233e-171
9.71063546e-169
5.93389343e-169
3.85154541e-166
2.38181473e-166
1.50725406e-163
9.43183739e-164
5.81911087e-161
3.68434309e-161
2.21614351e-158
1.41955486e-158
8.32453861e-156
5.39415079e-156
3.08383392e-153
2.02125268e-153
1.12651036e-150
7.46775261e-151
4.0572801e-148
2.72002813e-148
1.44055469e-145
9.7658603e-146
5.04145509e-143
3.45571337e-143
1.73878867e-140
1.20500354e-140
5.90925298e-138
4.1399238e-138
1.978518e-135
1.40112333e-135
6.52517688e-133
4.67049964e-133
2.11938044e-130
1.53310698e-130
6.77806107e-128
4.95471783e-128
2.13399502e-125
1.57620886e-125
6.61271464e-123
4.93473222e-123
2.01635551e-120
1.52009376e-120
6.04857399e-118
4.60607681e-118
1.78455494e-115
1.37258059e-115
5.17708014e-113
4.0213952e-113
1.47638318e-110
1.1580529e-110
4.13759102e-108
3.27692933e-108
1.1391968e-105
9.10878561e-106
3.08044975e-103
2.48639001e-103
8.17801005e-101
6.66264243e-101
2.13081257e-98
1.75201294e-98
5.44683649e-96
4.51937216e-96
1.36544143e-93
1.14313121e-93
3.35544201e-91
2.83405635e-91
8.07945255e-89
6.88369815e-89
1.90531055e-86
1.6373105e-86
4.39830065e-84
3.81169912e-84
9.93366561e-82
8.68067307e-82
2.19379065e-79
1.93281184e-79
4.7345798e-77
4.20499303e-77
9.97908036e-75
8.93307881e-75
2.0527005e-72
1.85181993e-72
4.11783497e-70
3.7431617e-70
8.0497037e-68
7.37187781e-68
1.5321188e-65
1.41334885e-65
2.83669408e-63
2.63545816e-63
5.10404906e-61
4.77497279e-61
8.91537234e-59
8.39713829e-59
1.51003704e-56
1.43164679e-56
2.47694683e-54
2.36341099e-54
3.92947891e-52
3.77264871e-52
6.01997659e-50
5.81441048e-50
8.8917025e-48
8.63775389e-48
1.26392449e-45
1.23463871e-45
1.72558034e-43
1.69449667e-43
2.25767484e-41
2.22795794e-41
2.82371118e-39
2.79887209e-39
3.36665485e-37
3.34864033e-37
3.81438815e-35
3.79957385e-35
4.09203529e-33
4.06647876e-33
4.1395651e-31
4.0794918e-31
3.93008239e-29
3.81646944e-29
3.48213405e-27
3.41177091e-27
2.85927659e-25
2.85256357e-25
2.15886449e-23
2.14612628e-23
1.48487734e-21
1.47108115e-21
9.1889093e-20
9.08035431e-20
5.03747886e-18
4.95798614e-18
2.39715593e-16
2.39365514e-16
9.62440146e-15
9.53935774e-15
3.13375874e-13
3.12070222e-13
7.7564895e-12
7.76106764e-12
7.71881835e-09
7.82300104e-09
0.179418383
0.696941017
9.02348622
9.91767612
6.92963559
5.92588482
1.4819773
1.19357666
0.22582049
0.200695419
0.043499079
0.0403304761
0.00739550881
0.00715991639
0.00114346716
0.00114167473
0.000170841703
0.000171171284
2.93590189e-05
2.94361109e-05
1.05150546e-05
1.05116171e-05
8.17497208e-06
8.17551025e-06
7.90729279e-06
7.90736719e-06
7.87856368e-06
7.87857754e-06
7.87565661e-06
7.87567959e-06
7.87537591e-06
7.87539379e-06
7.87535255e-06
7.87538204e-06
7.8753352e-06
7.87537189e-06
7.87534819e-06
7.87535583e-06
7.87535042e-06
7.87534038e-06
7.87536557e-06
7.87534395e-06
7.87537447e-06
7.87534275e-06
7.87536216e-06
7.8753555e-06
7.87536819e-06
7.87535179e-06
7.87536012e-06
7.87535605e-06
7.8753681e-06
7.87535023e-06
7.87536298e-06
7.87535774e-06
7.87536173e-06
7.87535655e-06
7.87535606e-06
7.87536753e-06
7.87534944e-06
7.87535964e-06
7.87535676e-06
7.87536398e-06
7.87535908e-06
7.87535206e-06
7.87535703e-06
7.87535417e-06
7.87536291e-06
7.87535007e-06
7.87535979e-06
7.87534632e-06
7.87535727e-06
7.87535613e-06
7.87534748e-06
7.8753576e-06
7.87534684e-06
7.87536147e-06
7.87535413e-06
7.87537029e-06
7.87535216e-06
7.87537032e-06
7.8753426e-06
7.87536888e-06
7.87535167e-06
7.87535497e-06
7.87536e-06
7.87534448e-06
7.87536581e-06
7.87534418e-06
7.87536501e-06
7.87534434e-06
7.8753664e-06
7.8753541e-06
7.87536628e-06
7.87535487e-06
7.87536385e-06
7.87535648e-06
7.87535985e-06
7.8753542e-06
7.87537274e-06
7.87536563e-06
7.87535923e-06
7.8753589e-06
7.87535613e-06
7.87535999e-06
7.87536305e-06
7.87535882e-06
7.87535682e-06
7.87536455e-06
7.87535508e-06
7.87536604e-06
7.87534751e-06
7.87536273e-06
7.87535696e-06
7.87535299e-06
7.87535574e-06
7.87535133e-06
7.8753519e-06
7.87536901e-06
7.87534816e-06
7.87536745e-06
7.87535429e-06
7.87536968e-06
7.87534515e-06
7.87535738e-06
7.87536089e-06
7.87535747e-06
7.8753558e-06
7.87536872e-06
7.87535303e-06
7.87537201e-06
7.87536054e-06
7.875357e-06
7.87537199e-06
7.87536725e-06
7.87536721e-06
7.87536251e-06
7.8753693e-06
7.87535736e-06
7.87536081e-06
7.87535832e-06
7.87534855e-06
7.87536217e-06
7.87534987e-06
7.87535656e-06
7.87535338e-06
7.87535984e-06
7.87534606e-06
7.87535963e-06
7.87536363e-06
7.87534851e-06
7.87536823e-06
7.87534694e-06
7.87537306e-06
7.87535564e-06
7.87536768e-06
7.87535702e-06
7.87536479e-06
7.87536574e-06
7.87536116e-06
7.87535884e-06
7.87538337e-06
7.87535007e-06
7.87537551e-06
7.87536133e-06
7.87537788e-06
7.87534953e-06
7.87537332e-06
7.875354e-06
7.87535651e-06
7.87535566e-06
7.87535267e-06
7.87535893e-06
7.87534428e-06
7.87536433e-06
7.8753539e-06
7.87536629e-06
7.87536176e-06
7.87537387e-06
7.87535982e-06
7.87537523e-06
7.87537507e-06
7.87537315e-06
7.87537557e-06
7.87537173e-06
7.87536372e-06
7.87535815e-06
7.87537011e-06
7.87534815e-06
7.87537375e-06
7.8753628e-06
7.87536774e-06
7.87535595e-06
7.87537521e-06
7.87535479e-06
7.87538087e-06
7.87535422e-06
7.87536096e-06
7.87535169e-06
7.8753707e-06
7.87535145e-06
7.87537453e-06
7.87535155e-06
7.87538035e-06
7.87535377e-06
7.87536545e-06
7.87536916e-06
7.87536134e-06
7.87536461e-06
7.87538022e-06
7.8753686e-06
7.87537148e-06
7.87536493e-06
7.87536972e-06
7.87536453e-06
7.8753736e-06
7.87536263e-06
7.87536463e-06
7.87536645e-06
7.87536408e-06
7.87536572e-06
7.875367e-06
7.87536161e-06
7.87536247e-06
7.87536658e-06
7.87536836e-06
7.87536027e-06
7.87537632e-06
7.87535774e-06
7.8753716e-06
7.87537381e-06
7.87536773e-06
7.87536673e-06
7.87536414e-06
7.87537083e-06
7.87536903e-06
7.87537231e-06
7.87536607e-06
7.87537699e-06
7.87536313e-06
7.87537821e-06
7.87536692e-06
7.87538123e-06
7.87536128e-06
7.87538451e-06
7.87535207e-06
7.87538253e-06
7.87536005e-06
7.87536058e-06
7.87536813e-06
7.87535871e-06
7.87536926e-06
7.87537298e-06
7.87536826e-06
7.87536491e-06
7.87536635e-06
7.87536625e-06
7.87536576e-06
7.87536608e-06
7.87536662e-06
7.87537495e-06
7.87537121e-06
7.87536001e-06
7.87538441e-06
7.87535845e-06
7.87538131e-06
7.87535635e-06
7.87537199e-06
7.87536672e-06
7.87536714e-06
7.87535408e-06
7.87537605e-06
7.87535722e-06
7.87536452e-06
7.87537034e-06
7.87535514e-06
7.87538288e-06
7.87536236e-06
7.87537717e-06
7.87537162e-06
7.87535677e-06
7.87537728e-06
7.87536134e-06
7.87536803e-06
7.87537252e-06
7.87536695e-06
7.87536209e-06
7.87536429e-06
7.87537202e-06
7.87536665e-06
7.87537222e-06
7.87536877e-06
7.87536723e-06
7.87537991e-06
7.8753557e-06
7.87536288e-06
7.87537082e-06
7.8753682e-06
7.8753708e-06
7.87537353e-06
7.87537174e-06
7.87536934e-06
7.87537436e-06
7.87537863e-06
7.87536601e-06
7.87538179e-06
7.87536407e-06
7.87536411e-06
7.87537036e-06
7.87536287e-06
7.87537321e-06
7.87536417e-06
7.87537806e-06
7.87535832e-06
7.87538775e-06
7.87536182e-06
7.8753703e-06
7.87536921e-06
7.87536917e-06
7.87537293e-06
7.87536121e-06
7.87538005e-06
7.87535881e-06
7.87538434e-06
7.87536218e-06
7.87538009e-06
7.87536317e-06
7.87537108e-06
7.87538111e-06
7.87536447e-06
7.87538153e-06
7.87536223e-06
7.87537808e-06
7.87536969e-06
7.87536862e-06
7.87536921e-06
7.87536721e-06
7.87537428e-06
7.87537677e-06
7.87536028e-06
7.87537587e-06
7.87536994e-06
7.87537809e-06
7.87537284e-06
7.87537527e-06
7.87537374e-06
7.87537975e-06
7.87536904e-06
7.87536841e-06
7.87538024e-06
7.87536248e-06
7.87537751e-06
7.87537981e-06
7.87536394e-06
7.87537019e-06
7.87537347e-06
7.87536595e-06
7.87538159e-06
7.87536793e-06
7.87538031e-06
7.87537579e-06
7.87537318e-06
7.87536479e-06
7.87537282e-06
7.87537327e-06
7.87538135e-06
7.87537056e-06
7.87537904e-06
7.8753786e-06
7.87538556e-06
7.8753785e-06
7.87538689e-06
7.87537901e-06
7.87537716e-06
7.87537624e-06
7.87537651e-06
7.8753699e-06
7.87537159e-06
7.87537681e-06
7.87537361e-06
7.87538457e-06
7.87537867e-06
7.875367e-06
7.87538243e-06
7.87537454e-06
7.87537827e-06
7.87537183e-06
7.87537064e-06
7.87537701e-06
7.87536448e-06
7.87538225e-06
7.87536795e-06
7.87537568e-06
7.87536582e-06
7.87537458e-06
7.87538025e-06
7.87537245e-06
7.87538595e-06
7.87537912e-06
7.87538186e-06
7.87537169e-06
7.87537522e-06
7.87537377e-06
7.87537005e-06
7.87539198e-06
7.87535871e-06
7.87538432e-06
7.87536513e-06
7.87538095e-06
7.87538182e-06
7.87537494e-06
7.87537732e-06
7.87538126e-06
7.87538714e-06
7.87537715e-06
7.87538453e-06
7.87537676e-06
7.87538162e-06
7.87537162e-06
7.87538161e-06
7.87537324e-06
7.87538228e-06
7.87538195e-06
7.87537189e-06
7.87539318e-06
7.87538055e-06
7.8753841e-06
7.87537721e-06
7.87539099e-06
7.87536733e-06
7.87539251e-06
7.87537525e-06
7.87538897e-06
7.87538078e-06
7.87538416e-06
7.87538858e-06
7.87537853e-06
7.8753798e-06
7.87538643e-06
7.87537823e-06
7.87539289e-06
7.87537211e-06
7.87538569e-06
7.8753759e-06
7.87538124e-06
7.87537302e-06
7.8753918e-06
7.87537806e-06
7.8753936e-06
7.87537543e-06
7.87537566e-06
7.87539061e-06
7.87537707e-06
7.87538614e-06
7.87537714e-06
7.87537698e-06
7.87539035e-06
7.87537185e-06
7.87538065e-06
7.87538501e-06
7.87537415e-06
7.8753847e-06
7.87538428e-06
7.87537203e-06
7.87539427e-06
7.8753706e-06
7.87539873e-06
7.87537694e-06
7.87538745e-06
7.87537839e-06
7.87538413e-06
7.87537803e-06
7.87538118e-06
7.87537915e-06
7.87537997e-06
7.87537678e-06
7.87538993e-06
7.87537199e-06
7.8753897e-06
7.87537119e-06
7.87538431e-06
7.87536965e-06
7.87538392e-06
7.87536999e-06
7.87538185e-06
7.87537374e-06
7.87537425e-06
7.87538077e-06
7.87537113e-06
7.87539921e-06
7.87536492e-06
7.87538946e-06
7.8753731e-06
7.87539504e-06
7.87537411e-06
7.87539452e-06
7.87536156e-06
7.87540614e-06
7.8753589e-06
7.87539695e-06
7.87536594e-06
7.87539273e-06
7.87537646e-06
7.8753806e-06
7.87539047e-06
7.87539028e-06
7.87537928e-06
7.87538981e-06
7.8753786e-06
7.87538309e-06
7.87538167e-06
7.87538626e-06
7.87537974e-06
7.87538538e-06
7.87538405e-06
7.87538823e-06
7.87538517e-06
7.87538403e-06
7.87538778e-06
7.87538426e-06
7.87538282e-06
7.87538732e-06
7.87538721e-06
7.87538672e-06
7.87538671e-06
7.87538706e-06
7.87538642e-06
7.87538804e-06
7.87538848e-06
7.87538874e-06
7.87538972e-06
7.87538987e-06
7.87539157e-06
7.87539244e-06
7.87539244e-06
7.87539405e-06
7.87539532e-06
7.87539595e-06
7.87539741e-06
7.87539927e-06
7.87540128e-06
7.87540268e-06
7.87540465e-06
7.87540719e-06
7.87540893e-06
7.87541127e-06
7.87541367e-06
7.87541569e-06
7.87541694e-06
7.8754189e-06
7.87541996e-06
7.87542072e-06
7.87542141e-06
7.87542171e-06
7.87542186e-06
7.87542211e-06
7.87542208e-06
7.87542209e-06
7.87542179e-06
7.8754217e-06
7.87542214e-06
7.87542195e-06
7.87542199e-06
7.87542202e-06
7.87542203e-06
7.87542212e-06
7.87542213e-06
7.87542203e-06
7.87542227e-06
7.87542197e-06
7.87542206e-06
7.87542195e-06
7.87542203e-06
7.87542206e-06
7.87542201e-06
7.87542207e-06
7.87542196e-06
7.8754218e-06
7.87542229e-06
)
;

boundaryField
{
    closed
    {
        type            calculated;
        value           uniform 0;
    }
    open
    {
        type            calculated;
        value           uniform 0;
    }
    sides
    {
        type            empty;
    }
}


// ************************************************************************* //
