/*--------------------------------*- C++ -*----------------------------------*\
| =========                 |                                                 |
| \\      /  F ield         | OpenFOAM: The Open Source CFD Toolbox           |
|  \\    /   O peration     | Version:  2206                                  |
|   \\  /    A nd           | Website:  www.openfoam.com                      |
|    \\/     M anipulation  |                                                 |
\*---------------------------------------------------------------------------*/
FoamFile
{
    version     2.0;
    format      ascii;
    arch        "LSB;label=32;scalar=64";
    class       volVectorField;
    location    "1.3e-05";
    object      U;
}
// * * * * * * * * * * * * * * * * * * * * * * * * * * * * * * * * * * * * * //

dimensions      [0 1 -1 0 0 0 0];

internalField   nonuniform List<vector> 
3183
(
(3.73275595e-13 0 0)
(8.64960981e-14 0 0)
(-2.55966517e-13 0 0)
(-2.59378952e-13 0 0)
(-1.38561996e-13 0 0)
(-7.45329403e-18 0 0)
(-5.79282358e-19 0 0)
(-4.53698348e-23 0 0)
(5.14078768e-23 0 0)
(6.94728047e-19 0 0)
(1.26768714e-17 0 0)
(1.94976128e-13 0 0)
(5.6165376e-13 0 0)
(1.760075e-13 0 0)
(1.11864005e-13 0 0)
(6.98711421e-14 0 0)
(-2.67062806e-13 0 0)
(-6.2296396e-13 0 0)
(-7.70805666e-13 0 0)
(-9.47668816e-14 0 0)
(3.6022843e-13 0 0)
(1.46407283e-16 0 0)
(5.78411279e-14 0 0)
(2.8741489e-13 0 0)
(3.66430199e-13 0 0)
(5.07981631e-13 0 0)
(5.66438009e-13 0 0)
(6.63866538e-13 0 0)
(2.92843815e-13 0 0)
(4.0471809e-13 0 0)
(-3.90645125e-14 0 0)
(-3.65840933e-13 0 0)
(-7.34323313e-13 0 0)
(-9.19311995e-13 0 0)
(-9.48610668e-13 0 0)
(-7.13740422e-13 0 0)
(-6.85729538e-13 0 0)
(-5.5204173e-13 0 0)
(-2.85679043e-13 0 0)
(-3.75260343e-13 0 0)
(-6.16773906e-13 0 0)
(-4.41049082e-13 0 0)
(-1.47671585e-13 0 0)
(-4.57413724e-13 0 0)
(1.12221297e-13 0 0)
(3.21386836e-13 0 0)
(2.31485088e-13 0 0)
(5.62762253e-13 0 0)
(5.35122067e-13 0 0)
(8.52264215e-13 0 0)
(9.63281044e-13 0 0)
(1.58503366e-12 0 0)
(1.38493995e-12 0 0)
(1.88654283e-12 0 0)
(2.0844037e-12 0 0)
(2.06647562e-12 0 0)
(2.01639607e-12 0 0)
(1.90477001e-12 0 0)
(1.54610694e-12 0 0)
(1.51872481e-12 0 0)
(1.09255165e-12 0 0)
(4.63184185e-13 0 0)
(3.54859438e-13 0 0)
(-1.12749444e-13 0 0)
(-1.36770051e-13 0 0)
(-2.47709467e-13 0 0)
(-8.25498901e-13 0 0)
(-7.27910891e-13 0 0)
(-1.02291585e-12 0 0)
(-1.61763529e-12 0 0)
(-1.41595605e-12 0 0)
(-1.7358393e-12 0 0)
(-1.79262006e-12 0 0)
(-2.14195917e-12 0 0)
(-2.61587679e-12 0 0)
(-2.75877457e-12 0 0)
(-2.61704114e-12 0 0)
(-3.16059901e-12 0 0)
(-3.54595542e-12 0 0)
(-3.84257103e-12 0 0)
(-4.41329837e-12 0 0)
(-4.22753881e-12 0 0)
(-3.77563386e-12 0 0)
(-5.21267026e-12 0 0)
(-4.402238e-12 0 0)
(-4.07038916e-12 0 0)
(-5.29852807e-12 0 0)
(-4.65973611e-12 0 0)
(-4.36793274e-12 0 0)
(-4.4647059e-12 0 0)
(-5.81915156e-12 0 0)
(-5.60840931e-12 0 0)
(-4.98532856e-12 0 0)
(-6.00369502e-12 0 0)
(-6.00869801e-12 0 0)
(-5.65605906e-12 0 0)
(-6.51301784e-12 0 0)
(-5.35108549e-12 0 0)
(-5.89815032e-12 0 0)
(-6.15536013e-12 0 0)
(-4.98563748e-12 0 0)
(-5.92115079e-12 0 0)
(-5.69763682e-12 0 0)
(-5.98040197e-12 0 0)
(-5.9277431e-12 0 0)
(-6.59290804e-12 0 0)
(-6.20668836e-12 0 0)
(-5.72727347e-12 0 0)
(-6.46655218e-12 0 0)
(-7.07349291e-12 0 0)
(-5.74676117e-12 0 0)
(-6.24420379e-12 0 0)
(-6.15405336e-12 0 0)
(-7.25127351e-12 0 0)
(-6.41808607e-12 0 0)
(-6.90531568e-12 0 0)
(-6.11395499e-12 0 0)
(-6.1649308e-12 0 0)
(-6.1817924e-12 0 0)
(-6.91402769e-12 0 0)
(-6.9521647e-12 0 0)
(-5.82625113e-12 0 0)
(-6.35211097e-12 0 0)
(-6.00710936e-12 0 0)
(-6.6764731e-12 0 0)
(-6.82024532e-12 0 0)
(-5.8878115e-12 0 0)
(-7.55312634e-12 0 0)
(-6.28717744e-12 0 0)
(-6.37368828e-12 0 0)
(-6.14542143e-12 0 0)
(-6.09568189e-12 0 0)
(-6.63372296e-12 0 0)
(-6.81193561e-12 0 0)
(-6.19602047e-12 0 0)
(-5.80209769e-12 0 0)
(-5.92784359e-12 0 0)
(-6.86688534e-12 0 0)
(-6.68258595e-12 0 0)
(-6.7649259e-12 0 0)
(-6.26899733e-12 0 0)
(-6.72899595e-12 0 0)
(-6.4014785e-12 0 0)
(-7.04434469e-12 0 0)
(-6.98605284e-12 0 0)
(-7.13084067e-12 0 0)
(-7.0172125e-12 0 0)
(-7.77282231e-12 0 0)
(-7.55368776e-12 0 0)
(-7.44177156e-12 0 0)
(-7.90460571e-12 0 0)
(-8.78812502e-12 0 0)
(-8.09365932e-12 0 0)
(-7.51475407e-12 0 0)
(-8.51947606e-12 0 0)
(-7.54310804e-12 0 0)
(-8.97815e-12 0 0)
(-9.36038009e-12 0 0)
(-7.7628169e-12 0 0)
(-8.74782893e-12 0 0)
(-9.06092378e-12 0 0)
(-8.684904e-12 0 0)
(-7.52057548e-12 0 0)
(-8.22037511e-12 0 0)
(-8.06351857e-12 0 0)
(-8.9841681e-12 0 0)
(-8.22928798e-12 0 0)
(-8.57884461e-12 0 0)
(-8.71761937e-12 0 0)
(-9.56666062e-12 0 0)
(-1.00734852e-11 0 0)
(-8.91042437e-12 0 0)
(-9.20501935e-12 0 0)
(-9.41922091e-12 0 0)
(-1.15033609e-11 0 0)
(-9.12082247e-12 0 0)
(-1.07245654e-11 0 0)
(-9.64720275e-12 0 0)
(-1.05450145e-11 0 0)
(-9.60856357e-12 0 0)
(-9.44983763e-12 0 0)
(-1.19784713e-11 0 0)
(-1.00554921e-11 0 0)
(-1.03709576e-11 0 0)
(-1.16205525e-11 0 0)
(-1.19698142e-11 0 0)
(-1.07981886e-11 0 0)
(-1.11512283e-11 0 0)
(-1.09653547e-11 0 0)
(-1.02494589e-11 0 0)
(-1.18606353e-11 0 0)
(-1.18956283e-11 0 0)
(-1.13785018e-11 0 0)
(-1.22068519e-11 0 0)
(-1.3593952e-11 0 0)
(-1.13897462e-11 0 0)
(-1.16422638e-11 0 0)
(-1.2070139e-11 0 0)
(-1.28619379e-11 0 0)
(-1.43761463e-11 0 0)
(-1.23116793e-11 0 0)
(-1.21533685e-11 0 0)
(-1.22784268e-11 0 0)
(-1.31367527e-11 0 0)
(-1.37977643e-11 0 0)
(-1.28861583e-11 0 0)
(-1.33288852e-11 0 0)
(-1.36402482e-11 0 0)
(-1.40225426e-11 0 0)
(-1.24920473e-11 0 0)
(-1.28862691e-11 0 0)
(-1.44265672e-11 0 0)
(-1.16738811e-11 0 0)
(-1.30497605e-11 0 0)
(-1.20301538e-11 0 0)
(-1.16880732e-11 0 0)
(-1.22008657e-11 0 0)
(-1.20614858e-11 0 0)
(-1.16413171e-11 0 0)
(-1.24252193e-11 0 0)
(-1.24971191e-11 0 0)
(-1.2264944e-11 0 0)
(-1.36798015e-11 0 0)
(-1.16177633e-11 0 0)
(-1.15580848e-11 0 0)
(-1.24410206e-11 0 0)
(-1.12378875e-11 0 0)
(-1.28429594e-11 0 0)
(-1.30528249e-11 0 0)
(-1.2391337e-11 0 0)
(-1.29354906e-11 0 0)
(-1.23999188e-11 0 0)
(-1.29755635e-11 0 0)
(-1.39981688e-11 0 0)
(-1.31859721e-11 0 0)
(-1.24068808e-11 0 0)
(-1.36831701e-11 0 0)
(-1.30323492e-11 0 0)
(-1.38119353e-11 0 0)
(-1.33108274e-11 0 0)
(-1.37198193e-11 0 0)
(-1.53080451e-11 0 0)
(-1.32966673e-11 0 0)
(-1.31688375e-11 0 0)
(-1.32142446e-11 0 0)
(-1.43633557e-11 0 0)
(-1.32386065e-11 0 0)
(-1.28913843e-11 0 0)
(-1.29933973e-11 0 0)
(-1.3433995e-11 0 0)
(-1.27043582e-11 0 0)
(-1.30929508e-11 0 0)
(-1.38798429e-11 0 0)
(-1.39770204e-11 0 0)
(-1.34393429e-11 0 0)
(-1.30723234e-11 0 0)
(-1.32759925e-11 0 0)
(-1.26796251e-11 0 0)
(-1.36522586e-11 0 0)
(-1.33559075e-11 0 0)
(-1.38823731e-11 0 0)
(-1.36110644e-11 0 0)
(-1.44312249e-11 0 0)
(-1.41163544e-11 0 0)
(-1.44246854e-11 0 0)
(-1.41999601e-11 0 0)
(-1.44519718e-11 0 0)
(-1.50450022e-11 0 0)
(-1.29535297e-11 0 0)
(-1.4314269e-11 0 0)
(-1.38171652e-11 0 0)
(-1.34898154e-11 0 0)
(-1.35081249e-11 0 0)
(-1.34246314e-11 0 0)
(-1.32278428e-11 0 0)
(-1.32833462e-11 0 0)
(-1.36472926e-11 0 0)
(-1.42389336e-11 0 0)
(-1.36940113e-11 0 0)
(-1.36596347e-11 0 0)
(-1.45827619e-11 0 0)
(-1.49781976e-11 0 0)
(-1.4979039e-11 0 0)
(-1.49448359e-11 0 0)
(-1.46945221e-11 0 0)
(-1.49921185e-11 0 0)
(-1.47655353e-11 0 0)
(-1.53616865e-11 0 0)
(-1.5219227e-11 0 0)
(-1.56427187e-11 0 0)
(-1.53769779e-11 0 0)
(-1.52345716e-11 0 0)
(-1.56727275e-11 0 0)
(-1.5534834e-11 0 0)
(-1.47394267e-11 0 0)
(-1.59494088e-11 0 0)
(-1.62082483e-11 0 0)
(-1.64905477e-11 0 0)
(-1.61892368e-11 0 0)
(-1.68083894e-11 0 0)
(-1.62042556e-11 0 0)
(-1.59833955e-11 0 0)
(-1.62879827e-11 0 0)
(-1.66862594e-11 0 0)
(-1.73080777e-11 0 0)
(-1.72848339e-11 0 0)
(-1.60463183e-11 0 0)
(-1.71377107e-11 0 0)
(-1.78542925e-11 0 0)
(-1.7389154e-11 0 0)
(-1.79959171e-11 0 0)
(-1.6354434e-11 0 0)
(-1.62803108e-11 0 0)
(-1.63541637e-11 0 0)
(-1.73358203e-11 0 0)
(-1.72249929e-11 0 0)
(-1.86048642e-11 0 0)
(-1.71523123e-11 0 0)
(-1.69768126e-11 0 0)
(-1.84014332e-11 0 0)
(-1.74988441e-11 0 0)
(-1.75764758e-11 0 0)
(-1.757374e-11 0 0)
(-1.77210309e-11 0 0)
(-1.77895599e-11 0 0)
(-1.77712843e-11 0 0)
(-1.80577263e-11 0 0)
(-1.76017001e-11 0 0)
(-1.74044983e-11 0 0)
(-1.76420738e-11 0 0)
(-1.60299685e-11 0 0)
(-1.68637258e-11 0 0)
(-1.66166198e-11 0 0)
(-1.62542444e-11 0 0)
(-1.56389848e-11 0 0)
(-1.62137889e-11 0 0)
(-1.64746348e-11 0 0)
(-1.74163159e-11 0 0)
(-1.74941044e-11 0 0)
(-1.73265447e-11 0 0)
(-1.60030783e-11 0 0)
(-1.72182595e-11 0 0)
(-1.62881258e-11 0 0)
(-1.55012423e-11 0 0)
(-1.63028064e-11 0 0)
(-1.62750681e-11 0 0)
(-1.6123363e-11 0 0)
(-1.61574369e-11 0 0)
(-1.54027101e-11 0 0)
(-1.64774394e-11 0 0)
(-1.60908387e-11 0 0)
(-1.68580787e-11 0 0)
(-1.74258579e-11 0 0)
(-1.64683038e-11 0 0)
(-1.59009821e-11 0 0)
(-1.6728881e-11 0 0)
(-1.74573182e-11 0 0)
(-1.59046533e-11 0 0)
(-1.75271541e-11 0 0)
(-1.67269791e-11 0 0)
(-1.70738863e-11 0 0)
(-1.74882342e-11 0 0)
(-1.6762829e-11 0 0)
(-1.76438098e-11 0 0)
(-1.56671115e-11 0 0)
(-1.67121043e-11 0 0)
(-1.63879174e-11 0 0)
(-1.74756698e-11 0 0)
(-1.64480456e-11 0 0)
(-1.71732799e-11 0 0)
(-1.65120862e-11 0 0)
(-1.70352156e-11 0 0)
(-1.59306867e-11 0 0)
(-1.60459521e-11 0 0)
(-1.60844061e-11 0 0)
(-1.69303612e-11 0 0)
(-1.60601289e-11 0 0)
(-1.61724433e-11 0 0)
(-1.66541438e-11 0 0)
(-1.6504232e-11 0 0)
(-1.6746427e-11 0 0)
(-1.57371399e-11 0 0)
(-1.68305744e-11 0 0)
(-1.67643112e-11 0 0)
(-1.64118252e-11 0 0)
(-1.66046077e-11 0 0)
(-1.61325224e-11 0 0)
(-1.61045502e-11 0 0)
(-1.7025729e-11 0 0)
(-1.61208978e-11 0 0)
(-1.59327623e-11 0 0)
(-1.66741792e-11 0 0)
(-1.55773035e-11 0 0)
(-1.52011262e-11 0 0)
(-1.56643494e-11 0 0)
(-1.44464888e-11 0 0)
(-1.54285e-11 0 0)
(-1.55105883e-11 0 0)
(-1.50198376e-11 0 0)
(-1.39541504e-11 0 0)
(-1.3958848e-11 0 0)
(-1.39680026e-11 0 0)
(-1.47660482e-11 0 0)
(-1.49911462e-11 0 0)
(-1.38528862e-11 0 0)
(-1.41075668e-11 0 0)
(-1.29921593e-11 0 0)
(-1.39815535e-11 0 0)
(-1.32626301e-11 0 0)
(-1.31793519e-11 0 0)
(-1.2147675e-11 0 0)
(-1.16833771e-11 0 0)
(-1.2154192e-11 0 0)
(-1.35448126e-11 0 0)
(-1.3042543e-11 0 0)
(-1.20167406e-11 0 0)
(-1.19734124e-11 0 0)
(-1.19197512e-11 0 0)
(-1.28919948e-11 0 0)
(-1.34517428e-11 0 0)
(-1.23026495e-11 0 0)
(-1.1469027e-11 0 0)
(-1.2511755e-11 0 0)
(-1.2310733e-11 0 0)
(-1.29661955e-11 0 0)
(-1.36039495e-11 0 0)
(-1.26984504e-11 0 0)
(-1.22052067e-11 0 0)
(-1.15402515e-11 0 0)
(-1.15924994e-11 0 0)
(-1.11761451e-11 0 0)
(-1.18544244e-11 0 0)
(-1.15428502e-11 0 0)
(-1.10486796e-11 0 0)
(-1.08669333e-11 0 0)
(-1.16388272e-11 0 0)
(-1.19119033e-11 0 0)
(-1.24728094e-11 0 0)
(-9.87480182e-12 0 0)
(-1.10505618e-11 0 0)
(-1.0708554e-11 0 0)
(-1.17332502e-11 0 0)
(-1.0339248e-11 0 0)
(-1.07200749e-11 0 0)
(-1.09543689e-11 0 0)
(-1.11445341e-11 0 0)
(-1.04367653e-11 0 0)
(-1.00246998e-11 0 0)
(-1.1070655e-11 0 0)
(-9.84525671e-12 0 0)
(-9.96489019e-12 0 0)
(-9.66348294e-12 0 0)
(-1.0154346e-11 0 0)
(-9.21691743e-12 0 0)
(-9.98529393e-12 0 0)
(-9.66732698e-12 0 0)
(-9.68361138e-12 0 0)
(-1.04250277e-11 0 0)
(-9.6868847e-12 0 0)
(-7.61557477e-12 0 0)
(-9.02916845e-12 0 0)
(-9.67177005e-12 0 0)
(-8.91213681e-12 0 0)
(-8.05170401e-12 0 0)
(-9.79742192e-12 0 0)
(-8.94125421e-12 0 0)
(-7.62980242e-12 0 0)
(-8.44713362e-12 0 0)
(-8.1962071e-12 0 0)
(-8.69528224e-12 0 0)
(-8.05441455e-12 0 0)
(-7.87993839e-12 0 0)
(-7.86215328e-12 0 0)
(-7.44562796e-12 0 0)
(-7.80080787e-12 0 0)
(-8.38355394e-12 0 0)
(-7.72640396e-12 0 0)
(-7.93538975e-12 0 0)
(-7.03419566e-12 0 0)
(-7.75391789e-12 0 0)
(-7.40990993e-12 0 0)
(-7.52845531e-12 0 0)
(-7.85323849e-12 0 0)
(-7.61809169e-12 0 0)
(-7.8450773e-12 0 0)
(-8.03373188e-12 0 0)
(-7.66646249e-12 0 0)
(-8.86384339e-12 0 0)
(-8.38305123e-12 0 0)
(-7.63618729e-12 0 0)
(-8.33207484e-12 0 0)
(-8.04322974e-12 0 0)
(-7.89311713e-12 0 0)
(-7.70578176e-12 0 0)
(-8.30916308e-12 0 0)
(-7.50485947e-12 0 0)
(-7.3418722e-12 0 0)
(-7.33601706e-12 0 0)
(-6.52924956e-12 0 0)
(-7.07631442e-12 0 0)
(-7.22852744e-12 0 0)
(-6.69303841e-12 0 0)
(-6.16435833e-12 0 0)
(-6.82089554e-12 0 0)
(-6.34676054e-12 0 0)
(-6.56534791e-12 0 0)
(-6.94339828e-12 0 0)
(-6.89015208e-12 0 0)
(-7.21482629e-12 0 0)
(-7.50826114e-12 0 0)
(-6.13813662e-12 0 0)
(-6.49651972e-12 0 0)
(-5.50512164e-12 0 0)
(-4.9332752e-12 0 0)
(-5.84020951e-12 0 0)
(-4.47331689e-12 0 0)
(-5.01754488e-12 0 0)
(-3.97288796e-12 0 0)
(-4.65078878e-12 0 0)
(-4.39934629e-12 0 0)
(-4.64127921e-12 0 0)
(-4.84897204e-12 0 0)
(-3.79481172e-12 0 0)
(-3.95058407e-12 0 0)
(-4.66210187e-12 0 0)
(-3.51983989e-12 0 0)
(-4.56897447e-12 0 0)
(-3.38439804e-12 0 0)
(-3.69527364e-12 0 0)
(-3.11356328e-12 0 0)
(-3.96885051e-12 0 0)
(-3.2520644e-12 0 0)
(-4.08063925e-12 0 0)
(-4.28337856e-12 0 0)
(-3.27727965e-12 0 0)
(-3.19655385e-12 0 0)
(-3.6975021e-12 0 0)
(-3.14646086e-12 0 0)
(-3.33973273e-12 0 0)
(-3.78748385e-12 0 0)
(-3.66554873e-12 0 0)
(-3.18475299e-12 0 0)
(-4.3354704e-12 0 0)
(-2.70718173e-12 0 0)
(-2.62959809e-12 0 0)
(-3.70474801e-12 0 0)
(-3.20733471e-12 0 0)
(-2.51421518e-12 0 0)
(-2.77942153e-12 0 0)
(-3.29625354e-12 0 0)
(-1.8873935e-12 0 0)
(-1.67497706e-12 0 0)
(-1.40597306e-12 0 0)
(-2.30076579e-12 0 0)
(-1.78867249e-12 0 0)
(-1.16254292e-12 0 0)
(-1.60628651e-12 0 0)
(-1.71866606e-12 0 0)
(-2.09765861e-12 0 0)
(-1.68784849e-12 0 0)
(-2.07446954e-12 0 0)
(-2.66173244e-12 0 0)
(-1.38213287e-12 0 0)
(-1.92213772e-12 0 0)
(-2.01283982e-12 0 0)
(-1.67502131e-12 0 0)
(-1.8197431e-12 0 0)
(-1.57588159e-12 0 0)
(-7.70020148e-13 0 0)
(-9.46335887e-13 0 0)
(-4.52087633e-13 0 0)
(-1.36545093e-12 0 0)
(-5.85331431e-13 0 0)
(-4.79372254e-13 0 0)
(1.25805303e-13 0 0)
(-1.20012775e-12 0 0)
(-1.37544029e-12 0 0)
(-1.02012333e-12 0 0)
(-1.18600603e-12 0 0)
(-8.06338802e-13 0 0)
(-1.82332975e-12 0 0)
(1.82377237e-13 0 0)
(-2.11463456e-14 0 0)
(5.13705599e-13 0 0)
(-4.36387258e-13 0 0)
(6.81221428e-13 0 0)
(5.42429278e-13 0 0)
(3.94620717e-13 0 0)
(-2.15241503e-13 0 0)
(2.781793e-13 0 0)
(9.48666303e-13 0 0)
(1.24756407e-12 0 0)
(-2.04298291e-13 0 0)
(1.6999492e-12 0 0)
(1.31339452e-12 0 0)
(1.09910872e-12 0 0)
(1.24662761e-12 0 0)
(1.22825073e-12 0 0)
(1.22750133e-12 0 0)
(1.62219029e-12 0 0)
(9.46048619e-13 0 0)
(7.10491135e-13 0 0)
(1.39224451e-12 0 0)
(1.15967942e-12 0 0)
(1.71476963e-12 0 0)
(1.14671754e-12 0 0)
(2.34507253e-12 0 0)
(1.99909943e-12 0 0)
(2.29390916e-12 0 0)
(1.82495011e-12 0 0)
(2.53659046e-12 0 0)
(2.43844386e-12 0 0)
(1.65177405e-12 0 0)
(1.54539892e-12 0 0)
(1.9913879e-12 0 0)
(2.30553818e-12 0 0)
(1.89806522e-12 0 0)
(2.5148803e-12 0 0)
(1.52828381e-12 0 0)
(2.14927839e-12 0 0)
(1.33616641e-12 0 0)
(7.36000354e-13 0 0)
(1.9834485e-12 0 0)
(1.51617055e-12 0 0)
(1.6128664e-12 0 0)
(2.11044795e-12 0 0)
(1.52177731e-12 0 0)
(5.52926118e-13 0 0)
(2.20037075e-12 0 0)
(1.81627096e-12 0 0)
(1.54246701e-12 0 0)
(1.53691572e-12 0 0)
(1.38532744e-12 0 0)
(2.01540931e-12 0 0)
(1.62158923e-12 0 0)
(2.37288927e-12 0 0)
(2.31194905e-12 0 0)
(2.29364696e-12 0 0)
(2.54169568e-12 0 0)
(2.3310087e-12 0 0)
(2.22880461e-12 0 0)
(2.36123473e-12 0 0)
(2.93072669e-12 0 0)
(2.2376153e-12 0 0)
(2.22207722e-12 0 0)
(2.39420998e-12 0 0)
(1.34398678e-12 0 0)
(2.00800605e-12 0 0)
(1.92418289e-12 0 0)
(2.29139087e-12 0 0)
(2.36767999e-12 0 0)
(2.62073992e-12 0 0)
(1.69111652e-12 0 0)
(3.13851878e-12 0 0)
(3.25886792e-12 0 0)
(3.69994756e-12 0 0)
(2.30070432e-12 0 0)
(3.26814901e-12 0 0)
(2.4975903e-12 0 0)
(1.20192525e-12 0 0)
(3.40759047e-12 0 0)
(2.74608994e-12 0 0)
(2.74365558e-12 0 0)
(3.21045287e-12 0 0)
(3.82334922e-12 0 0)
(3.03440563e-12 0 0)
(4.0566639e-12 0 0)
(3.89951062e-12 0 0)
(4.26083858e-12 0 0)
(3.77691611e-12 0 0)
(4.79251364e-12 0 0)
(4.08276235e-12 0 0)
(4.69475814e-12 0 0)
(3.81385518e-12 0 0)
(4.40085529e-12 0 0)
(4.14411387e-12 0 0)
(5.30472449e-12 0 0)
(3.88678331e-12 0 0)
(2.97977045e-12 0 0)
(5.41003568e-12 0 0)
(4.35836325e-12 0 0)
(5.52233043e-12 0 0)
(4.8270908e-12 0 0)
(5.72090561e-12 0 0)
(5.51571376e-12 0 0)
(5.84769761e-12 0 0)
(5.28188984e-12 0 0)
(5.78010969e-12 0 0)
(5.80033748e-12 0 0)
(5.47856526e-12 0 0)
(5.81620211e-12 0 0)
(6.02215111e-12 0 0)
(5.9203294e-12 0 0)
(5.7760075e-12 0 0)
(6.86872497e-12 0 0)
(6.01678397e-12 0 0)
(6.45786921e-12 0 0)
(5.6153987e-12 0 0)
(6.69729659e-12 0 0)
(6.60152642e-12 0 0)
(7.48301197e-12 0 0)
(6.04435541e-12 0 0)
(7.13019911e-12 0 0)
(7.16131079e-12 0 0)
(8.05709758e-12 0 0)
(8.01350198e-12 0 0)
(8.55725229e-12 0 0)
(7.60600846e-12 0 0)
(7.7329528e-12 0 0)
(7.62137106e-12 0 0)
(8.17138981e-12 0 0)
(7.4879237e-12 0 0)
(8.06329028e-12 0 0)
(8.30939609e-12 0 0)
(8.80460832e-12 0 0)
(8.3026321e-12 0 0)
(8.7926673e-12 0 0)
(8.6516368e-12 0 0)
(8.64474125e-12 0 0)
(7.91985459e-12 0 0)
(8.4361309e-12 0 0)
(8.23904069e-12 0 0)
(9.14891834e-12 0 0)
(8.99241955e-12 0 0)
(8.88656389e-12 0 0)
(8.61794155e-12 0 0)
(7.8634214e-12 0 0)
(8.41965165e-12 0 0)
(9.41266634e-12 0 0)
(9.11480281e-12 0 0)
(9.5510723e-12 0 0)
(8.29435792e-12 0 0)
(9.69918932e-12 0 0)
(9.33837572e-12 0 0)
(8.60007181e-12 0 0)
(1.00639735e-11 0 0)
(9.37968281e-12 0 0)
(8.97464058e-12 0 0)
(9.0092054e-12 0 0)
(1.02113682e-11 0 0)
(1.02664301e-11 0 0)
(9.17004162e-12 0 0)
(1.07078595e-11 0 0)
(9.34863559e-12 0 0)
(9.95793762e-12 0 0)
(9.19181774e-12 0 0)
(9.98348559e-12 0 0)
(9.38604197e-12 0 0)
(9.24589636e-12 0 0)
(9.18711483e-12 0 0)
(9.86403713e-12 0 0)
(9.70341889e-12 0 0)
(1.0305971e-11 0 0)
(1.04407286e-11 0 0)
(1.03299057e-11 0 0)
(1.04925824e-11 0 0)
(1.16944281e-11 0 0)
(1.10675397e-11 0 0)
(1.03906612e-11 0 0)
(1.03220267e-11 0 0)
(1.08789096e-11 0 0)
(1.03452319e-11 0 0)
(1.00988121e-11 0 0)
(9.78540888e-12 0 0)
(1.02145659e-11 0 0)
(9.81316756e-12 0 0)
(9.68099851e-12 0 0)
(1.01615196e-11 0 0)
(1.02605311e-11 0 0)
(9.76621803e-12 0 0)
(1.15699054e-11 0 0)
(9.14987764e-12 0 0)
(8.99859927e-12 0 0)
(1.02454198e-11 0 0)
(9.39084029e-12 0 0)
(1.00113453e-11 0 0)
(1.00331744e-11 0 0)
(1.00912171e-11 0 0)
(9.92118148e-12 0 0)
(8.95504291e-12 0 0)
(9.73580533e-12 0 0)
(1.04257708e-11 0 0)
(9.57049224e-12 0 0)
(9.92854288e-12 0 0)
(9.76978165e-12 0 0)
(9.68567628e-12 0 0)
(9.54182984e-12 0 0)
(9.72089519e-12 0 0)
(9.59881254e-12 0 0)
(1.00772071e-11 0 0)
(1.08066302e-11 0 0)
(1.04257259e-11 0 0)
(1.03046799e-11 0 0)
(9.84017392e-12 0 0)
(9.16453151e-12 0 0)
(9.6334606e-12 0 0)
(1.03564182e-11 0 0)
(9.20396262e-12 0 0)
(1.0042607e-11 0 0)
(8.96398304e-12 0 0)
(9.9822726e-12 0 0)
(9.91257148e-12 0 0)
(9.58821727e-12 0 0)
(9.23673648e-12 0 0)
(9.38485004e-12 0 0)
(9.14989393e-12 0 0)
(9.86841474e-12 0 0)
(9.20433782e-12 0 0)
(8.8712713e-12 0 0)
(8.52432534e-12 0 0)
(1.01089344e-11 0 0)
(8.66683732e-12 0 0)
(9.40367609e-12 0 0)
(8.75764118e-12 0 0)
(1.00714024e-11 0 0)
(9.14546739e-12 0 0)
(9.05808707e-12 0 0)
(9.36041401e-12 0 0)
(8.88389835e-12 0 0)
(9.12283262e-12 0 0)
(8.71098895e-12 0 0)
(8.58596039e-12 0 0)
(9.78210185e-12 0 0)
(9.44912216e-12 0 0)
(9.35890218e-12 0 0)
(9.21604872e-12 0 0)
(7.89263061e-12 0 0)
(9.3410295e-12 0 0)
(9.46507378e-12 0 0)
(8.55608971e-12 0 0)
(8.06296944e-12 0 0)
(9.11345549e-12 0 0)
(8.75317561e-12 0 0)
(8.817024e-12 0 0)
(8.80865422e-12 0 0)
(8.42523508e-12 0 0)
(8.80612111e-12 0 0)
(8.37733562e-12 0 0)
(8.98825006e-12 0 0)
(8.59511158e-12 0 0)
(8.39877929e-12 0 0)
(8.61732644e-12 0 0)
(8.79277252e-12 0 0)
(8.57427424e-12 0 0)
(8.51771911e-12 0 0)
(9.14633442e-12 0 0)
(8.94828111e-12 0 0)
(9.42458348e-12 0 0)
(8.71087047e-12 0 0)
(9.43502489e-12 0 0)
(9.3024062e-12 0 0)
(9.53937289e-12 0 0)
(9.58532218e-12 0 0)
(9.20541571e-12 0 0)
(8.89677316e-12 0 0)
(8.76111061e-12 0 0)
(8.21810297e-12 0 0)
(1.10519288e-11 0 0)
(9.90163596e-12 0 0)
(1.01669832e-11 0 0)
(9.56516048e-12 0 0)
(1.00078718e-11 0 0)
(1.03690261e-11 0 0)
(1.09862671e-11 0 0)
(1.01462479e-11 0 0)
(1.06015619e-11 0 0)
(1.20660504e-11 0 0)
(1.12443182e-11 0 0)
(1.10456496e-11 0 0)
(1.02447137e-11 0 0)
(9.16895015e-12 0 0)
(1.04725043e-11 0 0)
(9.75887383e-12 0 0)
(1.04025207e-11 0 0)
(1.07431061e-11 0 0)
(9.06679309e-12 0 0)
(9.7604564e-12 0 0)
(9.39030618e-12 0 0)
(9.51574462e-12 0 0)
(8.91800608e-12 0 0)
(9.45811033e-12 0 0)
(9.47336742e-12 0 0)
(8.46730592e-12 0 0)
(9.39459248e-12 0 0)
(9.06918613e-12 0 0)
(8.65772243e-12 0 0)
(8.86234471e-12 0 0)
(8.98134649e-12 0 0)
(9.35325277e-12 0 0)
(9.31419357e-12 0 0)
(9.12584041e-12 0 0)
(9.0938964e-12 0 0)
(8.70574006e-12 0 0)
(8.98418202e-12 0 0)
(9.28170679e-12 0 0)
(9.41494826e-12 0 0)
(8.97248753e-12 0 0)
(9.54596404e-12 0 0)
(9.14565969e-12 0 0)
(8.5510466e-12 0 0)
(8.72326538e-12 0 0)
(9.22028668e-12 0 0)
(8.55353864e-12 0 0)
(8.17321132e-12 0 0)
(8.98660741e-12 0 0)
(8.25568767e-12 0 0)
(8.0681262e-12 0 0)
(8.80464055e-12 0 0)
(8.53700355e-12 0 0)
(8.53978625e-12 0 0)
(8.46406136e-12 0 0)
(8.21256288e-12 0 0)
(9.43601407e-12 0 0)
(8.37489365e-12 0 0)
(7.52124051e-12 0 0)
(8.86332871e-12 0 0)
(9.42730758e-12 0 0)
(7.80454538e-12 0 0)
(8.02201483e-12 0 0)
(7.86630199e-12 0 0)
(8.85319555e-12 0 0)
(7.95408574e-12 0 0)
(8.22785172e-12 0 0)
(8.69775141e-12 0 0)
(8.31551587e-12 0 0)
(7.88777649e-12 0 0)
(8.67601621e-12 0 0)
(7.69644518e-12 0 0)
(9.05780706e-12 0 0)
(7.87843034e-12 0 0)
(8.4582885e-12 0 0)
(8.22553103e-12 0 0)
(8.942868e-12 0 0)
(8.42320644e-12 0 0)
(8.19686662e-12 0 0)
(8.91226784e-12 0 0)
(8.82504638e-12 0 0)
(8.26286045e-12 0 0)
(7.5553756e-12 0 0)
(7.65222495e-12 0 0)
(8.67450476e-12 0 0)
(7.48658578e-12 0 0)
(8.24792578e-12 0 0)
(7.86426352e-12 0 0)
(8.43594785e-12 0 0)
(7.80857493e-12 0 0)
(7.49721297e-12 0 0)
(7.3737475e-12 0 0)
(8.28867934e-12 0 0)
(9.2480723e-12 0 0)
(7.88038112e-12 0 0)
(8.07138864e-12 0 0)
(8.60302558e-12 0 0)
(8.51985616e-12 0 0)
(8.07824642e-12 0 0)
(8.23304274e-12 0 0)
(9.33501441e-12 0 0)
(8.41146484e-12 0 0)
(8.25283124e-12 0 0)
(8.37192347e-12 0 0)
(7.70450956e-12 0 0)
(9.84120682e-12 0 0)
(9.97900555e-12 0 0)
(9.05076816e-12 0 0)
(1.01476946e-11 0 0)
(8.84874504e-12 0 0)
(1.00280431e-11 0 0)
(8.77911257e-12 0 0)
(9.25640721e-12 0 0)
(8.75827487e-12 0 0)
(8.84450809e-12 0 0)
(8.77737417e-12 0 0)
(8.64193593e-12 0 0)
(7.95114113e-12 0 0)
(7.96558276e-12 0 0)
(8.57218909e-12 0 0)
(7.65547447e-12 0 0)
(6.5773502e-12 0 0)
(7.38217522e-12 0 0)
(6.24086381e-12 0 0)
(7.30325376e-12 0 0)
(6.45722414e-12 0 0)
(6.72493016e-12 0 0)
(8.01498991e-12 0 0)
(6.80719127e-12 0 0)
(7.62681119e-12 0 0)
(6.77422719e-12 0 0)
(8.05323814e-12 0 0)
(8.0906962e-12 0 0)
(6.41946192e-12 0 0)
(7.80420077e-12 0 0)
(7.64663231e-12 0 0)
(6.30386589e-12 0 0)
(7.3656263e-12 0 0)
(6.46945192e-12 0 0)
(7.72473798e-12 0 0)
(6.63130862e-12 0 0)
(6.89793041e-12 0 0)
(7.05297367e-12 0 0)
(7.2458218e-12 0 0)
(7.81421157e-12 0 0)
(6.31132984e-12 0 0)
(6.11647674e-12 0 0)
(7.32209305e-12 0 0)
(7.73107225e-12 0 0)
(6.88101236e-12 0 0)
(7.2813584e-12 0 0)
(7.17032532e-12 0 0)
(6.85668669e-12 0 0)
(7.68199834e-12 0 0)
(7.1526756e-12 0 0)
(6.94126064e-12 0 0)
(7.05447744e-12 0 0)
(5.68786736e-12 0 0)
(7.2810767e-12 0 0)
(6.24595788e-12 0 0)
(7.33205699e-12 0 0)
(6.18339908e-12 0 0)
(6.60750817e-12 0 0)
(5.86889926e-12 0 0)
(6.77819899e-12 0 0)
(6.67722279e-12 0 0)
(6.41095822e-12 0 0)
(5.5584703e-12 0 0)
(7.11879228e-12 0 0)
(5.68183415e-12 0 0)
(6.15959875e-12 0 0)
(5.93670681e-12 0 0)
(4.9803809e-12 0 0)
(5.39261823e-12 0 0)
(4.51062628e-12 0 0)
(4.84385464e-12 0 0)
(4.29277188e-12 0 0)
(4.94016591e-12 0 0)
(4.39928352e-12 0 0)
(4.01852953e-12 0 0)
(4.36573257e-12 0 0)
(4.87553906e-12 0 0)
(3.14363369e-12 0 0)
(3.93210667e-12 0 0)
(3.10387267e-12 0 0)
(3.97082016e-12 0 0)
(3.44908114e-12 0 0)
(3.54918184e-12 0 0)
(3.47434557e-12 0 0)
(3.84693084e-12 0 0)
(4.1350635e-12 0 0)
(4.04557095e-12 0 0)
(4.08850376e-12 0 0)
(4.3744093e-12 0 0)
(4.5100778e-12 0 0)
(3.59132772e-12 0 0)
(3.70011697e-12 0 0)
(3.87493332e-12 0 0)
(3.52772872e-12 0 0)
(2.72116366e-12 0 0)
(3.02494767e-12 0 0)
(3.23907629e-12 0 0)
(3.04986196e-12 0 0)
(2.95477654e-12 0 0)
(3.08245184e-12 0 0)
(2.71612027e-12 0 0)
(3.60767633e-12 0 0)
(3.37340093e-12 0 0)
(2.98975949e-12 0 0)
(3.14892251e-12 0 0)
(2.91945123e-12 0 0)
(3.3745205e-12 0 0)
(3.72977254e-12 0 0)
(2.81854423e-12 0 0)
(4.32396147e-12 0 0)
(4.42767785e-12 0 0)
(3.81757427e-12 0 0)
(4.39513349e-12 0 0)
(3.7773822e-12 0 0)
(3.88456438e-12 0 0)
(3.20155963e-12 0 0)
(4.52532668e-12 0 0)
(4.2294949e-12 0 0)
(3.51441911e-12 0 0)
(2.9576521e-12 0 0)
(4.88960982e-12 0 0)
(3.31912569e-12 0 0)
(3.25781798e-12 0 0)
(3.0481356e-12 0 0)
(3.65092443e-12 0 0)
(3.32366952e-12 0 0)
(1.96407301e-12 0 0)
(3.04221603e-12 0 0)
(2.45087946e-12 0 0)
(2.30677191e-12 0 0)
(2.51649625e-12 0 0)
(1.42792134e-12 0 0)
(1.57127561e-12 0 0)
(2.69972854e-12 0 0)
(8.61912891e-13 0 0)
(7.25022517e-13 0 0)
(9.07764651e-13 0 0)
(1.01682222e-12 0 0)
(6.53414782e-13 0 0)
(6.77068095e-13 0 0)
(-2.21534956e-13 0 0)
(-3.74257499e-13 0 0)
(-3.73390212e-13 0 0)
(-1.81788186e-13 0 0)
(-5.3680102e-13 0 0)
(-5.19716826e-13 0 0)
(-8.35517567e-13 0 0)
(-1.34497672e-12 0 0)
(-1.67425443e-12 0 0)
(-2.09475182e-12 0 0)
(-1.85935238e-12 0 0)
(-2.31511641e-12 0 0)
(-2.71253903e-12 0 0)
(-3.09894868e-12 0 0)
(-2.98389031e-12 0 0)
(-2.20331984e-12 0 0)
(-2.40789745e-12 0 0)
(-2.04484167e-12 0 0)
(-2.54399173e-12 0 0)
(-3.25110454e-12 0 0)
(-2.58684244e-12 0 0)
(-2.93830477e-12 0 0)
(-3.83351511e-12 0 0)
(-2.02809706e-12 0 0)
(-2.61552551e-12 0 0)
(-2.33157277e-12 0 0)
(-3.34368891e-12 0 0)
(-2.94718569e-12 0 0)
(-2.38249127e-12 0 0)
(-2.90220636e-12 0 0)
(-2.95215403e-12 0 0)
(-3.14920772e-12 0 0)
(-3.55624926e-12 0 0)
(-3.07953644e-12 0 0)
(-3.39909457e-12 0 0)
(-2.72056275e-12 0 0)
(-4.01709079e-12 0 0)
(-2.52264205e-12 0 0)
(-3.82550613e-12 0 0)
(-2.32248426e-12 0 0)
(-2.77528438e-12 0 0)
(-2.97559149e-12 0 0)
(-2.42915797e-12 0 0)
(-2.81035684e-12 0 0)
(-3.00601945e-12 0 0)
(-2.83532194e-12 0 0)
(-3.37137097e-12 0 0)
(-2.55956189e-12 0 0)
(-2.99539271e-12 0 0)
(-2.23881139e-12 0 0)
(-2.23994247e-12 0 0)
(-2.57705356e-12 0 0)
(-2.84426856e-12 0 0)
(-2.31467853e-12 0 0)
(-2.33912795e-12 0 0)
(-2.05152927e-12 0 0)
(-2.93667058e-12 0 0)
(-2.522219e-12 0 0)
(-2.60191838e-12 0 0)
(-3.59947169e-12 0 0)
(-3.09569741e-12 0 0)
(-4.07927046e-12 0 0)
(-3.83779276e-12 0 0)
(-4.06628424e-12 0 0)
(-3.36804991e-12 0 0)
(-4.12035559e-12 0 0)
(-3.2741093e-12 0 0)
(-3.10954249e-12 0 0)
(-3.85643585e-12 0 0)
(-3.27436258e-12 0 0)
(-3.35849574e-12 0 0)
(-4.36636431e-12 0 0)
(-4.05765394e-12 0 0)
(-4.19381478e-12 0 0)
(-4.64188071e-12 0 0)
(-4.400811e-12 0 0)
(-4.930149e-12 0 0)
(-5.48604993e-12 0 0)
(-5.79789712e-12 0 0)
(-5.05477369e-12 0 0)
(-5.78299412e-12 0 0)
(-6.96956812e-12 0 0)
(-6.9309022e-12 0 0)
(-6.41801825e-12 0 0)
(-6.74164845e-12 0 0)
(-6.79595459e-12 0 0)
(-7.31917361e-12 0 0)
(-6.72729828e-12 0 0)
(-7.24312686e-12 0 0)
(-7.91518043e-12 0 0)
(-7.64772862e-12 0 0)
(-9.17792344e-12 0 0)
(-7.5649445e-12 0 0)
(-6.11816646e-12 0 0)
(-8.37217329e-12 0 0)
(-8.98709807e-12 0 0)
(-8.76600648e-12 0 0)
(-7.92529288e-12 0 0)
(-9.61423218e-12 0 0)
(-7.83520439e-12 0 0)
(-7.90434385e-12 0 0)
(-8.19360715e-12 0 0)
(-1.0069621e-11 0 0)
(-8.53010922e-12 0 0)
(-8.87816829e-12 0 0)
(-8.63471831e-12 0 0)
(-9.85789672e-12 0 0)
(-9.63259638e-12 0 0)
(-1.00339649e-11 0 0)
(-9.64553967e-12 0 0)
(-1.17617923e-11 0 0)
(-9.15621487e-12 0 0)
(-1.10671389e-11 0 0)
(-1.10292489e-11 0 0)
(-1.01402683e-11 0 0)
(-1.06272905e-11 0 0)
(-1.05775829e-11 0 0)
(-1.14351959e-11 0 0)
(-9.67994075e-12 0 0)
(-9.49092874e-12 0 0)
(-9.32561543e-12 0 0)
(-1.03200396e-11 0 0)
(-1.00492302e-11 0 0)
(-9.25194204e-12 0 0)
(-9.78035011e-12 0 0)
(-1.03420634e-11 0 0)
(-8.93043453e-12 0 0)
(-1.07089852e-11 0 0)
(-9.02403236e-12 0 0)
(-9.20904144e-12 0 0)
(-8.59391139e-12 0 0)
(-9.16490118e-12 0 0)
(-9.39092962e-12 0 0)
(-8.83222508e-12 0 0)
(-8.46798729e-12 0 0)
(-9.23130203e-12 0 0)
(-8.57126163e-12 0 0)
(-8.65299005e-12 0 0)
(-8.26454524e-12 0 0)
(-8.24925871e-12 0 0)
(-9.36445587e-12 0 0)
(-8.49724396e-12 0 0)
(-9.57102773e-12 0 0)
(-8.00055212e-12 0 0)
(-9.19621437e-12 0 0)
(-8.84930295e-12 0 0)
(-8.65012376e-12 0 0)
(-9.33866618e-12 0 0)
(-8.63586931e-12 0 0)
(-7.71175393e-12 0 0)
(-7.46677966e-12 0 0)
(-7.63613755e-12 0 0)
(-7.71141027e-12 0 0)
(-8.26830593e-12 0 0)
(-6.98599387e-12 0 0)
(-7.8420222e-12 0 0)
(-8.87943478e-12 0 0)
(-6.66861941e-12 0 0)
(-7.97071153e-12 0 0)
(-7.85998207e-12 0 0)
(-7.45029947e-12 0 0)
(-7.94933591e-12 0 0)
(-7.94240968e-12 0 0)
(-7.73870162e-12 0 0)
(-7.84130964e-12 0 0)
(-7.2877865e-12 0 0)
(-7.85328213e-12 0 0)
(-7.28752986e-12 0 0)
(-7.1062604e-12 0 0)
(-8.17745277e-12 0 0)
(-7.63060071e-12 0 0)
(-8.2157429e-12 0 0)
(-7.91358934e-12 0 0)
(-7.85853624e-12 0 0)
(-6.95613601e-12 0 0)
(-7.75946753e-12 0 0)
(-7.29014166e-12 0 0)
(-7.81501421e-12 0 0)
(-7.77857776e-12 0 0)
(-7.86924351e-12 0 0)
(-7.39724804e-12 0 0)
(-8.2616231e-12 0 0)
(-7.92747932e-12 0 0)
(-8.26630525e-12 0 0)
(-7.72215736e-12 0 0)
(-7.98403574e-12 0 0)
(-7.82985706e-12 0 0)
(-7.83245742e-12 0 0)
(-7.87587992e-12 0 0)
(-7.72432562e-12 0 0)
(-7.92733763e-12 0 0)
(-7.49932566e-12 0 0)
(-7.53459417e-12 0 0)
(-7.51919984e-12 0 0)
(-7.69348013e-12 0 0)
(-8.28311264e-12 0 0)
(-7.93203438e-12 0 0)
(-8.04234162e-12 0 0)
(-7.61842811e-12 0 0)
(-7.89670337e-12 0 0)
(-8.54335304e-12 0 0)
(-7.90593398e-12 0 0)
(-7.69269226e-12 0 0)
(-8.22518233e-12 0 0)
(-7.15875114e-12 0 0)
(-7.67992246e-12 0 0)
(-8.19077821e-12 0 0)
(-8.00954383e-12 0 0)
(-8.08350413e-12 0 0)
(-7.82336669e-12 0 0)
(-9.31650369e-12 0 0)
(-7.28359627e-12 0 0)
(-9.03789714e-12 0 0)
(-8.32536293e-12 0 0)
(-8.29342071e-12 0 0)
(-8.29728609e-12 0 0)
(-7.73719583e-12 0 0)
(-8.83189245e-12 0 0)
(-8.16017654e-12 0 0)
(-8.54268418e-12 0 0)
(-8.76322174e-12 0 0)
(-9.07551957e-12 0 0)
(-8.76344265e-12 0 0)
(-8.60405279e-12 0 0)
(-8.90283456e-12 0 0)
(-9.40424179e-12 0 0)
(-9.54544701e-12 0 0)
(-9.38711802e-12 0 0)
(-8.87542353e-12 0 0)
(-9.54772465e-12 0 0)
(-9.57983397e-12 0 0)
(-9.64429912e-12 0 0)
(-1.04252164e-11 0 0)
(-1.02220502e-11 0 0)
(-1.00597593e-11 0 0)
(-1.09711853e-11 0 0)
(-1.08727077e-11 0 0)
(-1.01880905e-11 0 0)
(-1.06071514e-11 0 0)
(-1.03836482e-11 0 0)
(-1.10169991e-11 0 0)
(-1.12084256e-11 0 0)
(-1.22354966e-11 0 0)
(-1.03906678e-11 0 0)
(-1.16957989e-11 0 0)
(-1.08951435e-11 0 0)
(-1.25444499e-11 0 0)
(-1.2629571e-11 0 0)
(-1.13773871e-11 0 0)
(-1.08009339e-11 0 0)
(-1.21401405e-11 0 0)
(-1.35066572e-11 0 0)
(-1.15435618e-11 0 0)