/*--------------------------------*- C++ -*----------------------------------*\
| =========                 |                                                 |
| \\      /  F ield         | OpenFOAM: The Open Source CFD Toolbox           |
|  \\    /   O peration     | Version:  2206                                  |
|   \\  /    A nd           | Website:  www.openfoam.com                      |
|    \\/     M anipulation  |                                                 |
\*---------------------------------------------------------------------------*/
FoamFile
{
    version     2.0;
    format      ascii;
    arch        "LSB;label=32;scalar=64";
    class       volScalarField;
    location    "4.8e-06";
    object      p;
}
// * * * * * * * * * * * * * * * * * * * * * * * * * * * * * * * * * * * * * //

dimensions      [1 -1 -2 0 0 0 0];

internalField   nonuniform List<scalar> 
3183
(
101325
101325
101325
101325
101325
101325
101325
101325
101325
101325
101325
101325
101325
101325
101325
101325
101325
101325
101325
101325
101325
101325
101325
101325
101325
101325
101325
101325
101325
101325
101325
101325
101325
101325
101325
101325
101325
101325
101325
101325
101325
101325
101325
101325
101325
101325
101325
101325
101325
101325
101325
101325
101325
101325
101325
101325
101325
101325
101325
101325
101325
101325
101325
101325
101325
101325
101325
101325
101325
101325
101325
101325
101325
101325
101325
101325
101325
101325
101325
101325
101325
101325
101325
101325
101325
101325
101325
101325
101325
101325
101325
101325
101325
101325
101325
101325
101325
101325
101325
101325
101325
101325
101325
101325
101325
101325
101325
101325
101325
101325
101325
101325
101325
101325
101325
101325
101325
101325
101325
101325
101325
101325
101325
101325
101325
101325
101325
101325
101325
101325
101325
101325
101325
101325
101325
101325
101325
101325
101325
101325
101325
101325
101325
101325
101325
101325
101325
101325
101325
101325
101325
101325
101325
101325
101325
101325
101325
101325
101325
101325
101325
101325
101325
101325
101325
101325
101325
101325
101325
101325
101325
101325
101325
101325
101325
101325
101325
101325
101325
101325
101325
101325
101325
101325
101325
101325
101325
101325
101325
101325
101325
101325
101325
101325
101325
101325
101325
101325
101325
101325
101325
101325
101325
101325
101325
101325
101325
101325
101325
101325
101325
101325
101325
101325
101325
101325
101325
101325
101325
101325
101325
101325
101325
101325
101325
101325
101325
101325
101325
101325
101325
101325
101325
101325
101325
101325
101325
101325
101325
101325
101325
101325
101325
101325
101325
101325
101325
101325
101325
101325
101325
101325
101325
101325
101325
101325
101325
101325
101325
101325
101325
101325
101325
101325
101325
101325
101325
101325
101325
101325
101325
101325
101325
101325
101325
101325
101325
101325
101325
101325
101325
101325
101325
101325
101325
101325
101325
101325
101325
101325
101325
101325
101325
101325
101325
101325
101325
101325
101325
101325
101325
101325
101325
101325
101325
101325
101325
101325
101325
101325
101325
101325
101325
101325
101325
101325
101325
101325
101325
101325
101325
101325
101325
101325
101325
101325
101325
101325
101325
101325
101325
101325
101325
101325
101325
101325
101325
101325
101325
101325
101325
101325
101325
101325
101325
101325
101325
101325
101325
101325
101325
101325
101325
101325
101325
101325
101325
101325
101325
101325
101325
101325
101325
101325
101325
101325
101325
101325
101325
101325
101325
101325
101325
101325
101325
101325
101325
101325
101325
101325
101325
101325
101325
101325
101325
101325
101325
101325
101325
101325
101325
101325
101325
101325
101325
101325
101325
101325
101325
101325
101325
101325
101325
101325
101325
101325
101325
101325
101325
101325
101325
101325
101325
101325
101325
101325
101325
101325
101325
101325
101325
101325
101325
101325
101325
101325
101325
101325
101325
101325
101325
101325
101325
101325
101325
101325
101325
101325
101325
101325
101325
101325
101325
101325
101325
101325
101325
101325
101325
101325
101325
101325
101325
101325
101325
101325
101325
101325
101325
101325
101325
101325
101325
101325
101325
101325
101325
101325
101325
101325
101325
101325
101325
101325
101325
101325
101325
101325
101325
101325
101325
101325
101325
101325
101325
101325
101325
101325
101325
101325
101325
101325
101325
101325
101325
101325
101325
101325
101325
101325
101325
101325
101325
101325
101325
101325
101325
101325
101325
101325
101325
101325
101325
101325
101325
101325
101325
101325
101325
101325
101325
101325
101325
101325
101325
101325
101325
101325
101325
101325
101325
101325
101325
101325
101325
101325
101325
101325
101325
101325
101325
101325
101325
101325
101325
101325
101325
101325
101325
101325
101325
101325
101325
101325
101325
101325
101325
101325
101325
101325
101325
101325
101325
101325
101325
101325
101325
101325
101325
101325
101325
101325
101325
101325
101325
101325
101325
101325
101325
101325
101325
101325
101325
101325
101325
101325
101325
101325
101325
101325
101325
101325
101325
101325
101325
101325
101325
101325
101325
101325
101325
101325
101325
101325
101325
101325
101325
101325
101325
101325
101325
101325
101325
101325
101325
101325
101325
101325
101325
101325
101325
101325
101325
101325
101325
101325
101325
101325
101325
101325
101325
101325
101325
101325
101325
101325
101325
101325
101325
101325
101325
101325
101325
101325
101325
101325
101325
101325
101325
101325
101325
101325
101325
101325
101325
101325
101325
101325
101325
101325
101325
101325
101325
101325
101325
101325
101325
101325
101325
101325
101325
101325
101325
101325
101325
101325
101325
101325
101325
101325
101325
101325
101325
101325
101325
101325
101325
101325
101325
101325
101325
101325
101325
101325
101325
101325
101325
101325
101325
101325
101325
101325
101325
101325
101325
101325
101325
101325
101325
101325
101325
101325
101325
101325
101325
101325
101325
101325
101325
101325
101325
101325
101325
101325
101325
101325
101325
101325
101325
101325
101325
101325
101325
101325
101325
101325
101325
101325
101325
101325
101325
101325
101325
101325
101325
101325
101325
101325
101325
101325
101325
101325
101325
101325
101325
101325
101325
101325
101325
101325
101325
101325
101325
101325
101325
101325
101325
101325
101325
101325
101325
101325
101325
101325
101325
101325
101325
101325
101325
101325
101325
101325
101325
101325
101325
101325
101325
101325
101325
101325
101325
101325
101325
101325
101325
101325
101325
101325
101325
101325
101325
101325
101325
101325
101325
101325
101325
101325
101325
101325
101325
101325
101325
101325
101325
101325
101325
101325
101325
101325
101325
101325
101325
101325
101325
101325
101325
101325
101325
101325
101325
101325
101325
101325
101325
101325
101325
101325
101325
101325
101325
101325
101325
101325
101325
101325
101325
101325
101325
101325
101325
101325
101325
101325
101325
101325
101325
101325
101325
101325
101325
101325
101325
101325
101325
101325
101325
101325
101325
101325
101325
101325
101325
101325
101325
101325
101325
101325
101325
101325
101325
101325
101325
101325
101325
101325
101325
101325
101325
101325
101325
101325
101325
101325
101325
101325
101325
101325
101325
101325
101325
101325
101325
101325
101325
101325
101325
101325
101325
101325
101325
101325
101325
101325
101325
101325
101325
101325
101325
101325
101325
101325
101325
101325
101325
101325
101325
101325
101325
101325
101325
101325
101325
101325
101325
101325
101325
101325
101325
101325
101325
101325
101325
101325
101325
101325
101325
101325
101325
101325
101325
101325
101325
101325
101325
101325
101325
101325
101325
101325
101325
101325
101325
101325
101325
101325
101325
101325
101325
101325
101325
101325
101325
101325
101325
101325
101325
101325
101325
101325
101325
101325
101325
101325
101325
101325
101325
101325
101325
101325
101325
101325
101325
101325
101325
101325
101325
101325
101325
101325
101325
101325
101325
101325
101325
101325
101325
101325
101325
101325
101325
101325
101325
101325
101325
101325
101325
101325
101325
101325
101325
101325
101325
101325
101325
101325
101325
101325
101325
101325
101325
101325
101325
101325
101325
101325
101325
101325
101325
101325
101325
101325
101325
101325
101325
101325
101325
101325
101325
101325
101325
101325
101325
101325
101325
101325
101325
101325
101325
101325
101325
101325
101325
101325
101325
101325
101325
101325
101325
101325
101325
101325
101325
101325
101325
101325
101325
101325
101325
101325
101325
101325
101325
101325
101325
101325
101325
101325
101325
101325
101325
101325
101325
101325
101325
101325
101325
101325
101325
101325
101325
101325
101325
101325
101325
101325
101325
101325
101325
101325
101325
101325
101325
101325
101325
101325
101325
101325
101325
101325
101325
101325
101325
101325
101325
101325
101325
101325
101325
101325
101325
101325
101325
101325
101325
101325
101325
101325
101325
101325
101325
101325
101325
101325
101325
101325
101325
101325
101325
101325
101325
101325
101325
101325
101325
101325
101325
101325
101325
101325
101325
101325
101325
101325
101325
101325
101325
101325
101325
101325
101325
101325
101325
101325
101325
101325
101325
101325
101325
101325
101325
101325
101325
101325
101325
101325
101325
101325
101325
101325
101325
101325
101325
101325
101325
101325
101325
101325
101325
101325
101325
101325
101325
101325
101325
101325
101325
101325
101325
101325
101325
101325
101325
101325
101325
101325
101325
101325
101325
101325
101325
101325
101325
101325
101325
101325
101325
101325
101325
101325
101325
101325
101325
101325
101325
101325
101325
101325
101325
101325
101325
101325
101325
101325
101325
101325
101325
101325
101325
101325
101325
101325
101325
101325
101325
101325
101325
101325
101325
101325
101325
101325
101325
101325
101325
101325
101325
101325
101325
101325
101325
101325
101325
101325
101325
101325
101325
101325
101325
101325
101325
101325
101325
101325
101325
101325
101325
101325
101325
101325
101325
101325
101325
101325
101325
101325
101325
101325
101325
101325
101325
101325
101325
101325
101325
101325
101325
101325
101325
101325
101325
101325
101325
101325
101325
101325
101325
101325
101325
101325
101325
101325
101325
101325
101325
101325
101325
101325
101325
101325
101325
101325
101325
101325
101325
101325
101325
101325
101325
101325
101325
101325
101325
101325
101325
101325
101325
101325
101325
101325
101325
101325
101325
101325
101325
101325
101325
101325
101325
101325
101325
101325
101325
101325
101325
101325
101325
101325
101325
101325
101325
101325
101325
101325
101325
101325
101325
101325
101325
101325
101325
101325
101325
101325
101325
101325
101325
101325
101325
101325
101325
101325
101325
101325
101325
101325
101325
101325
101325
101325
101325
101325
101325
101325
101325
101325
101325
101325
101325
101325
101325
101325
101325
101325
101325
101325
101325
101325
101325
101325
101325
101325
101325
101325
101325
101325
101325
101325
101325
101325
101325
101325
101325
101325
101325
101325
101325
101325
101325
101325
101325
101325
101325
101325
101325
101325
101325
101325
101325
101325
101325
101325
101325
101325
101325
101325
101325
101325
101325
101325
101325
101325
101325
101325
101325
101325
101325
101325
101325
101325
101325
101325
101325
101325
101325
101325
101325
101325
101325
101325
101325
101325
101325
101325
101325
101325
101325
101325
101325
101325
101325
101325
101325
101325
101325
101325
101325
101325
101325
101325
101325
101325
101325
101325
101325
101325
101325
101325
101325
101325
101325
101325
101325
101325
101325
101325
101325
101325
101325
101325
101325
101325
101325
101325
101325
101325
101325
101325
101325
101325
101325
101325
101325
101325
101325
101325
101325
101325
101325
101325
101325
101325
101325
101325
101325
101325
101325
101325
101325
101325
101325
101325
101325
101325
101325
101325
101325
101325
101325
101325
101325
101325
101325
101325
101325
101325
101325
101325
101325
101325
101325
101325
101325
101325
101325
101325
101325
101325
101325
101325
101325
101325
101325
101325
101325
101325
101325
101325
101325
101325
101325
101325
101325
101325
101325
101325
101325
101325
101325
101325
101325
101325
101325
101325
101325
101325
101325
101325
101325
101325
101325
101325
101325
101325
101325
101325
101325
101325
101325
101325
101325
101325
101325
101325
101325
101325
101325
101325
101325
101325
101325
101325
101325
101325
101325
101325
101325
101325
101325
101325
101325
101325
101325
101325
101325
101325
101325
101325
101325
101325
101325
101325
101325
101325
101325
101325
101325
101325
101325
101325
101325
101325
101325
101325
101325
101325
101325
101325
101325
101325
101325
101325
101325
101325
101325
101325
101325
101325
101325
101325
101325
101325
101325
101325
101325
101325
101325
101325
101325
101325
101325
101325
101325
101325
101325
101325
101325
101325
101325
101325
101325
101325
101325
101325
101325
101325
101325
101325
101325
101325
101325
101325
101325
101325
101325
101325
101325
101325
101325
101325
101325
101325
101325
101325
101325
101325
101325
101325
101325
101325
101325
101325
101325
101325
101325
101325
101325
101325
101325
101325
101325
101325
101325
101325
101325
101325
101325
101325
101325
101325
101325
101325
101325
101325
101325
101325
101325
101325
101325
101325
101325
101325
101325
101325
101325
101325
101325
101325
101325
101325
101325
101325
101325
101325
101325
101325
101325
101325
101325
101325
101325
101325
101325
101325
101325
101325
101325
101325
101325
101325
101325
101325
101325
101325
101325
101325
101325
101325
101325
101325
101325
101325
101325
101325
101325
101325
101325
101325
101325
101325
101325
101325
101325
101325
101325
101325
101325
101325
101325
101325
101325
101325
101325
101325
101325
101325
101325
101325
101325
101325
101325
101325
101325
101325
101325
101325
101325
101325
101325
101325
101325
101325
101325
101325
101325
101325
101325
101325
101325
101325
101325
101325
101325
101325
101325
101325
101325
101325
101325
101325
101325
101325
101325
101325
101325
101325
101325
101325
101325
101325
101325
101325
101325
101325
101325
101325
101325
101325
101325
101325
101325
101325
101325
101325
101325
101325
101325
101325
101325
101325
101325
101325
101325
101325
101325
101325
101325
101325
101325
101325
101325
101325
101325
101325
101325
101325
101325
101325
101325
101325
101325
101325
101325
101325
101325
101325
101325
101325
101325
101325
101325
101325
101325
101325
101325
101325
101325
101325
101325
101325
101325
101325
101325
101325
101325
101325
101325
101325
101325
101325
101325
101325
101325
101325
101325
101325
101325
101325
101325
101325
101325
101325
101325
101325
101325
101325
101325
101325
101325
101325
101325
101325
101325
101325
101325
101325
101325
101325
101325
101325
101325
101325
101325
101325
101325
101325
101325
101325
101325
101325
101325
101325
101325
101325
101325
101325
101325
101325
101325
101325
101325
101325
101325
101325
101325
101325
101325
101325
101325
101325
101325
101325
101325
101325
101325
101325
101325
101325
101325
101325
101325
101325
101325
101325
101325
101325
101325
101325
101325
101325
101325
101325
101325
101325
101325
101325
101325
101325
101325
101325
101325
101325
101325
101325
101325
101325
101325
101325
101325
101325
101325
101325
101325
101325
101325
101325
101325
101325
101325
101325
101325
101325
101325
101325
101325
101325
101325
101325
101325
101325
101325
101325
101325
101325
101325
101325
101325
101325
101325
101325
101325
101325
101325
101325
101325
101325
101325
101325
101325
101325
101325
101325
101325
101325
101325
101325
101325
101325
101325
101325
101325
101325
101325
101325
101325
101325
101325
101325
101325
101325
101325
101325
101325
101325
101325
101325
101325
101325
101325
101325
101325
101325
101325
101325
101325
101325
101325
101325
101325
101325
101325
101325
101325
101325
101325
101325
101325
101325
101325
101325
101325
101325
101325
101325
101325
101325
101325
101325
101325
101325
101325
101325
101325
101325
101325
101325
101325
101325
101325
101325
101325
101325
101325
101325
101325
101325
101325
101325
101325
101325
101325
101325
101325
101325
101325
101325
101325
101325
101325
101325
101325
101325
101325
101325
101325
101325
101325
101325
101325
101325
101325
101325
101325
101325
101325
101325
101325
101325
101325
101325
101325
101325
101325
101325
101325
101325
101325
101325
101325
101325
101325
101325
101325
101325
101325
101325
101325
101325
101325
101325
101325
101325
101325
101325
101325
101325
101325
101325
101325
101325
101325
101325
101325
101325
101325
101325
101325
101325
101325
101325
101325
101325
101325
101325
101325
101325
101325
101325
101325
101325
101325
101325
101325
101325
101325
101325
101325
101325
101325
101325
101325
101325
101325
101325
101325
101325
101325
101325
101325
101325
101325
101325
101325
101325
101325
101325
101325
101325
101325
101325
101325
101325
101325
101325
101325
101325
101325
101325
101325
101324.999
101324.999
101324.999
101324.999
101324.999
101324.999
101324.999
101324.999
101324.999
101324.999
101324.999
101324.999
101324.998
101324.998
101324.998
101324.998
101324.998
101324.998
101324.997
101324.997
101324.997
101324.997
101324.996
101324.996
101324.996
101324.995
101324.995
101324.994
101324.994
101324.993
101324.993
101324.992
101324.991
101324.99
101324.99
101324.989
101324.988
101324.987
101324.986
101324.984
101324.983
101324.982
101324.98
101324.978
101324.977
101324.975
101324.972
101324.97
101324.968
101324.965
101324.962
101324.959
101324.956
101324.952
101324.948
101324.944
101324.939
101324.935
101324.929
101324.924
101324.918
101324.911
101324.904
101324.897
101324.889
101324.88
101324.871
101324.861
101324.85
101324.839
101324.827
101324.814
101324.8
101324.785
101324.769
101324.752
101324.733
101324.714
101324.693
101324.671
101324.647
101324.621
101324.594
101324.566
101324.535
101324.502
101324.467
101324.43
101324.391
101324.349
101324.305
101324.257
101324.207
101324.154
101324.098
101324.038
101323.974
101323.907
101323.836
101323.761
101323.681
101323.597
101323.509
101323.415
101323.316
101323.211
101323.101
101322.985
101322.863
101322.735
101322.599
101322.457
101322.308
101322.151
101321.986
101321.813
101321.632
101321.442
101321.243
101321.035
101320.818
101320.59
101320.353
101320.105
101319.846
101319.576
101319.295
101319.003
101318.699
101318.382
101318.054
101317.712
101317.358
101316.991
101316.611
101316.218
101315.811
101315.391
101314.956
101314.508
101314.046
101313.571
101313.081
101312.577
101312.06
101311.529
101310.985
101310.427
101309.855
101309.271
101308.675
101308.066
101307.445
101306.813
101306.17
101305.516
101304.853
101304.18
101303.498
101302.809
101302.113
101301.411
101300.703
101299.991
101299.275
101298.557
101297.837
101297.117
101296.398
101295.681
101294.967
101294.257
101293.553
101292.857
101292.168
101291.489
101290.821
101290.165
101289.523
101288.895
101288.284
101287.691
101287.116
101286.562
101286.028
101285.518
101285.031
101284.569
101284.133
101283.724
101283.343
101282.99
101282.667
101282.374
101282.112
101281.881
101281.682
101281.515
101281.381
101281.279
101281.21
101281.173
101281.169
101281.197
101281.257
101281.348
101281.471
101281.623
101281.805
101282.015
101282.254
101282.519
101282.81
101283.126
101283.465
101283.827
101284.209
101284.611
101285.032
101285.469
101285.922
101286.389
101286.869
101287.36
101287.862
101288.371
101288.888
101289.411
101289.938
101290.468
101291.001
101291.534
101292.067
101292.599
101293.128
101293.654
101294.175
101294.692
101295.202
101295.705
101296.2
101296.687
101297.166
101297.634
101298.092
101298.539
101298.975
101299.398
101299.81
101300.208
101300.592
101300.963
101301.319
101301.66
101301.986
101302.296
101302.589
101302.866
101303.125
101303.367
101303.591
101303.797
101303.984
101304.152
101304.301
101304.431
101304.541
101304.632
101304.703
101304.755
101304.788
101304.803
101304.8
101304.779
101304.741
101304.688
101304.619
101304.537
101304.443
101304.339
101304.225
101304.104
101303.978
101303.848
101303.718
101303.59
101303.465
101303.348
101303.24
101303.143
101303.062
101302.998
101302.955
101302.935
101302.941
101302.975
101303.039
101303.137
101303.268
101303.436
101303.642
101303.885
101304.167
101304.488
101304.846
101305.24
101305.667
101306.126
101306.61
101307.115
101307.635
101308.159
101308.679
101309.183
101309.655
101310.08
101310.439
101310.712
101310.877
101310.917
101310.817
101310.571
101310.179
101309.679
101309.465
101309.491
101309.697
101308.416
101308.877
101309.449
101310.219
101310.599
101310.968
101311.204
101311.373
101311.464
101311.491
101311.456
101311.365
101311.222
101311.035
101310.808
101310.548
101310.262
101309.955
101309.633
101309.3
101308.96
101308.618
101308.275
101307.935
101307.6
101307.271
101306.949
101306.637
101306.335
101306.043
101305.762
101305.493
101305.236
101304.991
101304.758
101304.537
101304.328
101304.132
101303.948
101303.775
101303.615
101303.467
101303.33
101303.205
101303.09
101302.987
101302.894
101302.812
101302.739
101302.677
101302.623
101302.579
101302.544
101302.517
101302.498
101302.486
101302.482
101302.485
101302.494
101302.51
101302.531
101302.557
101302.589
101302.625
101302.665
101302.709
101302.757
101302.808
101302.861
101302.917
101302.975
101303.034
101303.095
101303.157
101303.22
101303.283
101303.346
101303.409
101303.472
101303.534
101303.595
101303.655
101303.713
101303.77
101303.824
101303.877
101303.927
101303.975
101304.02
101304.062
101304.102
101304.138
101304.17
101304.2
101304.225
101304.248
101304.266
101304.281
101304.291
101304.298
101304.3
101304.299
101304.293
101304.283
101304.268
101304.25
101304.227
101304.2
101304.168
101304.132
101304.092
101304.047
101303.998
101303.945
101303.887
101303.825
101303.759
101303.688
101303.613
101303.534
101303.451
101303.364
101303.272
101303.177
101303.077
101302.973
101302.866
101302.754
101302.639
101302.52
101302.396
101302.27
101302.139
101302.005
101301.866
101301.725
101301.579
101301.431
101301.278
101301.122
101300.963
101300.8
101300.633
101300.464
101300.29
101300.114
101299.934
101299.751
101299.564
101299.375
101299.182
101298.986
101298.787
101298.584
101298.379
101298.17
101297.958
101297.744
101297.526
101297.305
101297.082
101296.855
101296.626
101296.394
101296.159
101295.921
101295.681
101295.438
101295.192
101294.944
101294.694
101294.441
101294.186
101293.929
101293.669
101293.408
101293.144
101292.879
101292.611
101292.342
101292.071
101291.799
101291.526
101291.251
101290.976
101290.699
101290.422
101290.143
101289.865
101289.585
101289.306
101289.026
101288.747
101288.467
101288.188
101287.91
101287.632
101287.356
101287.08
101286.805
101286.532
101286.261
101285.992
101285.724
101285.459
101285.196
101284.936
101284.679
101284.425
101284.174
101283.926
101283.682
101283.442
101283.206
101282.975
101282.747
101282.525
101282.307
101282.095
101281.887
101281.685
101281.489
101281.298
101281.114
101280.936
101280.764
101280.598
101280.439
101280.287
101280.142
101280.005
101279.874
101279.751
101279.635
101279.528
101279.428
101279.336
101279.251
101279.176
101279.108
101279.049
101278.998
101278.955
101278.922
101278.896
101278.88
101278.872
101278.873
101278.883
101278.901
101278.929
101278.965
101279.01
101279.064
101279.127
101279.199
101279.279
101279.369
101279.467
101279.574
101279.689
101279.813
101279.945
101280.086
101280.236
101280.393
101280.559
101280.733
101280.915
101281.105
101281.302
101281.507
101281.72
101281.94
101282.168
101282.402
101282.644
101282.892
101283.148
101283.409
101283.677
101283.952
101284.232
101284.519
101284.811
101285.109
101285.412
101285.72
101286.033
101286.352
101286.675
101287.002
101287.334
101287.67
101288.01
101288.354
101288.702
101289.053
101289.407
101289.764
101290.124
101290.487
101290.852
101291.22
101291.59
101291.961
101292.335
101292.71
101293.087
101293.465
101293.844
101294.224
101294.605
101294.986
101295.368
101295.751
101296.133
101296.515
101296.898
101297.279
101297.661
101298.042
101298.422
101298.801
101299.179
101299.556
101299.932
101300.307
101300.68
101301.051
101301.42
101301.788
101302.154
101302.518
101302.879
101303.238
101303.595
101303.95
101304.302
101304.651
101304.998
101305.342
101305.683
101306.021
101306.356
101306.688
101307.017
101307.343
101307.666
101307.985
101308.301
101308.614
101308.923
101309.229
101309.531
101309.83
101310.125
101310.417
101310.705
101310.99
101311.271
101311.548
101311.821
101312.091
101312.357
101312.62
101312.879
101313.134
101313.385
101313.633
101313.877
101314.117
101314.353
101314.586
101314.816
101315.041
101315.263
101315.481
101315.696
101315.907
101316.114
101316.318
101316.518
101316.715
101316.909
101317.099
101317.285
101317.468
101317.648
101317.824
101317.997
101318.167
101318.333
101318.496
101318.657
101318.813
101318.967
101319.118
101319.266
101319.41
101319.552
101319.691
101319.827
101319.96
101320.09
101320.217
101320.342
101320.464
101320.583
101320.7
101320.814
101320.926
101321.035
101321.142
101321.246
101321.348
101321.447
101321.544
101321.639
101321.732
101321.822
101321.911
101321.997
101322.081
101322.163
101322.243
101322.321
101322.398
101322.472
101322.545
101322.615
101322.684
101322.751
101322.817
101322.881
101322.943
101323.003
101323.062
101323.12
101323.176
101323.23
101323.283
101323.335
101323.385
101323.434
101323.481
101323.527
101323.572
101323.616
101323.659
101323.7
101323.74
101323.78
101323.818
101323.854
101323.89
101323.925
101323.959
101323.992
101324.024
101324.055
101324.085
101324.115
101324.143
101324.171
101324.197
101324.223
101324.249
101324.273
101324.297
101324.32
101324.342
101324.364
101324.385
101324.405
101324.425
101324.444
101324.463
101324.481
101324.498
101324.515
101324.532
101324.547
101324.563
101324.578
101324.592
101324.606
101324.619
101324.633
101324.645
101324.657
101324.669
101324.681
101324.692
101324.703
101324.713
101324.723
101324.733
101324.743
101324.752
101324.761
101324.77
101324.78
101324.79
101324.8
101324.811
101324.821
101324.832
101324.843
101324.854
101324.864
101324.875
101324.886
101324.896
101324.907
101324.916
101324.926
101324.935
101324.943
101324.951
101324.959
101324.965
101324.971
101324.977
101324.981
101324.985
101324.989
101324.992
101324.994
101324.996
101324.997
101324.998
101324.999
101324.999
101325
101325
101325
101325
101325
101325
101325
101325
101325
101325
101325
101325
101325
101325
101325
101325
101325
101325
101325
101325
101325
101325
101325
101325
101325
101325
101325
101325
101325
101325
101325
101325
101325
101325
101325
101325
101325
101325
101325
101325
101325
101325
101325
)
;

boundaryField
{
    closed
    {
        type            zeroGradient;
    }
    open
    {
        type            waveTransmissive;
        gamma           1.25;
        fieldInf        101325;
        lInf            1;
        value           uniform 101325;
    }
    sides
    {
        type            empty;
    }
}


// ************************************************************************* //
