/*--------------------------------*- C++ -*----------------------------------*\
| =========                 |                                                 |
| \\      /  F ield         | OpenFOAM: The Open Source CFD Toolbox           |
|  \\    /   O peration     | Version:  2206                                  |
|   \\  /    A nd           | Website:  www.openfoam.com                      |
|    \\/     M anipulation  |                                                 |
\*---------------------------------------------------------------------------*/
FoamFile
{
    version     2.0;
    format      ascii;
    arch        "LSB;label=32;scalar=64";
    class       surfaceScalarField;
    location    "4.8e-06";
    object      phi;
}
// * * * * * * * * * * * * * * * * * * * * * * * * * * * * * * * * * * * * * //

dimensions      [1 0 -1 0 0 0 0];

oriented        oriented;

internalField   nonuniform List<scalar> 
3182
(
1.54918069e-18
-1.32053872e-18
3.22262839e-19
-6.63133028e-19
-1.96583087e-22
-3.45447197e-24
-2.51815314e-25
-5.06999466e-30
8.27771283e-29
1.93526786e-24
2.63840464e-23
3.44240322e-21
2.68860091e-18
-1.07912684e-18
-1.81039051e-18
5.41719508e-20
1.82651759e-18
-2.05854327e-18
-3.37796033e-18
4.16576287e-18
7.97994794e-21
1.05357597e-22
2.06954602e-23
1.28874666e-22
6.2485144e-19
1.84504137e-18
3.42227748e-18
-1.006349e-18
-2.11344162e-18
-2.54782372e-18
-1.34430423e-18
4.25545034e-19
-5.96052131e-19
-1.23844743e-18
3.24462247e-19
4.82372147e-19
-4.8762147e-19
-6.46023769e-19
2.67342228e-19
-3.92937291e-19
-2.49234258e-18
-2.47445599e-18
-7.60898088e-19
5.41842031e-19
6.54617625e-19
2.05328466e-18
1.29937483e-18
3.21963509e-19
1.24629162e-21
-7.5849692e-19
7.55492285e-19
-7.45144206e-19
-5.40865288e-19
-8.69617688e-19
-1.08420869e-18
-8.60681445e-19
3.13767984e-21
6.49453197e-19
2.15738238e-19
8.6835846e-19
1.09067579e-18
1.52181531e-18
2.16552217e-18
2.17296077e-18
3.06448068e-18
2.83562045e-18
3.48063239e-18
4.3335596e-18
3.92187992e-18
4.75552581e-18
4.32983481e-18
3.94457509e-18
3.90672863e-18
3.90422767e-18
4.35838206e-18
3.49323314e-18
4.76945996e-18
5.67501723e-18
5.28492629e-18
5.33641561e-18
7.02408648e-18
6.01420008e-18
6.82206941e-18
6.83857886e-18
6.66732382e-18
6.79794574e-18
7.92139446e-18
7.76813994e-18
8.62575088e-18
6.74693432e-18
6.93015356e-18
3.63345142e-18
4.65497504e-18
6.58716167e-18
3.69402785e-18
7.27737839e-18
7.40667737e-18
7.15602902e-18
9.22001529e-18
8.7035234e-18
9.07500239e-18
9.6026288e-18
8.41741849e-18
8.66247615e-18
1.22672027e-17
9.41130379e-18
9.836918e-18
1.32834865e-17
1.14634531e-17
1.16180676e-17
1.26973061e-17
9.57798911e-18
1.09427233e-17
1.18344995e-17
1.33688549e-17
1.3590305e-17
1.56102639e-17
1.35015442e-17
1.46148139e-17
1.27311097e-17
1.14060702e-17
1.28878756e-17
1.20629623e-17
1.32252878e-17
1.19954327e-17
1.12823141e-17
1.09897865e-17
1.20394116e-17
1.11437642e-17
1.0335931e-17
1.19439028e-17
9.76132965e-18
1.02950079e-17
9.74889029e-18
9.93445686e-18
9.28515342e-18
7.41073764e-18
9.11538306e-18
8.44480367e-18
7.37537488e-18
7.77940978e-18
1.20701002e-17
7.95426537e-18
7.14663724e-18
3.16876678e-18
4.10078574e-18
3.28011591e-18
4.41763612e-18
5.39394906e-18
5.7809046e-18
5.01605401e-18
7.6471022e-18
9.83810469e-18
1.1713695e-17
9.51248553e-18
8.0248917e-18
4.50214068e-18
7.95713414e-18
5.13939878e-18
6.23344988e-18
3.79261486e-18
2.97168443e-18
2.27066359e-19
4.27120361e-18
3.0821643e-18
4.39677903e-19
2.05366886e-18
3.77904838e-18
1.50837947e-18
1.91882798e-18
1.36652554e-18
2.47981457e-18
3.05848796e-18
-5.97747602e-19
-1.76732183e-18
-1.38538159e-18
-3.73135565e-18
-3.40101652e-18
-2.66518507e-18
-3.05707504e-18
-3.66338918e-18
-2.22181621e-18
-3.62745388e-18
-2.79904399e-18
-4.17070855e-18
-3.95261883e-18
-6.8081858e-18
-6.56554482e-18
-4.68677292e-18
-6.20339538e-18
-5.33273759e-18
-4.60297087e-18
-2.46629433e-18
-4.62165202e-18
-4.90762138e-18
-4.65044242e-18
-5.48471839e-18
-6.43014431e-18
-9.01580768e-18
-8.56082167e-18
-1.06034673e-17
-5.91462051e-18
-7.66413727e-18
-8.46477787e-18
-9.10016517e-18
-5.49504221e-18
-6.42032357e-18
-4.6341556e-18
-5.46239517e-18
-6.64487143e-18
-8.52274919e-18
-7.61625396e-18
-8.9182701e-18
-1.07058817e-17
-1.35072762e-17
-1.54262579e-17
-1.61342267e-17
-1.58094906e-17
-1.74689358e-17
-1.6426468e-17
-1.89242258e-17
-1.84163198e-17
-2.28027604e-17
-2.09885247e-17
-1.81004987e-17
-1.93920434e-17
-1.96584186e-17
-1.70484885e-17
-1.60282079e-17
-1.75188739e-17
-1.54360805e-17
-1.75496536e-17
-2.16468047e-17
-2.0680035e-17
-2.09707489e-17
-1.90219757e-17
-2.23222279e-17
-1.86761873e-17
-2.20830508e-17
-2.14505137e-17
-2.29739594e-17
-2.27181397e-17
-2.30752436e-17
-2.40628572e-17
-2.30765996e-17
-2.46778744e-17
-2.50391227e-17
-2.34859909e-17
-2.36627033e-17
-2.55862973e-17
-2.50475743e-17
-2.48852213e-17
-2.34398594e-17
-2.66858821e-17
-2.67015518e-17
-2.69752235e-17
-2.3390141e-17
-2.31999392e-17
-2.17994454e-17
-2.4198652e-17
-2.38761217e-17
-2.3252854e-17
-2.45962767e-17
-2.43678148e-17
-2.57983399e-17
-2.58156041e-17
-2.59615076e-17
-2.9539109e-17
-2.64328348e-17
-2.84954673e-17
-2.84240562e-17
-2.9441132e-17
-3.07716389e-17
-3.13440119e-17
-2.9891791e-17
-3.04893227e-17
-3.19189109e-17
-3.68821426e-17
-3.33581945e-17
-3.57349372e-17
-3.54062827e-17
-3.31425745e-17
-3.3123505e-17
-3.64241406e-17
-3.55072167e-17
-3.50637321e-17
-3.84616845e-17
-3.99908096e-17
-3.91951881e-17
-4.11192643e-17
-3.94431064e-17
-3.9198243e-17
-3.80421426e-17
-4.13544506e-17
-4.19691312e-17
-4.62672668e-17
-4.74107166e-17
-4.94427312e-17
-5.01361522e-17
-5.32082745e-17
-4.96095429e-17
-4.80225046e-17
-4.64722496e-17
-4.73390436e-17
-4.22303805e-17
-4.20075832e-17
-4.34858709e-17
-4.29863771e-17
-4.31279513e-17
-4.50459976e-17
-4.41495322e-17
-4.69187587e-17
-4.70695532e-17
-4.68503845e-17
-4.86893658e-17
-5.22129996e-17
-4.94842441e-17
-5.01529938e-17
-5.13451484e-17
-5.24597693e-17
-5.23240382e-17
-5.18909029e-17
-5.25401959e-17
-4.89681732e-17
-5.22465688e-17
-4.87997477e-17
-4.96334773e-17
-4.86861525e-17
-5.08076167e-17
-4.94246967e-17
-4.91759261e-17
-4.91677604e-17
-4.39385463e-17
-4.59150844e-17
-4.23951708e-17
-4.43535072e-17
-4.42496171e-17
-4.62456971e-17
-4.76966761e-17
-4.5431829e-17
-4.71550558e-17
-4.79419119e-17
-4.95521572e-17
-5.16327061e-17
-5.00493429e-17
-5.22322566e-17
-5.21852108e-17
-5.48554015e-17
-5.41935045e-17
-5.18681624e-17
-5.10257831e-17
-5.06281919e-17
-4.74458404e-17
-4.58641565e-17
-4.36919341e-17
-4.39987671e-17
-4.46894619e-17
-4.21636751e-17
-4.4390323e-17
-4.41495796e-17
-3.88288666e-17
-3.95994462e-17
-3.84734497e-17
-4.10655007e-17
-4.06451167e-17
-4.10666464e-17
-4.08861596e-17
-4.10195819e-17
-4.05734693e-17
-4.12339432e-17
-4.14270296e-17
-3.81077332e-17
-3.66551583e-17
-3.40447394e-17
-3.62143471e-17
-3.59705284e-17
-3.39963881e-17
-3.49828543e-17
-3.36211091e-17
-3.27494116e-17
-3.15585925e-17
-3.04611826e-17
-2.67039803e-17
-3.10659739e-17
-2.74907502e-17
-2.77080837e-17
-2.86636968e-17
-2.81381496e-17
-2.72433934e-17
-2.75392188e-17
-2.69105475e-17
-2.47416073e-17
-1.94595588e-17
-2.07263229e-17
-2.08535425e-17
-2.21947252e-17
-1.99885991e-17
-2.44595474e-17
-2.3376453e-17
-1.71373123e-17
-1.76309853e-17
-1.88020807e-17
-2.40752708e-17
-2.34858525e-17
-2.33425377e-17
-2.25462611e-17
-2.45295331e-17
-2.26268774e-17
-2.11635977e-17
-1.93754792e-17
-1.55709681e-17
-2.08602964e-17
-1.84834848e-17
-1.902541e-17
-2.04714181e-17
-2.41680094e-17
-2.21454739e-17
-2.17927184e-17
-2.1240445e-17
-1.82786043e-17
-1.83118798e-17
-2.0929236e-17
-2.18709517e-17
-1.80388125e-17
-1.88432486e-17
-2.04913914e-17
-1.98564514e-17
-1.94282769e-17
-1.83726162e-17
-1.76838905e-17
-2.0422262e-17
-2.06851771e-17
-1.79808131e-17
-1.69974186e-17
-1.9812708e-17
-2.01920369e-17
-1.83942301e-17
-1.4372927e-17
-1.37337933e-17
-1.2203997e-17
-1.2355194e-17
-1.36150659e-17
-1.43167876e-17
-1.2864179e-17
-1.15442501e-17
-9.78019479e-18
-8.10765455e-18
-1.02907104e-17
-9.29616546e-18
-1.15481546e-17
-9.38813813e-18
-5.81329666e-18
-8.55757585e-18
-6.63312484e-18
-4.03419107e-18
-3.69130728e-18
-2.24171611e-18
-1.66414042e-18
-2.62962596e-18
-3.46411782e-18
-2.0280448e-18
3.8236096e-18
3.21512479e-18
4.53525675e-18
5.37776497e-18
6.40868735e-18
6.32818715e-18
4.38076627e-18
4.46553988e-18
6.69479141e-18
4.8445124e-18
3.89678638e-18
4.87698759e-18
5.96341249e-18
4.46487972e-18
2.6225461e-18
1.59527287e-18
1.51675102e-18
2.53497024e-18
3.20779986e-19
2.74368162e-18
4.32818541e-18
6.70080333e-18
5.84993336e-18
3.42369398e-18
6.4918278e-18
3.92729117e-18
2.93848428e-18
5.22221063e-18
2.40325276e-19
-4.07839877e-19
-5.19309512e-19
1.20811559e-18
1.79096057e-18
-1.01500139e-18
-1.90711334e-18
-8.39980982e-19
-3.92315888e-18
-9.81283706e-19
-4.36568578e-18
-5.53191698e-18
-3.84697929e-18
-3.98633279e-18
-5.87779362e-18
-1.32923583e-18
5.10054198e-19
1.10387915e-19
2.741947e-18
-1.34000561e-18
1.1492948e-18
1.77791026e-18
-1.64769409e-18
-2.14603775e-18
-4.21556997e-18
-2.74099991e-18
-2.5969265e-19
9.30919905e-19
-7.18816451e-19
-2.53378937e-18
-3.23124969e-18
-2.80304417e-18
-1.95759514e-18
2.99944876e-19
-9.43014351e-19
2.03485219e-19
1.37495572e-18
-2.0247178e-18
-4.62213577e-19
-3.62868772e-18
-4.68876443e-18
-4.00119363e-18
-9.29688213e-19
-2.15542294e-18
-1.13269315e-18
3.82261443e-18
2.8270189e-18
2.44640606e-18
1.19297301e-18
1.93378682e-18
3.26698882e-18
-7.3977271e-19
1.63041036e-18
5.03467435e-18
6.72675754e-19
-5.11101586e-19
5.37298295e-19
1.97196946e-18
8.34314486e-19
5.15003834e-18
3.57448233e-18
3.46441524e-18
6.34280487e-18
6.74679834e-18
6.93609774e-18
8.2608365e-18
1.14055084e-17
9.72950898e-18
1.13867897e-17
1.06963016e-17
1.05697542e-17
1.18425514e-17
9.90036352e-18
9.34812049e-18
7.9037094e-18
7.86741714e-18
1.03625531e-17
1.09716248e-17
9.38873415e-18
1.12755231e-17
1.45930255e-17
1.46137002e-17
1.18026398e-17
1.14685805e-17
1.09069627e-17
1.23943962e-17
9.08556882e-18
1.08675539e-17
1.04595846e-17
1.03534184e-17
1.15360777e-17
8.8797559e-18
8.99929023e-18
1.07268938e-17
9.43574984e-18
8.62950883e-18
1.01304675e-17
1.09191876e-17
1.50149822e-17
1.27630046e-17
1.39829642e-17
1.40277203e-17
1.23336397e-17
1.44525908e-17
1.57641818e-17
1.49941847e-17
1.53074508e-17
1.67567778e-17
1.79814139e-17
1.5110597e-17
1.41295894e-17
1.15823134e-17
1.09829254e-17
1.40640779e-17
1.28196017e-17
1.3934978e-17
1.37951158e-17
1.48742104e-17
1.26144063e-17
1.29007823e-17
1.6511029e-17
1.03401905e-17
8.91998888e-18
1.45128397e-17
1.16778042e-17
1.06960164e-17
1.53543194e-17
1.38679989e-17
1.35470431e-17
1.46594797e-17
1.38734434e-17
1.14019454e-17
8.9432242e-18
3.99278475e-18
5.77532028e-18
2.81073656e-18
2.66150641e-18
4.07042284e-18
3.40391215e-18
3.34528394e-18
4.32110056e-18
5.2798317e-18
8.48770992e-18
9.116481e-18
7.76977434e-18
8.6101054e-18
9.82826395e-18
6.45231436e-18
5.36268169e-18
6.41560016e-18
5.64823927e-18
6.71552505e-18
6.32031256e-18
7.39529524e-18
8.54817272e-18
6.32555495e-18
8.0898499e-18
4.55868717e-18
6.69160742e-18
5.55546944e-18
9.10937128e-18
1.08905308e-17
1.13949964e-17
9.30281945e-18
1.27361408e-17
1.18831367e-17
9.7340406e-18
9.52133523e-18
9.87434387e-18
8.33748943e-18
9.82249075e-18
8.20752863e-18
1.05954505e-17
9.46499607e-18
9.66841492e-18
1.20120313e-17
1.17885625e-17
1.30178279e-17
1.40311429e-17
1.56728499e-17
1.59557917e-17
1.50128231e-17
1.58794105e-17
1.43386946e-17
1.23265718e-17
8.42361271e-18
9.47969664e-18
1.1247788e-17
1.21207983e-17
1.17676371e-17
1.5812161e-17
1.4906353e-17
1.71562224e-17
2.10112052e-17
1.87593012e-17
1.69201898e-17
1.58708917e-17
1.82292051e-17
1.91243745e-17
1.60412749e-17
1.79977008e-17
1.38114704e-17
1.59965963e-17
1.44409236e-17
1.32943252e-17
1.2879186e-17
1.1971894e-17
1.13461619e-17
9.46318376e-18
1.1114885e-17
1.28392559e-17
1.01993838e-17
1.52002934e-17
1.31782599e-17
1.35229428e-17
1.04016204e-17
1.33222077e-17
1.66479696e-17
1.72057611e-17
1.63742195e-17
1.57734702e-17
1.49507191e-17
1.29743859e-17
1.27714346e-17
1.17599847e-17
1.45945418e-17
1.06281048e-17
1.12056622e-17
1.23902727e-17
1.3895592e-17
1.26693813e-17
1.41817968e-17
1.26456397e-17
1.20712561e-17
9.6235197e-18
8.13594429e-18
9.94023282e-18
8.58813891e-18
1.10689836e-17
1.1794215e-17
1.39593118e-17
1.37518323e-17
1.00821078e-17
8.89105022e-18
9.71502603e-18
1.23355549e-17
8.46515612e-18
1.05548989e-17
8.49065336e-18
1.05031467e-17
7.73279727e-18
7.2917171e-18
7.81397702e-18
6.90962148e-18
8.93484882e-18
8.51004134e-18
6.15033674e-18
7.16942571e-18
6.25902557e-18
4.89288625e-18
5.88135534e-18
8.31589872e-18
6.58263703e-18
8.91348786e-18
9.54265539e-18
1.01084476e-17
6.30704144e-18
7.86965152e-18
4.68442692e-18
5.42240579e-18
6.7174975e-18
9.32688363e-18
1.04848808e-17
9.78676501e-18
7.86888218e-18
7.68009928e-18
8.93139079e-18
5.53440928e-18
8.58792137e-18
8.74694933e-18
1.04430908e-17
1.02063617e-17
1.31421041e-17
1.06139897e-17
6.80687533e-18
1.07738315e-17
8.14544933e-18
6.49114989e-18
9.41965798e-18
6.86982047e-18
9.3674714e-18
1.04872363e-17
1.17389131e-17
1.16526017e-17
1.05861471e-17
1.26068965e-17
1.52182361e-17
1.39178159e-17
1.61933244e-17
1.97479889e-17
1.53022008e-17
1.90551125e-17
2.22828933e-17
1.89453243e-17
2.08960674e-17
1.59691128e-17
1.5139351e-17
2.0837787e-17
2.15958334e-17
1.6672893e-17
1.81579892e-17
2.00482017e-17
1.77682491e-17
2.17385758e-17
1.69413962e-17
1.83216308e-17
1.93474175e-17
2.13381512e-17
2.0981566e-17
2.01941622e-17
1.70481448e-17
1.57434969e-17
1.28338921e-17
1.55937542e-17
1.60065329e-17
1.42725443e-17
1.23363415e-17
1.12455754e-17
1.08262559e-17
9.44625168e-18
9.66709391e-18
7.22760273e-18
5.8096455e-18
8.33803645e-18
7.70234432e-18
8.84494801e-18
5.47724346e-18
3.42907309e-18
4.91813592e-18
4.77660478e-18
3.73376167e-18
3.14301985e-18
2.5849803e-18
2.3892112e-18
3.22287153e-18
1.56508169e-18
2.6498289e-19
3.85848358e-18
7.57095524e-19
3.17813655e-18
2.38473649e-18
2.17590397e-19
5.57857454e-19
1.78705621e-18
-1.25889303e-18
-3.23779599e-18
-2.57830967e-19
2.22144334e-19
2.88741913e-19
3.15370503e-19
8.39513789e-19
2.51868585e-18
2.19211085e-18
2.23336171e-18
2.65195608e-18
-2.27463597e-18
-2.8145622e-18
-3.74183366e-19
1.0796296e-18
7.06267136e-20
1.58577739e-18
5.434494e-19
-2.52398537e-18
-7.36421463e-19
-1.39446108e-18
-1.07090124e-18
-1.1846259e-19
-2.98333546e-18
-4.1019997e-18
-5.14178497e-18
-6.0225081e-18
-5.071208e-18
-5.43310353e-18
-4.61052602e-18
-3.17971916e-18
-4.28556863e-18
2.39218352e-19
3.89809413e-18
8.12217278e-19
4.85255162e-18
6.07061904e-18
6.5674799e-18
6.44732457e-18
7.19108511e-18
3.61397315e-18
3.60325564e-18
2.66774157e-18
3.15795538e-18
5.80739779e-18
5.92501336e-18
5.74873782e-18
7.76568153e-18
8.93703538e-18
7.21722629e-18
7.99594443e-18
7.01344194e-18
1.0516718e-17
1.21269839e-17
1.39801013e-17
1.14138728e-17
1.49660483e-17
1.38997033e-17
1.52064107e-17
1.61506741e-17
1.56558725e-17
1.02752276e-17
1.13203125e-17
1.14413901e-17
1.04278228e-17
1.11213358e-17
1.46093083e-17
1.51703618e-17
1.44292966e-17
1.23474817e-17
1.22131543e-17
1.05881987e-17
1.2178599e-17
1.31777772e-17
1.57990682e-17
1.51978665e-17
1.73430623e-17
1.8610159e-17
2.20943268e-17
1.99112427e-17
2.06536187e-17
2.19438034e-17
1.79518794e-17
1.82518366e-17
1.96209405e-17
1.58712904e-17
1.81817623e-17
2.00924363e-17
1.7598596e-17
2.10803172e-17
2.16365048e-17
2.28364363e-17
1.65968076e-17
1.82058187e-17
1.47553043e-17
1.35807479e-17
1.43549244e-17
1.37836568e-17
1.25257131e-17
1.40220713e-17
1.26341661e-17
1.35920176e-17
1.31559967e-17
1.31177161e-17
1.57323894e-17
1.46647394e-17
1.35629414e-17
1.2535502e-17
1.49643192e-17
1.47668349e-17
1.45736037e-17
1.52998907e-17
1.81964207e-17
1.84823641e-17
2.04585823e-17
2.12457613e-17
2.0031337e-17
1.59329391e-17
1.99677766e-17
2.11833498e-17
2.09029924e-17
2.15404561e-17
1.93534234e-17
2.39334391e-17
2.30500265e-17
2.36390484e-17
2.87290109e-17
2.76090206e-17
2.56419354e-17
2.96508531e-17
3.13169513e-17
3.03393278e-17
3.14904581e-17
2.77509171e-17
2.91939573e-17
3.09188532e-17
2.98803453e-17
3.18668603e-17
3.21462168e-17
3.28290579e-17
3.14666932e-17
3.2238264e-17
2.96459425e-17
3.02687441e-17
2.94996104e-17
2.94764172e-17
3.08929233e-17
3.09847247e-17
3.00369447e-17
2.8475815e-17
2.48451295e-17
2.8678712e-17
2.7062511e-17
2.63800684e-17
2.87421081e-17
2.87359809e-17
2.73810451e-17
3.24749774e-17
3.20153542e-17
3.11636298e-17
3.32965768e-17
3.47065252e-17
3.47118569e-17
3.44956821e-17
3.33873782e-17
3.15454304e-17
3.37441012e-17
2.89653344e-17
2.98972717e-17
2.81792416e-17
2.9404025e-17
2.71998074e-17
2.69557559e-17
2.77765381e-17
2.72980275e-17
2.55884774e-17
2.28794435e-17
2.43044934e-17
2.54207558e-17
2.60562116e-17
2.18133676e-17
2.31720584e-17
2.22541329e-17
1.98536867e-17
1.96527242e-17
1.90310817e-17
1.79798029e-17
1.81859899e-17
1.80277162e-17
2.17884487e-17
2.07698521e-17
1.93555369e-17
1.82650381e-17
1.75939266e-17
1.48153466e-17
1.60257142e-17
1.41626083e-17
1.55443289e-17
1.51288259e-17
1.48787957e-17
1.24140493e-17
1.24320929e-17
9.19238531e-18
1.14351418e-17
1.21845603e-17
1.54275143e-17
1.39279219e-17
1.28126111e-17
1.59550264e-17
1.34644217e-17
1.60741823e-17
1.69821592e-17
1.5421476e-17
1.41964159e-17
1.0809277e-17
8.50571293e-18
6.14747855e-18
5.22179976e-18
5.79501619e-18
6.95266672e-18
1.07410087e-17
1.18896797e-17
9.66811785e-18
8.14943848e-18
9.29044632e-18
8.56778798e-18
1.01845411e-17
1.28604178e-17
1.5692124e-17
1.68143324e-17
1.85146106e-17
1.42267556e-17
1.58670985e-17
1.75350673e-17
1.69680299e-17
2.01825009e-17
2.01958836e-17
2.4335162e-17
2.33040736e-17
2.19641797e-17
2.10696784e-17
1.8693141e-17
1.80381398e-17
1.53454445e-17
1.50663108e-17
1.52484933e-17
1.34101819e-17
1.51900095e-17
1.67607941e-17
1.26972049e-17
1.39432743e-17
1.23601262e-17
1.12726576e-17
1.20902898e-17
8.41661814e-18
9.64796628e-18
9.25004765e-18
8.58665362e-18
7.04472682e-18
5.95636317e-18
7.6852375e-18
5.26598698e-18
4.42086149e-18
4.66709514e-19
4.20149105e-19
2.59104537e-18
3.4345257e-18
1.43410004e-18
-3.55275638e-19
-2.8694278e-19
-4.42394901e-18
-1.32341893e-18
-5.05420412e-18
-6.39943645e-18
-7.75872367e-18
-5.75348701e-18
-7.12352999e-18
-5.37202195e-18
-4.14323196e-18
-5.79395946e-18
-1.04517228e-17
-1.22412517e-17
-1.21873293e-17
-1.32928515e-17
-1.69729072e-17
-1.42384116e-17
-1.95029765e-17
-2.15289565e-17
-2.20595277e-17
-2.20526653e-17
-2.67856925e-17
-2.74433373e-17
-2.72012072e-17
-2.63254416e-17
-2.41453806e-17
-2.49973562e-17
-2.20541982e-17
-2.42471448e-17
-2.46686556e-17
-2.1232847e-17
-2.19027763e-17
-2.13875876e-17
-2.0663675e-17
-2.21802165e-17
-2.35264408e-17
-2.14147717e-17
-2.3789993e-17
-2.105471e-17
-2.21294815e-17
-2.0229979e-17
-2.06917098e-17
-2.25474395e-17
-1.78324093e-17
-2.18470443e-17
-2.19423435e-17
-2.28509663e-17
-2.26012638e-17
-2.43188564e-17
-2.34105928e-17
-2.4612562e-17
-2.03330838e-17
-2.00506471e-17
-1.97063755e-17
-1.71480102e-17
-1.90968843e-17
-1.63883721e-17
-1.58390888e-17
-1.97485517e-17
-1.78689067e-17
-2.3382169e-17
-2.10142031e-17
-2.17772584e-17
-2.39109262e-17
-2.15409892e-17
-2.18068077e-17
-2.31677764e-17
-2.2661584e-17
-2.12072233e-17
-2.15333723e-17
-2.27043182e-17
-2.18701318e-17
-2.40175186e-17
-2.43409191e-17
-2.37586591e-17
-2.35922175e-17
-2.29475055e-17
-2.42733838e-17
-2.46491577e-17
-2.36103929e-17
-2.74863924e-17
-2.9430957e-17
-3.21971262e-17
-2.44947231e-17
-2.79748812e-17
-3.1163519e-17
-2.55354299e-17
-3.35527353e-17
-3.54213539e-17
-3.52938512e-17
-3.53821951e-17
-3.31644073e-17
-3.30612715e-17
-2.90471959e-17
-3.15580306e-17
-3.05670104e-17
-3.14560189e-17
-3.14352113e-17
-3.16936089e-17
-3.04994901e-17
-2.7087502e-17
-2.60397566e-17
-2.39794798e-17
-2.75714172e-17
-2.41596924e-17
-2.6167755e-17
-2.88708947e-17
-2.81965447e-17
-2.85033231e-17
-2.95792044e-17
-2.52116436e-17
-2.39387328e-17
-2.77743686e-17
-2.85337625e-17
-2.51446056e-17
-2.56715818e-17
-2.36127634e-17
-2.52726465e-17
-2.63437596e-17
-2.59058859e-17
-2.76271893e-17
-2.36922269e-17
-2.73013987e-17
-2.35283101e-17
-2.53782941e-17
-2.68893525e-17
-2.65719133e-17
-2.66259933e-17
-3.03261766e-17
-2.55025397e-17
-2.58449651e-17
-2.78025129e-17
-2.6091991e-17
-2.48049786e-17
-2.89412136e-17
-2.50070709e-17
-2.36351334e-17
-2.06571782e-17
-2.28992759e-17
-2.20197575e-17
-1.9974769e-17
-2.04439453e-17
-2.10920985e-17
-1.71421354e-17
-1.84821689e-17
-1.82237494e-17
-1.77004127e-17
-1.80745022e-17
-1.65827772e-17
-1.51838499e-17
-1.82685577e-17
-2.07273879e-17
-1.80735197e-17
-2.02229039e-17
-1.93187129e-17
-1.62142262e-17
-1.48150484e-17
-1.43391681e-17
-1.60925029e-17
-1.60909004e-17
-1.72131383e-17
-1.80434833e-17
-1.98560508e-17
-1.88239454e-17
-2.12344681e-17
-1.98852045e-17
-1.97403109e-17
-1.99289977e-17
-2.03984699e-17
-1.86852096e-17
-2.05553767e-17
-2.0037637e-17
-1.97902029e-17
-1.78343523e-17
-1.63403711e-17
-1.95216373e-17
-1.78168766e-17
-1.7977051e-17
-1.75204857e-17
-1.64616027e-17
-1.63756449e-17
-1.36762784e-17
-1.63654636e-17
-1.38909277e-17
-1.42021589e-17
-1.07959065e-17
-8.52296778e-18
-9.17614448e-18
-9.48967826e-18
-9.02111756e-18
-1.11305245e-17
-1.24111479e-17
-1.1123305e-17
-1.05413688e-17
-1.21852979e-17
-9.66285549e-18
-8.67314949e-18
-9.39006347e-18
-8.71696718e-18
-1.08753298e-17
-7.13478842e-18
-9.62572003e-18
-6.9027056e-18
-7.32818786e-18
-9.31315734e-18
-7.48386673e-18
-7.7077692e-18
-8.04306769e-18
-7.66810637e-18
-1.1641803e-17
-1.17255744e-17
-8.34206202e-18
-9.43775618e-18
-1.01823286e-17
-7.84661369e-18
-6.3334319e-18
-7.29913183e-18
-5.97287911e-18
-8.87915308e-18
-5.75203998e-18
-5.25853639e-18
-5.18067109e-18
-4.34570738e-18
-2.4705236e-18
-3.40529829e-19
-3.78652568e-18
-2.48217498e-18
-2.71223129e-18
-5.07704312e-18
-4.88778494e-18
-3.7893128e-18
-3.17194463e-18
-3.42249517e-18
-2.31080415e-18
1.43237725e-18
-7.53312852e-19
2.67949021e-18
2.68096317e-19
3.86682822e-18
2.59851192e-18
8.13397118e-18
5.45821422e-18
5.90133226e-18
6.0376228e-18
3.11565429e-18
1.88592419e-18
4.31507844e-18
4.12137894e-18
8.87746054e-19
4.31475708e-18
5.32150263e-18
5.26169174e-18
3.30702793e-18
3.01242464e-18
6.556714e-18
5.81009293e-18
7.61809775e-18
6.19659603e-18
8.32154936e-18
7.10600989e-18
6.5788149e-18
5.82303846e-18
5.97905412e-18
5.08451331e-18
5.45758661e-18
6.00417109e-18
7.63138803e-18
5.33553509e-18
4.45799571e-18
2.10316756e-18
1.74588172e-18
1.30048118e-18
-1.21062586e-18
-1.85931255e-18
2.18670678e-19
-1.02716913e-18
-6.19043279e-19
-2.0782172e-18
-6.29694474e-19
3.82124311e-18
3.44642086e-18
5.73683464e-18
2.86411061e-18
2.66287533e-18
1.89790005e-18
3.61279366e-18
2.28800022e-18
3.20208409e-18
1.06100242e-18
3.63243849e-19
2.71439219e-19
-1.48681156e-18
-1.3248846e-18
-2.54100974e-18
-3.6639763e-18
-1.31001746e-18
-2.39594915e-18
-2.10257034e-18
-2.40883698e-19
-1.36142828e-18
-2.48312337e-18
-1.34880012e-18
8.07581706e-20
1.06218602e-18
-1.35201262e-18
-1.4547167e-18
-5.86801041e-18
-3.99857424e-18
-4.23083786e-18
-7.32398481e-18
-9.33126143e-18
-9.64917187e-18
-1.0223243e-17
-7.54198621e-18
-5.64096599e-18
-6.99443852e-18
-6.57115192e-18
-5.37981661e-18
-6.28871976e-18
-4.63745275e-18
-4.07326139e-18
-4.61005696e-18
-4.08055806e-18
-3.89503066e-18
-7.20122437e-18
-5.59620437e-18
-6.2349634e-18
-6.39748826e-18
-7.41258895e-18
-7.3584307e-18
-7.70056412e-18
-9.40943067e-18
-1.10412107e-17
-1.23515659e-17
-1.15410653e-17
-1.06279513e-17
-1.14629065e-17
-7.55728557e-18
-7.62224581e-18
-9.18873954e-18
-1.12991433e-17
-9.11580507e-18
-5.10874477e-18
-4.88078528e-18
-8.34475273e-18
-6.10962256e-18
-7.95207005e-18
-7.36608607e-18
-7.790455e-18
-1.02095618e-17
-8.94869814e-18
-8.59136963e-18
-1.39454778e-17
-1.10100056e-17
-1.0410827e-17
-1.18444272e-17
-1.02007902e-17
-1.24617141e-17
-1.20693517e-17
-1.22704237e-17
-1.06633526e-17
-9.45528777e-18
-1.06057862e-17
-1.19083179e-17
-8.82165855e-18
-1.00106802e-17
-9.29662114e-18
-1.31575294e-17
-1.13697716e-17
-1.28644976e-17
-1.29436336e-17
-1.03625434e-17
-1.39753576e-17
-1.41460303e-17
-1.57934605e-17
-1.67838701e-17
-2.0079864e-17
-2.04419916e-17
-1.848304e-17
-2.21829829e-17
-1.93043353e-17
-2.0480955e-17
-2.07359782e-17
-2.33173235e-17
-2.30734462e-17
-2.12285658e-17
-2.14857337e-17
-2.25238957e-17
-2.34382749e-17
-2.54076539e-17
-2.26523408e-17
-2.18117608e-17
-2.08684799e-17
-2.23612291e-17
-2.06402395e-17
-2.252729e-17
-2.02507346e-17
-2.41941722e-17
-2.13133666e-17
-2.21358877e-17
-2.64467356e-17
-2.43526182e-17
-2.4411758e-17
-2.12864163e-17
-2.41159989e-17
-2.24774334e-17
-2.33328184e-17
-2.14786144e-17
-2.21548458e-17
-1.88652292e-17
-2.12308111e-17
-2.20462421e-17
-2.57189606e-17
-2.30937711e-17
-2.3798664e-17
-2.26694597e-17
-2.42917174e-17
-2.15189464e-17
-2.475155e-17
-2.4012361e-17
-2.2096851e-17
-1.89613818e-17
-2.14630524e-17
-1.93108422e-17
-1.67964462e-17
-1.77916393e-17
-1.78703182e-17
-1.75084447e-17
-2.15474123e-17
-2.05071931e-17
-2.11605911e-17
-1.62667449e-17
-1.84945991e-17
-1.41601912e-17
-1.35592586e-17
-1.36152612e-17
-1.62224952e-17
-1.56019623e-17
-1.26214646e-17
-1.26753324e-17
-1.17289633e-17
-1.66300791e-17
-1.7967407e-17
-1.83256802e-17
-1.92896666e-17
-1.80587885e-17
-1.83595816e-17
-2.17525206e-17
-2.20742503e-17
-2.187684e-17
-1.95979224e-17
-1.91258716e-17
-1.87592606e-17
-2.01851239e-17
-1.96796886e-17
-2.08599831e-17
-2.10585024e-17
-2.0526122e-17
-2.1913532e-17
-1.8341011e-17
-2.04234002e-17
-1.76374662e-17
-1.55853772e-17
-1.76643818e-17
-1.50325114e-17
-1.49060878e-17
-1.10694685e-17
-1.00167896e-17
-9.60761154e-18
-7.12653745e-18
-8.96955369e-18
-5.68967152e-18
-8.03598796e-18
-7.11667036e-18
-7.35504141e-18
-8.31043632e-18
-6.15940111e-18
-1.30643635e-17
-1.04231101e-17
-1.11158805e-17
-7.19606428e-18
-1.07428979e-17
-1.04275321e-17
-4.0078786e-18
-5.7201313e-18
-6.51942766e-18
-7.6635752e-18
-7.03653248e-18
-1.01663477e-17
-1.13525573e-17
-1.25701329e-17
-1.44455071e-17
-1.06296083e-17
-1.11921239e-17
-1.15355413e-17
-1.41814932e-17
-1.22806488e-17
-1.43315672e-17
-1.33132823e-17
-1.1990729e-17
-1.37177582e-17
-1.23350482e-17
-8.98995911e-18
-1.26978987e-17
-1.21970964e-17
-1.30131029e-17
-1.34320976e-17
-1.50344589e-17
-1.56149835e-17
-1.80461265e-17
-1.65393799e-17
-1.55370632e-17
-2.13136418e-17
-1.5787983e-17
-1.77455145e-17
-1.66381576e-17
-1.70103078e-17
-1.53218995e-17
-1.23686623e-17
-9.54073998e-18
-8.39079916e-18
-9.82456016e-18
-9.0654573e-18
-1.15884492e-17
-9.8657173e-18
-1.23597954e-17
-1.08976471e-17
-1.02831962e-17
-1.19992412e-17
-1.03215242e-17
-7.74805382e-18
-8.2160731e-18
-8.17226094e-18
-6.88337761e-18
-4.73580501e-18
-3.88954908e-18
-3.66816326e-18
-5.43307477e-18
-3.12125347e-18
-5.20669351e-18
-5.45423173e-18
-5.59382779e-18
-4.51587992e-18
-6.66732355e-19
-1.53652243e-18
-2.91326826e-18
-5.92762398e-18
-6.86030053e-18
-7.83642945e-18
-4.76889611e-18
-4.65031063e-18
-4.21684511e-18
-4.53256017e-18
-6.79102087e-19
-2.48531323e-18
-1.55104251e-18
4.47398161e-19
-8.59822296e-19
-4.28909502e-18
-2.35286338e-18
-2.84684668e-18
-2.09044529e-18
-4.19510714e-19
-9.66011238e-19
-1.66914509e-18
-1.66439768e-18
-4.95896093e-18
-4.40752446e-18
-3.12088826e-18
-2.94700831e-18
-1.94580118e-18
-5.09496582e-18
-2.37079168e-18
-5.64288157e-18
-5.58377138e-18
-4.92288856e-18
-4.38907622e-18
5.09920997e-19
-4.165057e-18
-1.84888583e-18
1.2039171e-18
2.14996645e-18
6.51554079e-19
5.01391469e-18
1.43107639e-18
5.57229027e-19
1.77277637e-18
-6.96231505e-19
3.63112544e-18
-7.9161737e-19
3.86623597e-18
-2.6526989e-19
3.83835162e-18
8.30689442e-18
5.45370323e-18
3.0718184e-18
3.72479941e-18
4.26026254e-18
3.266408e-18
1.31763908e-18
8.3605203e-18
7.46254001e-18
5.78210278e-18
5.03188129e-18
5.20900578e-18
4.55973374e-18
6.29004393e-18
4.56102144e-18
5.80385068e-18
3.29503569e-18
2.43188652e-18
2.40759182e-18
1.94111224e-18
4.62308394e-18
6.14009124e-18
8.72350987e-18
8.07550137e-18
7.48247446e-18
9.48185134e-18
8.80993487e-18
5.71127512e-18
5.84052215e-18
3.87621324e-18
3.29020271e-18
2.91647363e-18
1.84260739e-18
4.82223636e-18
4.18727145e-18
5.75821707e-18
4.72573032e-18
2.6853345e-18
2.9954874e-18
4.73095296e-18
4.3182532e-18
5.33366005e-18
6.57085772e-18
9.67919959e-18
1.2051472e-17
9.99294503e-18
1.03842125e-17
7.06996854e-18
1.20866502e-17
1.47317321e-17
1.19643398e-17
1.49203076e-17
1.5278719e-17
1.06903297e-17
1.33304624e-17
1.57337423e-17
1.39929853e-17
1.5267441e-17
1.35880107e-17
1.35562268e-17
1.22061959e-17
1.44269774e-17
1.59312653e-17
1.6743732e-17
1.66312426e-17
1.72488158e-17
1.98607846e-17
1.80542131e-17
1.89773331e-17
2.23411942e-17
2.16458029e-17
2.14417403e-17
2.24920498e-17
1.89571242e-17
1.80433327e-17
1.68838112e-17
2.11167317e-17
2.26040385e-17
2.40870557e-17
2.39803728e-17
2.25329434e-17
2.3147063e-17
2.35415949e-17
2.39855462e-17
2.41792968e-17
2.47603034e-17
2.44889676e-17
2.35514124e-17
2.4833988e-17
2.55853809e-17
2.64375803e-17
2.91237612e-17
2.98237008e-17
2.90954061e-17
2.7084597e-17
2.89873751e-17
2.95343388e-17
3.07667006e-17
2.87429986e-17
2.81842124e-17
3.12420882e-17
3.32145596e-17
3.27929689e-17
3.51867867e-17
3.54543934e-17
3.46369453e-17
3.66613769e-17
3.75987334e-17
3.6327879e-17
3.49007998e-17
3.46938214e-17
3.67722339e-17
3.81587496e-17
3.91177035e-17
3.88659246e-17
3.86888033e-17
3.83010023e-17
4.26343919e-17
4.50745683e-17
4.04915639e-17
4.16858516e-17
4.44243413e-17
4.3756335e-17
4.4770728e-17
4.21202694e-17
4.35292528e-17
4.51839433e-17
4.43090905e-17
4.52446641e-17
4.46150965e-17
4.11439972e-17
4.58543366e-17
4.4658699e-17
4.5359622e-17
4.60805233e-17
4.5143711e-17
4.65647461e-17
4.46232949e-17
4.31763573e-17
4.46028411e-17
4.48272271e-17
4.13413886e-17
4.23866965e-17
4.09197574e-17
4.15675715e-17
3.91963963e-17
4.29593017e-17
4.18758662e-17
4.19639271e-17
4.1345787e-17
4.2744828e-17
4.65959833e-17
4.62953993e-17
4.4571927e-17
4.43314406e-17
4.49098493e-17
4.57026963e-17
4.47235283e-17
4.62547367e-17
4.56619684e-17
4.60199697e-17
4.57705661e-17
4.70457808e-17
4.72585086e-17
4.66895621e-17
4.97231477e-17
5.01759484e-17
4.63555664e-17
4.92535692e-17
5.06579016e-17
5.28429484e-17
5.37782567e-17
5.6042311e-17
5.36528123e-17
5.6539486e-17
5.67734626e-17
5.61346927e-17
5.28161818e-17
5.41458211e-17
5.44089405e-17
5.32265359e-17
5.80525849e-17
5.83705091e-17
5.56710138e-17
5.57774946e-17
5.53547016e-17