/*--------------------------------*- C++ -*----------------------------------*\
| =========                 |                                                 |
| \\      /  F ield         | OpenFOAM: The Open Source CFD Toolbox           |
|  \\    /   O peration     | Version:  2206                                  |
|   \\  /    A nd           | Website:  www.openfoam.com                      |
|    \\/     M anipulation  |                                                 |
\*---------------------------------------------------------------------------*/
FoamFile
{
    version     2.0;
    format      ascii;
    arch        "LSB;label=32;scalar=64";
    class       volScalarField;
    location    "4.8e-06";
    object      PVsourcePV;
}
// * * * * * * * * * * * * * * * * * * * * * * * * * * * * * * * * * * * * * //

dimensions      [1 -3 -1 0 0 0 0];

internalField   nonuniform List<scalar> 
3183
(
0
0
0
0
0
0
0
0
0
0
0
0
0
0
0
0
0
0
0
0
0
0
0
0
0
0
0
0
0
0
0
0
0
0
0
0
0
0
0
0
0
0
0
0
0
0
0
0
0
0
0
0
0
0
0
0
0
0
0
0
0
0
0
0
0
0
0
0
0
0
0
0
0
0
0
0
0
0
0
0
0
0
0
0
0
0
0
0
0
0
0
0
0
0
0
0
0
0
0
0
0
0
0
0
0
0
0
0
0
0
0
0
0
0
0
0
0
0
0
0
0
0
0
0
0
0
0
0
0
0
0
0
0
0
0
0
0
0
0
0
0
0
0
0
0
0
0
0
0
0
0
0
0
0
0
0
0
0
0
0
0
0
0
0
0
0
0
0
0
0
0
0
0
0
0
0
0
0
0
0
0
0
0
0
0
0
0
0
0
0
0
0
0
0
0
0
0
0
0
0
0
0
0
0
0
0
0
0
0
0
0
0
0
0
0
0
0
0
0
0
0
0
0
0
0
0
0
0
0
0
0
0
0
0
0
0
0
0
0
0
0
0
0
0
0
0
0
0
0
0
0
0
0
0
0
0
0
0
0
0
0
0
0
0
0
0
0
0
0
0
0
0
0
0
0
0
0
0
0
0
0
0
0
0
0
0
0
0
0
0
0
0
0
0
0
0
0
0
0
0
0
0
0
0
0
0
0
0
0
0
0
0
0
0
0
0
0
0
0
0
0
0
0
0
0
0
0
0
0
0
0
0
0
0
0
0
0
0
0
0
0
0
0
0
0
0
0
0
0
0
0
0
0
0
0
0
0
0
0
0
0
0
0
0
0
0
0
0
0
0
0
0
0
0
0
0
0
0
0
0
0
0
0
0
0
0
0
0
0
0
0
0
0
0
0
0
0
0
0
0
0
0
0
0
0
0
0
0
0
0
0
0
0
0
0
0
0
0
0
0
0
0
0
0
0
0
0
0
0
0
0
0
0
0
0
0
0
0
0
0
0
0
0
0
0
0
0
0
0
0
0
0
0
0
0
0
0
0
0
0
0
0
0
0
0
0
0
0
0
0
0
0
0
0
0
0
0
0
0
0
0
0
0
0
0
0
0
0
0
0
0
0
0
0
0
0
0
0
0
0
0
0
0
0
0
0
0
0
0
0
0
0
0
0
0
0
0
0
0
0
0
0
0
0
0
0
0
0
0
0
0
0
0
0
0
0
0
0
0
0
0
0
0
0
0
0
0
0
0
0
0
0
0
0
0
0
0
0
0
0
0
0
0
0
0
0
0
0
0
0
0
0
0
0
0
0
0
0
0
0
0
0
0
0
0
0
0
0
0
0
0
0
0
0
0
0
0
0
0
0
0
0
0
0
0
0
0
0
0
0
0
0
0
0
0
0
0
0
0
0
0
0
0
0
0
0
0
0
0
0
0
0
0
0
0
0
0
0
0
0
0
0
0
0
0
0
0
0
0
0
0
0
0
0
0
0
0
0
0
0
0
0
0
0
0
0
0
0
0
0
0
0
0
0
0
0
0
0
0
0
0
0
0
0
0
0
0
0
0
0
0
0
0
0
0
0
0
0
0
0
0
0
0
0
0
0
0
0
0
0
0
0
0
0
0
0
0
0
0
0
0
0
0
0
0
0
0
0
0
0
0
0
0
0
0
0
0
0
0
0
0
0
0
0
0
0
0
0
0
0
0
0
0
0
0
0
0
0
0
0
0
0
0
0
0
0
0
0
0
0
0
0
0
0
0
0
0
0
0
0
0
0
0
0
0
0
0
0
0
0
0
0
0
0
0
0
0
0
0
0
0
0
0
0
0
0
0
0
0
0
0
0
0
0
0
0
0
0
0
0
0
0
0
0
0
0
0
0
0
0
0
0
0
0
0
0
0
0
0
0
0
0
0
0
0
0
0
0
0
0
0
0
0
0
0
0
0
0
0
0
0
0
0
0
0
0
0
0
0
0
0
0
0
0
0
0
0
0
0
0
0
0
0
0
0
0
0
0
0
0
0
0
0
0
0
0
0
0
0
0
0
0
0
0
0
0
0
0
0
0
0
0
0
0
0
0
0
0
0
0
0
0
0
0
0
0
0
0
0
0
0
0
0
0
0
0
0
0
0
0
0
0
0
0
0
0
0
0
0
0
0
0
0
0
0
0
0
0
0
0
0
0
0
0
0
0
0
0
0
0
0
0
0
0
0
0
0
0
0
0
0
0
0
0
0
0
0
0
0
0
0
0
0
0
0
0
0
0
0
0
0
0
0
0
0
0
0
0
0
0
0
0
0
0
0
0
0
0
0
0
0
0
0
0
0
0
0
0
0
0
0
0
0
0
0
0
0
0
0
0
0
0
0
0
0
0
0
0
0
0
0
0
0
0
0
0
0
0
0
0
0
0
0
0
0
0
0
0
0
0
0
0
0
0
0
0
0
0
0
0
0
0
0
0
0
0
0
0
0
0
0
0
0
0
0
0
0
0
0
0
0
0
0
0
0
0
0
0
0
0
0
0
0
0
0
0
0
0
0
0
0
0
0
0
0
0
0
0
0
0
0
0
0
0
0
0
0
0
0
0
0
0
0
0
0
0
0
0
0
0
0
0
0
0
0
0
0
0
0
0
0
0
0
0
0
0
0
0
0
0
0
0
0
0
0
0
0
0
0
0
0
0
0
0
0
0
0
0
0
0
0
0
0
0
0
0
0
0
0
0
0
0
0
0
0
0
0
0
0
0
0
0
0
0
0
0
0
0
0
0
0
0
0
0
0
0
0
0
0
0
0
0
0
0
0
0
0
0
0
0
0
0
0
0
0
0
0
0
0
0
0
0
0
0
0
0
0
0
0
0
0
0
0
0
0
0
0
0
0
0
0
0
0
0
0
0
0
0
0
0
0
0
0
0
0
0
0
0
0
0
0
0
0
0
0
0
0
0
0
0
0
0
0
0
0
0
0
0
0
0
0
0
0
0
0
0
0
0
0
0
0
0
0
0
0
0
0
0
0
0
0
0
0
0
0
0
0
0
0
0
0
0
0
0
0
0
0
0
0
0
0
0
0
0
0
0
0
0
0
0
0
0
0
0
0
0
0
0
0
0
0
0
0
0
0
0
0
0
0
0
0
0
0
0
0
0
0
0
0
0
0
0
0
0
0
0
0
0
0
0
0
0
0
0
0
0
0
0
0
0
0
0
0
0
0
0
0
0
0
0
0
0
0
0
0
0
0
0
0
0
0
0
0
0
0
0
0
0
0
0
0
0
0
0
0
0
0
0
0
0
0
0
0
0
0
0
0
0
0
0
0
0
0
0
0
0
0
0
0
0
0
0
0
0
0
0
0
0
0
0
0
0
0
0
0
0
0
0
0
0
0
0
0
0
0
0
0
0
0
0
0
0
0
0
0
0
0
0
0
0
0
0
0
0
0
0
0
0
0
0
0
0
0
0
0
0
0
0
0
0
0
0
0
0
0
0
0
0
0
0
0
0
0
0
0
0
0
0
0
0
0
0
0
0
0
0
0
0
0
0
0
0
0
0
0
0
0
0
0
0
0
0
0
0
0
0
0
0
0
0
0
0
0
0
0
0
0
0
0
0
0
0
0
0
0
0
0
0
0
0
0
0
0
0
0
0
0
0
0
0
0
0
0
0
0
0
0
0
0
0
0
0
0
0
0
0
0
0
0
0
0
0
0
0
0
0
0
0
0
0
0
0
0
0
0
0
0
0
0
0
0
0
0
0
0
0
0
0
0
0
0
0
0
0
0
0
0
0
0
0
0
0
0
0
0
0
0
0
0
0
0
0
0
0
0
0
0
0
0
0
0
0
0
0
0
0
0
0
0
0
0
0
0
0
0
0
0
0
0
0
0
0
0
0
0
0
0
0
0
0
0
0
0
0
0
0
0
0
0
0
0
0
0
0
0
0
0
0
0
0
0
0
0
0
0
0
0
0
0
0
0
0
0
0
0
0
0
0
0
0
0
0
0
0
0
0
0
0
0
0
0
0
0
0
0
0
0
0
0
0
0
0
0
0
0
0
0
0
0
0
0
0
0
0
0
0
0
0
0
0
0
0
0
0
0
0
0
0
0
0
0
0
0
0
0
0
0
0
0
0
0
0
0
0
0
0
0
0
0
0
0
0
0
0
0
0
0
0
0
0
0
0
0
0
0
0
0
0
0
0
0
0
0
0
0
0
0
0
0
0
0
0
0
0
0
0
0
0
0
0
0
0
0
0
0
0
0
0
0
0
0
0
0
0
0
0
0
0
0
0
0
0
0
0
0
0
0
0
0
0
0
0
0
0
0
0
0
0
0
0
0
0
0
0
0
0
0
0
0
0
0
0
0
0
0
0
0
0
0
0
0
0
0
0
0
0
0
0
0
0
0
0
0
0
0
0
0
0
0
0
0
0
0
0
0
0
0
0
0
0
0
0
0
0
0
0
0
0
0
0
0
0
0
0
0
0
0
0
0
0
0
0
0
0
0
0
0
0
0
0
0
0
0
0
0
0
0
0
0
0
0
0
0
0
0
0
0
0
0
0
0
0
0
0
0
0
0
0
0
0
0
0
0
0
0
0
0
0
0
0
0
0
0
0
0
0
0
0
0
0
0
0
0
0
0
0
0
0
0
0
0
0
0
0
0
0
0
0
0
0
0
0
0
0
0
0
0
0
0
0
0
0
0
0
0
0
0
0
0
0
0
0
0
0
0
0
0
0
0
0
0
0
0
0
0
0
0
0
0
0
0
0
0
0
0
0
0
0
0
0
0
0
0
0
0
0
0
0
0
0
0
0
0
0
0
0
0
0
0
0
0
0
0
0
0
0
0
0
0
0
0
0
0
0
0
0
0
0
0
0
0
0
0
0
0
0
0
0
0
0
0
0
0
0
0
0
0
0
0
0
0
0
0
0
0
0
0
0
0
0
0
0
0
0
0
0
0
0
0
0
0
0
0
0
0
0
0
0
0
0
0
0
0
0
0
0
0
0
0
0
0
0
0
0
0
0
0
0
0
0
0
0
0
0
0
0
0
0
0
0
0
0
0
0
0
0
0
0
0
0
0
0
0
0
0
0
0
0
0
0
0
0
0
0
0
0
0
0
0
0
0
0
0
0
0
0
0
0
0
0
0
0
0
0
0
0
0
0
0
0
0
0
0
0
0
0
0
0
0
0
0
0
0
0
0
0
0
0
0
0
0
0
0
0
0
0
0
0
0
0
0
0
0
0
0
0
0
0
0
0
0
0
0
0
0
0
0
0
0
0
0
0
0
0
0
0
0
0
0
0
0
0
0
0
0
0
0
0
0
0
0
0
0
0
0
0
0
0
0
0
0
0
0
0
0
0
0
0
0
0
0
0
0
0
0
0
0
0
0
0
0
0
0
0
0
0
0
0
0
0
0
0
0
0
0
0
0
0
0
0
0
0
0
0
0
0
0
0
0
0
0
0
0
0
0
0
0
0
0
0
0
0
0
0
0
0
0
0
0
0
0
0
0
0
0
0
0
7.02071375e-296
0
3.5463678e-287
0
9.22784869e-279
0
1.23686681e-270
0
8.53979256e-263
0
3.03723654e-255
0
5.56466335e-248
0
5.25270641e-241
0
2.55522757e-234
0
6.40941541e-228
0
8.2989685e-222
0
5.55865709e-216
0
1.9338826e-210
0
2.49701783e-206
0
1.70203781e-202
0
8.07903048e-199
0
2.98987157e-195
0
9.16620028e-192
0
2.41672214e-188
0
5.61958991e-185
0
1.1733673e-181
0
2.22965679e-178
0
3.89586063e-175
0
6.31070009e-172
0
9.53946201e-169
0
1.35298593e-165
0
1.80860131e-162
0
2.28728834e-159
0
2.74554996e-156
0
3.13667899e-153
0
3.41885449e-150
0
3.56255528e-147
0
3.55548146e-144
0
3.40391189e-141
0
3.13043216e-138
0
2.76889403e-135
0
2.35803639e-132
2.84061121e-134
1.93529214e-129
8.74967722e-131
1.53198336e-126
1.16590423e-127
1.17054396e-123
1.22971441e-124
8.63816697e-121
1.14327818e-121
6.16016814e-118
9.74842074e-119
4.24720668e-115
7.77116452e-116
2.83220758e-112
5.85462936e-113
1.82725357e-109
4.19646647e-110
1.14087371e-106
2.87452199e-107
6.89488894e-104
1.88746645e-104
4.0339241e-101
1.19062873e-101
2.28493153e-98
7.22682202e-99
1.25306259e-95
4.2256637e-96
6.65289119e-93
2.38221528e-93
3.4193603e-90
1.29556041e-90
1.70101876e-87
6.79967282e-88
8.18860189e-85
3.444772e-85
3.81352073e-82
1.68460733e-82
1.71754783e-79
7.95184939e-80
7.4778788e-77
3.62226883e-77
3.14574232e-74
1.59183109e-74
1.27789951e-71
6.7457115e-72
5.00974085e-69
2.7550759e-69
1.89388632e-66
1.08373587e-66
6.89830506e-64
4.10253628e-64
2.41857749e-61
1.49319925e-61
8.15322289e-59
5.21979907e-59
2.63942088e-56
1.75035136e-56
8.19375329e-54
5.62236034e-54
2.43529823e-51
1.72715626e-51
6.91700159e-49
5.06475997e-49
1.87355018e-46
1.4147348e-46
4.82771552e-44
3.75502279e-44
1.18012468e-41
9.4435096e-42
2.72773712e-39
2.24280932e-39
5.93873366e-37
5.01058983e-37
1.21231659e-34
1.04810066e-34
2.30771202e-32
2.0413057e-32
4.06891494e-30
3.67661749e-30
6.59012077e-28
6.07242669e-28
9.70164104e-26
9.09946146e-26
1.28047835e-23
1.22004248e-23
1.48747452e-21
1.43635466e-21
1.48178895e-19
1.44624815e-19
1.21757921e-17
1.19637002e-17
7.74333069e-16
7.63132116e-16
1.62089744e-12
1.80518662e-12
0.178012022
0.369625737
0.57246681
0.486574409
0.0538317079
0.0446642661
0.00520048918
0.00496661132
0.000502390089
0.000498514486
4.40088443e-05
4.39913882e-05
3.97679159e-06
4.02075041e-06
9.18671753e-07
9.18670814e-07
7.0166885e-07
7.01705723e-07
6.8786253e-07
6.87868053e-07
6.87054012e-07
6.8705501e-07
6.87010541e-07
6.87010554e-07
6.87008342e-07
6.87008544e-07
6.87008675e-07
6.87008506e-07
6.87007848e-07
6.8700926e-07
6.8700756e-07
6.87007993e-07
6.8700769e-07
6.8700953e-07
6.87007372e-07
6.87008359e-07
6.87008287e-07
6.87008346e-07
6.87007816e-07
6.87007987e-07
6.87008731e-07
6.87008222e-07
6.8700861e-07
6.87007485e-07
6.87008532e-07
6.87007841e-07
6.87009109e-07
6.87008341e-07
6.87008343e-07
6.8700781e-07
6.87008656e-07
6.87008184e-07
6.87008311e-07
6.87008595e-07
6.87008337e-07
6.87008123e-07
6.87008081e-07
6.87008583e-07
6.8700892e-07
6.87007593e-07
6.87008595e-07
6.87008125e-07
6.87008306e-07
6.8700841e-07
6.87008046e-07
6.87008101e-07
6.87008983e-07
6.87007799e-07
6.87008252e-07
6.870073e-07
6.87009188e-07
6.87006929e-07
6.87008803e-07
6.87007655e-07
6.87008292e-07
6.87008116e-07
6.87008561e-07
6.8700839e-07
6.87008592e-07
6.87009177e-07
6.87008252e-07
6.87008451e-07
6.87008899e-07
6.87008668e-07
6.87008649e-07
6.8700847e-07
6.87008441e-07
6.8700855e-07
6.8700851e-07
6.87007871e-07
6.87009074e-07
6.87008719e-07
6.87008048e-07
6.87009536e-07
6.87008442e-07
6.87008853e-07
6.87008379e-07
6.87009176e-07
6.87009214e-07
6.87007873e-07
6.87009274e-07
6.87008793e-07
6.87008791e-07
6.87008635e-07
6.87008581e-07
6.87008255e-07
6.87008568e-07
6.87009342e-07
6.87008592e-07
6.87007908e-07
6.87009329e-07
6.8700731e-07
6.87009282e-07
6.87007913e-07
6.8700861e-07
6.87008481e-07
6.87008714e-07
6.87008731e-07
6.87008483e-07
6.87009039e-07
6.87008538e-07
6.87008617e-07
6.87008898e-07
6.87008718e-07
6.87008931e-07
6.87008304e-07
6.87008543e-07
6.870084e-07
6.87009146e-07
6.8700881e-07
6.87009061e-07
6.87008032e-07
6.87009399e-07
6.87009928e-07
6.87008146e-07
6.87009626e-07
6.87008591e-07
6.87008604e-07
6.87009415e-07
6.87008268e-07
6.87009302e-07
6.87008604e-07
6.87009242e-07
6.87008638e-07
6.87008424e-07
6.87009204e-07
6.87008783e-07
6.87009205e-07
6.87008916e-07
6.87009286e-07
6.87008599e-07
6.87009349e-07
6.8700945e-07
6.87009179e-07
6.87009097e-07
6.87009521e-07
6.87008651e-07
6.87009474e-07
6.87008928e-07
6.87008833e-07
6.87009017e-07
6.8700908e-07
6.87009283e-07
6.87008733e-07
6.87009581e-07
6.87009353e-07
6.87009512e-07
6.87008978e-07
6.87009309e-07
6.87008687e-07
6.8700907e-07
6.8700837e-07
6.8700903e-07
6.87008856e-07
6.87008527e-07
6.87008903e-07
6.87009961e-07
6.87008938e-07
6.87009045e-07
6.87010538e-07
6.87009856e-07
6.87010297e-07
6.870093e-07
6.8700937e-07
6.87009128e-07
6.87009417e-07
6.87009914e-07
6.87009154e-07
6.87009906e-07
6.8700927e-07
6.87010015e-07
6.87009144e-07
6.87009815e-07
6.87009838e-07
6.87010138e-07
6.87009052e-07
6.87009985e-07
6.87009079e-07
6.87010104e-07
6.87008322e-07
6.87010259e-07
6.87009374e-07
6.87009127e-07
6.87010303e-07
6.87009304e-07
6.87009514e-07
6.87009723e-07
6.87009874e-07
6.87009917e-07
6.87009462e-07
6.87010443e-07
6.87008477e-07
6.8701051e-07
6.87009866e-07
6.87009831e-07
6.87009886e-07
6.87009765e-07
6.87009833e-07
6.87009993e-07
6.87010884e-07
6.87009185e-07
6.87010342e-07
6.87009688e-07
6.87009772e-07
6.87009832e-07
6.87009397e-07
6.8701001e-07
6.87009703e-07
6.87010078e-07
6.87010107e-07
6.87009858e-07
6.87009797e-07
6.87010477e-07
6.870097e-07
6.87010505e-07
6.870103e-07
6.87010544e-07
6.87010444e-07
6.87009844e-07
6.87010629e-07
6.87010615e-07
6.87010304e-07
6.87009914e-07
6.87010216e-07
6.87010946e-07
6.87009956e-07
6.87009884e-07
6.87010185e-07
6.87009984e-07
6.87010157e-07
6.87010151e-07
6.87010754e-07
6.87010762e-07
6.87010531e-07
6.87009665e-07
6.87010519e-07
6.87010746e-07
6.87010408e-07
6.87011049e-07
6.87009853e-07
6.87011131e-07
6.87010936e-07
6.87011189e-07
6.87009831e-07
6.87011904e-07
6.87010232e-07
6.8701022e-07
6.87010554e-07
6.87009987e-07
6.87010097e-07
6.87010859e-07
6.8701115e-07
6.8701031e-07
6.87011824e-07
6.87010168e-07
6.87011748e-07
6.87009984e-07
6.87011223e-07
6.87010985e-07
6.87010781e-07
6.87011458e-07
6.87009343e-07
6.87011017e-07
6.87011146e-07
6.87011235e-07
6.87010743e-07
6.87010176e-07
6.87010948e-07
6.87010519e-07
6.87011222e-07
6.87010032e-07
6.87010647e-07
6.87010756e-07
6.8701016e-07
6.87011224e-07
6.87010361e-07
6.87010621e-07
6.87010943e-07
6.87011791e-07
6.87010938e-07
6.87011402e-07
6.87010851e-07
6.87010862e-07
6.87010883e-07
6.87011269e-07
6.87011093e-07
6.87011789e-07
6.87010713e-07
6.87011567e-07
6.87011049e-07
6.87011476e-07
6.87010874e-07
6.87010246e-07
6.87011798e-07
6.87010694e-07
6.87011377e-07
6.87012149e-07
6.870102e-07
6.87011376e-07
6.87010933e-07
6.87011369e-07
6.87011561e-07
6.87010657e-07
6.87011298e-07
6.87010643e-07
6.87011422e-07
6.8701099e-07
6.87011387e-07
6.87011061e-07
6.87011036e-07
6.87011369e-07
6.87011656e-07
6.87010397e-07
6.87010627e-07
6.87011213e-07
6.87010853e-07
6.8701156e-07
6.87010518e-07
6.87011724e-07
6.8701067e-07
6.87011888e-07
6.87011152e-07
6.87011397e-07
6.87011916e-07
6.87010925e-07
6.87011792e-07
6.87010777e-07
6.87011997e-07
6.87011171e-07
6.87011253e-07
6.87010884e-07
6.87011441e-07
6.87011516e-07
6.87010659e-07
6.8701216e-07
6.87010856e-07
6.87011807e-07
6.8701126e-07
6.87011842e-07
6.87011206e-07
6.87011251e-07
6.87010802e-07
6.87011517e-07
6.87011315e-07
6.87011311e-07
6.87011769e-07
6.87012037e-07
6.87011788e-07
6.87011737e-07
6.8701151e-07
6.87012003e-07
6.87011982e-07
6.87011016e-07
6.87012431e-07
6.87011005e-07
6.8701173e-07
6.87011418e-07
6.87010937e-07
6.8701164e-07
6.8701104e-07
6.87011693e-07
6.87011234e-07
6.87011318e-07
6.87011021e-07
6.87011225e-07
6.87011232e-07
6.87011007e-07
6.87011253e-07
6.87011343e-07
6.87011264e-07
6.87011609e-07
6.87011251e-07
6.87011367e-07
6.87011341e-07
6.87010789e-07
6.87012279e-07
6.8701127e-07
6.87011707e-07
6.87010976e-07
6.87011885e-07
6.87010719e-07
6.87011479e-07
6.8701117e-07
6.87012459e-07
6.87010949e-07
6.87011853e-07
6.87010563e-07
6.87011733e-07
6.87011298e-07
6.87012099e-07
6.87011673e-07
6.87011663e-07
6.87011391e-07
6.87010967e-07
6.87011904e-07
6.87010856e-07
6.87011873e-07
6.8701124e-07
6.87011102e-07
6.87011343e-07
6.87011893e-07
6.87011163e-07
6.8701125e-07
6.87011361e-07
6.8701187e-07
6.87011034e-07
6.87011297e-07
6.87012317e-07
6.87011268e-07
6.87012163e-07
6.87011912e-07
6.87012088e-07
6.87011458e-07
6.87011814e-07
6.87011984e-07
6.87011728e-07
6.87011506e-07
6.87011871e-07
6.87011462e-07
6.87011687e-07
6.87011765e-07
6.87011466e-07
6.87011281e-07
6.87011297e-07
6.87011825e-07
6.87011337e-07
6.87012219e-07
6.8701131e-07
6.87011607e-07
6.87012395e-07
6.87010704e-07
6.87011061e-07
6.8701187e-07
6.87010806e-07
6.87011793e-07
6.87011905e-07
6.8701155e-07
6.87011057e-07
6.87011868e-07
6.87011747e-07
6.87010645e-07
6.87011802e-07
6.87011457e-07
6.87011049e-07
6.87011171e-07
6.87010898e-07
6.8701248e-07
6.87010669e-07
6.87012183e-07
6.87011636e-07
6.87011568e-07
6.8701156e-07
6.8701114e-07
6.87011735e-07
6.87011352e-07
6.87011882e-07
6.87011641e-07
6.87011326e-07
6.87010905e-07
6.87011504e-07
6.87010632e-07
6.87011504e-07
6.87011467e-07
6.87011709e-07
6.87011773e-07
6.87010851e-07
6.87012159e-07
6.87011263e-07
6.87011931e-07
6.87011089e-07
6.87011242e-07
6.87011721e-07
6.8701204e-07
6.87011817e-07
6.87011417e-07
6.87011201e-07
6.87011891e-07
6.87010897e-07
6.8701224e-07
6.8701104e-07
6.87012086e-07
6.87010471e-07
6.87011317e-07
6.87011975e-07
6.87011473e-07
6.87012e-07
6.87011287e-07
6.87011569e-07
6.87011242e-07
6.87011324e-07
6.87011757e-07
6.87011128e-07
6.87011503e-07
6.8701137e-07
6.87011586e-07
6.87011623e-07
6.87011292e-07
6.87011382e-07
6.87011498e-07
6.87011381e-07
6.87011444e-07
6.87011516e-07
6.87011458e-07
6.87011441e-07
6.8701141e-07
6.87011387e-07
6.87011434e-07
6.87011457e-07
6.87011435e-07
6.87011478e-07
6.87011435e-07
6.87011443e-07
6.87011436e-07
6.8701144e-07
6.87011477e-07
6.87011447e-07
6.87011426e-07
6.87011424e-07
6.87011453e-07
6.87011444e-07
6.87011444e-07
6.87011448e-07
6.87011444e-07
6.87011441e-07
6.87011449e-07
6.87011445e-07
6.87011453e-07
6.87011428e-07
6.87011449e-07
6.87011438e-07
6.87011439e-07
6.87011445e-07
6.87011443e-07
6.87011443e-07
6.87011452e-07
6.87011437e-07
6.87011443e-07
6.87011432e-07
6.87011438e-07
6.87011447e-07
6.87011447e-07
6.87011447e-07
6.87011445e-07
6.87011428e-07
6.87011448e-07
6.8701144e-07
6.87011441e-07
6.87011444e-07
6.87011437e-07
6.87011457e-07
6.87011444e-07
6.87011449e-07
6.8701144e-07
6.87011438e-07
6.87011448e-07
6.87011436e-07
6.87011437e-07
6.87011445e-07
)
;

boundaryField
{
    closed
    {
        type            calculated;
        value           uniform 0;
    }
    open
    {
        type            calculated;
        value           uniform 0;
    }
    sides
    {
        type            empty;
    }
}


// ************************************************************************* //
