/*--------------------------------*- C++ -*----------------------------------*\
| =========                 |                                                 |
| \\      /  F ield         | OpenFOAM: The Open Source CFD Toolbox           |
|  \\    /   O peration     | Version:  2206                                  |
|   \\  /    A nd           | Website:  www.openfoam.com                      |
|    \\/     M anipulation  |                                                 |
\*---------------------------------------------------------------------------*/
FoamFile
{
    version     2.0;
    format      ascii;
    arch        "LSB;label=32;scalar=64";
    class       volScalarField;
    location    "4.8e-06";
    object      sourcePV;
}
// * * * * * * * * * * * * * * * * * * * * * * * * * * * * * * * * * * * * * //

dimensions      [1 -3 -1 0 0 0 0];

internalField   nonuniform List<scalar> 
3183
(
0
0
0
0
0
0
0
0
0
0
0
0
0
0
0
0
0
0
0
0
0
0
0
0
0
0
0
0
0
0
0
0
0
0
0
0
0
0
0
0
0
0
0
0
0
0
0
0
0
0
0
0
0
0
0
0
0
0
0
0
0
0
0
0
0
0
0
0
0
0
0
0
0
0
0
0
0
0
0
0
0
0
0
0
0
0
0
0
0
0
0
0
0
0
0
0
0
0
0
0
0
0
0
0
0
0
0
0
0
0
0
0
0
0
0
0
0
0
0
0
0
0
0
0
0
0
0
0
0
0
0
0
0
0
0
0
0
0
0
0
0
0
0
0
0
0
0
0
0
0
0
0
0
0
0
0
0
0
0
0
0
0
0
0
0
0
0
0
0
0
0
0
0
0
0
0
0
0
0
0
0
0
0
0
0
0
0
0
0
0
0
0
0
0
0
0
0
0
0
0
0
0
0
0
0
0
0
0
0
0
0
0
0
0
0
0
0
0
0
0
0
0
0
0
0
0
0
0
0
0
0
0
0
0
0
0
0
0
0
0
0
0
0
0
0
0
0
0
0
0
0
0
0
0
0
0
0
0
0
0
0
0
0
0
0
0
0
0
0
0
0
0
0
0
0
0
0
0
0
0
0
0
0
0
0
0
0
0
0
0
0
0
0
0
0
0
0
0
0
0
0
0
0
0
0
0
0
0
0
0
0
0
0
0
0
0
0
0
0
0
0
0
0
0
0
0
0
0
0
0
0
0
0
0
0
0
0
0
0
0
0
0
0
0
0
0
0
0
0
0
0
0
0
0
0
0
0
0
0
0
0
0
0
0
0
0
0
0
0
0
0
0
0
0
0
0
0
0
0
0
0
0
0
0
0
0
0
0
0
0
0
0
0
0
0
0
0
0
0
0
0
0
0
0
0
0
0
0
0
0
0
0
0
0
0
0
0
0
0
0
0
0
0
0
0
0
0
0
0
0
0
0
0
0
0
0
0
0
0
0
0
0
0
0
0
0
0
0
0
0
0
0
0
0
0
0
0
0
0
0
0
0
0
0
0
0
0
0
0
0
0
0
0
0
0
0
0
0
0
0
0
0
0
0
0
0
0
0
0
0
0
0
0
0
0
0
0
0
0
0
0
0
0
0
0
0
0
0
0
0
0
0
0
0
0
0
0
0
0
0
0
0
0
0
0
0
0
0
0
0
0
0
0
0
0
0
0
0
0
0
0
0
0
0
0
0
0
0
0
0
0
0
0
0
0
0
0
0
0
0
0
0
0
0
0
0
0
0
0
0
0
0
0
0
0
0
0
0
0
0
0
0
0
0
0
0
0
0
0
0
0
0
0
0
0
0
0
0
0
0
0
0
0
0
0
0
0
0
0
0
0
0
0
0
0
0
0
0
0
0
0
0
0
0
0
0
0
0
0
0
0
0
0
0
0
0
0
0
0
0
0
0
0
0
0
0
0
0
0
0
0
0
0
0
0
0
0
0
0
0
0
0
0
0
0
0
0
0
0
0
0
0
0
0
0
0
0
0
0
0
0
0
0
0
0
0
0
0
0
0
0
0
0
0
0
0
0
0
0
0
0
0
0
0
0
0
0
0
0
0
0
0
0
0
0
0
0
0
0
0
0
0
0
0
0
0
0
0
0
0
0
0
0
0
0
0
0
0
0
0
0
0
0
0
0
0
0
0
0
0
0
0
0
0
0
0
0
0
0
0
0
0
0
0
0
0
0
0
0
0
0
0
0
0
0
0
0
0
0
0
0
0
0
0
0
0
0
0
0
0
0
0
0
0
0
0
0
0
0
0
0
0
0
0
0
0
0
0
0
0
0
0
0
0
0
0
0
0
0
0
0
0
0
0
0
0
0
0
0
0
0
0
0
0
0
0
0
0
0
0
0
0
0
0
0
0
0
0
0
0
0
0
0
0
0
0
0
0
0
0
0
0
0
0
0
0
0
0
0
0
0
0
0
0
0
0
0
0
0
0
0
0
0
0
0
0
0
0
0
0
0
0
0
0
0
0
0
0
0
0
0
0
0
0
0
0
0
0
0
0
0
0
0
0
0
0
0
0
0
0
0
0
0
0
0
0
0
0
0
0
0
0
0
0
0
0
0
0
0
0
0
0
0
0
0
0
0
0
0
0
0
0
0
0
0
0
0
0
0
0
0
0
0
0
0
0
0
0
0
0
0
0
0
0
0
0
0
0
0
0
0
0
0
0
0
0
0
0
0
0
0
0
0
0
0
0
0
0
0
0
0
0
0
0
0
0
0
0
0
0
0
0
0
0
0
0
0
0
0
0
0
0
0
0
0
0
0
0
0
0
0
0
0
0
0
0
0
0
0
0
0
0
0
0
0
0
0
0
0
0
0
0
0
0
0
0
0
0
0
0
0
0
0
0
0
0
0
0
0
0
0
0
0
0
0
0
0
0
0
0
0
0
0
0
0
0
0
0
0
0
0
0
0
0
0
0
0
0
0
0
0
0
0
0
0
0
0
0
0
0
0
0
0
0
0
0
0
0
0
0
0
0
0
0
0
0
0
0
0
0
0
0
0
0
0
0
0
0
0
0
0
0
0
0
0
0
0
0
0
0
0
0
0
0
0
0
0
0
0
0
0
0
0
0
0
0
0
0
0
0
0
0
0
0
0
0
0
0
0
0
0
0
0
0
0
0
0
0
0
0
0
0
0
0
0
0
0
0
0
0
0
0
0
0
0
0
0
0
0
0
0
0
0
0
0
0
0
0
0
0
0
0
0
0
0
0
0
0
0
0
0
0
0
0
0
0
0
0
0
0
0
0
0
0
0
0
0
0
0
0
0
0
0
0
0
0
0
0
0
0
0
0
0
0
0
0
0
0
0
0
0
0
0
0
0
0
0
0
0
0
0
0
0
0
0
0
0
0
0
0
0
0
0
0
0
0
0
0
0
0
0
0
0
0
0
0
0
0
0
0
0
0
0
0
0
0
0
0
0
0
0
0
0
0
0
0
0
0
0
0
0
0
0
0
0
0
0
0
0
0
0
0
0
0
0
0
0
0
0
0
0
0
0
0
0
0
0
0
0
0
0
0
0
0
0
0
0
0
0
0
0
0
0
0
0
0
0
0
0
0
0
0
0
0
0
0
0
0
0
0
0
0
0
0
0
0
0
0
0
0
0
0
0
0
0
0
0
0
0
0
0
0
0
0
0
0
0
0
0
0
0
0
0
0
0
0
0
0
0
0
0
0
0
0
0
0
0
0
0
0
0
0
0
0
0
0
0
0
0
0
0
0
0
0
0
0
0
0
0
0
0
0
0
0
0
0
0
0
0
0
0
0
0
0
0
0
0
0
0
0
0
0
0
0
0
0
0
0
0
0
0
0
0
0
0
0
0
0
0
0
0
0
0
0
0
0
0
0
0
0
0
0
0
0
0
0
0
0
0
0
0
0
0
0
0
0
0
0
0
0
0
0
0
0
0
0
0
0
0
0
0
0
0
0
0
0
0
0
0
0
0
0
0
0
0
0
0
0
0
0
0
0
0
0
0
0
0
0
0
0
0
0
0
0
0
0
0
0
0
0
0
0
0
0
0
0
0
0
0
0
0
0
0
0
0
0
0
0
0
0
0
0
0
0
0
0
0
0
0
0
0
0
0
0
0
0
0
0
0
0
0
0
0
0
0
0
0
0
0
0
0
0
0
0
0
0
0
0
0
0
0
0
0
0
0
0
0
0
0
0
0
0
0
0
0
0
0
0
0
0
0
0
0
0
0
0
0
0
0
0
0
0
0
0
0
0
0
0
0
0
0
0
0
0
0
0
0
0
0
0
0
0
0
0
0
0
0
0
0
0
0
0
0
0
0
0
0
0
0
0
0
0
0
0
0
0
0
0
0
0
0
0
0
0
0
0
0
0
0
0
0
0
0
0
0
0
0
0
0
0
0
0
0
0
0
0
0
0
0
0
0
0
0
0
0
0
0
0
0
0
0
0
0
0
0
0
0
0
0
0
0
0
0
0
0
0
0
0
0
0
0
0
0
0
0
0
0
0
0
0
0
0
0
0
0
0
0
0
0
0
0
0
0
0
0
0
0
0
0
0
0
0
0
0
0
0
0
0
0
0
0
0
0
0
0
0
0
0
0
0
0
0
0
0
0
0
0
0
0
0
0
0
0
0
0
0
0
0
0
0
0
0
0
0
0
0
0
0
0
0
0
0
0
0
0
0
0
0
0
0
0
0
0
0
0
0
0
0
0
0
0
0
0
0
0
0
0
0
0
0
0
0
0
0
0
0
0
0
0
0
0
0
0
0
0
0
0
0
0
0
0
0
0
0
0
0
0
0
0
0
0
0
0
0
0
0
0
0
0
0
0
0
0
0
0
0
0
0
0
0
0
0
0
0
0
0
0
0
0
0
0
0
0
0
0
0
0
0
0
0
0
0
0
0
0
0
0
0
0
0
0
0
0
0
0
0
0
0
0
0
0
0
0
0
0
0
0
0
0
0
0
0
0
0
0
0
0
0
0
0
0
0
0
0
0
0
0
0
0
0
0
0
0
0
0
0
0
0
0
0
0
0
0
0
0
0
0
0
0
0
0
0
0
0
0
0
0
0
0
0
0
0
0
0
0
0
0
0
0
0
0
0
0
0
0
0
0
0
0
0
0
0
0
0
0
0
0
0
0
0
0
0
0
0
0
0
0
0
0
0
0
0
0
0
0
0
0
0
0
0
0
0
0
0
0
0
0
0
0
0
0
0
0
0
0
0
0
0
0
0
0
0
0
0
0
0
0
0
0
0
0
0
0
0
0
0
0
0
0
0
0
0
0
0
0
0
0
0
0
0
0
0
0
0
0
0
0
0
0
0
0
0
0
0
0
0
0
0
0
0
0
0
0
0
0
0
0
0
0
0
0
0
0
0
0
0
0
0
0
0
0
0
0
0
0
0
0
0
0
0
0
0
0
0
0
0
0
0
0
0
0
0
0
0
0
0
0
0
0
0
0
0
0
0
0
0
0
0
0
0
0
0
0
0
0
0
0
0
0
0
0
0
0
0
0
0
0
0
0
0
0
0
0
0
0
0
0
0
0
0
0
0
0
0
0
0
0
0
0
0
0
0
0
0
0
0
0
0
0
0
0
0
0
0
0
0
0
0
0
0
0
0
0
0
0
0
0
0
0
0
0
0
0
0
0
0
0
0
0
0
0
0
0
0
0
0
0
0
0
0
0
0
0
0
0
0
0
0
0
0
0
0
0
0
0
0
0
0
0
0
0
0
0
0
0
0
0
0
0
0
0
0
0
0
0
0
0
0
0
0
0
0
0
0
0
0
0
0
0
0
0
0
0
0
0
0
0
0
0
0
0
0
0
0
0
0
0
0
0
0
0
0
0
0
0
0
0
0
0
0
0
0
0
0
0
0
0
0
0
0
0
0
0
0
0
0
0
0
0
0
0
0
0
0
0
0
0
0
0
0
0
0
0
0
0
0
0
0
0
0
0
0
0
0
0
0
0
1.22574608e-292
0
6.19160183e-284
0
1.61108966e-275
0
2.15944516e-267
0
1.49096197e-259
0
5.30270981e-252
0
9.71534307e-245
0
9.17069759e-238
0
4.46117059e-231
0
1.11901953e-224
0
1.44891651e-218
0
9.70485673e-213
0
3.37636469e-207
0
4.35954222e-203
0
2.97158699e-199
0
1.41051754e-195
0
5.22001534e-192
0
1.60032646e-188
0
4.21935402e-185
0
9.81123932e-182
0
2.04858141e-178
0
3.89275672e-175
0
6.80178119e-172
0
1.10178482e-168
0
1.66549421e-165
0
2.36217748e-162
0
3.15763616e-159
0
3.99337561e-156
0
4.79345435e-153
0
5.47632634e-150
0
5.9689764e-147
0
6.21986354e-144
0
6.20751337e-141
0
5.94288813e-138
0
5.46542e-135
0
4.83421076e-132
0
4.1168946e-129
4.95942174e-131
3.37882562e-126
1.52760572e-127
2.67468901e-123
2.03555164e-124
2.04365214e-120
2.1469578e-121
1.50813716e-117
1.99604882e-118
1.07550346e-114
1.70197631e-115
7.4151961e-112
1.35676724e-112
4.94474985e-109
1.02215946e-109
3.19020114e-106
7.32660879e-107
1.99185087e-103
5.01862657e-104
1.20377833e-100
3.29532676e-101
7.04282615e-98
2.07871813e-98
3.98926086e-95
1.26173051e-95
2.18772137e-92
7.37758422e-93
1.16152795e-89
4.15910851e-90
5.9698595e-87
2.26191829e-87
2.96980783e-84
1.18715455e-84
1.42964761e-81
6.01422577e-82
6.658024e-79
2.94115512e-79
2.99866594e-76
1.388313e-76
1.3055625e-73
6.32411741e-74
5.49215001e-71
2.77917714e-71
2.23108415e-68
1.17773345e-68
8.74650415e-66
4.81008569e-66
3.30653521e-63
1.89209393e-63
1.20437475e-60
7.16261612e-61
4.22259328e-58
2.60697585e-58
1.42347079e-55
9.11324469e-56
4.60816364e-53
3.0559376e-53
1.43054699e-50
9.8160762e-51
4.25178601e-48
3.01544128e-48
1.20763897e-45
8.842562e-46
3.27103035e-43
2.4699848e-43
8.4287062e-41
6.55589248e-41
2.06037911e-38
1.64874189e-38
4.76235493e-36
3.91571971e-36
1.03684322e-33
8.74798637e-34
2.11658296e-31
1.82987844e-31
4.02903331e-29
3.56391464e-29
7.10391663e-27
6.41900471e-27
1.15056887e-24
1.06018468e-24
1.69380904e-22
1.58867454e-22
2.23558653e-20
2.13007159e-20
2.59698105e-18
2.50773091e-18
2.58705461e-16
2.52500395e-16
2.12577095e-14
2.08874183e-14
1.35190773e-12
1.33235199e-12
5.32321085e-10
5.75885733e-10
3.06101158
5.79863225
7.10831033
5.97563352
0.634350552
0.525530446
0.0610804223
0.0583334961
0.00590063345
0.00585511399
0.000516885734
0.00051668071
4.67040353e-05
4.72203374e-05
1.07860176e-05
1.07860066e-05
8.2372901e-06
8.23772317e-06
8.07513306e-06
8.07519793e-06
8.06563691e-06
8.06564863e-06
8.06512633e-06
8.06512648e-06
8.06510051e-06
8.06510288e-06
8.06510442e-06
8.06510243e-06
8.06509471e-06
8.0651113e-06
8.06509132e-06
8.06509641e-06
8.06509286e-06
8.06511446e-06
8.06508912e-06
8.0651007e-06
8.06509986e-06
8.06510056e-06
8.06509433e-06
8.06509634e-06
8.06510508e-06
8.06509909e-06
8.06510366e-06
8.06509044e-06
8.06510274e-06
8.06509462e-06
8.06510952e-06
8.06510049e-06
8.06510052e-06
8.06509426e-06
8.0651042e-06
8.06509865e-06
8.06510014e-06
8.06510348e-06
8.06510045e-06
8.06509794e-06
8.06509744e-06
8.06510334e-06
8.0651073e-06
8.06509171e-06
8.06510348e-06
8.06509796e-06
8.06510009e-06
8.06510131e-06
8.06509703e-06
8.06509767e-06
8.06510803e-06
8.06509413e-06
8.06509945e-06
8.06508827e-06
8.06511045e-06
8.06508392e-06
8.06510593e-06
8.06509244e-06
8.06509992e-06
8.06509786e-06
8.06510308e-06
8.06510107e-06
8.06510345e-06
8.06511031e-06
8.06509945e-06
8.06510178e-06
8.06510705e-06
8.06510434e-06
8.06510411e-06
8.06510201e-06
8.06510167e-06
8.06510295e-06
8.06510248e-06
8.06509497e-06
8.0651091e-06
8.06510494e-06
8.06509706e-06
8.06511454e-06
8.06510168e-06
8.06510651e-06
8.06510095e-06
8.0651103e-06
8.06511076e-06
8.065095e-06
8.06511145e-06
8.06510581e-06
8.06510578e-06
8.06510394e-06
8.06510332e-06
8.06509949e-06
8.06510316e-06
8.06511226e-06
8.06510345e-06
8.06509541e-06
8.0651121e-06
8.06508839e-06
8.06511155e-06
8.06509547e-06
8.06510366e-06
8.06510214e-06
8.06510488e-06
8.06510508e-06
8.06510217e-06
8.06510869e-06
8.06510281e-06
8.06510374e-06
8.06510704e-06
8.06510492e-06
8.06510743e-06
8.06510006e-06
8.06510286e-06
8.06510119e-06
8.06510995e-06
8.065106e-06
8.06510895e-06
8.06509687e-06
8.06511293e-06
8.06511913e-06
8.0650982e-06
8.06511558e-06
8.06510344e-06
8.06510358e-06
8.06511312e-06
8.06509963e-06
8.06511178e-06
8.06510358e-06
8.06511108e-06
8.06510399e-06
8.06510148e-06
8.06511064e-06
8.06510569e-06
8.06511065e-06
8.06510725e-06
8.06511159e-06
8.06510352e-06
8.06511233e-06
8.06511352e-06
8.06511034e-06
8.06510938e-06
8.06511436e-06
8.06510414e-06
8.06511381e-06
8.06510739e-06
8.06510627e-06
8.06510844e-06
8.06510918e-06
8.06511156e-06
8.0651051e-06
8.06511507e-06
8.06511239e-06
8.06511425e-06
8.06510798e-06
8.06511187e-06
8.06510456e-06
8.06510906e-06
8.06510084e-06
8.06510859e-06
8.06510655e-06
8.06510268e-06
8.0651071e-06
8.06511952e-06
8.06510751e-06
8.06510876e-06
8.0651263e-06
8.06511829e-06
8.06512348e-06
8.06511176e-06
8.06511259e-06
8.06510974e-06
8.06511314e-06
8.06511897e-06
8.06511005e-06
8.06511888e-06
8.06511141e-06
8.06512016e-06
8.06510993e-06
8.06511781e-06
8.06511808e-06
8.0651216e-06
8.06510885e-06
8.06511981e-06
8.06510917e-06
8.0651212e-06
8.06510027e-06
8.06512302e-06
8.06511263e-06
8.06510973e-06
8.06512354e-06
8.0651118e-06
8.06511427e-06
8.06511673e-06
8.06511851e-06
8.06511901e-06
8.06511367e-06
8.06512518e-06
8.06510209e-06
8.06512597e-06
8.06511841e-06
8.065118e-06
8.06511865e-06
8.06511723e-06
8.06511802e-06
8.0651199e-06
8.06513036e-06
8.06511041e-06
8.065124e-06
8.06511632e-06
8.0651173e-06
8.06511801e-06
8.06511291e-06
8.0651201e-06
8.0651165e-06
8.0651209e-06
8.06512124e-06
8.06511832e-06
8.0651176e-06
8.06512558e-06
8.06511645e-06
8.06512591e-06
8.06512351e-06
8.06512638e-06
8.0651252e-06
8.06511815e-06
8.06512737e-06
8.0651272e-06
8.06512355e-06
8.06511897e-06
8.06512252e-06
8.06513109e-06
8.06511946e-06
8.06511862e-06
8.06512215e-06
8.0651198e-06
8.06512182e-06
8.06512176e-06
8.06512883e-06
8.06512893e-06
8.06512622e-06
8.06511605e-06
8.06512608e-06
8.06512875e-06
8.06512478e-06
8.0651323e-06
8.06511825e-06
8.06513326e-06
8.06513097e-06
8.06513395e-06
8.065118e-06
8.06514235e-06
8.06512271e-06
8.06512256e-06
8.06512649e-06
8.06511983e-06
8.06512112e-06
8.06513007e-06
8.06513348e-06
8.06512362e-06
8.06514141e-06
8.06512195e-06
8.06514052e-06
8.0651198e-06
8.06513434e-06
8.06513155e-06
8.06512915e-06
8.06513711e-06
8.06511227e-06
8.06513193e-06
8.06513344e-06
8.06513449e-06
8.06512871e-06
8.06512205e-06
8.06513112e-06
8.06512608e-06
8.06513433e-06
8.06512036e-06
8.06512758e-06
8.06512887e-06
8.06512187e-06
8.06513435e-06
8.06512422e-06
8.06512728e-06
8.06513106e-06
8.06514101e-06
8.06513099e-06
8.06513645e-06
8.06512998e-06
8.06513011e-06
8.06513035e-06
8.06513488e-06
8.06513282e-06
8.06514099e-06
8.06512836e-06
8.06513839e-06
8.0651323e-06
8.06513732e-06
8.06513024e-06
8.06512287e-06
8.0651411e-06
8.06512814e-06
8.06513615e-06
8.06514522e-06
8.06512233e-06
8.06513614e-06
8.06513094e-06
8.06513606e-06
8.06513831e-06
8.0651277e-06
8.06513523e-06
8.06512753e-06
8.06513668e-06
8.06513161e-06
8.06513627e-06
8.06513245e-06
8.06513215e-06
8.06513606e-06
8.06513944e-06
8.06512464e-06
8.06512734e-06
8.06513423e-06
8.06513e-06
8.0651383e-06
8.06512607e-06
8.06514023e-06
8.06512785e-06
8.06514216e-06
8.06513352e-06
8.06513639e-06
8.06514249e-06
8.06513085e-06
8.06514102e-06
8.06512911e-06
8.06514344e-06
8.06513374e-06
8.0651347e-06
8.06513037e-06
8.0651369e-06
8.06513778e-06
8.06512772e-06
8.06514535e-06
8.06513004e-06
8.0651412e-06
8.06513479e-06
8.06514162e-06
8.06513415e-06
8.06513467e-06
8.06512941e-06
8.0651378e-06
8.06513542e-06
8.06513538e-06
8.06514076e-06
8.06514391e-06
8.06514098e-06
8.06514038e-06
8.06513772e-06
8.0651435e-06
8.06514326e-06
8.06513192e-06
8.06514853e-06
8.06513179e-06
8.0651403e-06
8.06513664e-06
8.06513098e-06
8.06513925e-06
8.06513219e-06
8.06513987e-06
8.06513448e-06
8.06513546e-06
8.06513197e-06
8.06513437e-06
8.06513445e-06
8.06513181e-06
8.0651347e-06
8.06513576e-06
8.06513483e-06
8.06513889e-06
8.06513467e-06
8.06513604e-06
8.06513573e-06
8.06512925e-06
8.06514675e-06
8.0651349e-06
8.06514003e-06
8.06513145e-06
8.06514213e-06
8.06512843e-06
8.06513735e-06
8.06513373e-06
8.06514886e-06
8.06513113e-06
8.06514174e-06
8.0651266e-06
8.06514034e-06
8.06513523e-06
8.06514464e-06
8.06513964e-06
8.06513951e-06
8.06513632e-06
8.06513134e-06
8.06514235e-06
8.06513003e-06
8.06514198e-06
8.06513454e-06
8.06513292e-06
8.06513576e-06
8.06514222e-06
8.06513364e-06
8.06513466e-06
8.06513596e-06
8.06514195e-06
8.06513213e-06
8.06513521e-06
8.0651472e-06
8.06513487e-06
8.06514539e-06
8.06514244e-06
8.06514451e-06
8.06513711e-06
8.06514129e-06
8.06514328e-06
8.06514027e-06
8.06513767e-06
8.06514196e-06
8.06513715e-06
8.0651398e-06
8.06514071e-06
8.0651372e-06
8.06513503e-06
8.06513522e-06
8.06514142e-06
8.06513569e-06
8.06514604e-06
8.06513537e-06
8.06513885e-06
8.06514811e-06
8.06512825e-06
8.06513245e-06
8.06514195e-06
8.06512945e-06
8.06514104e-06
8.06514236e-06
8.06513819e-06
8.06513239e-06
8.06514192e-06
8.06514051e-06
8.06512755e-06
8.06514114e-06
8.0651371e-06
8.0651323e-06
8.06513374e-06
8.06513053e-06
8.06514911e-06
8.06512784e-06
8.06514562e-06
8.06513919e-06
8.0651384e-06
8.0651383e-06
8.06513337e-06
8.06514036e-06
8.06513587e-06
8.06514208e-06
8.06513926e-06
8.06513556e-06
8.06513061e-06
8.06513765e-06
8.0651274e-06
8.06513765e-06
8.06513721e-06
8.06514005e-06
8.0651408e-06
8.06512998e-06
8.06514534e-06
8.06513482e-06
8.06514267e-06
8.06513277e-06
8.06513456e-06
8.0651402e-06
8.06514395e-06
8.06514132e-06
8.06513663e-06
8.06513409e-06
8.06514219e-06
8.06513052e-06
8.06514629e-06
8.06513219e-06
8.06514449e-06
8.06512551e-06
8.06513545e-06
8.06514317e-06
8.06513729e-06
8.06514347e-06
8.06513509e-06
8.06513841e-06
8.06513457e-06
8.06513554e-06
8.06514062e-06
8.06513323e-06
8.06513764e-06
8.06513607e-06
8.06513861e-06
8.06513904e-06
8.06513516e-06
8.06513622e-06
8.06513757e-06
8.06513621e-06
8.06513695e-06
8.06513778e-06
8.06513711e-06
8.0651369e-06
8.06513654e-06
8.06513627e-06
8.06513682e-06
8.0651371e-06
8.06513683e-06
8.06513734e-06
8.06513683e-06
8.06513693e-06
8.06513685e-06
8.06513689e-06
8.06513733e-06
8.06513698e-06
8.06513674e-06
8.0651367e-06
8.06513704e-06
8.06513695e-06
8.06513694e-06
8.06513699e-06
8.06513694e-06
8.0651369e-06
8.065137e-06
8.06513696e-06
8.06513704e-06
8.06513676e-06
8.065137e-06
8.06513687e-06
8.06513688e-06
8.06513696e-06
8.06513693e-06
8.06513693e-06
8.06513703e-06
8.06513686e-06
8.06513693e-06
8.0651368e-06
8.06513687e-06
8.06513698e-06
8.06513698e-06
8.06513698e-06
8.06513696e-06
8.06513676e-06
8.06513699e-06
8.06513689e-06
8.0651369e-06
8.06513694e-06
8.06513686e-06
8.0651371e-06
8.06513694e-06
8.065137e-06
8.06513689e-06
8.06513687e-06
8.06513699e-06
8.06513685e-06
8.06513686e-06
8.06513696e-06
)
;

boundaryField
{
    closed
    {
        type            calculated;
        value           uniform 0;
    }
    open
    {
        type            calculated;
        value           uniform 0;
    }
    sides
    {
        type            empty;
    }
}


// ************************************************************************* //
