/*--------------------------------*- C++ -*----------------------------------*\
| =========                 |                                                 |
| \\      /  F ield         | OpenFOAM: The Open Source CFD Toolbox           |
|  \\    /   O peration     | Version:  2206                                  |
|   \\  /    A nd           | Website:  www.openfoam.com                      |
|    \\/     M anipulation  |                                                 |
\*---------------------------------------------------------------------------*/
FoamFile
{
    version     2.0;
    format      ascii;
    arch        "LSB;label=32;scalar=64";
    class       volScalarField;
    location    "4e-06";
    object      p;
}
// * * * * * * * * * * * * * * * * * * * * * * * * * * * * * * * * * * * * * //

dimensions      [1 -1 -2 0 0 0 0];

internalField   nonuniform List<scalar> 
3183
(
101325
101325
101325
101325
101325
101325
101325
101325
101325
101325
101325
101325
101325
101325
101325
101325
101325
101325
101325
101325
101325
101325
101325
101325
101325
101325
101325
101325
101325
101325
101325
101325
101325
101325
101325
101325
101325
101325
101325
101325
101325
101325
101325
101325
101325
101325
101325
101325
101325
101325
101325
101325
101325
101325
101325
101325
101325
101325
101325
101325
101325
101325
101325
101325
101325
101325
101325
101325
101325
101325
101325
101325
101325
101325
101325
101325
101325
101325
101325
101325
101325
101325
101325
101325
101325
101325
101325
101325
101325
101325
101325
101325
101325
101325
101325
101325
101325
101325
101325
101325
101325
101325
101325
101325
101325
101325
101325
101325
101325
101325
101325
101325
101325
101325
101325
101325
101325
101325
101325
101325
101325
101325
101325
101325
101325
101325
101325
101325
101325
101325
101325
101325
101325
101325
101325
101325
101325
101325
101325
101325
101325
101325
101325
101325
101325
101325
101325
101325
101325
101325
101325
101325
101325
101325
101325
101325
101325
101325
101325
101325
101325
101325
101325
101325
101325
101325
101325
101325
101325
101325
101325
101325
101325
101325
101325
101325
101325
101325
101325
101325
101325
101325
101325
101325
101325
101325
101325
101325
101325
101325
101325
101325
101325
101325
101325
101325
101325
101325
101325
101325
101325
101325
101325
101325
101325
101325
101325
101325
101325
101325
101325
101325
101325
101325
101325
101325
101325
101325
101325
101325
101325
101325
101325
101325
101325
101325
101325
101325
101325
101325
101325
101325
101325
101325
101325
101325
101325
101325
101325
101325
101325
101325
101325
101325
101325
101325
101325
101325
101325
101325
101325
101325
101325
101325
101325
101325
101325
101325
101325
101325
101325
101325
101325
101325
101325
101325
101325
101325
101325
101325
101325
101325
101325
101325
101325
101325
101325
101325
101325
101325
101325
101325
101325
101325
101325
101325
101325
101325
101325
101325
101325
101325
101325
101325
101325
101325
101325
101325
101325
101325
101325
101325
101325
101325
101325
101325
101325
101325
101325
101325
101325
101325
101325
101325
101325
101325
101325
101325
101325
101325
101325
101325
101325
101325
101325
101325
101325
101325
101325
101325
101325
101325
101325
101325
101325
101325
101325
101325
101325
101325
101325
101325
101325
101325
101325
101325
101325
101325
101325
101325
101325
101325
101325
101325
101325
101325
101325
101325
101325
101325
101325
101325
101325
101325
101325
101325
101325
101325
101325
101325
101325
101325
101325
101325
101325
101325
101325
101325
101325
101325
101325
101325
101325
101325
101325
101325
101325
101325
101325
101325
101325
101325
101325
101325
101325
101325
101325
101325
101325
101325
101325
101325
101325
101325
101325
101325
101325
101325
101325
101325
101325
101325
101325
101325
101325
101325
101325
101325
101325
101325
101325
101325
101325
101325
101325
101325
101325
101325
101325
101325
101325
101325
101325
101325
101325
101325
101325
101325
101325
101325
101325
101325
101325
101325
101325
101325
101325
101325
101325
101325
101325
101325
101325
101325
101325
101325
101325
101325
101325
101325
101325
101325
101325
101325
101325
101325
101325
101325
101325
101325
101325
101325
101325
101325
101325
101325
101325
101325
101325
101325
101325
101325
101325
101325
101325
101325
101325
101325
101325
101325
101325
101325
101325
101325
101325
101325
101325
101325
101325
101325
101325
101325
101325
101325
101325
101325
101325
101325
101325
101325
101325
101325
101325
101325
101325
101325
101325
101325
101325
101325
101325
101325
101325
101325
101325
101325
101325
101325
101325
101325
101325
101325
101325
101325
101325
101325
101325
101325
101325
101325
101325
101325
101325
101325
101325
101325
101325
101325
101325
101325
101325
101325
101325
101325
101325
101325
101325
101325
101325
101325
101325
101325
101325
101325
101325
101325
101325
101325
101325
101325
101325
101325
101325
101325
101325
101325
101325
101325
101325
101325
101325
101325
101325
101325
101325
101325
101325
101325
101325
101325
101325
101325
101325
101325
101325
101325
101325
101325
101325
101325
101325
101325
101325
101325
101325
101325
101325
101325
101325
101325
101325
101325
101325
101325
101325
101325
101325
101325
101325
101325
101325
101325
101325
101325
101325
101325
101325
101325
101325
101325
101325
101325
101325
101325
101325
101325
101325
101325
101325
101325
101325
101325
101325
101325
101325
101325
101325
101325
101325
101325
101325
101325
101325
101325
101325
101325
101325
101325
101325
101325
101325
101325
101325
101325
101325
101325
101325
101325
101325
101325
101325
101325
101325
101325
101325
101325
101325
101325
101325
101325
101325
101325
101325
101325
101325
101325
101325
101325
101325
101325
101325
101325
101325
101325
101325
101325
101325
101325
101325
101325
101325
101325
101325
101325
101325
101325
101325
101325
101325
101325
101325
101325
101325
101325
101325
101325
101325
101325
101325
101325
101325
101325
101325
101325
101325
101325
101325
101325
101325
101325
101325
101325
101325
101325
101325
101325
101325
101325
101325
101325
101325
101325
101325
101325
101325
101325
101325
101325
101325
101325
101325
101325
101325
101325
101325
101325
101325
101325
101325
101325
101325
101325
101325
101325
101325
101325
101325
101325
101325
101325
101325
101325
101325
101325
101325
101325
101325
101325
101325
101325
101325
101325
101325
101325
101325
101325
101325
101325
101325
101325
101325
101325
101325
101325
101325
101325
101325
101325
101325
101325
101325
101325
101325
101325
101325
101325
101325
101325
101325
101325
101325
101325
101325
101325
101325
101325
101325
101325
101325
101325
101325
101325
101325
101325
101325
101325
101325
101325
101325
101325
101325
101325
101325
101325
101325
101325
101325
101325
101325
101325
101325
101325
101325
101325
101325
101325
101325
101325
101325
101325
101325
101325
101325
101325
101325
101325
101325
101325
101325
101325
101325
101325
101325
101325
101325
101325
101325
101325
101325
101325
101325
101325
101325
101325
101325
101325
101325
101325
101325
101325
101325
101325
101325
101325
101325
101325
101325
101325
101325
101325
101325
101325
101325
101325
101325
101325
101325
101325
101325
101325
101325
101325
101325
101325
101325
101325
101325
101325
101325
101325
101325
101325
101325
101325
101325
101325
101325
101325
101325
101325
101325
101325
101325
101325
101325
101325
101325
101325
101325
101325
101325
101325
101325
101325
101325
101325
101325
101325
101325
101325
101325
101325
101325
101325
101325
101325
101325
101325
101325
101325
101325
101325
101325
101325
101325
101325
101325
101325
101325
101325
101325
101325
101325
101325
101325
101325
101325
101325
101325
101325
101325
101325
101325
101325
101325
101325
101325
101325
101325
101325
101325
101325
101325
101325
101325
101325
101325
101325
101325
101325
101325
101325
101325
101325
101325
101325
101325
101325
101325
101325
101325
101325
101325
101325
101325
101325
101325
101325
101325
101325
101325
101325
101325
101325
101325
101325
101325
101325
101325
101325
101325
101325
101325
101325
101325
101325
101325
101325
101325
101325
101325
101325
101325
101325
101325
101325
101325
101325
101325
101325
101325
101325
101325
101325
101325
101325
101325
101325
101325
101325
101325
101325
101325
101325
101325
101325
101325
101325
101325
101325
101325
101325
101325
101325
101325
101325
101325
101325
101325
101325
101325
101325
101325
101325
101325
101325
101325
101325
101325
101325
101325
101325
101325
101325
101325
101325
101325
101325
101325
101325
101325
101325
101325
101325
101325
101325
101325
101325
101325
101325
101325
101325
101325
101325
101325
101325
101325
101325
101325
101325
101325
101325
101325
101325
101325
101325
101325
101325
101325
101325
101325
101325
101325
101325
101325
101325
101325
101325
101325
101325
101325
101325
101325
101325
101325
101325
101325
101325
101325
101325
101325
101325
101325
101325
101325
101325
101325
101325
101325
101325
101325
101325
101325
101325
101325
101325
101325
101325
101325
101325
101325
101325
101325
101325
101325
101325
101325
101325
101325
101325
101325
101325
101325
101325
101325
101325
101325
101325
101325
101325
101325
101325
101325
101325
101325
101325
101325
101325
101325
101325
101325
101325
101325
101325
101325
101325
101325
101325
101325
101325
101325
101325
101325
101325
101325
101325
101325
101325
101325
101325
101325
101325
101325
101325
101325
101325
101325
101325
101325
101325
101325
101325
101325
101325
101325
101325
101325
101325
101325
101325
101325
101325
101325
101325
101325
101325
101325
101325
101325
101325
101325
101325
101325
101325
101325
101325
101325
101325
101325
101325
101325
101325
101325
101325
101325
101325
101325
101325
101325
101325
101325
101325
101325
101325
101325
101325
101325
101325
101325
101325
101325
101325
101325
101325
101325
101325
101325
101325
101325
101325
101325
101325
101325
101325
101325
101325
101325
101325
101325
101325
101325
101325
101325
101325
101325
101325
101325
101325
101325
101325
101325
101325
101325
101325
101325
101325
101325
101325
101325
101325
101325
101325
101325
101325
101325
101325
101325
101325
101325
101325
101325
101325
101325
101325
101325
101325
101325
101325
101325
101325
101325
101325
101325
101325
101325
101325
101325
101325
101325
101325
101325
101325
101325
101325
101325
101325
101325
101325
101325
101325
101325
101325
101325
101325
101325
101325
101325
101325
101325
101325
101325
101325
101325
101325
101325
101325
101325
101325
101325
101325
101325
101325
101325
101325
101325
101325
101325
101325
101325
101325
101325
101325
101325
101325
101325
101325
101325
101325
101325
101325
101325
101325
101325
101325
101325
101325
101325
101325
101325
101325
101325
101325
101325
101325
101325
101325
101325
101325
101325
101325
101325
101325
101325
101325
101325
101325
101325
101325
101325
101325
101325
101325
101325
101325
101325
101325
101325
101325
101325
101325
101325
101325
101325
101325
101325
101325
101325
101325
101325
101325
101325
101325
101325
101325
101325
101325
101325
101325
101325
101325
101325
101325
101325
101325
101325
101325
101325
101325
101325
101325
101325
101325
101325
101325
101325
101325
101325
101325
101325
101325
101325
101325
101325
101325
101325
101325
101325
101325
101325
101325
101325
101325
101325
101325
101325
101325
101325
101325
101325
101325
101325
101325
101325
101325
101325
101325
101325
101325
101325
101325
101325
101325
101325
101325
101325
101325
101325
101325
101325
101325
101325
101325
101325
101325
101325
101325
101325
101325
101325
101325
101325
101325
101325
101325
101325
101325
101325
101325
101325
101325
101325
101325
101325
101325
101325
101325
101325
101325
101325
101325
101325
101325
101325
101325
101325
101325
101325
101325
101325
101325
101325
101325
101325
101325
101325
101325
101325
101325
101325
101325
101325
101325
101325
101325
101325
101325
101325
101325
101325
101325
101325
101325
101325
101325
101325
101325
101325
101325
101325
101325
101325
101325
101325
101325
101325
101325
101325
101325
101325
101325
101325
101325
101325
101325
101325
101325
101325
101325
101325
101325
101325
101325
101325
101325
101325
101325
101325
101325
101325
101325
101325
101325
101325
101325
101325
101325
101325
101325
101325
101325
101325
101325
101325
101325
101325
101325
101325
101325
101325
101325
101325
101325
101325
101325
101325
101325
101325
101325
101325
101325
101325
101325
101325
101325
101325
101325
101325
101325
101325
101325
101325
101325
101325
101325
101325
101325
101325
101325
101325
101325
101325
101325
101325
101325
101325
101325
101325
101325
101325
101325
101325
101325
101325
101325
101325
101325
101325
101325
101325
101325
101325
101325
101325
101325
101325
101325
101325
101325
101325
101325
101325
101325
101325
101325
101325
101325
101325
101325
101325
101325
101325
101325
101325
101325
101325
101325
101325
101325
101325
101325
101325
101325
101325
101325
101325
101325
101325
101325
101325
101325
101325
101325
101325
101325
101325
101325
101325
101325
101325
101325
101325
101325
101325
101325
101325
101325
101325
101325
101325
101325
101325
101325
101325
101325
101325
101325
101325
101325
101325
101325
101325
101325
101325
101325
101325
101325
101325
101325
101325
101325
101325
101325
101325
101325
101325
101325
101325
101325
101325
101325
101325
101325
101325
101325
101325
101325
101325
101325
101325
101325
101325
101325
101325
101325
101325
101325
101325
101325
101325
101325
101325
101325
101325
101325
101325
101325
101325
101325
101325
101325
101325
101325
101325
101325
101325
101325
101325
101325
101325
101325
101325
101325
101325
101325
101325
101325
101325
101325
101325
101325
101325
101325
101325
101325
101325
101325
101325
101325
101325
101325
101325
101325
101325
101325
101325
101325
101325
101325
101325
101325
101325
101325
101325
101325
101325
101325
101325
101325
101325
101325
101325
101325
101325
101325
101325
101325
101325
101325
101325
101325
101325
101325
101325
101325
101325
101325
101325
101325
101325
101325
101325
101325
101325
101325
101325
101325
101325
101325
101325
101325
101325
101325
101325
101325
101325
101325
101325
101325
101325
101325
101325
101325
101325
101325
101325
101325
101325
101325
101325
101325
101325
101325
101325
101325
101325
101325
101325
101325
101325
101325
101325
101325
101325
101325
101325
101325
101325
101325
101325
101325
101325
101325
101325
101325
101325
101325
101325
101325
101325
101325
101325
101325
101325
101325
101325
101325
101325
101325
101325
101325
101325
101325
101325
101325
101325
101325
101325
101325
101325
101325
101325
101325
101325
101325
101325
101325
101325
101325
101325
101325
101325
101325
101325
101325
101325
101325
101325
101325
101325
101325
101325
101325
101325
101325
101325
101325
101325
101325
101325
101325
101325
101325
101325
101325
101325
101325
101325
101325
101325
101325
101325
101325
101325
101325
101325
101325
101325
101325
101325
101325
101325
101325
101325
101325
101325
101325
101325
101325
101325
101325
101325
101325
101325
101325
101325
101325
101325
101325
101325
101325
101325
101325
101325
101325
101325
101325
101325
101325
101325
101325
101325
101325
101325
101325
101325
101325
101325
101325
101325
101325
101325
101325
101325
101325
101325
101325
101325
101325
101325
101325
101325
101325
101325
101325
101325
101325
101325
101325
101325
101325
101325
101325
101325
101325
101325
101325
101325
101325
101325
101325
101325
101325
101325
101325
101325
101325
101325
101325
101325
101325
101325
101325
101325
101325
101325
101325
101325
101325
101325
101325
101325
101325
101325
101325
101325
101325
101325
101325
101325
101325
101325
101325
101325
101325
101325
101325
101325
101325
101325
101325
101325
101325
101325
101325
101325
101325
101325
101325
101325
101325
101325
101325
101325
101325
101325
101325
101325
101325
101325
101325
101325
101325
101325
101325
101325
101325
101325
101325
101325
101325
101325
101325
101325
101325
101325
101325
101325
101325
101325
101325
101325
101325
101325
101325
101325
101325
101325
101325
101325
101325
101325
101325
101325
101325
101325
101325
101325
101325
101325
101325
101325
101325
101325
101325
101325
101325
101325
101325
101325
101325
101325
101325
101325
101325
101325
101325
101325
101325
101325
101325
101325
101325
101325
101325
101325
101325
101325
101325
101325
101325
101325
101325
101325
101325
101325
101325
101325
101325
101325
101325
101325
101325
101325
101325
101325
101325
101325
101325
101325
101325
101325
101325
101325
101325
101325
101325
101325
101325
101325
101325
101325
101325
101325
101325
101325
101325
101325
101325
101325
101325
101325
101325
101325
101325
101325
101325
101325
101325
101325
101325
101325
101325
101325
101325
101325
101325
101325
101325
101325
101325
101325
101325
101325
101325
101325
101325
101325
101325
101325
101325
101325
101325
101325
101325
101325
101325
101325
101325
101325
101325
101325
101325
101325
101325
101325
101325
101325
101325
101325
101325
101325
101325
101325
101325
101325
101325
101325
101325
101325
101325
101325
101325
101325
101325
101325
101325
101325
101325
101325
101325
101325
101325
101325
101325
101325
101324.999
101324.999
101324.999
101324.999
101324.999
101324.999
101324.999
101324.999
101324.999
101324.999
101324.999
101324.999
101324.998
101324.998
101324.998
101324.998
101324.998
101324.997
101324.997
101324.997
101324.997
101324.996
101324.996
101324.996
101324.995
101324.995
101324.994
101324.994
101324.993
101324.993
101324.992
101324.991
101324.99
101324.989
101324.988
101324.987
101324.986
101324.985
101324.984
101324.982
101324.98
101324.979
101324.977
101324.975
101324.972
101324.97
101324.967
101324.964
101324.961
101324.958
101324.954
101324.95
101324.946
101324.941
101324.936
101324.931
101324.925
101324.919
101324.912
101324.905
101324.897
101324.888
101324.879
101324.869
101324.858
101324.846
101324.834
101324.82
101324.806
101324.79
101324.774
101324.756
101324.736
101324.716
101324.693
101324.67
101324.644
101324.617
101324.587
101324.556
101324.522
101324.486
101324.448
101324.406
101324.363
101324.316
101324.265
101324.212
101324.155
101324.094
101324.03
101323.961
101323.888
101323.81
101323.727
101323.639
101323.546
101323.447
101323.342
101323.23
101323.112
101322.988
101322.856
101322.716
101322.568
101322.413
101322.248
101322.075
101321.892
101321.699
101321.497
101321.283
101321.059
101320.824
101320.576
101320.317
101320.045
101319.76
101319.462
101319.151
101318.825
101318.485
101318.129
101317.759
101317.374
101316.972
101316.554
101316.121
101315.67
101315.203
101314.718
101314.217
101313.698
101313.162
101312.608
101312.037
101311.449
101310.843
101310.221
101309.581
101308.925
101308.252
101307.564
101306.86
101306.142
101305.408
101304.662
101303.902
101303.13
101302.347
101301.554
101300.752
101299.941
101299.124
101298.3
101297.473
101296.643
101295.811
101294.979
101294.149
101293.322
101292.501
101291.686
101290.879
101290.083
101289.299
101288.53
101287.776
101287.04
101286.324
101285.629
101284.958
101284.312
101283.694
101283.103
101282.544
101282.016
101281.521
101281.061
101280.638
101280.252
101279.904
101279.595
101279.326
101279.098
101278.911
101278.766
101278.662
101278.601
101278.58
101278.601
101278.663
101278.766
101278.907
101279.087
101279.305
101279.558
101279.847
101280.169
101280.522
101280.906
101281.318
101281.756
101282.219
101282.705
101283.211
101283.736
101284.277
101284.833
101285.401
101285.98
101286.568
101287.163
101287.763
101288.367
101288.972
101289.579
101290.185
101290.789
101291.39
101291.988
101292.58
101293.167
101293.748
101294.322
101294.888
101295.447
101295.998
101296.541
101297.075
101297.601
101298.117
101298.625
101299.123
101299.611
101300.089
101300.557
101301.014
101301.46
101301.894
101302.315
101302.723
101303.116
101303.494
101303.856
101304.2
101304.525
101304.83
101305.113
101305.373
101305.609
101305.819
101306.002
101306.156
101306.28
101306.373
101306.433
101306.46
101306.452
101306.409
101306.331
101306.217
101306.067
101305.882
101305.661
101305.406
101305.119
101304.801
101304.455
101304.084
101303.692
101303.285
101302.87
101302.455
101302.053
101301.68
101301.353
101301.1
101300.952
101300.952
101301.154
101301.625
101302.453
101303.749
101305.651
101308.33
101311.991
101316.939
101323.658
101332.291
101323.663
101318.896
101316.088
101312.796
101309.927
101307.194
101304.923
101303.039
101301.564
101300.439
101299.617
101299.044
101298.677
101298.475
101298.405
101298.441
101298.558
101298.739
101298.967
101299.23
101299.518
101299.821
101300.134
101300.45
101300.767
101301.08
101301.387
101301.686
101301.976
101302.256
101302.525
101302.783
101303.03
101303.265
101303.489
101303.701
101303.902
101304.092
101304.271
101304.44
101304.598
101304.746
101304.883
101305.011
101305.129
101305.237
101305.336
101305.425
101305.505
101305.576
101305.638
101305.691
101305.736
101305.771
101305.798
101305.817
101305.827
101305.83
101305.824
101305.81
101305.788
101305.759
101305.723
101305.679
101305.628
101305.57
101305.505
101305.433
101305.356
101305.272
101305.182
101305.086
101304.984
101304.877
101304.765
101304.647
101304.525
101304.397
101304.266
101304.129
101303.989
101303.844
101303.695
101303.543
101303.387
101303.227
101303.064
101302.898
101302.728
101302.555
101302.38
101302.201
101302.02
101301.836
101301.649
101301.46
101301.268
101301.073
101300.876
101300.677
101300.475
101300.271
101300.065
101299.856
101299.645
101299.431
101299.215
101298.996
101298.776
101298.552
101298.326
101298.098
101297.867
101297.633
101297.397
101297.158
101296.917
101296.672
101296.425
101296.175
101295.923
101295.667
101295.409
101295.147
101294.883
101294.616
101294.346
101294.072
101293.796
101293.517
101293.235
101292.95
101292.663
101292.372
101292.079
101291.783
101291.484
101291.183
101290.879
101290.573
101290.265
101289.955
101289.642
101289.328
101289.012
101288.694
101288.375
101288.055
101287.734
101287.412
101287.089
101286.766
101286.443
101286.119
101285.797
101285.474
101285.152
101284.832
101284.513
101284.195
101283.879
101283.566
101283.255
101282.946
101282.641
101282.339
101282.041
101281.747
101281.457
101281.172
101280.891
101280.616
101280.346
101280.083
101279.825
101279.573
101279.328
101279.089
101278.858
101278.634
101278.418
101278.211
101278.011
101277.82
101277.638
101277.465
101277.301
101277.147
101277.002
101276.868
101276.743
101276.628
101276.524
101276.431
101276.348
101276.276
101276.214
101276.164
101276.125
101276.097
101276.08
101276.075
101276.081
101276.099
101276.128
101276.168
101276.22
101276.284
101276.358
101276.445
101276.543
101276.652
101276.772
101276.904
101277.046
101277.2
101277.365
101277.54
101277.726
101277.922
101278.129
101278.346
101278.573
101278.811
101279.057
101279.313
101279.579
101279.854
101280.137
101280.43
101280.731
101281.04
101281.357
101281.682
101282.014
101282.354
101282.701
101283.055
101283.415
101283.782
101284.154
101284.533
101284.917
101285.307
101285.701
101286.1
101286.504
101286.912
101287.325
101287.74
101288.16
101288.583
101289.008
101289.437
101289.868
101290.301
101290.736
101291.173
101291.611
101292.051
101292.492
101292.933
101293.375
101293.818
101294.261
101294.703
101295.146
101295.588
101296.029
101296.47
101296.909
101297.347
101297.784
101298.219
101298.652
101299.084
101299.513
101299.94
101300.365
101300.787
101301.207
101301.624
101302.037
101302.448
101302.855
101303.26
101303.66
101304.058
101304.451
101304.841
101305.228
101305.61
101305.988
101306.362
101306.733
101307.099
101307.46
101307.818
101308.171
101308.52
101308.864
101309.204
101309.539
101309.87
101310.196
101310.518
101310.835
101311.147
101311.455
101311.758
101312.057
101312.351
101312.64
101312.924
101313.204
101313.48
101313.75
101314.016
101314.278
101314.535
101314.787
101315.035
101315.278
101315.517
101315.751
101315.981
101316.207
101316.428
101316.645
101316.857
101317.066
101317.27
101317.47
101317.666
101317.858
101318.046
101318.23
101318.41
101318.586
101318.759
101318.927
101319.092
101319.253
101319.411
101319.565
101319.716
101319.863
101320.006
101320.147
101320.284
101320.417
101320.548
101320.675
101320.8
101320.921
101321.039
101321.155
101321.267
101321.377
101321.484
101321.588
101321.69
101321.789
101321.885
101321.979
101322.07
101322.159
101322.246
101322.33
101322.413
101322.492
101322.57
101322.646
101322.719
101322.791
101322.86
101322.928
101322.994
101323.057
101323.119
101323.18
101323.238
101323.295
101323.35
101323.404
101323.456
101323.506
101323.555
101323.603
101323.649
101323.694
101323.737
101323.78
101323.82
101323.86
101323.898
101323.936
101323.972
101324.007
101324.041
101324.074
101324.105
101324.136
101324.166
101324.195
101324.223
101324.25
101324.276
101324.302
101324.326
101324.35
101324.373
101324.395
101324.417
101324.437
101324.458
101324.477
101324.496
101324.514
101324.532
101324.548
101324.565
101324.581
101324.596
101324.611
101324.625
101324.639
101324.652
101324.665
101324.678
101324.69
101324.701
101324.712
101324.723
101324.733
101324.744
101324.753
101324.763
101324.772
101324.78
101324.789
101324.797
101324.804
101324.812
101324.819
101324.826
101324.833
101324.839
101324.846
101324.852
101324.857
101324.863
101324.868
101324.874
101324.878
101324.883
101324.888
101324.892
101324.897
101324.901
101324.905
101324.908
101324.912
101324.916
101324.919
101324.922
101324.925
101324.928
101324.931
101324.934
101324.937
101324.939
101324.942
101324.944
101324.947
101324.949
101324.951
101324.953
101324.955
101324.957
101324.958
101324.96
101324.962
101324.963
101324.965
101324.966
101324.968
101324.969
101324.971
101324.972
101324.973
101324.974
101324.975
101324.976
101324.977
101324.978
101324.979
101324.98
101324.981
101324.982
101324.983
101324.983
101324.984
101324.985
101324.986
101324.987
101324.987
101324.988
101324.989
101324.99
101324.991
101324.992
101324.992
101324.993
101324.994
101324.995
101324.995
101324.996
101324.997
101324.997
101324.998
101324.998
101324.998
101324.999
101324.999
101324.999
101325
101325
101325
101325
101325
101325
101325
101325
101325
101325
101325
101325
101325
101325
101325
101325
101325
101325
101325
101325
101325
101325
101325
101325
101325
101325
101325
101325
101325
101325
101325
101325
101325
101325
101325
101325
101325
101325
101325
101325
101325
101325
101325
101325
101325
101325
101325
101325
101325
101325
101325
101325
)
;

boundaryField
{
    closed
    {
        type            zeroGradient;
    }
    open
    {
        type            waveTransmissive;
        gamma           1.25;
        fieldInf        101325;
        lInf            1;
        value           uniform 101325;
    }
    sides
    {
        type            empty;
    }
}


// ************************************************************************* //
