/*--------------------------------*- C++ -*----------------------------------*\
| =========                 |                                                 |
| \\      /  F ield         | OpenFOAM: The Open Source CFD Toolbox           |
|  \\    /   O peration     | Version:  2206                                  |
|   \\  /    A nd           | Website:  www.openfoam.com                      |
|    \\/     M anipulation  |                                                 |
\*---------------------------------------------------------------------------*/
FoamFile
{
    version     2.0;
    format      ascii;
    arch        "LSB;label=32;scalar=64";
    class       surfaceScalarField;
    location    "4e-06";
    object      phi;
}
// * * * * * * * * * * * * * * * * * * * * * * * * * * * * * * * * * * * * * //

dimensions      [1 0 -1 0 0 0 0];

oriented        oriented;

internalField   nonuniform List<scalar> 
3182
(
1.22868233e-18
-1.05324088e-18
2.69474692e-19
-5.55100776e-19
-1.13074564e-22
-2.40855406e-24
-1.75502969e-25
-3.00419924e-30
4.74549627e-29
1.32473463e-24
1.80754196e-23
1.89136866e-21
2.2377458e-18
-9.18878453e-19
-1.59587425e-18
-2.84270178e-23
1.64359242e-18
-1.73378578e-18
-3.17604006e-18
3.95812511e-18
4.69446151e-21
7.32511755e-23
1.00458752e-23
4.87436586e-23
8.225989e-20
1.84505923e-18
3.43302243e-18
-1.823192e-18
-1.84266297e-18
-2.33338832e-18
-8.56561585e-19
7.51390284e-19
-1.62389604e-19
-1.0779184e-18
3.24629371e-19
4.83619028e-19
-4.87579805e-19
-5.38355813e-19
3.76836455e-19
-3.88083438e-19
-2.49323656e-18
-2.04769936e-18
3.23123411e-19
6.50705189e-19
8.70959781e-19
1.62044889e-18
1.29989484e-18
3.21875666e-19
1.10492965e-19
-2.17696632e-19
-1.10367582e-19
-7.47121669e-19
-8.65455979e-19
-1.08781645e-18
-1.08569803e-18
-8.62425747e-19
-2.14356584e-19
4.321658e-19
4.32526208e-19
4.33984962e-19
-2.11683084e-19
-6.49512691e-19
4.27104042e-19
6.52802282e-19
6.7349764e-19
1.96393754e-18
2.82539757e-18
3.89986809e-18
3.92007819e-18
4.758683e-18
4.33217509e-18
3.93926545e-18
4.34885033e-18
3.46924911e-18
3.0563008e-18
3.93423968e-18
3.46608567e-18
4.80309785e-18
5.26897151e-18
5.73451908e-18
4.38467364e-18
5.13662155e-18
5.09707771e-18
5.12164862e-18
4.95812513e-18
5.93112794e-18
4.38865937e-18
4.2691226e-18
6.02159674e-18
5.01082073e-18
5.13797212e-18
3.53293233e-18
2.88842135e-18
4.08140383e-18
4.76529206e-18
3.86187474e-18
3.90051977e-18
2.10326216e-18
5.47135565e-18
3.17342678e-18
3.35156494e-18
1.75730835e-18
2.56208862e-18
6.67297947e-18
3.17588659e-18
3.6552718e-18
5.76127685e-18
3.95106744e-18
5.71579286e-18
5.87072182e-18
8.70613903e-18
5.40252765e-18
2.96777604e-18
5.4958067e-19
3.99564349e-18
9.13959106e-19
4.73926925e-18
2.22412731e-18
3.9260836e-18
6.4056127e-20
-1.69134094e-18
1.9421232e-18
-4.17795231e-19
6.84108493e-19
8.50061356e-19
2.00774896e-18
3.72579295e-18
4.69770081e-18
5.58274912e-18
4.81071555e-18
4.48528413e-18
8.76420245e-18
8.09934993e-18
9.3969565e-18
7.33981296e-18
7.74744884e-18
9.46671022e-18
9.42192999e-18
9.43882209e-18
9.93574046e-18
1.01521211e-17
7.0051689e-18
4.62212738e-18
7.3093679e-18
7.17587424e-18
7.95657436e-18
8.4120166e-18
9.51968495e-18
8.80913518e-18
8.94436265e-18
8.14033947e-18
1.06603027e-17
7.82329118e-18
6.23863221e-18
4.29623725e-18
4.11665686e-18
4.34580489e-18
6.03610319e-18
5.22568625e-18
6.40268191e-18
4.28983377e-18
5.26143332e-18
7.7275983e-18
6.48044503e-18
7.46087671e-18
8.35625602e-18
6.56438185e-18
6.2526991e-18
5.60923052e-18
9.19396186e-18
6.74908136e-18
8.21196635e-18
6.49446827e-18
6.18331752e-18
5.45317093e-18
3.71388423e-18
3.4616102e-18
1.76493698e-18
3.01418078e-18
4.3611486e-18
1.39844043e-18
1.24496866e-18
-6.75113823e-20
-3.03110473e-18
-7.08275048e-19
-1.1228885e-19
7.38614588e-19
8.61862285e-19
3.06615323e-18
3.10106152e-18
2.28431232e-18
2.91192301e-18
3.46576396e-18
2.86866094e-18
4.53006043e-18
2.89691927e-18
-1.45509099e-19
-3.54809037e-19
-1.34299491e-18
-1.11342689e-18
-1.24209876e-18
-3.88678833e-18
-5.96840187e-18
-7.0235815e-18
-6.35704119e-18
-7.23192124e-18
-7.94890013e-18
-6.45919391e-18
-5.23746312e-18
-2.25957143e-18
-2.68392275e-18
-1.45835975e-18
1.14092534e-18
2.5431802e-18
-2.05736729e-19
-2.08422028e-18
-3.45281687e-18
-4.70294573e-18
-4.085879e-18
-3.89287661e-18
-4.19365269e-18
-5.92422463e-18
-3.75668485e-18
-3.22128163e-18
-1.82285405e-18
-7.74352412e-19
-6.30043592e-18
-3.83754688e-18
-6.11305615e-18
-9.57385785e-18
-7.20973495e-18
-9.83377853e-18
-8.89960398e-18
-9.63298437e-18
-1.20542369e-17
-1.28033688e-17
-1.48887254e-17
-1.60298484e-17
-1.61548575e-17
-1.54574203e-17
-1.57864802e-17
-1.56335402e-17
-1.42681874e-17
-1.66721396e-17
-1.54435808e-17
-1.50236716e-17
-1.73076083e-17
-1.58683368e-17
-2.02241058e-17
-1.85543993e-17
-2.16281553e-17
-1.98211767e-17
-1.62742912e-17
-1.94411977e-17
-1.9399477e-17
-1.96733676e-17
-1.96773696e-17
-2.12976116e-17
-1.98924216e-17
-1.84387757e-17
-1.78672935e-17
-1.68479539e-17
-1.83989728e-17
-1.63231915e-17
-1.8218826e-17
-1.78737705e-17
-1.65489517e-17
-1.84553195e-17
-2.24368806e-17
-2.1345953e-17
-2.07004344e-17
-2.44642532e-17
-2.35394343e-17
-2.65260809e-17
-3.06027512e-17
-2.69727373e-17
-2.83604507e-17
-2.81017319e-17
-2.466343e-17
-2.49760421e-17
-2.4843754e-17
-2.57021789e-17
-2.35736002e-17
-2.350679e-17
-2.66436346e-17
-2.58318349e-17
-2.68956673e-17
-2.50771071e-17
-2.18328981e-17
-2.17221386e-17
-2.24112585e-17
-2.43135552e-17
-2.84494035e-17
-2.70023204e-17
-2.7150867e-17
-2.80552706e-17
-2.56782461e-17
-2.52902686e-17
-2.67385304e-17
-2.57648997e-17
-2.76394512e-17
-2.82821781e-17
-2.96973807e-17
-2.99773871e-17
-3.03726237e-17
-3.56272035e-17
-3.49903531e-17
-3.5128301e-17
-3.47354907e-17
-3.52477935e-17
-3.6934213e-17
-3.7584128e-17
-3.68528281e-17
-3.84297437e-17
-4.32339302e-17
-4.34091563e-17
-4.54988014e-17
-4.41798043e-17
-4.4120552e-17
-4.53956406e-17
-4.66478856e-17
-4.65031011e-17
-4.51061299e-17
-4.49647804e-17
-4.83899295e-17
-4.60962157e-17
-4.30656108e-17
-4.60375812e-17
-4.8310711e-17
-4.33838868e-17
-4.48978081e-17
-4.71023172e-17
-4.37797875e-17
-4.35099872e-17
-4.22715156e-17
-4.04411189e-17
-4.32492975e-17
-4.28042111e-17
-4.34240542e-17
-4.28413755e-17
-4.51480901e-17
-4.69472796e-17
-4.29638077e-17
-4.28557814e-17
-4.14266805e-17
-4.39828122e-17
-4.21348896e-17
-4.45199852e-17
-4.41806856e-17
-4.49085119e-17
-4.52777894e-17
-4.15411776e-17
-4.04662156e-17
-4.02536539e-17
-4.06154088e-17
-4.05840842e-17
-3.69176305e-17
-3.43245747e-17
-3.70053453e-17
-3.31960045e-17
-3.47885879e-17
-3.35989894e-17
-3.24807859e-17
-3.33125088e-17
-3.51856789e-17
-3.15709741e-17
-2.9587706e-17
-2.84677267e-17
-2.74235155e-17
-2.8549373e-17
-2.6854209e-17
-2.34167601e-17
-2.70312208e-17
-2.61657806e-17
-2.68120829e-17
-2.30163728e-17
-2.28555108e-17
-2.55849666e-17
-2.18968379e-17
-2.15749231e-17
-2.58095087e-17
-2.47690849e-17
-2.26957717e-17
-2.38591073e-17
-2.35339428e-17
-2.41885278e-17
-2.14570592e-17
-2.12157558e-17
-1.81853335e-17
-1.84335674e-17
-1.99133723e-17
-1.90933613e-17
-1.33247073e-17
-1.5176158e-17
-1.41372044e-17
-1.24752198e-17
-1.78656474e-17
-1.45592475e-17
-1.60474875e-17
-1.83211226e-17
-1.36158567e-17
-1.46533275e-17
-1.46417224e-17
-1.61968753e-17
-1.7877047e-17
-1.50065455e-17
-1.84878157e-17
-1.46730186e-17
-1.6735109e-17
-1.69968979e-17
-1.5401062e-17
-1.75151408e-17
-1.47326606e-17
-1.40727798e-17
-1.32819551e-17
-1.19367246e-17
-1.18702363e-17
-1.30722255e-17
-1.06307775e-17
-1.29617225e-17
-1.29595873e-17
-1.23189664e-17
-1.07533138e-17
-1.05224308e-17
-1.17296264e-17
-1.14179459e-17
-1.08136435e-17
-8.52406945e-18
-5.59544782e-18
-3.9844281e-18
-5.59235284e-18
-7.61077632e-18
-6.06861245e-18
-5.74739186e-18
-2.86554377e-18
-1.38431143e-18
-3.15950584e-18
-2.68245377e-18
-2.69224307e-18
8.24032379e-19
5.93447437e-19
-1.18010349e-18
-3.52708991e-18
-4.69430118e-19
1.57965579e-18
1.47658527e-18
3.37508784e-18
1.21158992e-18
-1.87360027e-18
-4.31547894e-18
-3.56111667e-18
-3.40274059e-18
-2.92930399e-18
-1.1187017e-18
1.27946657e-18
1.92828032e-18
-2.14267467e-18
-2.06457623e-18
-9.99705236e-19
-1.06163733e-20
3.35427944e-18
2.3816784e-18
-1.5794869e-19
-8.24588172e-19
-1.62796677e-18
-2.19763784e-18
2.80810469e-19
1.69651291e-18
1.39204768e-18
2.4672547e-18
2.59004502e-18
6.67143005e-19
-3.10378724e-19
5.06421729e-18
2.72338812e-18
6.5108502e-18
4.85178085e-18
2.71047982e-18
4.1054711e-18
1.22873164e-18
4.59075516e-18
6.20568988e-18
2.85672057e-18
4.02664469e-18
2.36849328e-18
3.07804925e-19
-5.27032064e-19
1.02504601e-19
-2.51595424e-18
-3.97163911e-18
-4.65899464e-18
-2.65231191e-18
-1.0727666e-18
-1.82517418e-18
6.37190135e-19
-4.32817754e-19
-8.21831695e-19
1.69338856e-18
4.37035716e-19
-2.41423078e-18
-2.34796555e-19
3.74574404e-18
-1.67260746e-19
-4.1128286e-18
-2.48740961e-18
-6.86824712e-19
-1.12026544e-18
-1.21055186e-18
-2.36066344e-18
-3.04211039e-18
-2.43924841e-18
-9.9920009e-19
-1.25730717e-18
-4.1571342e-18
-2.69062836e-19
-3.57173787e-18
-2.57067186e-18
-2.5806107e-18
-1.11890704e-18
-5.91562407e-19
-2.28047512e-18
2.52006051e-18
-7.32091684e-19
-1.90005822e-19
-2.55790081e-18
3.9771069e-19
9.90258202e-19
2.92984151e-18
1.59096683e-18
2.31835278e-18
1.1164849e-18
2.48026573e-19
6.14281598e-19
1.77273282e-18
3.67498693e-18
2.33023964e-18
3.81260398e-18
4.66540518e-18
2.05463441e-18
5.55626587e-18
2.88445715e-18
2.31181208e-18
3.73989224e-18
2.35530471e-18
5.20472308e-18
1.74661967e-18
1.34180147e-18
-1.87842861e-18
-4.47754838e-18
-4.46583995e-18
-3.56397623e-18
-5.96868938e-18
-1.48601431e-18
-1.56236603e-18
6.73620991e-19
2.31962079e-18
2.51564486e-19
3.80070717e-18
1.47383063e-18
2.16566064e-18
-3.54492152e-18
-3.47244792e-19
7.33675047e-19
2.70667465e-18
1.78619234e-18
2.45187595e-18
1.67337831e-18
1.84674176e-18
2.15795905e-18
4.81229456e-19
2.62696584e-18
9.78503274e-19
4.24062945e-18
3.72484236e-18
1.11272139e-18
3.32955163e-18
5.21766776e-18
6.23702182e-18
6.91308048e-18
6.2044503e-18
1.11609805e-17
1.27439718e-17
1.43516352e-17
1.43788505e-17
1.34036663e-17
1.133181e-17
9.26454443e-18
1.18051232e-17
1.33564787e-17
1.249306e-17
1.22160885e-17
1.20983627e-17
1.23767019e-17
1.21061713e-17
9.52955157e-18
1.40692408e-17
1.21826509e-17
1.32458564e-17
1.36084774e-17
1.18802344e-17
1.25067047e-17
1.0377555e-17
9.84239104e-18
1.07650473e-17
8.63573216e-18
8.18178283e-18
7.13281574e-18
6.02527927e-18
6.56217079e-18
4.91631867e-18
6.2345896e-18
6.55539765e-18
5.24060383e-18
5.89819989e-18
6.63397159e-18
8.36740595e-18
1.0836736e-17
1.05045471e-17
9.83237373e-18
1.09570249e-17
8.62846591e-18
1.14084398e-17
8.87565635e-18
1.13366597e-17
1.01189385e-17
9.22049903e-18
7.01722998e-18
6.13468396e-18
2.08755508e-18
3.30298864e-18
4.50857318e-18
4.99787472e-18
5.76906205e-18
7.96261086e-18
5.1609502e-18
6.58370823e-18
4.91821831e-18
7.15883936e-18
4.71633195e-18
7.04190733e-18
4.72957462e-18
5.91743737e-18
1.33686036e-18
4.75204687e-18
6.59963157e-18
1.00347687e-17
8.38975279e-18
8.63942903e-18
1.14353348e-17
9.37763497e-18
7.19339491e-18
7.58999528e-18
9.65935818e-18
8.87248345e-18
1.14002357e-17
7.77423487e-18
5.6784112e-18
5.94184341e-18
2.70989242e-18
2.61963914e-18
4.73518897e-18
3.17638239e-18
5.30356292e-18
3.97644706e-18
4.61589178e-18
2.81944466e-18
2.07345581e-18
2.97545389e-18
2.72966107e-18
3.02607958e-18
7.55254709e-18
6.52167888e-18
9.1876946e-18
1.08331858e-17
8.23903305e-18
6.17323681e-18
4.54204374e-18
9.24243492e-18
1.03487419e-17
1.0571113e-17
1.19183694e-17
1.04040934e-17
1.25399455e-17
1.19362049e-17
1.1480309e-17
1.06521497e-17
1.14044698e-17
1.2200698e-17
1.12715882e-17
9.20776346e-18
9.82966663e-18
8.37627071e-18
1.06138096e-17
1.07925434e-17
1.23867927e-17
9.94869888e-18
9.61776661e-18
1.09277937e-17
1.26151987e-17
1.59473702e-17
1.48381114e-17
1.8892826e-17
1.4710743e-17
1.3961102e-17
1.55177251e-17
1.69417531e-17
1.50106969e-17
1.7016325e-17
1.46760019e-17
1.58891234e-17
1.68592882e-17
1.6449679e-17
1.7833224e-17
1.86546257e-17
1.78046388e-17
1.78320379e-17
1.80368676e-17
1.97744772e-17
1.97217489e-17
2.0566183e-17
2.208911e-17
2.2575508e-17
2.00688116e-17
1.85279819e-17
1.55456986e-17
1.56320603e-17
1.36604525e-17
1.28293909e-17
1.12975093e-17
1.54762829e-17
1.57589898e-17
1.36615375e-17
1.20521861e-17
1.3188962e-17
1.21965603e-17
7.75433648e-18
1.05497486e-17
9.70683536e-18
8.92084142e-18
9.28638535e-18
5.12979787e-18
2.42715041e-18
2.9053229e-18
5.40620201e-18
3.06806241e-18
4.03511623e-18
5.58540703e-18
7.08246503e-18
2.1584698e-18
2.28312031e-18
4.32786741e-18
2.57111498e-18
-5.98451845e-19
3.73871532e-19
2.83716308e-18
1.11986801e-18
2.73530783e-18
1.29246903e-18
2.40044106e-18
1.47867365e-18
4.25604039e-18
5.4553381e-18
6.06805518e-18
9.83731893e-18
7.78977941e-18
5.42290385e-18
7.34628004e-18
8.24898009e-18
8.35664397e-18
9.60367612e-18
9.41489907e-18
1.09765835e-17
1.27292118e-17
1.14275033e-17
1.22695633e-17
1.31695799e-17
1.11505801e-17
1.08417208e-17
9.80678727e-18
7.30472086e-18
8.5366201e-18
1.00129777e-17
9.53840277e-18
1.02452685e-17
9.46898143e-18
7.89375286e-18
8.19167166e-18
1.42421184e-17
1.34970547e-17
1.88620406e-17
1.69430527e-17
1.47552862e-17
1.34674572e-17
1.01710036e-17
1.27073348e-17
1.04509066e-17
8.7428961e-18
1.0958265e-17
7.20614421e-18
7.15094921e-18
6.99939487e-18
8.68374984e-18
7.32770422e-18
1.14708016e-17
1.29477043e-17
1.09004096e-17
1.05934865e-17
8.50924002e-18
1.00788834e-17
3.7392375e-18
4.59027078e-18
4.11574686e-18
5.29128806e-18
3.63044388e-18
3.51153547e-18
4.66199637e-18
5.5091576e-18
1.13593016e-18
1.90130324e-18
3.29843843e-19
1.24248714e-18
-2.13693279e-18
-3.09359529e-18
-2.1701696e-18
-7.74243167e-19
-2.66362266e-19
-2.70901753e-18
-4.66111336e-18
-6.73788994e-18
-7.98672206e-18
-1.00414336e-17
-7.49681829e-18
-5.62047328e-18
-4.34194655e-18
-6.32286646e-18
-5.20573383e-18
-1.61730748e-18
-3.01929015e-18
-3.49391858e-18
-5.08954163e-19
1.16140449e-18
-6.82287806e-19
-1.2537573e-18
9.07212966e-19
-3.76789645e-18
-4.27192538e-18
-5.33391054e-18
-3.4696706e-18
-1.25027168e-18
3.23904428e-18
3.30580074e-18
2.04268079e-18
2.57383435e-18
2.70182555e-18
-4.05072199e-19
-3.09444046e-18
-3.42399283e-18
-5.84091464e-18
-7.48434837e-18
-7.45666761e-18
-6.87306179e-18
-4.75358409e-18
-6.87930576e-18
-3.33125928e-18
-1.56618217e-18
-3.94187585e-18
-3.53856202e-18
-8.90504984e-19
-2.27795789e-18
-1.20090118e-18
-1.54302323e-18
-4.97485875e-19
-1.64818907e-18
-1.90847059e-18
-1.27940265e-18
2.13795767e-19
2.27956031e-19
5.6322635e-19
1.02902125e-18
2.34126112e-18
8.56148758e-19
5.89465048e-19
-5.35205082e-19
-2.81720495e-18
-1.22222502e-18
2.04992506e-18
1.59370746e-18
2.48613917e-18
4.88551952e-19
3.96643781e-18
4.81204503e-18
3.63446253e-18
1.53695948e-18
6.79323823e-18
7.27461976e-18
8.56404084e-18
6.58793386e-18
6.57696604e-18
5.17479394e-18
7.28728714e-18
6.45121083e-18
7.96026132e-18
6.88143071e-18
3.41694877e-18
8.86801282e-18
9.51760517e-18
7.93807325e-18
1.02597842e-17
7.3090537e-18
9.41326358e-18
9.71053007e-18
1.10331674e-17
1.26563987e-17
1.06465799e-17
1.24545877e-17
1.0601783e-17
5.50596459e-18
8.20850446e-18
9.31554528e-18
8.22385072e-18
9.00672812e-18
9.40338413e-18
8.56250213e-18
1.08975629e-17
1.12227104e-17
1.05982514e-17
1.08360305e-17
1.06631473e-17
1.19603632e-17
1.45440381e-17
1.10483312e-17
1.56080078e-17
1.21805521e-17
1.05650538e-17
1.39200031e-17
1.25338369e-17
1.25497623e-17
1.07187897e-17
1.12306939e-17
1.2354505e-17
1.3570946e-17
1.21646881e-17
1.22001603e-17
1.10192598e-17
1.18668081e-17
1.28276787e-17
1.32029659e-17
1.33878777e-17
1.43271217e-17
1.31784284e-17
1.768765e-17
1.63604813e-17
1.55732752e-17
1.44594048e-17
1.29266339e-17
1.3917186e-17
1.62015084e-17
1.48622524e-17
1.36060273e-17
1.21446725e-17
1.16744225e-17
1.37477327e-17
1.34297397e-17
1.7604372e-17
1.63169447e-17
1.9585981e-17
1.6948361e-17
1.74345569e-17
1.82353307e-17
1.7935831e-17
2.57897944e-17
2.3687058e-17
2.4934287e-17
2.61680219e-17
2.34596486e-17
2.48165142e-17
2.38284396e-17
2.39738141e-17
2.22756092e-17
2.648175e-17
2.50979482e-17
2.28049993e-17
2.37445589e-17
2.4401618e-17
2.32257198e-17
2.00271692e-17
2.05130896e-17
2.34507521e-17
2.57754713e-17
2.55043512e-17
2.8796165e-17
2.60393093e-17
2.96996235e-17
2.58854955e-17
2.5257128e-17
2.68246904e-17
2.61991864e-17
2.85871759e-17
2.47103861e-17
2.53068696e-17
2.28345012e-17
2.63749773e-17
2.7542705e-17
2.91826484e-17
3.10895187e-17
3.12251439e-17
3.25320599e-17
3.16287165e-17
2.94695453e-17
2.8398603e-17
2.91249074e-17
2.82390537e-17
3.10025295e-17
2.83449516e-17
2.99999188e-17
2.74575145e-17
2.7804397e-17
2.67400207e-17
2.65452064e-17
2.77781487e-17
2.60628119e-17
2.75700463e-17
2.57119456e-17
2.4498877e-17
2.43499642e-17
2.16938344e-17
1.78340653e-17
1.58047814e-17
1.72796797e-17
1.79549916e-17
1.46575751e-17
1.27816027e-17
1.11221866e-17
1.36148216e-17
1.18468028e-17
1.04350856e-17
1.02799409e-17
1.10615857e-17
1.06910651e-17
9.04192966e-18
1.21124049e-17
1.40251664e-17
1.28139321e-17
1.38209015e-17
1.17658137e-17
1.39065272e-17
1.69097451e-17
1.23398393e-17
1.40313976e-17
1.40444242e-17
1.27982807e-17
1.01502094e-17
9.72290567e-18
9.19530305e-18
9.78439239e-18
8.63211116e-18
1.29602117e-17
9.91873422e-18
9.47901442e-18
1.10333832e-17
1.00685032e-17
1.13403705e-17
1.2488331e-17
1.31209462e-17
1.56382866e-17
1.29192391e-17
1.2790426e-17
1.44790879e-17
1.54850532e-17
1.35314394e-17
1.28983763e-17
1.4004038e-17
1.14161225e-17
1.35240492e-17
1.25990626e-17
8.58348474e-18
9.13871754e-18
1.05980919e-17
1.21434187e-17
1.19601294e-17
1.02938966e-17
1.10749933e-17
1.09118336e-17
9.75669801e-18
1.25369691e-17
1.14170957e-17
1.25586277e-17
1.07592373e-17
1.1029786e-17
1.10927551e-17
9.51920676e-18
8.00873394e-18
3.51467974e-18
1.73122044e-18
3.51476981e-18
2.69957534e-18
3.36963564e-18
2.81225126e-18
5.3859356e-18
-1.99664864e-18
-1.05688035e-18
-3.63362053e-18
-6.40426665e-18
-6.57159485e-18
-5.1532235e-18
-6.39295894e-18
-5.60151193e-18
-8.8562768e-18
-8.28271238e-18
-1.0980481e-17
-9.4713745e-18
-9.7913199e-18
-1.19200208e-17
-1.24690384e-17
-1.26974248e-17
-1.31403411e-17
-1.27537751e-17
-1.59676948e-17
-1.58301266e-17
-1.87429643e-17
-1.57034402e-17
-1.16890703e-17
-1.12193267e-17
-1.39668829e-17
-1.06558423e-17
-1.20178162e-17
-1.07459884e-17
-1.09158683e-17
-9.99076195e-18
-1.17649324e-17
-1.17950797e-17
-1.27115046e-17
-1.44493222e-17
-1.56369459e-17
-1.70158091e-17
-1.66727957e-17
-1.56759434e-17
-1.47752169e-17
-1.72924302e-17
-1.22847136e-17
-1.27773942e-17
-1.0860115e-17
-1.21746868e-17
-1.34233582e-17
-1.48206753e-17
-1.41223875e-17
-1.17671633e-17
-1.28274087e-17
-1.29034561e-17
-9.89790195e-18
-1.10405267e-17
-6.31173748e-18
-7.93313823e-18
-6.08595902e-18
-8.60278776e-18
-7.09285611e-18
-9.81028467e-18
-9.55866117e-18
-6.42821732e-18
-6.56616803e-18
-7.63098751e-18
-6.61907656e-18
-9.27042685e-18
-6.52155377e-18
-6.02589459e-18
-6.137658e-18
-7.09260189e-18
-5.55878247e-18
-3.07811544e-18
-3.87686014e-18
-2.92301248e-18
-6.52300031e-18
-8.5653122e-18
-4.0243982e-18
-6.33595977e-18
-1.08521291e-17
-1.21816513e-17
-1.37424713e-17
-1.32551131e-17
-1.52174325e-17
-2.08420195e-17
-2.11631874e-17
-1.90864605e-17
-2.37916981e-17
-2.1395764e-17
-2.05810749e-17
-2.35900107e-17
-2.56576088e-17
-2.21796791e-17
-1.87207123e-17
-2.24389761e-17
-2.2075828e-17
-2.42234591e-17
-2.60924202e-17
-2.32396661e-17
-2.31793675e-17
-2.10795873e-17
-2.14447218e-17
-2.35728398e-17
-2.40606049e-17
-2.92058191e-17
-3.02154234e-17
-3.019417e-17
-3.13187651e-17
-3.08986139e-17
-2.65297669e-17
-2.35601435e-17
-2.65214384e-17
-2.59517174e-17
-2.58050964e-17
-2.76184126e-17
-2.97659849e-17
-3.03083102e-17
-3.17562762e-17
-3.00633721e-17
-2.9319623e-17
-3.26982789e-17
-3.09547678e-17
-3.04805622e-17
-3.02747059e-17
-3.06563884e-17
-2.97877996e-17
-2.72475809e-17
-2.43147148e-17
-2.6451886e-17
-2.38269553e-17
-2.69067303e-17
-2.35744096e-17
-2.50261406e-17
-2.47666435e-17
-2.65184913e-17
-2.58215496e-17
-2.58490239e-17
-2.53925964e-17
-2.55572543e-17
-2.54656567e-17
-2.33095809e-17
-2.16511893e-17
-2.28809691e-17
-2.24541898e-17
-2.09208981e-17
-1.92051656e-17
-1.79483417e-17
-2.01279036e-17
-2.0375208e-17
-2.07885017e-17
-1.93387149e-17
-1.90008375e-17
-1.82728929e-17
-1.71768203e-17
-1.54383428e-17
-1.51751106e-17
-1.63273574e-17
-1.53156028e-17
-1.62915416e-17
-1.73978626e-17
-1.73122491e-17
-1.70054851e-17
-1.81180057e-17
-1.85338626e-17
-1.79370874e-17
-1.90134705e-17
-1.62706615e-17
-1.28982745e-17
-1.42303226e-17
-1.0455175e-17
-1.56937326e-17
-1.41495791e-17
-1.2288818e-17
-1.38358763e-17
-1.42810984e-17
-1.58441807e-17
-1.33906331e-17
-1.22781498e-17
-1.26823859e-17
-1.32955506e-17
-1.39678718e-17
-1.03993282e-17
-1.17052689e-17
-1.15748199e-17
-9.98673759e-18
-8.46231073e-18
-9.09043759e-18
-1.08515101e-17
-1.06115734e-17
-8.51514948e-18
-1.0453979e-17
-9.91700545e-18
-1.01096629e-17
-8.9742519e-18
-7.94405344e-18
-1.12475866e-17
-1.05036781e-17
-1.12840322e-17
-8.76080081e-18
-9.56039001e-18
-8.52448594e-18
-1.06703726e-17
-1.00690636e-17
-9.33512677e-18
-9.6909669e-18
-1.27449805e-17
-9.60236896e-18
-8.77323364e-18
-8.01913132e-18
-8.83787674e-18
-5.3058831e-18
-1.21916848e-17
-1.08545815e-17
-1.23315422e-17
-7.58213043e-18
-9.79188418e-18
-1.10290321e-17
-9.60585111e-18
-6.52898686e-18
-3.6014404e-18
-3.33053101e-18
-3.29206988e-18
-3.73771862e-18
-3.90833328e-18
1.7228567e-19
-2.15923904e-18
-5.75031588e-19
-8.6033096e-19
2.05848123e-18
-9.30652794e-19
1.31480575e-18
3.38018567e-18
3.80105304e-18
5.44498114e-18
2.17221291e-18
1.7139359e-18
1.78787368e-18
1.92429319e-18
5.14377797e-19
2.83767288e-19
3.45725055e-18
-8.38053106e-19
1.29583377e-18
1.34031126e-18
4.18806157e-18
2.42466779e-18
1.90460821e-18
2.27912785e-18
6.38122155e-19
1.73433071e-18
1.68600936e-18
4.74616287e-18
2.47522102e-18
3.82493816e-18
2.49039662e-18
2.84882594e-18
1.2011076e-18
5.40235893e-19
6.58983601e-19
3.226827e-19
2.64666066e-18
3.27270578e-18
1.54196835e-18
4.00892261e-18
4.14485457e-18
2.57634011e-18
3.95411578e-19
3.82951906e-18
3.81286448e-18
5.51440823e-18
5.10652583e-18
4.58766724e-18
4.40896225e-18
6.29406969e-18
7.38800158e-18
5.37027877e-18
4.84538857e-18
9.49396863e-18
1.10818821e-17
8.10814308e-18
6.99741223e-18
5.83118011e-18
7.46679987e-18
3.68799417e-18
7.78406937e-18
7.95853806e-18
5.46366389e-18
6.51216899e-18
6.01664559e-18
4.88196857e-18
3.23559489e-18
4.12679882e-18
2.17764877e-18
-1.72104606e-18
-1.05897637e-18
-1.82319011e-18
1.00445757e-18
2.67150291e-19
-7.31703202e-19
-5.47376466e-19
8.14942937e-19
7.30002642e-19
5.06796325e-18
3.08674743e-19
3.168455e-20
9.62697639e-19
4.88225654e-19
2.71895979e-18
6.58874183e-19
-6.53213067e-19
1.47637933e-18
4.51800784e-19
-2.49961752e-18
-2.40058822e-18
-5.15270691e-19
-4.01980809e-20
2.70009255e-18
2.02024617e-18
3.58364756e-18
6.27223627e-18
2.10443273e-18
2.99697047e-19
-8.00081345e-19
-5.11650815e-19
-2.09122846e-18
-4.23511893e-18
-2.55202575e-18
-2.87645991e-18
-3.18718216e-18
-3.77072508e-18
-3.49644101e-18
-3.20838189e-18
-2.57863763e-18
7.9004636e-19
1.51611057e-18
-2.12891078e-18
-1.25646215e-18
-3.9198302e-18
-3.53341621e-18
-5.30273604e-18
-5.71941738e-18
-7.79465453e-18
-6.62635237e-18
-5.2589142e-18
-6.15775358e-18
-5.97072267e-18
-6.54514176e-18
-5.12754779e-18
-4.43458037e-18
-1.89627092e-18
-2.53165148e-18
1.48018808e-19
1.39315446e-18
4.40357899e-18
5.71445977e-18
8.20487909e-19
-4.45542853e-19
3.93263034e-20
-1.33724111e-18
-4.63298905e-18
-4.19250245e-18
-2.09876931e-18
-5.51393546e-18
-3.12005769e-18
-5.48574197e-18
-3.05486497e-18
-4.75996968e-18
-4.33700205e-18
-5.41466529e-18
-3.57150185e-18
-8.80869477e-19
-2.6659724e-18
-6.34456556e-18
-7.35235712e-18
-1.07415189e-17
-1.23713079e-17
-1.40586938e-17
-1.62225698e-17
-1.75860106e-17
-1.71728892e-17
-1.99069538e-17
-1.92774296e-17
-1.87246565e-17
-2.07719179e-17
-2.24217086e-17
-2.24862667e-17
-2.43413337e-17
-1.76524537e-17
-1.93723589e-17
-1.94794475e-17
-2.14098818e-17
-2.03195887e-17
-2.05201393e-17
-2.09070599e-17
-1.65239349e-17
-1.72661111e-17
-1.76536097e-17
-1.45343712e-17
-1.5093896e-17
-1.42433312e-17
-1.55373936e-17
-1.45844437e-17
-1.58161178e-17
-1.43944659e-17
-1.22198628e-17
-1.40806817e-17
-1.49106351e-17
-1.42074574e-17
-1.45930449e-17
-1.28618521e-17
-1.81988243e-17
-1.66729578e-17
-1.81909481e-17
-2.0740008e-17
-1.90759833e-17
-1.84726111e-17
-1.55105016e-17
-1.66057738e-17
-1.60140504e-17
-1.77467943e-17
-1.88439861e-17
-1.91625205e-17
-1.84906164e-17
-2.05009927e-17
-1.52166047e-17
-1.7561217e-17
-1.629522e-17
-1.6686513e-17
-1.85610523e-17
-1.73246292e-17
-1.60420322e-17
-1.63496849e-17
-1.48046079e-17
-1.51456801e-17
-1.18419904e-17
-1.34923016e-17
-1.32284119e-17
-1.40578324e-17
-1.26231705e-17
-1.341885e-17
-1.11048438e-17
-1.19873615e-17
-7.74089032e-18
-9.84416191e-18
-6.53804152e-18
-9.15228311e-18
-8.55599572e-18
-9.06435555e-18
-1.25021995e-17
-1.55785403e-17
-1.32575186e-17
-1.50528478e-17
-1.64982145e-17
-1.53024218e-17
-1.53337408e-17
-1.76785092e-17
-1.61746446e-17
-1.59274196e-17
-1.73781239e-17
-1.93974343e-17
-1.70818257e-17
-1.53979541e-17
-1.4620303e-17
-1.30265595e-17
-1.33992808e-17
-1.46340341e-17
-8.23885014e-18
-7.94996443e-18
-7.41386858e-18
-1.12991708e-17
-1.07864176e-17
-1.27699469e-17
-1.12122913e-17
-7.93290316e-18
-9.57403651e-18
-1.15804091e-17
-9.92983215e-18
-8.74645235e-18
-9.31737774e-18
-9.58661244e-18
-9.18186658e-18
-1.09329973e-17
-1.12381275e-17
-1.02679062e-17
-9.26256313e-18
-1.27380377e-17
-1.30850699e-17
-1.07052005e-17
-8.32395362e-18
-1.74889184e-17
-1.60301883e-17
-1.77571959e-17
-1.31831394e-17
-1.72493366e-17
-1.52858748e-17
-1.04898252e-17
-1.46673985e-17
-9.48516238e-18
-1.38645582e-17
-7.44886818e-18
-9.17642216e-18
-8.4143258e-18
-9.43868892e-18
-1.63181484e-17
-1.72301609e-17
-1.37249138e-17
-1.69681391e-17
-1.12053502e-17
-1.13911954e-17
-8.18258995e-18
-5.95587628e-18
-1.07133502e-17
-1.01682753e-17
-1.07862819e-17
-1.35117357e-17
-1.09489726e-17
-1.28507094e-17
-1.26465008e-17
-8.88549217e-18
-6.93623719e-18
-1.24194134e-17
-1.17368006e-17
-1.03176831e-17
-1.19577818e-17
-8.13827485e-18
-1.27218486e-17
-9.11555178e-18
-4.11419368e-18
-6.65302653e-18
-6.08146502e-18
-6.08072437e-18
-7.11566047e-18
-7.60327678e-18
-7.74870865e-18
-8.5270168e-18
-1.12338534e-17
-9.83634672e-18
-1.00388884e-17
-1.04597773e-17
-1.31851038e-17
-1.28823649e-17
-1.3732215e-17
-9.9964178e-18
-8.30054714e-18
-5.03062265e-18
-3.46866459e-18
-4.22707846e-18
-2.82099153e-18
-2.59731767e-18
2.84434363e-19
2.30766504e-18
-2.69816461e-19
2.04206983e-18
2.96666881e-19
-2.97974225e-18
-3.35758179e-18
-6.99169752e-18
-5.65716012e-18
-9.66296603e-18
-1.09388249e-17
-1.14662607e-17
-8.01403489e-18
-5.76397868e-18
-4.91087433e-18
-5.84164162e-18
-4.48250602e-18
-6.22679723e-18
-4.37981717e-18
-5.26917717e-18
-4.29897882e-18
-6.97525557e-18
-5.89000617e-18
-6.49108707e-18
-6.93186194e-18
-1.0002674e-17
-9.47756634e-18
-9.27690325e-18
-8.00377722e-18
-7.51269344e-18
-4.91690826e-18
-5.38114886e-18
-4.90448624e-18
-4.96605729e-18
-6.52371662e-18
-8.58130008e-18
-8.9367298e-18
-5.85913044e-18
-5.84508521e-18
-4.58678384e-18
-3.95510684e-18
-2.11964759e-18
-5.31220201e-18
-6.19442285e-19
-7.45528835e-19
-2.19991699e-18
1.74732994e-19
1.56326903e-18
7.97094302e-19
4.20357e-19
-1.94959261e-18
-2.31147415e-18
-1.0972317e-18
2.58480864e-19
1.49075982e-18
3.85292748e-18
2.61140709e-18
3.3743683e-18
2.62238891e-18
2.26202054e-18
5.17557373e-18
5.77954694e-18
8.62164062e-18
1.13489537e-17
9.92936869e-18
1.44297308e-17
1.19128244e-17
1.54268022e-17
1.27152154e-17
1.23657301e-17
1.02825433e-17
5.58200234e-18
2.78911163e-18
2.68677838e-18
3.95276198e-18
4.02626909e-18
6.79580141e-18
4.24853e-18
2.53259552e-18
2.20746481e-18
4.71789703e-18
8.52535652e-18
5.68286761e-18
3.97829016e-18
5.43688617e-18
5.96928153e-18
7.37767895e-18
4.37061421e-18
5.85507501e-19
-6.18136482e-20
1.10827264e-18
-1.1192957e-18
-4.15612174e-19
1.16177466e-18
2.03349447e-18
3.9776765e-18
2.34208613e-18
2.19027462e-18
4.8649897e-18
4.8320754e-18
6.14231463e-18
7.11192955e-18
6.71415446e-18
9.87401619e-18
1.2430987e-17
1.02669079e-17
8.39006363e-18
1.01283844e-17
1.05245686e-17
1.12183174e-17
8.06733776e-18
9.4577977e-18
9.3739313e-18
8.12335029e-18
1.10611824e-17
1.23419921e-17
1.01666962e-17
7.75766641e-18
8.26375833e-18
7.39092616e-18
9.69832482e-18
1.22555343e-17
1.35833769e-17
1.04807393e-17
1.05790194e-17
9.07673739e-18
1.24861117e-17
1.2384028e-17
1.31714984e-17
1.56969043e-17
1.4439998e-17
1.45329405e-17
1.41847777e-17
1.76276538e-17
1.61970788e-17
1.64957298e-17
1.73390454e-17
1.93322088e-17
2.01423358e-17
2.00951294e-17
2.10271705e-17
1.89546181e-17
1.61316287e-17
1.68564529e-17
1.4675801e-17
1.77718476e-17
2.04729651e-17
1.96423447e-17
2.13534114e-17
2.34788813e-17
2.31308199e-17
2.42210966e-17
2.52907604e-17
2.23733117e-17
2.42182046e-17
2.51007982e-17
2.44859547e-17
2.33225394e-17
2.21772481e-17
2.03298291e-17
2.5005618e-17
2.3352426e-17
1.93796348e-17
2.01359793e-17
1.79892536e-17
2.320172e-17
2.37120822e-17
2.47710268e-17
2.68277891e-17
2.31893392e-17
2.4951081e-17
2.6961014e-17
2.72239955e-17
2.93966428e-17
2.83827764e-17
2.94489455e-17
2.93513349e-17
3.17825141e-17
3.21590453e-17
2.95640602e-17
3.27020987e-17
2.99771797e-17
2.91815954e-17
3.19370266e-17
3.02709486e-17
3.33357753e-17
3.3845055e-17
3.13665039e-17
2.93091186e-17
2.67318928e-17
2.61206612e-17
2.93760344e-17
2.94666062e-17
3.19464351e-17
3.52473771e-17
3.75381479e-17
3.69692456e-17
3.88956364e-17
4.13035403e-17
3.85126983e-17
3.87425756e-17
3.8959777e-17
4.14894359e-17
3.86847542e-17
3.56239594e-17
3.6790884e-17
3.50082494e-17
3.16479622e-17
3.52231947e-17
3.66741933e-17
3.49195445e-17
3.87494796e-17
3.64319492e-17
3.31168113e-17
3.71058511e-17
3.78524526e-17
3.82817104e-17
3.70226285e-17
3.69622792e-17
3.64412793e-17
3.71771954e-17
3.64367807e-17
3.61297118e-17
3.23650566e-17
3.1347072e-17
3.3279087e-17
3.34868033e-17
3.31156518e-17
3.29965749e-17
3.41906778e-17
3.43964793e-17
3.72722525e-17
3.9550385e-17
3.80538439e-17
4.12900947e-17
4.00794868e-17
3.89084995e-17
3.59692717e-17
3.95241953e-17
3.81378536e-17
4.03799519e-17
4.5440096e-17
4.79813399e-17
4.59120438e-17
4.59157187e-17
4.43337333e-17
4.41837868e-17