/*--------------------------------*- C++ -*----------------------------------*\
| =========                 |                                                 |
| \\      /  F ield         | OpenFOAM: The Open Source CFD Toolbox           |
|  \\    /   O peration     | Version:  2206                                  |
|   \\  /    A nd           | Website:  www.openfoam.com                      |
|    \\/     M anipulation  |                                                 |
\*---------------------------------------------------------------------------*/
FoamFile
{
    version     2.0;
    format      ascii;
    arch        "LSB;label=32;scalar=64";
    class       volScalarField;
    location    "4e-06";
    object      PVsourcePV;
}
// * * * * * * * * * * * * * * * * * * * * * * * * * * * * * * * * * * * * * //

dimensions      [1 -3 -1 0 0 0 0];

internalField   nonuniform List<scalar> 
3183
(
0
0
0
0
0
0
0
0
0
0
0
0
0
0
0
0
0
0
0
0
0
0
0
0
0
0
0
0
0
0
0
0
0
0
0
0
0
0
0
0
0
0
0
0
0
0
0
0
0
0
0
0
0
0
0
0
0
0
0
0
0
0
0
0
0
0
0
0
0
0
0
0
0
0
0
0
0
0
0
0
0
0
0
0
0
0
0
0
0
0
0
0
0
0
0
0
0
0
0
0
0
0
0
0
0
0
0
0
0
0
0
0
0
0
0
0
0
0
0
0
0
0
0
0
0
0
0
0
0
0
0
0
0
0
0
0
0
0
0
0
0
0
0
0
0
0
0
0
0
0
0
0
0
0
0
0
0
0
0
0
0
0
0
0
0
0
0
0
0
0
0
0
0
0
0
0
0
0
0
0
0
0
0
0
0
0
0
0
0
0
0
0
0
0
0
0
0
0
0
0
0
0
0
0
0
0
0
0
0
0
0
0
0
0
0
0
0
0
0
0
0
0
0
0
0
0
0
0
0
0
0
0
0
0
0
0
0
0
0
0
0
0
0
0
0
0
0
0
0
0
0
0
0
0
0
0
0
0
0
0
0
0
0
0
0
0
0
0
0
0
0
0
0
0
0
0
0
0
0
0
0
0
0
0
0
0
0
0
0
0
0
0
0
0
0
0
0
0
0
0
0
0
0
0
0
0
0
0
0
0
0
0
0
0
0
0
0
0
0
0
0
0
0
0
0
0
0
0
0
0
0
0
0
0
0
0
0
0
0
0
0
0
0
0
0
0
0
0
0
0
0
0
0
0
0
0
0
0
0
0
0
0
0
0
0
0
0
0
0
0
0
0
0
0
0
0
0
0
0
0
0
0
0
0
0
0
0
0
0
0
0
0
0
0
0
0
0
0
0
0
0
0
0
0
0
0
0
0
0
0
0
0
0
0
0
0
0
0
0
0
0
0
0
0
0
0
0
0
0
0
0
0
0
0
0
0
0
0
0
0
0
0
0
0
0
0
0
0
0
0
0
0
0
0
0
0
0
0
0
0
0
0
0
0
0
0
0
0
0
0
0
0
0
0
0
0
0
0
0
0
0
0
0
0
0
0
0
0
0
0
0
0
0
0
0
0
0
0
0
0
0
0
0
0
0
0
0
0
0
0
0
0
0
0
0
0
0
0
0
0
0
0
0
0
0
0
0
0
0
0
0
0
0
0
0
0
0
0
0
0
0
0
0
0
0
0
0
0
0
0
0
0
0
0
0
0
0
0
0
0
0
0
0
0
0
0
0
0
0
0
0
0
0
0
0
0
0
0
0
0
0
0
0
0
0
0
0
0
0
0
0
0
0
0
0
0
0
0
0
0
0
0
0
0
0
0
0
0
0
0
0
0
0
0
0
0
0
0
0
0
0
0
0
0
0
0
0
0
0
0
0
0
0
0
0
0
0
0
0
0
0
0
0
0
0
0
0
0
0
0
0
0
0
0
0
0
0
0
0
0
0
0
0
0
0
0
0
0
0
0
0
0
0
0
0
0
0
0
0
0
0
0
0
0
0
0
0
0
0
0
0
0
0
0
0
0
0
0
0
0
0
0
0
0
0
0
0
0
0
0
0
0
0
0
0
0
0
0
0
0
0
0
0
0
0
0
0
0
0
0
0
0
0
0
0
0
0
0
0
0
0
0
0
0
0
0
0
0
0
0
0
0
0
0
0
0
0
0
0
0
0
0
0
0
0
0
0
0
0
0
0
0
0
0
0
0
0
0
0
0
0
0
0
0
0
0
0
0
0
0
0
0
0
0
0
0
0
0
0
0
0
0
0
0
0
0
0
0
0
0
0
0
0
0
0
0
0
0
0
0
0
0
0
0
0
0
0
0
0
0
0
0
0
0
0
0
0
0
0
0
0
0
0
0
0
0
0
0
0
0
0
0
0
0
0
0
0
0
0
0
0
0
0
0
0
0
0
0
0
0
0
0
0
0
0
0
0
0
0
0
0
0
0
0
0
0
0
0
0
0
0
0
0
0
0
0
0
0
0
0
0
0
0
0
0
0
0
0
0
0
0
0
0
0
0
0
0
0
0
0
0
0
0
0
0
0
0
0
0
0
0
0
0
0
0
0
0
0
0
0
0
0
0
0
0
0
0
0
0
0
0
0
0
0
0
0
0
0
0
0
0
0
0
0
0
0
0
0
0
0
0
0
0
0
0
0
0
0
0
0
0
0
0
0
0
0
0
0
0
0
0
0
0
0
0
0
0
0
0
0
0
0
0
0
0
0
0
0
0
0
0
0
0
0
0
0
0
0
0
0
0
0
0
0
0
0
0
0
0
0
0
0
0
0
0
0
0
0
0
0
0
0
0
0
0
0
0
0
0
0
0
0
0
0
0
0
0
0
0
0
0
0
0
0
0
0
0
0
0
0
0
0
0
0
0
0
0
0
0
0
0
0
0
0
0
0
0
0
0
0
0
0
0
0
0
0
0
0
0
0
0
0
0
0
0
0
0
0
0
0
0
0
0
0
0
0
0
0
0
0
0
0
0
0
0
0
0
0
0
0
0
0
0
0
0
0
0
0
0
0
0
0
0
0
0
0
0
0
0
0
0
0
0
0
0
0
0
0
0
0
0
0
0
0
0
0
0
0
0
0
0
0
0
0
0
0
0
0
0
0
0
0
0
0
0
0
0
0
0
0
0
0
0
0
0
0
0
0
0
0
0
0
0
0
0
0
0
0
0
0
0
0
0
0
0
0
0
0
0
0
0
0
0
0
0
0
0
0
0
0
0
0
0
0
0
0
0
0
0
0
0
0
0
0
0
0
0
0
0
0
0
0
0
0
0
0
0
0
0
0
0
0
0
0
0
0
0
0
0
0
0
0
0
0
0
0
0
0
0
0
0
0
0
0
0
0
0
0
0
0
0
0
0
0
0
0
0
0
0
0
0
0
0
0
0
0
0
0
0
0
0
0
0
0
0
0
0
0
0
0
0
0
0
0
0
0
0
0
0
0
0
0
0
0
0
0
0
0
0
0
0
0
0
0
0
0
0
0
0
0
0
0
0
0
0
0
0
0
0
0
0
0
0
0
0
0
0
0
0
0
0
0
0
0
0
0
0
0
0
0
0
0
0
0
0
0
0
0
0
0
0
0
0
0
0
0
0
0
0
0
0
0
0
0
0
0
0
0
0
0
0
0
0
0
0
0
0
0
0
0
0
0
0
0
0
0
0
0
0
0
0
0
0
0
0
0
0
0
0
0
0
0
0
0
0
0
0
0
0
0
0
0
0
0
0
0
0
0
0
0
0
0
0
0
0
0
0
0
0
0
0
0
0
0
0
0
0
0
0
0
0
0
0
0
0
0
0
0
0
0
0
0
0
0
0
0
0
0
0
0
0
0
0
0
0
0
0
0
0
0
0
0
0
0
0
0
0
0
0
0
0
0
0
0
0
0
0
0
0
0
0
0
0
0
0
0
0
0
0
0
0
0
0
0
0
0
0
0
0
0
0
0
0
0
0
0
0
0
0
0
0
0
0
0
0
0
0
0
0
0
0
0
0
0
0
0
0
0
0
0
0
0
0
0
0
0
0
0
0
0
0
0
0
0
0
0
0
0
0
0
0
0
0
0
0
0
0
0
0
0
0
0
0
0
0
0
0
0
0
0
0
0
0
0
0
0
0
0
0
0
0
0
0
0
0
0
0
0
0
0
0
0
0
0
0
0
0
0
0
0
0
0
0
0
0
0
0
0
0
0
0
0
0
0
0
0
0
0
0
0
0
0
0
0
0
0
0
0
0
0
0
0
0
0
0
0
0
0
0
0
0
0
0
0
0
0
0
0
0
0
0
0
0
0
0
0
0
0
0
0
0
0
0
0
0
0
0
0
0
0
0
0
0
0
0
0
0
0
0
0
0
0
0
0
0
0
0
0
0
0
0
0
0
0
0
0
0
0
0
0
0
0
0
0
0
0
0
0
0
0
0
0
0
0
0
0
0
0
0
0
0
0
0
0
0
0
0
0
0
0
0
0
0
0
0
0
0
0
0
0
0
0
0
0
0
0
0
0
0
0
0
0
0
0
0
0
0
0
0
0
0
0
0
0
0
0
0
0
0
0
0
0
0
0
0
0
0
0
0
0
0
0
0
0
0
0
0
0
0
0
0
0
0
0
0
0
0
0
0
0
0
0
0
0
0
0
0
0
0
0
0
0
0
0
0
0
0
0
0
0
0
0
0
0
0
0
0
0
0
0
0
0
0
0
0
0
0
0
0
0
0
0
0
0
0
0
0
0
0
0
0
0
0
0
0
0
0
0
0
0
0
0
0
0
0
0
0
0
0
0
0
0
0
0
0
0
0
0
0
0
0
0
0
0
0
0
0
0
0
0
0
0
0
0
0
0
0
0
0
0
0
0
0
0
0
0
0
0
0
0
0
0
0
0
0
0
0
0
0
0
0
0
0
0
0
0
0
0
0
0
0
0
0
0
0
0
0
0
0
0
0
0
0
0
0
0
0
0
0
0
0
0
0
0
0
0
0
0
0
0
0
0
0
0
0
0
0
0
0
0
0
0
0
0
0
0
0
0
0
0
0
0
0
0
0
0
0
0
0
0
0
0
0
0
0
0
0
0
0
0
0
0
0
0
0
0
0
0
0
0
0
0
0
0
0
0
0
0
0
0
0
0
0
0
0
0
0
0
0
0
0
0
0
0
0
0
0
0
0
0
0
0
0
0
0
0
0
0
0
0
0
0
0
0
0
0
0
0
0
0
0
0
0
0
0
0
0
0
0
0
0
0
0
0
0
0
0
0
0
0
0
0
0
0
0
0
0
0
0
0
0
0
0
0
0
0
0
0
0
0
0
0
0
0
0
0
0
0
0
0
0
0
0
0
0
0
0
0
0
0
0
0
0
0
0
0
0
0
0
0
0
0
0
0
0
0
0
0
0
0
0
0
0
0
0
0
0
0
0
0
0
0
0
0
0
0
0
0
0
0
0
0
0
0
0
0
0
0
0
0
0
0
0
0
0
0
0
0
0
0
0
0
0
0
0
0
0
0
0
0
0
0
0
0
0
0
0
0
0
0
0
0
0
0
0
0
0
0
0
0
0
0
0
0
0
0
0
0
0
0
0
0
0
0
0
0
0
0
0
0
0
0
0
0
0
0
0
0
0
0
0
0
0
0
0
0
0
0
0
0
0
0
0
0
0
0
0
0
0
0
0
0
0
0
0
0
0
0
0
0
0
0
0
0
0
0
0
0
0
0
0
0
0
0
0
0
0
0
0
0
0
0
0
0
0
0
0
0
0
0
0
0
0
0
0
0
0
0
0
0
0
0
0
0
0
0
0
0
0
0
0
0
0
0
0
0
0
0
0
0
0
0
0
0
0
0
0
0
0
0
0
0
0
0
0
0
0
0
0
0
0
0
0
0
0
0
0
0
0
0
0
0
0
0
0
0
0
0
0
0
0
0
0
0
0
0
0
0
0
0
0
0
0
0
0
0
0
0
0
0
0
0
0
0
0
0
0
0
0
0
0
0
0
1.2507872e-300
0
8.97750835e-291
0
3.31973331e-281
0
6.32429903e-272
0
6.20683142e-263
0
3.13806841e-254
0
8.17291355e-246
0
1.09648375e-237
0
7.57758111e-230
0
2.6975005e-222
0
4.9466193e-215
0
4.67317526e-208
0
2.27491556e-201
0
5.70902677e-195
0
7.39248883e-189
0
4.94779716e-183
0
1.71749633e-177
0
1.85400952e-173
0
1.06302545e-169
0
4.27401961e-166
0
1.3474622e-162
0
3.5345597e-159
0
7.99958112e-156
0
1.60055468e-152
0
2.88038088e-149
0
4.72257512e-146
0
7.1241943e-143
0
9.96529654e-140
0
1.30062123e-136
0
1.591954e-133
0
1.83510595e-130
0
1.9992877e-127
0
2.06474264e-124
0
2.02642716e-121
0
1.89411938e-118
0
1.68926148e-115
0
1.43974972e-112
0
1.17426693e-109
4.22691956e-111
9.17571775e-107
6.64541649e-108
6.87598972e-104
7.30936445e-105
4.94554419e-101
6.82895442e-102
3.41647451e-98
5.74490933e-99
2.26816226e-95
4.46486371e-96
1.44776381e-92
3.24969563e-93
8.88785935e-90
2.23304684e-90
5.24898584e-87
1.45616987e-87
2.98257636e-84
9.04224183e-85
1.63065464e-81
5.35926198e-82
8.57749166e-79
3.03661483e-79
4.34027326e-76
1.64659829e-76
2.11212051e-73
8.55024154e-74
9.88110819e-71
4.25303658e-71
4.44191313e-68
2.02659805e-68
1.91757499e-65
9.24903773e-66
7.94396126e-63
4.04112153e-63
3.15535147e-60
1.68930076e-60
1.2004383e-57
6.75060221e-58
4.36911021e-55
2.57598695e-55
1.51914946e-52
9.37439925e-53
5.03798086e-50
3.24834983e-50
1.59052273e-47
1.06978453e-47
4.76972802e-45
3.34112733e-45
1.35518473e-42
9.87030421e-43
3.63696195e-40
2.74967114e-40
9.18664044e-38
7.19720128e-38
2.1746624e-35
1.76232007e-35
4.79951096e-33
4.01559704e-33
9.8134233e-31
8.45949513e-31
1.8443168e-28
1.63440975e-28
3.15415449e-26
2.86649688e-26
4.84472703e-24
4.50325224e-24
6.56598315e-22
6.22606542e-22
7.65764858e-20
7.38053103e-20
7.40107408e-18
7.28166123e-18
5.57096675e-16
5.1768808e-16
9.32041273e-13
9.99930384e-13
0.269103508
0.469220659
0.452934654
0.380073484
0.030324779
0.0276274106
0.00289893635
0.00283409485
0.000247589726
0.000245723861
1.85408055e-05
1.90258916e-05
1.90174576e-06
1.91002943e-06
7.60960658e-07
7.62051292e-07
6.92546598e-07
6.92639603e-07
6.88803003e-07
6.88809643e-07
6.88614255e-07
6.88614563e-07
6.88605807e-07
6.88605536e-07
6.88605277e-07
6.88605572e-07
6.88605284e-07
6.88604983e-07
6.88604928e-07
6.88605865e-07
6.88604837e-07
6.88604636e-07
6.88605184e-07
6.88606025e-07
6.88604082e-07
6.886056e-07
6.88605161e-07
6.88604991e-07
6.88604749e-07
6.88605095e-07
6.88605424e-07
6.88605285e-07
6.88605468e-07
6.88604807e-07
6.88605268e-07
6.88604609e-07
6.8860577e-07
6.8860497e-07
6.88605376e-07
6.88604628e-07
6.88605476e-07
6.88604986e-07
6.88605059e-07
6.8860553e-07
6.88604789e-07
6.8860489e-07
6.88605286e-07
6.88605085e-07
6.88605831e-07
6.88604478e-07
6.88605783e-07
6.88605017e-07
6.88605162e-07
6.88605898e-07
6.88604571e-07
6.88605147e-07
6.88605716e-07
6.88604932e-07
6.88605312e-07
6.8860448e-07
6.88605857e-07
6.88603826e-07
6.88605916e-07
6.8860446e-07
6.88605881e-07
6.88604629e-07
6.8860626e-07
6.88605128e-07
6.88605567e-07
6.8860589e-07
6.88605347e-07
6.8860544e-07
6.88606041e-07
6.88605395e-07
6.8860556e-07
6.88605694e-07
6.88604683e-07
6.88605686e-07
6.8860574e-07
6.88604662e-07
6.88605977e-07
6.88605884e-07
6.88604849e-07
6.88606209e-07
6.88605242e-07
6.88605216e-07
6.88605566e-07
6.88605989e-07
6.88606052e-07
6.88604661e-07
6.886059e-07
6.886054e-07
6.88605528e-07
6.88605791e-07
6.88605816e-07
6.88605166e-07
6.88605787e-07
6.88606257e-07
6.88605353e-07
6.88604893e-07
6.88606542e-07
6.88604539e-07
6.88605982e-07
6.88604976e-07
6.88605472e-07
6.88605632e-07
6.88605689e-07
6.88605697e-07
6.88605574e-07
6.88605954e-07
6.88605822e-07
6.88605213e-07
6.88605813e-07
6.88605441e-07
6.88605853e-07
6.8860535e-07
6.88605348e-07
6.88605503e-07
6.8860616e-07
6.88605954e-07
6.8860577e-07
6.88604835e-07
6.88606245e-07
6.88607374e-07
6.88604917e-07
6.88607062e-07
6.88605514e-07
6.88605376e-07
6.88606832e-07
6.88604993e-07
6.88606498e-07
6.88605642e-07
6.88606368e-07
6.88605307e-07
6.88605726e-07
6.88606417e-07
6.88605778e-07
6.88605702e-07
6.88606211e-07
6.88606438e-07
6.88605881e-07
6.88606612e-07
6.88605974e-07
6.88606551e-07
6.88605669e-07
6.88606544e-07
6.88606035e-07
6.8860653e-07
6.88605893e-07
6.88606349e-07
6.88605826e-07
6.88606166e-07
6.88606268e-07
6.88605982e-07
6.886065e-07
6.88606993e-07
6.88606044e-07
6.88606173e-07
6.88606404e-07
6.88606611e-07
6.88606088e-07
6.88605554e-07
6.88606115e-07
6.88606338e-07
6.88605779e-07
6.88606336e-07
6.88606608e-07
6.88606501e-07
6.88606402e-07
6.88607905e-07
6.8860676e-07
6.88607391e-07
6.88606434e-07
6.88606705e-07
6.88606463e-07
6.88606616e-07
6.88607344e-07
6.88606103e-07
6.88607217e-07
6.8860658e-07
6.88607565e-07
6.88606313e-07
6.88607088e-07
6.88607144e-07
6.88607285e-07
6.88606656e-07
6.88606882e-07
6.88606426e-07
6.88607265e-07
6.88605753e-07
6.88607225e-07
6.88607084e-07
6.88606052e-07
6.88607965e-07
6.88606297e-07
6.88606723e-07
6.88607293e-07
6.88606847e-07
6.88607412e-07
6.88606846e-07
6.88607897e-07
6.88605538e-07
6.88607711e-07
6.88606666e-07
6.88607487e-07
6.88607009e-07
6.88606998e-07
6.88607361e-07
6.88607405e-07
6.88607469e-07
6.88606626e-07
6.88607791e-07
6.88606946e-07
6.88607243e-07
6.88607023e-07
6.88606909e-07
6.88607308e-07
6.88607092e-07
6.88607333e-07
6.88606915e-07
6.886075e-07
6.88607432e-07
6.88607181e-07
6.88606922e-07
6.88607711e-07
6.88607915e-07
6.88607487e-07
6.88607978e-07
6.88607004e-07
6.88607923e-07
6.88607648e-07
6.88607751e-07
6.88607631e-07
6.88607074e-07
6.88607725e-07
6.88607599e-07
6.88607165e-07
6.88607573e-07
6.88607538e-07
6.8860724e-07
6.8860793e-07
6.88607638e-07
6.88608097e-07
6.88607365e-07
6.88607381e-07
6.88607195e-07
6.8860819e-07
6.88607515e-07
6.88608076e-07
6.88607038e-07
6.88607963e-07
6.88608168e-07
6.88608232e-07
6.88607049e-07
6.88608383e-07
6.88607475e-07
6.88607469e-07
6.88607304e-07
6.88607398e-07
6.88606869e-07
6.88608056e-07
6.88608004e-07
6.88607221e-07
6.88608859e-07
6.88607393e-07
6.88608148e-07
6.88607138e-07
6.88607851e-07
6.88608155e-07
6.88607708e-07
6.8860823e-07
6.88607031e-07
6.8860803e-07
6.88607914e-07
6.8860802e-07
6.88607385e-07
6.88607408e-07
6.88607995e-07
6.88607689e-07
6.88608019e-07
6.88607552e-07
6.8860761e-07
6.88607881e-07
6.8860689e-07
6.88608209e-07
6.88607019e-07
6.88608313e-07
6.88607453e-07
6.88608448e-07
6.88608186e-07
6.88608413e-07
6.88607638e-07
6.88608027e-07
6.88607739e-07
6.88608538e-07
6.88607663e-07
6.8860899e-07
6.88607697e-07
6.88608554e-07
6.88608098e-07
6.88608103e-07
6.88607851e-07
6.88606845e-07
6.88608451e-07
6.88607782e-07
6.88607649e-07
6.88608632e-07
6.88607141e-07
6.88608155e-07
6.88607941e-07
6.88608257e-07
6.88608088e-07
6.88607661e-07
6.88608003e-07
6.88607197e-07
6.88608479e-07
6.88607643e-07
6.8860827e-07
6.88607926e-07
6.88607276e-07
6.88607869e-07
6.88608284e-07
6.88607373e-07
6.88607558e-07
6.88608236e-07
6.88607189e-07
6.88608475e-07
6.88607199e-07
6.88608336e-07
6.88607562e-07
6.88608451e-07
6.88607969e-07
6.88607937e-07
6.88608398e-07
6.88607822e-07
6.88608503e-07
6.88607397e-07
6.88608672e-07
6.8860755e-07
6.88607863e-07
6.88607258e-07
6.88608168e-07
6.8860796e-07
6.88607285e-07
6.88608937e-07
6.88607388e-07
6.88608189e-07
6.88608435e-07
6.88608389e-07
6.88607702e-07
6.88608038e-07
6.88607763e-07
6.8860852e-07
6.88607746e-07
6.88607976e-07
6.88608827e-07
6.88608424e-07
6.88608276e-07
6.88608548e-07
6.88608508e-07
6.88608157e-07
6.88608885e-07
6.88607357e-07
6.88608813e-07
6.88608076e-07
6.88608258e-07
6.88608066e-07
6.88608002e-07
6.88608863e-07
6.88607335e-07
6.88608721e-07
6.88608244e-07
6.88607555e-07
6.88607469e-07
6.88607909e-07
6.88608112e-07
6.88607513e-07
6.8860772e-07
6.88607857e-07
6.88607966e-07
6.88608031e-07
6.8860772e-07
6.88608237e-07
6.88607943e-07
6.88607698e-07
6.88608623e-07
6.8860808e-07
6.88608056e-07
6.88607846e-07
6.8860785e-07
6.88607937e-07
6.88607786e-07
6.88607984e-07
6.88609037e-07
6.8860735e-07
6.88608212e-07
6.88607651e-07
6.88608315e-07
6.88608162e-07
6.88608135e-07
6.88608669e-07
6.88607754e-07
6.8860773e-07
6.88607272e-07
6.88608312e-07
6.88607733e-07
6.88608497e-07
6.88608335e-07
6.8860804e-07
6.88607617e-07
6.8860862e-07
6.88607499e-07
6.88608009e-07
6.88607862e-07
6.88608561e-07
6.88607375e-07
6.88607858e-07
6.88608609e-07
6.88607754e-07
6.88608491e-07
6.88608587e-07
6.88608547e-07
6.88607942e-07
6.88608146e-07
6.88608406e-07
6.88608193e-07
6.88608356e-07
6.88608331e-07
6.88608181e-07
6.88608143e-07
6.88608313e-07
6.88607818e-07
6.88607774e-07
6.8860794e-07
6.88608136e-07
6.88608204e-07
6.8860898e-07
6.88608341e-07
6.88607772e-07
6.88609016e-07
6.88607088e-07
6.88607583e-07
6.88608692e-07
6.88607845e-07
6.88608138e-07
6.88608542e-07
6.88608178e-07
6.88607782e-07
6.88608425e-07
6.88607776e-07
6.8860731e-07
6.88608378e-07
6.88608133e-07
6.88607786e-07
6.88607923e-07
6.88607295e-07
6.88608713e-07
6.88607581e-07
6.88608808e-07
6.8860809e-07
6.88607963e-07
6.88608547e-07
6.88607813e-07
6.88608149e-07
6.88608001e-07
6.88608673e-07
6.88607744e-07
6.88608042e-07
6.88607964e-07
6.88607844e-07
6.88607533e-07
6.88607977e-07
6.88607935e-07
6.88608442e-07
6.88608099e-07
6.88607298e-07
6.88608809e-07
6.88607849e-07
6.88608483e-07
6.88607488e-07
6.88607813e-07
6.88608238e-07
6.88608882e-07
6.88607956e-07
6.88607821e-07
6.88607721e-07
6.8860795e-07
6.886076e-07
6.88608781e-07
6.88607556e-07
6.88609158e-07
6.88607319e-07
6.88607887e-07
6.88608457e-07
6.88607904e-07
6.88608553e-07
6.88608131e-07
6.88608043e-07
6.88607945e-07
6.8860791e-07
6.88608245e-07
6.88607721e-07
6.88608126e-07
6.88607956e-07
6.88608143e-07
6.88608117e-07
6.88607852e-07
6.88608028e-07
6.88608017e-07
6.88607936e-07
6.88607992e-07
6.88608043e-07
6.88608007e-07
6.88608e-07
6.88607955e-07
6.88607976e-07
6.88608003e-07
6.88607987e-07
6.88607981e-07
6.88608036e-07
6.88607996e-07
6.88607995e-07
6.88607997e-07
6.88607989e-07
6.88608028e-07
6.88607993e-07
6.88607973e-07
6.88607981e-07
6.88607992e-07
6.88607991e-07
6.88607993e-07
6.88607992e-07
6.88607992e-07
6.88607993e-07
6.88607998e-07
6.88607997e-07
6.88608001e-07
6.88607981e-07
6.88608001e-07
6.88607993e-07
6.88607992e-07
6.88607998e-07
6.88607998e-07
6.88607993e-07
6.88608001e-07
6.88607989e-07
6.88607997e-07
6.88607982e-07
6.88607992e-07
6.88607996e-07
6.88608001e-07
6.88607994e-07
6.88607995e-07
6.88607983e-07
6.88607998e-07
6.88607997e-07
6.88607995e-07
6.88607992e-07
6.88607989e-07
6.88608006e-07
6.88607992e-07
6.88607998e-07
6.88607993e-07
6.88607991e-07
6.88607998e-07
6.88607989e-07
6.88607987e-07
6.88607992e-07
)
;

boundaryField
{
    closed
    {
        type            calculated;
        value           uniform 0;
    }
    open
    {
        type            calculated;
        value           uniform 0;
    }
    sides
    {
        type            empty;
    }
}


// ************************************************************************* //
