/*--------------------------------*- C++ -*----------------------------------*\
| =========                 |                                                 |
| \\      /  F ield         | OpenFOAM: The Open Source CFD Toolbox           |
|  \\    /   O peration     | Version:  2206                                  |
|   \\  /    A nd           | Website:  www.openfoam.com                      |
|    \\/     M anipulation  |                                                 |
\*---------------------------------------------------------------------------*/
FoamFile
{
    version     2.0;
    format      ascii;
    arch        "LSB;label=32;scalar=64";
    class       volScalarField;
    location    "4e-06";
    object      sourcePV;
}
// * * * * * * * * * * * * * * * * * * * * * * * * * * * * * * * * * * * * * //

dimensions      [1 -3 -1 0 0 0 0];

internalField   nonuniform List<scalar> 
3183
(
0
0
0
0
0
0
0
0
0
0
0
0
0
0
0
0
0
0
0
0
0
0
0
0
0
0
0
0
0
0
0
0
0
0
0
0
0
0
0
0
0
0
0
0
0
0
0
0
0
0
0
0
0
0
0
0
0
0
0
0
0
0
0
0
0
0
0
0
0
0
0
0
0
0
0
0
0
0
0
0
0
0
0
0
0
0
0
0
0
0
0
0
0
0
0
0
0
0
0
0
0
0
0
0
0
0
0
0
0
0
0
0
0
0
0
0
0
0
0
0
0
0
0
0
0
0
0
0
0
0
0
0
0
0
0
0
0
0
0
0
0
0
0
0
0
0
0
0
0
0
0
0
0
0
0
0
0
0
0
0
0
0
0
0
0
0
0
0
0
0
0
0
0
0
0
0
0
0
0
0
0
0
0
0
0
0
0
0
0
0
0
0
0
0
0
0
0
0
0
0
0
0
0
0
0
0
0
0
0
0
0
0
0
0
0
0
0
0
0
0
0
0
0
0
0
0
0
0
0
0
0
0
0
0
0
0
0
0
0
0
0
0
0
0
0
0
0
0
0
0
0
0
0
0
0
0
0
0
0
0
0
0
0
0
0
0
0
0
0
0
0
0
0
0
0
0
0
0
0
0
0
0
0
0
0
0
0
0
0
0
0
0
0
0
0
0
0
0
0
0
0
0
0
0
0
0
0
0
0
0
0
0
0
0
0
0
0
0
0
0
0
0
0
0
0
0
0
0
0
0
0
0
0
0
0
0
0
0
0
0
0
0
0
0
0
0
0
0
0
0
0
0
0
0
0
0
0
0
0
0
0
0
0
0
0
0
0
0
0
0
0
0
0
0
0
0
0
0
0
0
0
0
0
0
0
0
0
0
0
0
0
0
0
0
0
0
0
0
0
0
0
0
0
0
0
0
0
0
0
0
0
0
0
0
0
0
0
0
0
0
0
0
0
0
0
0
0
0
0
0
0
0
0
0
0
0
0
0
0
0
0
0
0
0
0
0
0
0
0
0
0
0
0
0
0
0
0
0
0
0
0
0
0
0
0
0
0
0
0
0
0
0
0
0
0
0
0
0
0
0
0
0
0
0
0
0
0
0
0
0
0
0
0
0
0
0
0
0
0
0
0
0
0
0
0
0
0
0
0
0
0
0
0
0
0
0
0
0
0
0
0
0
0
0
0
0
0
0
0
0
0
0
0
0
0
0
0
0
0
0
0
0
0
0
0
0
0
0
0
0
0
0
0
0
0
0
0
0
0
0
0
0
0
0
0
0
0
0
0
0
0
0
0
0
0
0
0
0
0
0
0
0
0
0
0
0
0
0
0
0
0
0
0
0
0
0
0
0
0
0
0
0
0
0
0
0
0
0
0
0
0
0
0
0
0
0
0
0
0
0
0
0
0
0
0
0
0
0
0
0
0
0
0
0
0
0
0
0
0
0
0
0
0
0
0
0
0
0
0
0
0
0
0
0
0
0
0
0
0
0
0
0
0
0
0
0
0
0
0
0
0
0
0
0
0
0
0
0
0
0
0
0
0
0
0
0
0
0
0
0
0
0
0
0
0
0
0
0
0
0
0
0
0
0
0
0
0
0
0
0
0
0
0
0
0
0
0
0
0
0
0
0
0
0
0
0
0
0
0
0
0
0
0
0
0
0
0
0
0
0
0
0
0
0
0
0
0
0
0
0
0
0
0
0
0
0
0
0
0
0
0
0
0
0
0
0
0
0
0
0
0
0
0
0
0
0
0
0
0
0
0
0
0
0
0
0
0
0
0
0
0
0
0
0
0
0
0
0
0
0
0
0
0
0
0
0
0
0
0
0
0
0
0
0
0
0
0
0
0
0
0
0
0
0
0
0
0
0
0
0
0
0
0
0
0
0
0
0
0
0
0
0
0
0
0
0
0
0
0
0
0
0
0
0
0
0
0
0
0
0
0
0
0
0
0
0
0
0
0
0
0
0
0
0
0
0
0
0
0
0
0
0
0
0
0
0
0
0
0
0
0
0
0
0
0
0
0
0
0
0
0
0
0
0
0
0
0
0
0
0
0
0
0
0
0
0
0
0
0
0
0
0
0
0
0
0
0
0
0
0
0
0
0
0
0
0
0
0
0
0
0
0
0
0
0
0
0
0
0
0
0
0
0
0
0
0
0
0
0
0
0
0
0
0
0
0
0
0
0
0
0
0
0
0
0
0
0
0
0
0
0
0
0
0
0
0
0
0
0
0
0
0
0
0
0
0
0
0
0
0
0
0
0
0
0
0
0
0
0
0
0
0
0
0
0
0
0
0
0
0
0
0
0
0
0
0
0
0
0
0
0
0
0
0
0
0
0
0
0
0
0
0
0
0
0
0
0
0
0
0
0
0
0
0
0
0
0
0
0
0
0
0
0
0
0
0
0
0
0
0
0
0
0
0
0
0
0
0
0
0
0
0
0
0
0
0
0
0
0
0
0
0
0
0
0
0
0
0
0
0
0
0
0
0
0
0
0
0
0
0
0
0
0
0
0
0
0
0
0
0
0
0
0
0
0
0
0
0
0
0
0
0
0
0
0
0
0
0
0
0
0
0
0
0
0
0
0
0
0
0
0
0
0
0
0
0
0
0
0
0
0
0
0
0
0
0
0
0
0
0
0
0
0
0
0
0
0
0
0
0
0
0
0
0
0
0
0
0
0
0
0
0
0
0
0
0
0
0
0
0
0
0
0
0
0
0
0
0
0
0
0
0
0
0
0
0
0
0
0
0
0
0
0
0
0
0
0
0
0
0
0
0
0
0
0
0
0
0
0
0
0
0
0
0
0
0
0
0
0
0
0
0
0
0
0
0
0
0
0
0
0
0
0
0
0
0
0
0
0
0
0
0
0
0
0
0
0
0
0
0
0
0
0
0
0
0
0
0
0
0
0
0
0
0
0
0
0
0
0
0
0
0
0
0
0
0
0
0
0
0
0
0
0
0
0
0
0
0
0
0
0
0
0
0
0
0
0
0
0
0
0
0
0
0
0
0
0
0
0
0
0
0
0
0
0
0
0
0
0
0
0
0
0
0
0
0
0
0
0
0
0
0
0
0
0
0
0
0
0
0
0
0
0
0
0
0
0
0
0
0
0
0
0
0
0
0
0
0
0
0
0
0
0
0
0
0
0
0
0
0
0
0
0
0
0
0
0
0
0
0
0
0
0
0
0
0
0
0
0
0
0
0
0
0
0
0
0
0
0
0
0
0
0
0
0
0
0
0
0
0
0
0
0
0
0
0
0
0
0
0
0
0
0
0
0
0
0
0
0
0
0
0
0
0
0
0
0
0
0
0
0
0
0
0
0
0
0
0
0
0
0
0
0
0
0
0
0
0
0
0
0
0
0
0
0
0
0
0
0
0
0
0
0
0
0
0
0
0
0
0
0
0
0
0
0
0
0
0
0
0
0
0
0
0
0
0
0
0
0
0
0
0
0
0
0
0
0
0
0
0
0
0
0
0
0
0
0
0
0
0
0
0
0
0
0
0
0
0
0
0
0
0
0
0
0
0
0
0
0
0
0
0
0
0
0
0
0
0
0
0
0
0
0
0
0
0
0
0
0
0
0
0
0
0
0
0
0
0
0
0
0
0
0
0
0
0
0
0
0
0
0
0
0
0
0
0
0
0
0
0
0
0
0
0
0
0
0
0
0
0
0
0
0
0
0
0
0
0
0
0
0
0
0
0
0
0
0
0
0
0
0
0
0
0
0
0
0
0
0
0
0
0
0
0
0
0
0
0
0
0
0
0
0
0
0
0
0
0
0
0
0
0
0
0
0
0
0
0
0
0
0
0
0
0
0
0
0
0
0
0
0
0
0
0
0
0
0
0
0
0
0
0
0
0
0
0
0
0
0
0
0
0
0
0
0
0
0
0
0
0
0
0
0
0
0
0
0
0
0
0
0
0
0
0
0
0
0
0
0
0
0
0
0
0
0
0
0
0
0
0
0
0
0
0
0
0
0
0
0
0
0
0
0
0
0
0
0
0
0
0
0
0
0
0
0
0
0
0
0
0
0
0
0
0
0
0
0
0
0
0
0
0
0
0
0
0
0
0
0
0
0
0
0
0
0
0
0
0
0
0
0
0
0
0
0
0
0
0
0
0
0
0
0
0
0
0
0
0
0
0
0
0
0
0
0
0
0
0
0
0
0
0
0
0
0
0
0
0
0
0
0
0
0
0
0
0
0
0
0
0
0
0
0
0
0
0
0
0
0
0
0
0
0
0
0
0
0
0
0
0
0
0
0
0
0
0
0
0
0
0
0
0
0
0
0
0
0
0
0
0
0
0
0
0
0
0
0
0
0
0
0
0
0
0
0
0
0
0
0
0
0
0
0
0
0
0
0
0
0
0
0
0
0
0
0
0
0
0
0
0
0
0
0
0
0
0
0
0
0
0
0
0
0
0
0
0
0
0
0
0
0
0
0
0
0
0
0
0
0
0
0
0
0
0
0
0
0
0
0
0
0
0
0
0
0
0
0
0
0
0
0
0
0
0
0
0
0
0
0
0
0
0
0
0
0
0
0
0
0
0
0
0
0
0
0
0
0
0
0
0
0
0
0
0
0
0
0
0
0
0
0
0
0
0
0
0
0
0
0
0
0
0
0
0
0
0
0
0
0
0
0
0
0
0
0
0
0
0
0
0
0
0
0
0
0
0
0
0
0
0
0
0
0
0
0
0
0
0
0
0
0
0
0
0
0
0
0
0
0
0
0
0
0
0
0
0
0
0
0
0
0
0
0
0
0
0
0
0
0
0
0
0
0
0
0
0
0
0
0
0
0
0
0
0
0
0
0
0
0
0
0
0
0
0
0
0
0
0
0
0
0
0
0
0
0
0
0
0
0
0
0
0
0
0
0
0
0
0
0
0
0
0
0
0
0
0
0
0
0
0
0
0
0
0
0
0
0
0
0
0
0
0
0
0
0
0
0
0
0
0
0
0
0
0
0
0
0
0
0
0
0
0
0
0
0
0
0
0
0
0
0
0
0
0
0
0
0
0
0
0
0
0
0
0
0
0
0
0
0
0
0
0
0
0
0
0
0
0
0
0
0
0
0
0
0
0
0
0
0
0
0
0
0
0
0
0
0
0
0
0
0
0
0
0
0
0
0
0
0
0
0
0
0
0
0
0
0
0
0
0
0
0
0
0
0
0
0
0
0
0
0
0
0
0
0
0
0
0
0
0
0
0
0
0
0
0
0
0
0
0
0
0
0
0
0
0
0
0
0
0
0
0
0
0
0
0
0
0
0
0
0
0
0
0
0
0
0
0
0
0
0
0
0
0
0
0
0
0
0
0
0
0
0
0
0
0
0
0
0
0
0
0
0
0
0
0
0
0
0
0
0
0
0
0
0
0
0
0
0
0
0
0
0
0
0
0
0
0
0
0
0
0
0
0
0
0
0
0
0
0
0
0
0
0
0
0
0
0
0
0
0
0
0
0
0
0
0
0
0
0
0
0
0
0
0
0
0
0
0
0
0
0
0
0
0
0
0
0
0
0
0
0
0
2.18374877e-297
0
1.56738275e-287
0
5.79592079e-278
0
1.10415906e-268
0
1.0836504e-259
0
5.47875213e-251
0
1.42690858e-242
0
1.91435046e-234
0
1.32296952e-226
0
4.70956483e-219
0
8.63630025e-212
0
8.15889443e-205
0
3.97177399e-198
0
9.9673871e-192
0
1.29065427e-185
0
8.63835668e-180
0
2.99857602e-174
0
3.23691433e-170
0
1.85593562e-166
0
7.46200878e-163
0
2.35253361e-159
0
6.17098608e-156
0
1.39664648e-152
0
2.79440765e-149
0
5.02885559e-146
0
8.24514164e-143
0
1.24381274e-139
0
1.73984064e-136
0
2.27075397e-133
0
2.77939172e-130
0
3.2039106e-127
0
3.49055543e-124
0
3.60483318e-121
0
3.5379382e-118
0
3.30694212e-115
0
2.9492808e-112
0
2.51365834e-109
0
2.05015207e-106
7.37977683e-108
1.60198812e-103
1.16022294e-104
1.20047871e-100
1.27614159e-101
8.63442322e-98
1.19226682e-98
5.9648212e-95
1.00300344e-95
3.9599834e-92
7.7952034e-93
2.52765013e-89
5.67364203e-90
1.55173094e-86
3.8986754e-87
9.16420186e-84
2.54232628e-84
5.20727864e-81
1.57868457e-81
2.84695915e-78
9.35673292e-79
1.49754386e-75
5.30162438e-76
7.57768099e-73
2.87479516e-73
3.68755018e-70
1.49278626e-70
1.7251422e-67
7.42537451e-68
7.75513399e-65
3.53823656e-65
3.34789326e-62
1.61478905e-62
1.38693581e-59
7.05539214e-60
5.50892662e-57
2.94934939e-57
2.09584465e-54
1.17858731e-54
7.62802742e-52
4.49741437e-52
2.65228232e-49
1.63667591e-49
8.79580835e-47
5.67129241e-47
2.77689287e-44
1.8677363e-44
8.32746586e-42
5.83327259e-42
2.36601637e-39
1.72325594e-39
6.34977011e-37
4.80064952e-37
1.60389511e-34
1.25655902e-34
3.79674203e-32
3.07683376e-32
8.37946387e-30
7.01082895e-30
1.7133251e-27
1.47694285e-27
3.21999181e-25
2.8535152e-25
5.5068368e-23
5.00461552e-23
8.4584066e-21
7.86222592e-21
1.14635468e-18
1.08700846e-18
1.3369485e-16
1.28856656e-16
1.29215317e-14
1.27130488e-14
9.72634816e-13
9.0383137e-13
3.51477378e-10
3.70706169e-10
4.40541523
7.09931459
5.53982041
4.61343813
0.356168495
0.32448755
0.0340483829
0.0332868111
0.00290796984
0.00288605501
0.000217760285
0.000223457684
2.23323504e-05
2.24296432e-05
8.93368014e-06
8.94648978e-06
8.13014805e-06
8.13124041e-06
8.08617903e-06
8.08625703e-06
8.08396217e-06
8.08396578e-06
8.08386294e-06
8.08385976e-06
8.08385672e-06
8.08386019e-06
8.0838568e-06
8.08385327e-06
8.08385262e-06
8.08386363e-06
8.08385155e-06
8.08384919e-06
8.08385562e-06
8.0838655e-06
8.08384269e-06
8.08386051e-06
8.08385536e-06
8.08385335e-06
8.08385052e-06
8.08385458e-06
8.08385845e-06
8.08385682e-06
8.08385896e-06
8.0838512e-06
8.08385662e-06
8.08384887e-06
8.08386251e-06
8.08385311e-06
8.08385788e-06
8.0838491e-06
8.08385905e-06
8.0838533e-06
8.08385416e-06
8.08385969e-06
8.08385098e-06
8.08385218e-06
8.08385683e-06
8.08385447e-06
8.08386323e-06
8.08384734e-06
8.08386266e-06
8.08385366e-06
8.08385537e-06
8.08386401e-06
8.08384843e-06
8.08385519e-06
8.08386188e-06
8.08385267e-06
8.08385714e-06
8.08384736e-06
8.08386353e-06
8.08383968e-06
8.08386422e-06
8.08384713e-06
8.08386382e-06
8.08384911e-06
8.08386827e-06
8.08385496e-06
8.08386012e-06
8.08386391e-06
8.08385754e-06
8.08385863e-06
8.08386569e-06
8.08385811e-06
8.08386004e-06
8.08386162e-06
8.08384974e-06
8.08386152e-06
8.08386216e-06
8.0838495e-06
8.08386494e-06
8.08386385e-06
8.08385169e-06
8.08386766e-06
8.08385631e-06
8.083856e-06
8.08386011e-06
8.08386508e-06
8.08386582e-06
8.08384948e-06
8.08386404e-06
8.08385816e-06
8.08385967e-06
8.08386276e-06
8.08386305e-06
8.08385542e-06
8.08386271e-06
8.08386822e-06
8.08385761e-06
8.08385221e-06
8.08387158e-06
8.08384805e-06
8.083865e-06
8.08385319e-06
8.08385901e-06
8.08386089e-06
8.08386156e-06
8.08386165e-06
8.08386021e-06
8.08386467e-06
8.08386312e-06
8.08385597e-06
8.08386301e-06
8.08385864e-06
8.08386348e-06
8.08385758e-06
8.08385755e-06
8.08385937e-06
8.08386709e-06
8.08386467e-06
8.08386251e-06
8.08385152e-06
8.08386809e-06
8.08388135e-06
8.08385249e-06
8.08387768e-06
8.0838595e-06
8.08385789e-06
8.08387498e-06
8.08385339e-06
8.08387106e-06
8.083861e-06
8.08386953e-06
8.08385707e-06
8.083862e-06
8.08387011e-06
8.0838626e-06
8.08386171e-06
8.08386768e-06
8.08387035e-06
8.08386382e-06
8.0838724e-06
8.08386491e-06
8.08387168e-06
8.08386132e-06
8.0838716e-06
8.08386562e-06
8.08387143e-06
8.08386396e-06
8.08386932e-06
8.08386316e-06
8.08386715e-06
8.08386836e-06
8.08386499e-06
8.08387108e-06
8.08387688e-06
8.08386573e-06
8.08386724e-06
8.08386995e-06
8.08387239e-06
8.08386624e-06
8.08385997e-06
8.08386656e-06
8.08386918e-06
8.08386261e-06
8.08386916e-06
8.08387236e-06
8.08387109e-06
8.08386993e-06
8.08388759e-06
8.08387413e-06
8.08388155e-06
8.08387031e-06
8.08387349e-06
8.08387065e-06
8.08387245e-06
8.083881e-06
8.08386642e-06
8.0838795e-06
8.08387203e-06
8.08388359e-06
8.08386889e-06
8.08387799e-06
8.08387865e-06
8.08388031e-06
8.08387292e-06
8.08387557e-06
8.08387022e-06
8.08388007e-06
8.0838623e-06
8.0838796e-06
8.08387795e-06
8.08386582e-06
8.08388829e-06
8.0838687e-06
8.0838737e-06
8.08388039e-06
8.08387516e-06
8.08388179e-06
8.08387515e-06
8.08388749e-06
8.08385978e-06
8.08388531e-06
8.08387303e-06
8.08388268e-06
8.08387706e-06
8.08387693e-06
8.0838812e-06
8.08388171e-06
8.08388246e-06
8.08387257e-06
8.08388625e-06
8.08387633e-06
8.08387981e-06
8.08387723e-06
8.08387588e-06
8.08388057e-06
8.08387803e-06
8.08388087e-06
8.08387596e-06
8.08388283e-06
8.08388204e-06
8.08387908e-06
8.08387604e-06
8.08388531e-06
8.0838877e-06
8.08388268e-06
8.08388844e-06
8.083877e-06
8.0838878e-06
8.08388457e-06
8.08388577e-06
8.08388437e-06
8.08387782e-06
8.08388547e-06
8.08388399e-06
8.08387889e-06
8.08388369e-06
8.08388327e-06
8.08387978e-06
8.08388788e-06
8.08388445e-06
8.08388984e-06
8.08388124e-06
8.08388143e-06
8.08387925e-06
8.08389093e-06
8.083883e-06
8.0838896e-06
8.0838774e-06
8.08388826e-06
8.08389068e-06
8.08389143e-06
8.08387753e-06
8.0838932e-06
8.08388253e-06
8.08388246e-06
8.08388053e-06
8.08388163e-06
8.08387542e-06
8.08388936e-06
8.08388875e-06
8.08387956e-06
8.08389879e-06
8.08388157e-06
8.08389043e-06
8.08387857e-06
8.08388695e-06
8.08389052e-06
8.08388528e-06
8.0838914e-06
8.08387732e-06
8.08388906e-06
8.08388769e-06
8.08388894e-06
8.08388147e-06
8.08388175e-06
8.08388864e-06
8.08388504e-06
8.08388892e-06
8.08388344e-06
8.08388412e-06
8.0838873e-06
8.08387566e-06
8.08389115e-06
8.08387717e-06
8.08389238e-06
8.08388228e-06
8.08389396e-06
8.08389089e-06
8.08389355e-06
8.08388445e-06
8.08388902e-06
8.08388564e-06
8.08389502e-06
8.08388475e-06
8.08390033e-06
8.08388514e-06
8.08389521e-06
8.08388985e-06
8.08388992e-06
8.08388695e-06
8.08387514e-06
8.083894e-06
8.08388614e-06
8.08388458e-06
8.08389612e-06
8.08387861e-06
8.08389052e-06
8.08388801e-06
8.08389172e-06
8.08388974e-06
8.08388472e-06
8.08388874e-06
8.08387927e-06
8.08389432e-06
8.08388451e-06
8.08389187e-06
8.08388783e-06
8.0838802e-06
8.08388716e-06
8.08389203e-06
8.08388134e-06
8.08388351e-06
8.08389147e-06
8.08387918e-06
8.08389428e-06
8.08387929e-06
8.08389265e-06
8.08388356e-06
8.08389399e-06
8.08388834e-06
8.08388797e-06
8.08389338e-06
8.08388661e-06
8.08389461e-06
8.08388162e-06
8.0838966e-06
8.08388341e-06
8.08388709e-06
8.08387998e-06
8.08389068e-06
8.08388823e-06
8.08388031e-06
8.08389971e-06
8.08388152e-06
8.08389092e-06
8.08389381e-06
8.08389327e-06
8.0838852e-06
8.08388914e-06
8.08388591e-06
8.08389481e-06
8.08388572e-06
8.08388842e-06
8.08389841e-06
8.08389368e-06
8.08389194e-06
8.08389514e-06
8.08389467e-06
8.08389054e-06
8.0838991e-06
8.08388115e-06
8.08389825e-06
8.0838896e-06
8.08389173e-06
8.08388948e-06
8.08388873e-06
8.08389883e-06
8.08388089e-06
8.08389717e-06
8.08389157e-06
8.08388348e-06
8.08388246e-06
8.08388763e-06
8.08389002e-06
8.08388298e-06
8.08388541e-06
8.08388702e-06
8.08388831e-06
8.08388907e-06
8.08388541e-06
8.08389148e-06
8.08388803e-06
8.08388515e-06
8.08389602e-06
8.08388964e-06
8.08388936e-06
8.0838869e-06
8.08388694e-06
8.08388796e-06
8.08388619e-06
8.08388852e-06
8.08390088e-06
8.08388106e-06
8.0838912e-06
8.0838846e-06
8.0838924e-06
8.0838906e-06
8.08389029e-06
8.08389656e-06
8.08388582e-06
8.08388553e-06
8.08388015e-06
8.08389236e-06
8.08388556e-06
8.08389453e-06
8.08389264e-06
8.08388917e-06
8.08388421e-06
8.08389598e-06
8.08388282e-06
8.0838888e-06
8.08388708e-06
8.0838953e-06
8.08388136e-06
8.08388703e-06
8.08389586e-06
8.08388582e-06
8.08389447e-06
8.08389559e-06
8.08389513e-06
8.08388802e-06
8.08389041e-06
8.08389347e-06
8.08389096e-06
8.08389288e-06
8.08389258e-06
8.08389083e-06
8.08389038e-06
8.08389237e-06
8.08388657e-06
8.08388605e-06
8.083888e-06
8.0838903e-06
8.0838911e-06
8.08390021e-06
8.08389271e-06
8.08388603e-06
8.08390063e-06
8.08387799e-06
8.0838838e-06
8.08389683e-06
8.08388689e-06
8.08389032e-06
8.08389506e-06
8.08389079e-06
8.08388614e-06
8.0838937e-06
8.08388607e-06
8.0838806e-06
8.08389315e-06
8.08389026e-06
8.08388619e-06
8.0838878e-06
8.08388043e-06
8.08389707e-06
8.08388378e-06
8.08389819e-06
8.08388976e-06
8.08388826e-06
8.08389513e-06
8.0838865e-06
8.08389046e-06
8.08388871e-06
8.08389661e-06
8.08388569e-06
8.0838892e-06
8.08388827e-06
8.08388687e-06
8.08388322e-06
8.08388843e-06
8.08388793e-06
8.08389389e-06
8.08388986e-06
8.08388046e-06
8.0838982e-06
8.08388693e-06
8.08389437e-06
8.08388269e-06
8.0838865e-06
8.08389149e-06
8.08389906e-06
8.08388819e-06
8.0838866e-06
8.08388542e-06
8.08388811e-06
8.08388401e-06
8.08389787e-06
8.08388349e-06
8.08390231e-06
8.0838807e-06
8.08388737e-06
8.08389407e-06
8.08388757e-06
8.0838952e-06
8.08389024e-06
8.08388921e-06
8.08388805e-06
8.08388764e-06
8.08389158e-06
8.08388542e-06
8.08389018e-06
8.08388819e-06
8.08389038e-06
8.08389007e-06
8.08388696e-06
8.08388903e-06
8.0838889e-06
8.08388795e-06
8.0838886e-06
8.08388921e-06
8.08388878e-06
8.0838887e-06
8.08388817e-06
8.08388842e-06
8.08388874e-06
8.08388855e-06
8.08388847e-06
8.08388912e-06
8.08388866e-06
8.08388864e-06
8.08388867e-06
8.08388857e-06
8.08388903e-06
8.08388862e-06
8.08388838e-06
8.08388847e-06
8.08388861e-06
8.08388859e-06
8.08388862e-06
8.08388861e-06
8.08388861e-06
8.08388862e-06
8.08388868e-06
8.08388867e-06
8.08388871e-06
8.08388847e-06
8.08388871e-06
8.08388862e-06
8.0838886e-06
8.08388868e-06
8.08388868e-06
8.08388862e-06
8.08388872e-06
8.08388857e-06
8.08388867e-06
8.08388849e-06
8.0838886e-06
8.08388866e-06
8.08388872e-06
8.08388863e-06
8.08388864e-06
8.08388851e-06
8.08388868e-06
8.08388867e-06
8.08388864e-06
8.08388861e-06
8.08388857e-06
8.08388877e-06
8.08388861e-06
8.08388868e-06
8.08388862e-06
8.08388859e-06
8.08388868e-06
8.08388857e-06
8.08388855e-06
8.08388861e-06
)
;

boundaryField
{
    closed
    {
        type            calculated;
        value           uniform 0;
    }
    open
    {
        type            calculated;
        value           uniform 0;
    }
    sides
    {
        type            empty;
    }
}


// ************************************************************************* //
