/*--------------------------------*- C++ -*----------------------------------*\
| =========                 |                                                 |
| \\      /  F ield         | OpenFOAM: The Open Source CFD Toolbox           |
|  \\    /   O peration     | Version:  2206                                  |
|   \\  /    A nd           | Website:  www.openfoam.com                      |
|    \\/     M anipulation  |                                                 |
\*---------------------------------------------------------------------------*/
FoamFile
{
    version     2.0;
    format      ascii;
    arch        "LSB;label=32;scalar=64";
    class       volVectorField;
    location    "4e-06";
    object      U;
}
// * * * * * * * * * * * * * * * * * * * * * * * * * * * * * * * * * * * * * //

dimensions      [0 1 -1 0 0 0 0];

internalField   nonuniform List<vector> 
3183
(
(8.04824264e-14 0 0)
(-5.40532739e-15 0 0)
(-4.55069334e-14 0 0)
(-3.99043181e-14 0 0)
(-4.19894595e-14 0 0)
(-7.02650507e-19 0 0)
(-5.54497865e-20 0 0)
(-1.44806946e-24 0 0)
(4.7409436e-25 0 0)
(1.37984308e-23 0 0)
(3.97755901e-19 0 0)
(5.04938305e-18 0 0)
(1.73563784e-13 0 0)
(6.97324118e-14 0 0)
(-1.29283282e-13 0 0)
(-1.43389262e-13 0 0)
(1.4700488e-13 0 0)
(-1.22269397e-14 0 0)
(-4.24084397e-13 0 0)
(2.25287978e-14 0 0)
(2.79839873e-13 0 0)
(2.08335638e-17 0 0)
(2.19585654e-18 0 0)
(9.29616607e-19 0 0)
(1.16454812e-14 0 0)
(1.34669542e-13 0 0)
(4.44238228e-13 0 0)
(1.01635627e-13 0 0)
(-2.99359958e-13 0 0)
(-2.47682744e-13 0 0)
(-2.60435917e-13 0 0)
(5.8088273e-14 0 0)
(6.10810179e-14 0 0)
(-1.28641762e-13 0 0)
(-2.06405935e-18 0 0)
(9.15103889e-14 0 0)
(-9.6346722e-14 0 0)
(-1.12637642e-13 0 0)
(8.28034347e-14 0 0)
(-8.74805154e-14 0 0)
(-3.54584606e-13 0 0)
(-3.17730447e-13 0 0)
(7.24786379e-14 0 0)
(1.53281417e-14 0 0)
(1.60895227e-13 0 0)
(1.69667923e-13 0 0)
(2.4957889e-13 0 0)
(7.49093011e-14 0 0)
(-1.9321824e-14 0 0)
(-4.14759059e-14 0 0)
(-4.66767066e-16 0 0)
(2.16486086e-16 0 0)
(-1.44634883e-13 0 0)
(-1.78497862e-13 0 0)
(-2.80678039e-14 0 0)
(-1.67983294e-13 0 0)
(-5.92416198e-16 0 0)
(6.23890134e-14 0 0)
(9.82067356e-14 0 0)
(1.37745822e-13 0 0)
(-1.07819576e-13 0 0)
(-3.8068344e-14 0 0)
(-3.10784878e-16 0 0)
(4.31158177e-14 0 0)
(2.24187862e-13 0 0)
(2.34235513e-13 0 0)
(3.95676222e-13 0 0)
(5.19792735e-13 0 0)
(8.15393716e-13 0 0)
(4.68993946e-13 0 0)
(7.19715118e-13 0 0)
(7.66907388e-13 0 0)
(4.75911097e-13 0 0)
(8.34602093e-13 0 0)
(3.71347728e-13 0 0)
(4.06533501e-13 0 0)
(3.34117753e-13 0 0)
(8.51079638e-13 0 0)
(7.45266207e-13 0 0)
(1.04555895e-12 0 0)
(7.94311624e-13 0 0)
(9.58218399e-13 0 0)
(9.45755264e-13 0 0)
(2.94099981e-13 0 0)
(7.69624946e-13 0 0)
(7.16603165e-13 0 0)
(5.75898677e-13 0 0)
(1.94376471e-13 0 0)
(9.86521901e-13 0 0)
(8.81951056e-13 0 0)
(9.31979078e-13 0 0)
(5.00214831e-13 0 0)
(4.51525394e-13 0 0)
(1.41064893e-13 0 0)
(6.23932986e-13 0 0)
(1.09220866e-12 0 0)
(-5.36917359e-13 0 0)
(7.89093947e-13 0 0)
(1.18988074e-12 0 0)
(2.48112423e-15 0 0)
(1.04598769e-12 0 0)
(5.83410076e-13 0 0)
(3.28399177e-13 0 0)
(9.65856738e-13 0 0)
(3.67977915e-13 0 0)
(9.07075568e-13 0 0)
(1.28705442e-13 0 0)
(1.02458039e-12 0 0)
(9.08695291e-13 0 0)
(1.05962527e-12 0 0)
(6.35035987e-13 0 0)
(2.11206423e-12 0 0)
(2.78610729e-13 0 0)
(2.03443226e-13 0 0)
(4.71175617e-13 0 0)
(-1.5456807e-14 0 0)
(4.44055122e-13 0 0)
(5.94016337e-13 0 0)
(1.09873999e-12 0 0)
(-2.4405305e-14 0 0)
(-4.76775377e-13 0 0)
(-2.71981748e-13 0 0)
(5.27379838e-14 0 0)
(3.04007888e-13 0 0)
(3.34778167e-13 0 0)
(-7.60191818e-13 0 0)
(1.80215476e-12 0 0)
(3.40702361e-13 0 0)
(7.25443991e-13 0 0)
(8.05071158e-16 0 0)
(1.30200079e-12 0 0)
(1.05225871e-12 0 0)
(1.18098934e-12 0 0)
(1.98531901e-12 0 0)
(6.00895524e-13 0 0)
(1.59426363e-12 0 0)
(1.7353023e-12 0 0)
(1.12142793e-12 0 0)
(1.05935519e-12 0 0)
(1.28662978e-12 0 0)
(1.5062725e-12 0 0)
(1.22343348e-12 0 0)
(1.24683267e-12 0 0)
(6.27276223e-13 0 0)
(1.1464361e-12 0 0)
(1.56507768e-12 0 0)
(9.02716854e-13 0 0)
(1.443899e-12 0 0)
(1.15699465e-12 0 0)
(1.39557147e-12 0 0)
(1.63443563e-12 0 0)
(1.22328083e-12 0 0)
(1.28633528e-12 0 0)
(1.42357427e-12 0 0)
(9.85272026e-13 0 0)
(4.34315281e-13 0 0)
(7.44774122e-13 0 0)
(1.0065614e-12 0 0)
(1.1741267e-12 0 0)
(9.26628994e-13 0 0)
(4.1347112e-13 0 0)
(1.43657817e-12 0 0)
(5.35965723e-13 0 0)
(7.82593724e-13 0 0)
(1.12981184e-12 0 0)
(2.1026624e-12 0 0)
(6.79038702e-13 0 0)
(7.90876209e-13 0 0)
(9.82890293e-13 0 0)
(1.23548046e-12 0 0)
(4.07655921e-13 0 0)
(1.64077419e-12 0 0)
(1.54245258e-12 0 0)
(3.76463247e-13 0 0)
(1.27687105e-12 0 0)
(7.56229247e-13 0 0)
(6.57043402e-13 0 0)
(1.62940981e-13 0 0)
(-3.83630522e-13 0 0)
(1.36517932e-12 0 0)
(8.28464457e-13 0 0)
(-8.12093861e-13 0 0)
(7.06731816e-13 0 0)
(6.51981245e-14 0 0)
(-5.83044323e-13 0 0)
(-5.20797448e-13 0 0)
(8.86338179e-13 0 0)
(-1.1685424e-13 0 0)
(-9.63446807e-14 0 0)
(5.70627871e-13 0 0)
(3.10929396e-13 0 0)
(8.47880637e-13 0 0)
(-2.96764125e-13 0 0)
(4.75494046e-13 0 0)
(5.06513476e-13 0 0)
(9.45917753e-13 0 0)
(5.2303609e-13 0 0)
(-3.01494415e-13 0 0)
(-2.33347774e-14 0 0)
(-7.97423942e-14 0 0)
(-4.0080709e-13 0 0)
(-7.54204771e-13 0 0)
(-2.37792576e-13 0 0)
(-9.76368067e-13 0 0)
(-1.04455827e-12 0 0)
(-7.69328889e-13 0 0)
(-2.15193066e-12 0 0)
(-5.70549002e-13 0 0)
(-3.68745194e-13 0 0)
(-3.79480582e-13 0 0)
(-6.07611897e-13 0 0)
(-5.0338689e-13 0 0)
(-2.37463105e-13 0 0)
(1.29984531e-13 0 0)
(2.09655684e-13 0 0)
(-3.95870231e-13 0 0)
(-1.5935097e-13 0 0)
(-1.5160191e-12 0 0)
(8.73338201e-14 0 0)
(-1.42019282e-13 0 0)
(-1.81313521e-12 0 0)
(-9.48650995e-13 0 0)
(-6.98407238e-13 0 0)
(-4.82952015e-13 0 0)
(-1.47023786e-13 0 0)
(-1.22004456e-12 0 0)
(-1.765379e-14 0 0)
(-7.9057096e-13 0 0)
(-1.14824668e-12 0 0)
(-1.12263228e-12 0 0)
(-1.57958513e-12 0 0)
(-8.60504467e-13 0 0)
(-1.85893382e-12 0 0)
(-9.91128731e-13 0 0)
(-1.60849461e-12 0 0)
(-1.61139018e-12 0 0)
(-2.28698489e-12 0 0)
(-1.90826163e-12 0 0)
(-2.47278197e-12 0 0)
(-2.12216754e-12 0 0)
(-2.58392069e-12 0 0)
(-3.00763338e-12 0 0)
(-1.87883754e-12 0 0)
(-1.90395853e-12 0 0)
(-2.52814524e-12 0 0)
(-3.22937378e-12 0 0)
(-2.57518539e-12 0 0)
(-2.96906088e-12 0 0)
(-2.51522248e-12 0 0)
(-3.06436207e-12 0 0)
(-2.36652257e-12 0 0)
(-3.60782984e-12 0 0)
(-2.58132618e-12 0 0)
(-3.07171512e-12 0 0)
(-2.37495276e-12 0 0)
(-3.58833587e-12 0 0)
(-3.1822267e-12 0 0)
(-2.63169247e-12 0 0)
(-2.67289714e-12 0 0)
(-3.72605298e-12 0 0)
(-2.62207002e-12 0 0)
(-2.83992474e-12 0 0)
(-2.97822184e-12 0 0)
(-2.78208864e-12 0 0)
(-3.0381779e-12 0 0)
(-2.74186779e-12 0 0)
(-2.45539884e-12 0 0)
(-2.94472642e-12 0 0)
(-3.09329443e-12 0 0)
(-3.08647148e-12 0 0)
(-2.96692409e-12 0 0)
(-3.40816559e-12 0 0)
(-3.80038937e-12 0 0)
(-3.51213312e-12 0 0)
(-4.48740373e-12 0 0)
(-4.19663373e-12 0 0)
(-4.42722561e-12 0 0)
(-4.7527141e-12 0 0)
(-4.23451732e-12 0 0)
(-3.15839563e-12 0 0)
(-3.47112089e-12 0 0)
(-4.1831398e-12 0 0)
(-4.03392551e-12 0 0)
(-3.32063456e-12 0 0)
(-3.20500533e-12 0 0)
(-4.59271266e-12 0 0)
(-3.91773446e-12 0 0)
(-4.40882577e-12 0 0)
(-3.56352118e-12 0 0)
(-3.60155424e-12 0 0)
(-3.55563031e-12 0 0)
(-3.89821097e-12 0 0)
(-3.11329955e-12 0 0)
(-4.13796682e-12 0 0)
(-4.5691818e-12 0 0)
(-4.0409238e-12 0 0)
(-4.38547029e-12 0 0)
(-4.17220506e-12 0 0)
(-4.03449284e-12 0 0)
(-4.70183817e-12 0 0)
(-3.17890687e-12 0 0)
(-4.54001992e-12 0 0)
(-4.51575653e-12 0 0)
(-4.47886889e-12 0 0)
(-5.15573946e-12 0 0)
(-5.98883443e-12 0 0)
(-5.29909444e-12 0 0)
(-5.12602233e-12 0 0)
(-5.32629376e-12 0 0)
(-5.41736539e-12 0 0)
(-6.1953263e-12 0 0)
(-5.68625389e-12 0 0)
(-4.84849184e-12 0 0)
(-6.00410239e-12 0 0)
(-5.52899751e-12 0 0)
(-6.81595379e-12 0 0)
(-7.90512857e-12 0 0)
(-7.14358004e-12 0 0)
(-6.76073704e-12 0 0)
(-6.89746404e-12 0 0)
(-6.61969992e-12 0 0)
(-7.84451959e-12 0 0)
(-7.39056826e-12 0 0)
(-6.55200763e-12 0 0)
(-7.32302857e-12 0 0)
(-6.74588207e-12 0 0)
(-7.09185316e-12 0 0)
(-7.55224223e-12 0 0)
(-7.09448853e-12 0 0)
(-6.69451554e-12 0 0)
(-6.23910585e-12 0 0)
(-7.57152475e-12 0 0)
(-7.01537443e-12 0 0)
(-6.90996306e-12 0 0)
(-5.91726934e-12 0 0)
(-6.64613173e-12 0 0)
(-5.39550533e-12 0 0)
(-7.4455908e-12 0 0)
(-6.69948925e-12 0 0)
(-6.52818494e-12 0 0)
(-6.88656992e-12 0 0)
(-7.19155464e-12 0 0)
(-6.810296e-12 0 0)
(-5.92510576e-12 0 0)
(-6.62885067e-12 0 0)
(-6.46484148e-12 0 0)
(-7.58365634e-12 0 0)
(-5.68257472e-12 0 0)
(-7.34562388e-12 0 0)
(-7.07723362e-12 0 0)
(-6.92705032e-12 0 0)
(-6.00213682e-12 0 0)
(-7.7269511e-12 0 0)
(-6.10807245e-12 0 0)
(-5.15009298e-12 0 0)
(-5.73279801e-12 0 0)
(-6.32647183e-12 0 0)
(-5.43955218e-12 0 0)
(-6.50144411e-12 0 0)
(-4.87762222e-12 0 0)
(-5.22642613e-12 0 0)
(-5.42561029e-12 0 0)
(-5.3046128e-12 0 0)
(-4.6810335e-12 0 0)
(-5.26445077e-12 0 0)
(-5.68594382e-12 0 0)
(-4.30544658e-12 0 0)
(-4.66122332e-12 0 0)
(-3.96988833e-12 0 0)
(-4.33113585e-12 0 0)
(-4.31699047e-12 0 0)
(-3.70175168e-12 0 0)
(-4.40398421e-12 0 0)
(-4.47891528e-12 0 0)
(-4.45670262e-12 0 0)
(-3.79275161e-12 0 0)
(-2.99829697e-12 0 0)
(-3.82604686e-12 0 0)
(-3.24726598e-12 0 0)
(-4.71156877e-12 0 0)
(-3.36163786e-12 0 0)
(-3.101216e-12 0 0)
(-3.71529276e-12 0 0)
(-4.0517867e-12 0 0)
(-3.52470872e-12 0 0)
(-3.71148107e-12 0 0)
(-3.80477519e-12 0 0)
(-3.05969155e-12 0 0)
(-3.19519496e-12 0 0)
(-2.49058846e-12 0 0)
(-3.14117617e-12 0 0)
(-3.13189854e-12 0 0)
(-1.92862638e-12 0 0)
(-2.67950399e-12 0 0)
(-1.81542486e-12 0 0)
(-2.01321738e-12 0 0)
(-2.83333161e-12 0 0)
(-2.42585161e-12 0 0)
(-2.41532072e-12 0 0)
(-2.73807919e-12 0 0)
(-2.05148846e-12 0 0)
(-2.65440159e-12 0 0)
(-1.81678077e-12 0 0)
(-2.81375521e-12 0 0)
(-2.1195195e-12 0 0)
(-3.33005448e-12 0 0)
(-1.753813e-12 0 0)
(-2.73871685e-12 0 0)
(-2.86049199e-12 0 0)
(-2.28539149e-12 0 0)
(-2.85039724e-12 0 0)
(-2.02852034e-12 0 0)
(-2.24136518e-12 0 0)
(-2.59111155e-12 0 0)
(-2.41466165e-12 0 0)
(-1.9889672e-12 0 0)
(-1.92107886e-12 0 0)
(-1.88254217e-12 0 0)
(-1.44482209e-12 0 0)
(-2.25190032e-12 0 0)
(-2.21962778e-12 0 0)
(-1.29678788e-12 0 0)
(-1.62280389e-12 0 0)
(-1.57407851e-12 0 0)
(-2.50952658e-12 0 0)
(-1.55793566e-12 0 0)
(-1.12773785e-12 0 0)
(-1.29000838e-12 0 0)
(-2.14454425e-12 0 0)
(2.47437891e-15 0 0)
(6.80297682e-14 0 0)
(-2.0570727e-12 0 0)
(-1.15758584e-12 0 0)
(-7.81105762e-13 0 0)
(-5.09477632e-13 0 0)
(-7.5673349e-13 0 0)
(-3.58464648e-13 0 0)
(-1.64404788e-13 0 0)
(-3.18842207e-13 0 0)
(-6.16166312e-14 0 0)
(4.90982895e-13 0 0)
(-4.53050444e-13 0 0)
(-8.20993642e-13 0 0)
(-1.67408329e-13 0 0)
(1.18053477e-13 0 0)
(9.52665041e-13 0 0)
(-2.26545557e-13 0 0)
(8.30444262e-13 0 0)
(-2.08644257e-13 0 0)
(-8.04666397e-13 0 0)
(-7.59916811e-13 0 0)
(-4.05533458e-13 0 0)
(-1.96036346e-13 0 0)
(-4.43518088e-13 0 0)
(-3.39411837e-13 0 0)
(4.61189964e-13 0 0)
(1.5580849e-13 0 0)
(-2.7828179e-14 0 0)
(-3.53460287e-13 0 0)
(1.59819765e-13 0 0)
(2.15863516e-14 0 0)
(2.04108132e-13 0 0)
(7.61944268e-14 0 0)
(5.0440174e-13 0 0)
(-4.47814294e-13 0 0)
(-2.98578347e-13 0 0)
(-5.80962834e-13 0 0)
(5.5420623e-13 0 0)
(1.91446072e-14 0 0)
(1.20608521e-13 0 0)
(2.47399182e-13 0 0)
(9.05015163e-13 0 0)
(-3.92327589e-14 0 0)
(3.63097826e-13 0 0)
(4.84794443e-13 0 0)
(6.90905534e-13 0 0)
(1.13877402e-12 0 0)
(1.99177571e-13 0 0)
(8.0261262e-13 0 0)
(3.35484483e-13 0 0)
(5.54416432e-14 0 0)
(9.25734617e-13 0 0)
(5.64965953e-13 0 0)
(7.91616876e-14 0 0)
(5.66252636e-13 0 0)
(1.37354441e-13 0 0)
(6.28045234e-13 0 0)
(-3.56151921e-13 0 0)
(-1.72827548e-13 0 0)
(-1.51798541e-13 0 0)
(-8.94402824e-13 0 0)
(-2.88237237e-13 0 0)
(-5.41286054e-13 0 0)
(1.44086544e-13 0 0)
(4.45925895e-13 0 0)
(-6.57203159e-13 0 0)
(-1.20164637e-14 0 0)
(3.90480097e-13 0 0)
(-2.26102857e-13 0 0)
(-1.41072549e-13 0 0)
(-2.35698968e-15 0 0)
(2.91745906e-13 0 0)
(4.53882447e-14 0 0)
(-1.22936592e-13 0 0)
(-5.44695861e-13 0 0)
(-5.53734339e-13 0 0)
(-1.86050797e-14 0 0)
(5.10009709e-14 0 0)
(2.04110918e-15 0 0)
(-1.18531248e-12 0 0)
(-5.0337113e-13 0 0)
(-9.11905387e-13 0 0)
(-2.05836981e-13 0 0)
(4.38317884e-13 0 0)
(-1.06431256e-12 0 0)
(2.79978182e-13 0 0)
(-9.63332656e-13 0 0)
(-2.94996736e-13 0 0)
(-5.56384282e-13 0 0)
(2.89606535e-13 0 0)
(1.00095966e-13 0 0)
(-4.82386817e-14 0 0)
(2.69999353e-13 0 0)
(-4.35750099e-13 0 0)
(3.52115216e-13 0 0)
(-3.43242718e-13 0 0)
(-1.79389184e-13 0 0)
(6.31253673e-13 0 0)
(8.13003103e-13 0 0)
(1.48980809e-13 0 0)
(-1.79912957e-13 0 0)
(-2.4699884e-14 0 0)
(1.59193713e-13 0 0)
(-4.03922598e-14 0 0)
(9.11581156e-13 0 0)
(4.14720621e-13 0 0)
(2.4073314e-13 0 0)
(9.31280545e-13 0 0)
(9.24714246e-13 0 0)
(8.96335876e-13 0 0)
(-1.97880951e-13 0 0)
(4.52082972e-13 0 0)
(7.48454331e-13 0 0)
(-1.63042848e-13 0 0)
(8.47887638e-13 0 0)
(6.49212604e-13 0 0)
(2.86704699e-13 0 0)
(-2.45146131e-13 0 0)
(-1.95828909e-14 0 0)
(-8.32169195e-13 0 0)
(-5.90238027e-13 0 0)
(-9.05528837e-13 0 0)
(-1.32950806e-12 0 0)
(2.20270616e-13 0 0)
(-4.3716933e-13 0 0)
(9.19074242e-14 0 0)
(8.40727803e-13 0 0)
(3.07650134e-13 0 0)
(5.04463267e-13 0 0)
(-6.63311924e-14 0 0)
(5.51623569e-13 0 0)
(-1.06865028e-12 0 0)
(-2.62629015e-13 0 0)
(2.90321286e-13 0 0)
(1.16523614e-12 0 0)
(-2.00580096e-13 0 0)
(9.7590361e-13 0 0)
(3.17348424e-14 0 0)
(1.44649527e-13 0 0)
(4.03195722e-13 0 0)
(2.04233409e-13 0 0)
(6.1731098e-13 0 0)
(-3.52460458e-14 0 0)
(9.7064639e-13 0 0)
(5.61757949e-13 0 0)
(3.79017096e-13 0 0)
(3.5006888e-13 0 0)
(5.62005572e-13 0 0)
(1.23701113e-12 0 0)
(1.04347572e-12 0 0)
(8.15079606e-13 0 0)
(2.00672999e-12 0 0)
(1.61422281e-12 0 0)
(2.30235214e-12 0 0)
(2.21058926e-12 0 0)
(1.86105841e-12 0 0)
(2.16267804e-12 0 0)
(1.25962095e-12 0 0)
(1.09720217e-12 0 0)
(2.52400365e-12 0 0)
(1.69777138e-12 0 0)
(2.04407721e-12 0 0)
(1.53980693e-12 0 0)
(2.25000269e-12 0 0)
(2.02088614e-12 0 0)
(1.55815287e-12 0 0)
(2.19485941e-12 0 0)
(1.83493614e-12 0 0)
(1.74524081e-12 0 0)
(1.73496011e-12 0 0)
(1.96440824e-12 0 0)
(1.90032976e-12 0 0)
(2.45925354e-12 0 0)
(7.08232708e-13 0 0)
(1.26199569e-12 0 0)
(1.20681755e-12 0 0)
(9.88108242e-13 0 0)
(1.30664989e-12 0 0)
(1.128566e-12 0 0)
(1.20360889e-12 0 0)
(3.01706857e-13 0 0)
(9.14373897e-13 0 0)
(1.47857659e-12 0 0)
(3.9468217e-13 0 0)
(1.40248159e-12 0 0)
(1.0554584e-12 0 0)
(2.05462446e-12 0 0)
(9.31064944e-13 0 0)
(2.11840196e-12 0 0)
(1.4801097e-12 0 0)
(1.38681049e-12 0 0)
(2.56572074e-12 0 0)
(7.91235914e-13 0 0)
(1.50531815e-12 0 0)
(1.95926162e-12 0 0)
(1.01094198e-12 0 0)
(1.03954264e-12 0 0)
(1.53130849e-12 0 0)
(7.554125e-13 0 0)
(6.73099893e-13 0 0)
(3.12243437e-13 0 0)
(7.14869374e-13 0 0)
(1.13163363e-12 0 0)
(7.5490204e-13 0 0)
(1.09435163e-12 0 0)
(4.10581667e-13 0 0)
(7.93148143e-13 0 0)
(1.42665086e-12 0 0)
(1.01429405e-12 0 0)
(7.40478153e-13 0 0)
(5.09347707e-13 0 0)
(7.66887564e-13 0 0)
(9.69378219e-13 0 0)
(2.09116665e-13 0 0)
(1.12218136e-12 0 0)
(1.24779793e-12 0 0)
(1.6495667e-12 0 0)
(9.3994343e-13 0 0)
(1.65686224e-12 0 0)
(2.12443598e-12 0 0)
(1.39694148e-12 0 0)
(2.74079003e-13 0 0)
(2.28054866e-12 0 0)
(1.51169188e-12 0 0)
(9.64444971e-13 0 0)
(1.81198826e-12 0 0)
(1.02674743e-12 0 0)
(1.23758684e-12 0 0)
(2.29257703e-13 0 0)
(3.83263652e-13 0 0)
(3.3208178e-13 0 0)
(1.01105486e-12 0 0)
(7.56563455e-13 0 0)
(3.24958674e-13 0 0)
(5.76160287e-13 0 0)
(7.40486702e-13 0 0)
(1.56591753e-13 0 0)
(4.69147916e-13 0 0)
(2.64845473e-13 0 0)
(6.49180509e-13 0 0)
(5.59044662e-13 0 0)
(1.16483419e-12 0 0)
(1.0652137e-12 0 0)
(2.12382717e-12 0 0)
(1.18333475e-12 0 0)
(1.0902801e-12 0 0)
(1.37178161e-12 0 0)
(3.43865512e-13 0 0)
(2.3144892e-12 0 0)
(1.12172043e-12 0 0)
(1.99424121e-12 0 0)
(1.39477841e-12 0 0)
(1.43103041e-12 0 0)
(1.88986953e-12 0 0)
(2.09219248e-12 0 0)
(1.50539537e-12 0 0)
(1.68003208e-12 0 0)
(1.46713689e-12 0 0)
(1.75182044e-12 0 0)
(1.59236374e-12 0 0)
(1.16672685e-12 0 0)
(1.69116875e-12 0 0)
(1.68404451e-12 0 0)
(1.84566262e-12 0 0)
(1.61441784e-12 0 0)
(2.03289995e-12 0 0)
(1.58017496e-12 0 0)
(1.32840845e-12 0 0)
(9.55823968e-13 0 0)
(2.39808191e-12 0 0)
(2.53332292e-12 0 0)
(2.79205328e-12 0 0)
(1.70349241e-12 0 0)
(2.72082554e-12 0 0)
(2.25153464e-12 0 0)
(2.25409307e-12 0 0)
(2.8743723e-12 0 0)
(2.26015039e-12 0 0)
(2.03208171e-12 0 0)
(2.95497884e-12 0 0)
(2.03707671e-12 0 0)
(2.70752352e-12 0 0)
(3.06435338e-12 0 0)
(3.08247754e-12 0 0)
(2.49420824e-12 0 0)
(2.91888841e-12 0 0)
(3.06767921e-12 0 0)
(2.77589783e-12 0 0)
(2.92544846e-12 0 0)
(2.91579255e-12 0 0)
(2.44189105e-12 0 0)
(3.60988758e-12 0 0)
(3.82062041e-12 0 0)
(2.51173404e-12 0 0)
(2.60978274e-12 0 0)
(2.97949056e-12 0 0)
(1.65552991e-12 0 0)
(2.11970968e-12 0 0)
(1.7845883e-12 0 0)
(2.30966908e-12 0 0)
(2.33578668e-12 0 0)
(2.17603095e-12 0 0)
(1.74167774e-12 0 0)
(2.04023553e-12 0 0)
(1.80768158e-12 0 0)
(1.84998085e-12 0 0)
(1.9697739e-12 0 0)
(1.4869109e-12 0 0)
(1.68576928e-12 0 0)
(1.73777056e-12 0 0)
(5.85363976e-13 0 0)
(4.0723794e-13 0 0)
(1.0924587e-12 0 0)
(-1.32582821e-13 0 0)
(1.31824241e-12 0 0)
(5.16174572e-13 0 0)
(1.18812091e-12 0 0)
(6.54506371e-14 0 0)
(5.11630674e-13 0 0)
(4.00314964e-13 0 0)
(-1.59251427e-13 0 0)
(1.13111832e-12 0 0)
(3.20253385e-13 0 0)
(-6.53395615e-14 0 0)
(1.73685787e-13 0 0)
(-1.58080402e-13 0 0)
(1.09550177e-12 0 0)
(-1.56290603e-13 0 0)
(4.56348625e-14 0 0)
(8.09499604e-13 0 0)
(1.04208895e-13 0 0)
(1.10104818e-12 0 0)
(6.63139282e-13 0 0)
(1.46238738e-12 0 0)
(1.79255948e-12 0 0)
(2.2160413e-13 0 0)
(1.25696844e-12 0 0)
(4.33258913e-13 0 0)
(1.74774341e-12 0 0)
(1.11417158e-12 0 0)
(2.21869373e-12 0 0)
(1.16310829e-12 0 0)
(1.68555103e-12 0 0)
(2.45134753e-12 0 0)
(1.60247899e-12 0 0)
(2.45175472e-12 0 0)
(1.37243841e-12 0 0)
(1.6638194e-12 0 0)
(1.18511609e-12 0 0)
(1.42480888e-12 0 0)
(1.54920427e-12 0 0)
(1.06484638e-12 0 0)
(1.91666469e-12 0 0)
(1.45234469e-12 0 0)
(1.73991573e-12 0 0)
(5.35774416e-13 0 0)
(1.27383001e-12 0 0)
(2.23206527e-12 0 0)
(2.21081506e-12 0 0)
(2.43833321e-12 0 0)
(2.89699971e-12 0 0)
(2.48942529e-12 0 0)
(2.31073113e-12 0 0)
(2.56302436e-12 0 0)
(8.27892332e-13 0 0)
(1.89656866e-12 0 0)
(5.56318851e-13 0 0)
(2.00402585e-12 0 0)
(1.32277689e-12 0 0)
(2.06197111e-12 0 0)
(1.57147589e-13 0 0)
(1.8811436e-12 0 0)
(1.0222952e-12 0 0)
(1.54422262e-12 0 0)
(2.16379307e-12 0 0)
(1.84648821e-12 0 0)
(1.74722356e-12 0 0)
(1.22321086e-12 0 0)
(1.41768763e-12 0 0)
(1.65779986e-12 0 0)
(5.80931528e-13 0 0)
(8.39240318e-13 0 0)
(5.81591712e-13 0 0)
(4.25371396e-13 0 0)
(-1.06088316e-14 0 0)
(1.47066159e-12 0 0)
(1.16224031e-12 0 0)
(6.15708919e-13 0 0)
(-2.09598744e-13 0 0)
(-1.27345898e-13 0 0)
(4.56272106e-13 0 0)
(-1.45098629e-13 0 0)
(-7.56768277e-13 0 0)
(-1.9078904e-13 0 0)
(-4.3330942e-13 0 0)
(2.59507242e-13 0 0)
(-1.63027528e-13 0 0)
(-1.01999544e-12 0 0)
(-1.23814167e-12 0 0)
(-9.17883671e-13 0 0)
(-1.1370758e-12 0 0)
(-1.15052095e-12 0 0)
(-1.75167734e-12 0 0)
(-4.99579505e-13 0 0)
(-7.46651702e-13 0 0)
(-6.43444007e-13 0 0)
(-8.79970093e-13 0 0)
(-3.65107366e-13 0 0)
(7.2547393e-14 0 0)
(4.9580015e-14 0 0)
(-3.93785856e-13 0 0)
(-2.88415714e-13 0 0)
(1.26264801e-14 0 0)
(-7.55554081e-14 0 0)
(-7.2198792e-13 0 0)
(-6.97063626e-13 0 0)
(1.22607939e-13 0 0)
(-1.02884489e-12 0 0)
(-1.9347654e-13 0 0)
(4.32502786e-13 0 0)
(1.25619849e-12 0 0)
(-4.0257832e-13 0 0)
(2.55989729e-13 0 0)
(5.33911821e-13 0 0)
(6.90835429e-13 0 0)
(-7.61609565e-13 0 0)
(-1.18793364e-12 0 0)
(-4.6079934e-13 0 0)
(-1.25513794e-12 0 0)
(-3.98625549e-13 0 0)
(-9.72532187e-13 0 0)
(-1.28040087e-12 0 0)
(-1.12506692e-12 0 0)
(-4.51187994e-13 0 0)
(-1.44520711e-13 0 0)
(-2.87925482e-13 0 0)
(-4.24830207e-13 0 0)
(-7.58567106e-14 0 0)
(-9.48558227e-14 0 0)
(-8.24115737e-13 0 0)
(-8.65300837e-14 0 0)
(-3.91296382e-13 0 0)
(-2.35982581e-13 0 0)
(-7.9780454e-14 0 0)
(-1.26842264e-13 0 0)
(-1.01892717e-13 0 0)
(1.11847955e-13 0 0)
(-3.03310055e-13 0 0)
(1.26490721e-13 0 0)
(1.19349644e-12 0 0)
(1.8251409e-13 0 0)
(-3.24495018e-13 0 0)
(-1.10543675e-13 0 0)
(9.76824424e-14 0 0)
(5.80140004e-15 0 0)
(-3.82008136e-14 0 0)
(6.66102493e-13 0 0)
(-1.08556109e-13 0 0)
(-3.50494756e-15 0 0)
(4.73602063e-13 0 0)
(1.04052465e-13 0 0)
(9.03915372e-13 0 0)
(-1.08869494e-14 0 0)
(1.25357567e-12 0 0)
(8.58467675e-13 0 0)
(1.22740431e-12 0 0)
(1.52670863e-12 0 0)
(8.95394237e-13 0 0)
(8.22438434e-13 0 0)
(5.40403008e-13 0 0)
(1.04362495e-12 0 0)
(1.69457599e-12 0 0)
(1.3490952e-12 0 0)
(5.56463553e-13 0 0)
(9.35597281e-13 0 0)
(1.28090631e-12 0 0)
(5.8182325e-13 0 0)
(2.05186165e-12 0 0)
(1.16885979e-12 0 0)
(1.817663e-12 0 0)
(7.1747692e-13 0 0)
(1.5317245e-12 0 0)
(1.8256161e-12 0 0)
(1.97912358e-12 0 0)
(2.11173194e-12 0 0)
(1.45938711e-12 0 0)
(1.52122087e-12 0 0)
(7.87521958e-13 0 0)
(1.84581999e-12 0 0)
(1.2144581e-12 0 0)
(1.25021205e-12 0 0)
(1.71557501e-12 0 0)
(1.93725227e-12 0 0)
(1.19474906e-12 0 0)
(1.60095133e-12 0 0)
(2.29628051e-12 0 0)
(1.67975288e-12 0 0)
(1.03869159e-12 0 0)
(2.28571495e-12 0 0)
(1.47360463e-12 0 0)
(2.04948253e-12 0 0)
(1.76498172e-12 0 0)
(2.41057981e-12 0 0)
(1.79135951e-12 0 0)
(2.19222686e-12 0 0)
(2.15696767e-12 0 0)
(2.00499693e-12 0 0)
(1.92057528e-12 0 0)
(1.42886786e-12 0 0)
(1.26304158e-12 0 0)
(2.50047884e-12 0 0)
(2.38046633e-12 0 0)
(2.25976501e-12 0 0)
(1.24134529e-12 0 0)
(2.64972295e-12 0 0)
(1.05511276e-12 0 0)
(2.25983706e-12 0 0)
(2.47964509e-12 0 0)
(2.02881492e-12 0 0)
(2.17290772e-12 0 0)
(2.1384986e-12 0 0)
(3.0240259e-12 0 0)
(2.61284341e-12 0 0)
(2.13913284e-12 0 0)
(2.45963332e-12 0 0)
(1.14732068e-12 0 0)
(2.91393508e-12 0 0)
(2.51359817e-12 0 0)
(2.53231505e-12 0 0)
(8.66448105e-13 0 0)
(1.95194081e-12 0 0)
(2.47257454e-12 0 0)
(2.55447968e-12 0 0)
(2.47594363e-12 0 0)
(1.63042241e-12 0 0)
(2.70963615e-12 0 0)
(3.09271657e-12 0 0)
(2.87251408e-12 0 0)
(1.9026268e-12 0 0)
(3.04415429e-12 0 0)
(3.60543297e-12 0 0)
(4.19197115e-12 0 0)
(3.69397619e-12 0 0)
(4.00572197e-12 0 0)
(3.2904878e-12 0 0)
(4.98183691e-12 0 0)
(3.52996435e-12 0 0)
(4.07369691e-12 0 0)
(3.3598969e-12 0 0)
(3.82529522e-12 0 0)
(3.38045063e-12 0 0)
(3.70714068e-12 0 0)
(3.76404311e-12 0 0)
(4.15815012e-12 0 0)
(3.27712033e-12 0 0)
(2.90646999e-12 0 0)
(3.16985002e-12 0 0)
(4.05228495e-12 0 0)
(3.25516588e-12 0 0)
(3.42284732e-12 0 0)
(4.2342898e-12 0 0)
(4.21350513e-12 0 0)
(5.20321256e-12 0 0)
(3.84086779e-12 0 0)
(3.73048019e-12 0 0)
(3.82812447e-12 0 0)
(4.16420032e-12 0 0)
(3.88971867e-12 0 0)
(4.24329276e-12 0 0)
(4.06895301e-12 0 0)
(3.65732765e-12 0 0)
(3.6076961e-12 0 0)
(4.91945871e-12 0 0)
(3.94139731e-12 0 0)
(4.49185307e-12 0 0)
(5.20856618e-12 0 0)
(5.06172737e-12 0 0)
(4.6438634e-12 0 0)
(4.55093446e-12 0 0)
(4.29566752e-12 0 0)
(4.85364712e-12 0 0)
(4.31412716e-12 0 0)
(4.77709205e-12 0 0)
(4.27733616e-12 0 0)
(3.78412479e-12 0 0)
(4.52119637e-12 0 0)
(4.10653349e-12 0 0)
(3.92611426e-12 0 0)
(4.95551747e-12 0 0)
(4.81317096e-12 0 0)
(3.92444215e-12 0 0)
(3.06169691e-12 0 0)
(3.7088743e-12 0 0)
(4.06312598e-12 0 0)
(4.34398513e-12 0 0)
(3.43692942e-12 0 0)
(2.93685e-12 0 0)
(2.2975604e-12 0 0)
(2.63226675e-12 0 0)
(2.65532883e-12 0 0)
(2.15354984e-12 0 0)
(2.28043021e-12 0 0)
(1.87550614e-12 0 0)
(1.4482187e-12 0 0)
(2.22214685e-12 0 0)
(1.72917459e-12 0 0)
(2.22396065e-12 0 0)
(1.67113882e-12 0 0)
(1.46057552e-12 0 0)
(1.41281403e-12 0 0)
(1.48061714e-12 0 0)
(1.88392917e-12 0 0)
(2.07377596e-12 0 0)
(2.05730097e-12 0 0)
(1.97662024e-12 0 0)
(2.78936652e-12 0 0)
(2.41032749e-12 0 0)
(1.96308427e-12 0 0)
(2.03659871e-12 0 0)
(1.70295749e-12 0 0)
(1.9523632e-12 0 0)
(2.32716218e-12 0 0)
(1.19514317e-12 0 0)
(2.33721176e-12 0 0)
(7.68529259e-13 0 0)
(9.20988858e-13 0 0)
(1.60239974e-12 0 0)
(2.16278259e-12 0 0)
(1.59892879e-12 0 0)
(2.44724926e-12 0 0)
(1.2765616e-12 0 0)
(1.36326341e-12 0 0)
(1.85562566e-12 0 0)
(2.05979978e-12 0 0)
(1.89340468e-12 0 0)
(1.85888753e-12 0 0)
(2.57486606e-12 0 0)
(1.99370096e-12 0 0)
(2.63061343e-12 0 0)
(1.51267885e-12 0 0)
(2.41370101e-12 0 0)
(2.07315631e-12 0 0)
(1.62121211e-12 0 0)
(2.16583855e-12 0 0)
(2.73898631e-12 0 0)
(1.73343579e-12 0 0)
(7.68077593e-13 0 0)
(1.97895865e-12 0 0)
(2.01880528e-12 0 0)
(9.39712943e-13 0 0)
(1.93230036e-12 0 0)
(1.61059349e-12 0 0)
(1.42183194e-12 0 0)
(1.15339673e-12 0 0)
(2.03231088e-12 0 0)
(2.26992663e-12 0 0)
(2.00938751e-12 0 0)
(2.02682556e-12 0 0)
(1.74846025e-12 0 0)
(1.49452303e-12 0 0)
(1.04442626e-12 0 0)
(2.01466495e-12 0 0)
(1.0219835e-12 0 0)
(5.26078518e-13 0 0)
(2.39259138e-14 0 0)
(4.57849764e-13 0 0)
(4.24830742e-13 0 0)
(5.74046906e-13 0 0)
(1.80208228e-13 0 0)
(1.13121048e-12 0 0)
(2.66891322e-13 0 0)
(-6.52321236e-13 0 0)
(-7.25854134e-15 0 0)
(-1.72574149e-12 0 0)
(-1.03375406e-12 0 0)
(-7.64904098e-13 0 0)
(-1.0813551e-12 0 0)
(-1.22284317e-12 0 0)
(-1.15694945e-12 0 0)
(-1.48735205e-12 0 0)
(-1.94906859e-12 0 0)
(-8.69822844e-13 0 0)
(-1.91325281e-12 0 0)
(-1.77283281e-12 0 0)
(-2.8492824e-12 0 0)
(-1.92450585e-12 0 0)
(-1.94494438e-12 0 0)
(-1.3385917e-12 0 0)
(-2.24782675e-12 0 0)
(-2.71375389e-12 0 0)
(-2.53646218e-12 0 0)
(-2.38906141e-12 0 0)
(-2.18861693e-12 0 0)
(-1.16235523e-12 0 0)
(-1.69579798e-12 0 0)
(-2.05106134e-12 0 0)
(-1.49485036e-12 0 0)
(-1.24389211e-12 0 0)
(-1.70901493e-12 0 0)
(-2.0069374e-12 0 0)
(-1.77730791e-12 0 0)
(-2.31055946e-12 0 0)
(-2.42608937e-12 0 0)
(-1.87519489e-12 0 0)
(-2.69713048e-12 0 0)
(-2.75309076e-12 0 0)
(-2.40608626e-12 0 0)
(-2.4051516e-12 0 0)
(-2.26005895e-12 0 0)
(-2.19491447e-12 0 0)
(-2.49817273e-12 0 0)
(-2.47184318e-12 0 0)
(-1.11568521e-12 0 0)
(-2.29780424e-12 0 0)
(-1.33808373e-12 0 0)
(-1.4380917e-12 0 0)
(-3.2242112e-12 0 0)
(-2.23924314e-12 0 0)
(-1.33068202e-12 0 0)
(-1.45515372e-12 0 0)
(-1.37531824e-12 0 0)
(-1.32245525e-12 0 0)
(-1.44959523e-12 0 0)
(-1.15626556e-12 0 0)
(-1.49914208e-12 0 0)
(-4.56771774e-13 0 0)
(-1.14343081e-12 0 0)
(-1.24575362e-12 0 0)
(-4.60043512e-13 0 0)
(-1.68082677e-12 0 0)
(-1.133745e-12 0 0)
(-1.11475456e-12 0 0)
(-9.82126956e-13 0 0)
(-1.51223985e-12 0 0)
(-1.47009798e-12 0 0)
(-9.19134914e-13 0 0)
(-1.16130584e-12 0 0)
(-1.67133172e-13 0 0)
(-1.41083029e-12 0 0)
(-3.04125982e-13 0 0)
(-2.35209171e-13 0 0)
(-8.38651994e-13 0 0)
(-8.9000722e-13 0 0)
(-1.14618071e-12 0 0)
(-7.51639937e-13 0 0)
(-1.11277848e-12 0 0)
(-2.39988497e-12 0 0)
(-2.65720016e-12 0 0)
(-1.47123223e-12 0 0)
(-1.70909211e-12 0 0)
(-3.21300635e-12 0 0)
(-3.26927072e-12 0 0)
(-3.40752086e-12 0 0)
(-3.1965833e-12 0 0)
(-3.26642848e-12 0 0)
(-3.60028775e-12 0 0)
(-2.1586616e-12 0 0)
(-4.40424894e-12 0 0)
(-3.7704293e-12 0 0)
(-3.72863998e-12 0 0)
(-3.78024749e-12 0 0)
(-2.23742643e-12 0 0)
(-4.35897181e-12 0 0)
(-2.62692192e-12 0 0)
(-2.43410259e-12 0 0)
(-3.49511239e-12 0 0)
(-3.76078528e-12 0 0)
(-3.18750195e-12 0 0)
(-2.87375367e-12 0 0)
(-4.81167865e-12 0 0)
(-3.8678168e-12 0 0)
(-4.23545254e-12 0 0)
(-4.65079882e-12 0 0)
(-4.99819485e-12 0 0)
(-4.74170921e-12 0 0)
(-4.26084779e-12 0 0)
(-3.82579459e-12 0 0)
(-4.04892569e-12 0 0)
(-4.03468034e-12 0 0)
(-3.56756747e-12 0 0)
(-4.18351496e-12 0 0)
(-5.19854854e-12 0 0)
(-4.44949963e-12 0 0)
(-4.45228678e-12 0 0)
(-4.36328896e-12 0 0)
(-4.67247366e-12 0 0)
(-4.04172352e-12 0 0)
(-6.00730584e-12 0 0)
(-5.09429247e-12 0 0)
(-3.94835699e-12 0 0)
(-4.58049785e-12 0 0)
(-4.65661417e-12 0 0)
(-4.66507759e-12 0 0)
(-4.55018799e-12 0 0)
(-2.86434949e-12 0 0)
(-3.82778751e-12 0 0)
(-4.45200546e-12 0 0)
(-3.68709265e-12 0 0)
(-4.16774421e-12 0 0)
(-3.32938379e-12 0 0)
(-4.82500155e-12 0 0)
(-3.63381213e-12 0 0)
(-3.46369769e-12 0 0)
(-3.32376993e-12 0 0)
(-4.38834102e-12 0 0)
(-4.23175113e-12 0 0)
(-3.61467152e-12 0 0)
(-2.35690887e-12 0 0)
(-3.60833309e-12 0 0)
(-3.89614667e-12 0 0)
(-3.41023252e-12 0 0)
(-3.32669724e-12 0 0)
(-3.0063532e-12 0 0)
(-3.48311457e-12 0 0)
(-2.65792788e-12 0 0)
(-3.11782009e-12 0 0)
(-2.84206026e-12 0 0)
(-3.7722897e-12 0 0)
(-2.75323832e-12 0 0)
(-3.20756135e-12 0 0)
(-1.49275802e-12 0 0)
(-2.85275552e-12 0 0)
(-2.54917663e-12 0 0)
(-2.75480465e-12 0 0)
(-2.20298981e-12 0 0)
(-2.67962688e-12 0 0)
(-2.70630392e-12 0 0)
(-2.54797607e-12 0 0)
(-1.79945492e-12 0 0)
(-3.44335652e-12 0 0)
(-2.96814713e-12 0 0)
(-2.52406773e-12 0 0)
(-3.08924871e-12 0 0)
(-2.13494103e-12 0 0)
(-2.48724105e-12 0 0)
(-1.91602951e-12 0 0)
(-1.35153523e-12 0 0)
(-3.23005833e-12 0 0)
(-2.00981165e-12 0 0)
(-1.46019335e-12 0 0)
(-2.39218122e-12 0 0)
(-3.02948604e-12 0 0)
(-1.84244794e-12 0 0)
(-1.78167831e-12 0 0)
(-2.38801976e-12 0 0)
(-2.1651242e-12 0 0)
(-1.78663307e-12 0 0)
(-2.0478727e-12 0 0)
(-1.56134867e-12 0 0)
(-1.82856029e-12 0 0)
(-1.87132041e-12 0 0)
(-2.08609466e-12 0 0)
(-1.06358707e-12 0 0)
(-1.30605263e-12 0 0)
(-1.46788805e-12 0 0)
(-1.64579136e-12 0 0)
(-1.44072649e-12 0 0)
(-1.62977991e-12 0 0)
(-1.68961411e-12 0 0)
(-1.74301072e-12 0 0)
(-1.00861383e-12 0 0)
(-1.52846236e-12 0 0)
(-1.42365847e-12 0 0)
(-1.65556605e-12 0 0)
(-1.98378661e-12 0 0)
(-9.93317598e-13 0 0)
(-1.60391308e-12 0 0)
(-1.69349377e-12 0 0)
(-1.61337952e-12 0 0)
(-8.37075722e-13 0 0)
(-1.54799177e-12 0 0)
(-1.47789536e-12 0 0)
(-2.42500023e-12 0 0)
(-9.91537421e-13 0 0)
(-1.53237007e-12 0 0)
(-1.1783064e-12 0 0)
(-2.60628046e-13 0 0)
(-2.06091942e-12 0 0)
(-2.05598285e-12 0 0)
(-1.88016e-12 0 0)
(-1.15203918e-12 0 0)
(-7.00197539e-13 0 0)
(-2.36761834e-12 0 0)
(-1.65390959e-12 0 0)
(-1.18022501e-12 0 0)
(-8.63044578e-13 0 0)
(-5.24677884e-13 0 0)
(-3.38804925e-13 0 0)
(-1.44986607e-13 0 0)
(-5.87574504e-13 0 0)
(-7.63520919e-13 0 0)
(-2.69747176e-13 0 0)
(-2.36568444e-13 0 0)
(-3.13587476e-13 0 0)
(3.71754965e-13 0 0)
(5.94399415e-13 0 0)
(-3.34320049e-13 0 0)
(3.12862825e-14 0 0)
(4.00271205e-13 0 0)
(1.16909006e-12 0 0)
(6.3747453e-13 0 0)
(-3.36701304e-13 0 0)
(-5.35138652e-14 0 0)
(2.30159068e-13 0 0)
(1.71443531e-13 0 0)
(-4.75815028e-14 0 0)
(6.80298437e-13 0 0)
(4.30661237e-13 0 0)
(-4.44150542e-13 0 0)
(6.22149962e-13 0 0)
(-2.12418477e-13 0 0)
(8.09955556e-13 0 0)
(5.24693612e-13 0 0)
(6.02576382e-13 0 0)
(-4.80393839e-13 0 0)
(2.52396877e-13 0 0)
(2.27387602e-13 0 0)
(7.78068066e-13 0 0)
(7.9852108e-13 0 0)
(-1.08984812e-13 0 0)
(8.42477595e-13 0 0)
(2.88717904e-14 0 0)
(1.65274027e-13 0 0)
(3.61490524e-13 0 0)
(2.11096048e-13 0 0)
(2.5831281e-13 0 0)
(4.52323346e-13 0 0)
(-6.50086291e-14 0 0)
(8.33144564e-13 0 0)
(-2.21922124e-13 0 0)
(1.00121238e-12 0 0)
(3.59078512e-13 0 0)