/*--------------------------------*- C++ -*----------------------------------*\
| =========                 |                                                 |
| \\      /  F ield         | OpenFOAM: The Open Source CFD Toolbox           |
|  \\    /   O peration     | Version:  2206                                  |
|   \\  /    A nd           | Website:  www.openfoam.com                      |
|    \\/     M anipulation  |                                                 |
\*---------------------------------------------------------------------------*/
FoamFile
{
    version     2.0;
    format      ascii;
    arch        "LSB;label=32;scalar=64";
    class       volScalarField;
    location    "1.86e-05";
    object      PVsourcePV;
}
// * * * * * * * * * * * * * * * * * * * * * * * * * * * * * * * * * * * * * //

dimensions      [1 -3 -1 0 0 0 0];

internalField   nonuniform List<scalar> 
3183
(
0
0
0
0
0
0
0
0
0
0
0
0
0
0
0
0
0
0
0
0
0
0
0
0
0
0
0
0
0
0
0
0
0
0
0
0
0
0
0
0
0
0
0
0
0
0
0
0
0
0
0
0
0
0
0
0
0
0
0
0
0
0
0
0
0
0
0
0
0
0
0
0
0
0
0
0
0
0
0
0
0
0
0
0
0
0
0
0
0
0
0
0
0
0
0
0
0
0
0
0
0
0
0
0
0
0
0
0
0
0
0
0
0
0
0
0
0
0
0
0
0
0
0
0
0
0
0
0
0
0
0
0
0
0
0
0
0
0
0
0
0
0
0
0
0
0
0
0
0
0
0
0
0
0
0
0
0
0
0
0
0
0
0
0
0
0
0
0
0
0
0
0
0
0
0
0
0
0
0
0
0
0
0
0
0
0
0
0
0
0
0
0
0
0
0
0
0
0
0
0
0
0
0
0
0
0
0
0
0
0
0
0
0
0
0
0
0
0
0
0
0
0
0
0
0
0
0
0
0
0
0
0
0
0
0
0
0
0
0
0
0
0
0
0
0
0
0
0
0
0
0
0
0
0
0
0
0
0
0
0
0
0
0
0
0
0
0
0
0
0
0
0
0
0
0
0
0
0
0
0
0
0
0
0
0
0
0
0
0
0
0
0
0
0
0
0
0
0
0
0
0
0
0
0
0
0
0
0
0
0
0
0
0
0
0
0
0
0
0
0
0
0
0
0
0
0
0
0
0
0
0
0
0
0
0
0
0
0
0
0
0
0
0
0
0
0
0
0
0
0
0
0
0
0
0
0
0
0
0
0
0
0
0
0
0
0
0
0
0
0
0
0
0
0
0
0
0
0
0
0
0
0
0
0
0
0
0
0
0
0
0
0
0
0
0
0
0
0
0
0
0
0
0
0
0
0
0
0
0
0
0
0
0
0
0
0
0
0
0
0
0
0
0
0
0
0
0
0
0
0
0
0
0
0
0
0
0
0
0
0
0
0
0
0
0
0
0
0
0
0
0
0
0
0
0
0
0
0
0
0
0
0
0
0
0
0
0
0
0
0
0
0
0
0
0
0
0
0
0
0
0
0
0
0
0
0
0
0
0
0
0
0
0
0
0
0
0
0
0
0
0
0
0
0
0
0
0
0
0
0
0
0
0
0
0
0
0
0
0
0
0
0
0
0
0
0
0
0
0
0
0
0
0
0
0
0
0
0
0
0
0
0
0
0
0
0
0
0
0
0
0
0
0
0
0
0
0
0
0
0
0
0
0
0
0
0
0
0
0
0
0
0
0
0
0
0
0
0
0
0
0
0
0
0
0
0
0
0
0
0
0
0
0
0
0
0
0
0
0
0
0
0
0
0
0
0
0
0
0
0
0
0
0
0
0
0
0
0
0
0
0
0
0
0
0
0
0
0
0
0
0
0
0
0
0
0
0
0
0
0
0
0
0
0
0
0
0
0
0
0
0
0
0
0
0
0
0
0
0
0
0
0
0
0
0
0
0
0
0
0
0
0
0
0
0
0
0
0
0
0
0
0
0
0
0
0
0
0
0
0
0
0
0
0
0
0
0
0
0
0
0
0
0
0
0
0
0
0
0
0
0
0
0
0
0
0
0
0
0
0
0
0
0
0
0
0
0
0
0
0
0
0
0
0
0
0
0
0
0
0
0
0
0
0
0
0
0
0
0
0
0
0
0
0
0
0
0
0
0
0
0
0
0
0
0
0
0
0
0
0
0
0
0
0
0
0
0
0
0
0
0
0
0
0
0
0
0
0
0
0
0
0
0
0
0
0
0
0
0
0
0
0
0
0
0
0
0
0
0
0
0
0
0
0
0
0
0
0
0
0
0
0
0
0
0
0
0
0
0
0
0
0
0
0
0
0
0
0
0
0
0
0
0
0
0
0
0
0
0
0
0
0
0
0
0
0
0
0
0
0
0
0
0
0
0
0
0
0
0
0
0
0
0
0
0
0
0
0
0
0
0
0
0
0
0
0
0
0
0
0
0
0
0
0
0
0
0
0
0
0
0
0
0
0
0
0
0
0
0
0
0
0
0
0
0
0
0
0
0
0
0
0
0
0
0
0
0
0
0
0
0
0
0
0
0
0
0
0
0
0
0
0
0
0
0
0
0
0
0
0
0
0
0
0
0
0
0
0
0
0
0
0
0
0
0
0
0
0
0
0
0
0
0
0
0
0
0
0
0
0
0
0
0
0
0
0
0
0
0
0
0
0
0
0
0
0
0
0
0
0
0
0
0
0
0
0
0
0
0
0
0
0
0
0
0
0
0
0
0
0
0
0
0
0
0
0
0
0
0
0
0
0
0
0
0
0
0
0
0
0
0
0
0
0
0
0
0
0
0
0
0
0
0
0
0
0
0
0
0
0
0
0
0
0
0
0
0
0
0
0
0
0
0
0
0
0
0
0
0
0
0
0
0
0
0
0
0
0
0
0
0
0
0
0
0
0
0
0
0
0
0
0
0
0
0
0
0
0
0
0
0
0
0
0
0
0
0
0
0
0
0
0
0
0
0
0
0
0
0
0
0
0
0
0
0
0
0
0
0
0
0
0
0
0
0
0
0
0
0
0
0
0
0
0
0
0
0
0
0
0
0
0
0
0
0
0
0
0
0
0
0
0
0
0
0
0
0
0
0
0
0
0
0
0
0
0
0
0
0
0
0
0
0
0
0
0
0
0
0
0
0
0
0
0
0
0
0
0
0
0
0
0
0
0
0
0
0
0
0
0
0
0
0
0
0
0
0
0
0
0
0
0
0
0
0
0
0
0
0
0
0
0
0
0
0
0
0
0
0
0
0
0
0
0
0
0
0
0
0
0
0
0
0
0
0
0
0
0
0
0
0
0
0
0
0
0
0
0
0
0
0
0
0
0
0
0
0
0
0
0
0
0
0
0
0
0
0
0
0
0
0
0
0
0
0
0
0
0
0
0
0
0
0
0
0
0
0
0
0
0
0
0
0
0
0
0
0
0
0
0
0
0
0
0
0
0
0
0
0
0
0
0
0
0
0
0
0
0
0
0
0
0
0
0
0
0
0
0
0
0
0
0
0
0
0
0
0
0
0
0
0
0
0
0
0
0
0
0
0
0
0
0
0
0
0
0
0
0
0
0
0
0
0
0
0
0
0
0
0
0
0
0
0
0
0
0
0
0
0
0
0
0
0
0
0
0
0
0
0
0
0
0
0
0
0
0
0
0
0
0
0
0
0
0
0
0
0
0
0
0
0
0
0
0
0
0
0
0
0
0
0
0
0
0
0
0
0
0
0
0
0
0
0
0
0
0
0
0
0
0
0
0
0
0
0
0
0
0
0
0
0
0
0
0
0
0
0
0
0
0
0
0
0
0
0
0
0
0
0
0
0
0
0
0
0
0
0
0
0
0
0
0
0
0
0
0
0
0
0
0
0
0
0
0
0
0
0
0
0
0
0
0
0
0
0
0
0
0
0
0
0
0
0
0
0
0
0
0
0
0
0
0
0
0
0
0
0
0
0
0
0
0
0
0
0
0
0
0
0
0
0
0
0
0
0
0
0
0
0
0
0
0
0
0
0
0
0
0
0
0
0
0
0
0
0
0
0
0
0
0
0
0
0
0
0
0
0
0
0
0
0
0
0
0
0
0
0
0
0
0
0
0
0
0
0
0
0
0
0
0
0
0
0
0
0
0
0
0
0
0
0
0
0
0
0
0
0
0
0
0
0
0
0
0
0
0
0
0
0
0
0
0
0
0
0
0
0
0
0
0
0
0
0
0
0
0
0
0
0
0
0
0
0
0
0
0
0
0
0
0
0
0
0
0
0
0
0
0
0
0
0
0
0
0
0
0
0
0
0
0
0
0
0
0
0
0
0
0
0
0
0
0
0
0
0
0
0
0
0
0
0
0
0
0
0
0
0
0
0
0
0
0
0
0
0
0
0
0
0
0
0
0
0
0
0
0
0
0
0
0
0
0
0
0
0
0
0
0
0
0
0
0
0
0
0
0
0
0
0
0
0
0
0
0
0
0
0
0
0
0
0
0
0
0
0
0
0
0
0
0
0
0
0
0
0
0
0
0
0
0
0
0
0
0
0
0
0
0
0
0
0
0
0
0
0
0
0
0
0
0
0
0
0
0
0
0
0
0
0
0
0
0
0
0
0
0
0
0
0
0
0
0
0
0
0
0
0
0
0
0
0
0
0
0
0
0
0
0
0
0
0
0
0
0
0
0
0
0
0
0
0
0
0
0
0
0
0
0
0
0
0
0
0
0
0
0
0
0
0
0
0
0
0
0
0
0
0
0
0
0
0
0
0
0
0
0
0
0
0
0
0
0
0
0
0
0
0
0
0
0
0
0
0
0
0
0
0
0
0
0
0
0
0
0
0
0
0
0
0
0
0
0
0
0
0
0
0
0
0
0
0
0
0
0
0
0
0
0
0
0
0
0
0
0
0
0
0
0
0
0
0
0
0
0
0
0
0
0
0
0
0
0
0
0
0
0
0
0
0
0
0
0
0
0
0
0
0
0
0
0
0
0
0
0
0
0
0
0
0
0
0
0
0
0
0
0
0
0
0
0
0
0
0
0
0
0
0
0
0
0
0
0
0
0
0
0
0
0
0
0
0
0
0
0
0
0
0
0
0
0
0
0
0
0
0
0
0
0
0
0
0
0
0
0
0
0
0
0
0
0
0
0
0
0
0
0
0
0
0
0
0
0
0
0
0
0
0
0
0
0
0
0
0
0
0
0
0
0
0
0
0
0
0
0
0
0
0
0
0
0
0
0
0
0
0
0
0
0
0
0
0
0
0
0
0
0
0
0
0
0
0
0
0
0
0
0
0
0
0
0
0
0
0
0
0
0
0
0
0
0
0
0
0
0
0
0
0
0
0
0
0
0
0
0
0
0
0
0
0
0
0
0
0
0
0
0
0
0
0
0
0
0
0
0
0
0
0
0
0
0
0
0
0
0
0
0
0
0
0
0
0
0
0
0
0
0
0
0
0
0
0
0
0
0
0
0
0
0
0
0
0
0
0
0
0
0
0
0
0
0
0
0
0
0
0
0
0
0
0
0
0
0
0
0
0
0
0
0
0
0
0
0
0
0
0
0
0
0
0
0
0
0
0
0
0
0
0
0
0
0
0
0
0
0
0
0
0
0
0
0
0
0
0
0
0
0
0
0
0
0
0
0
0
0
0
0
0
0
0
0
0
0
0
0
0
0
0
0
0
0
0
0
0
0
0
0
0
0
0
0
0
0
0
0
0
0
0
0
0
0
0
0
0
0
0
0
0
0
0
0
0
0
0
0
0
0
0
2.38586837e-299
1.31766865e-299
1.15762032e-296
6.44685585e-297
5.56827287e-294
3.12678391e-294
2.65522604e-291
1.50331124e-291
1.25516411e-288
7.16461598e-289
5.88177542e-286
3.38471423e-286
2.73221977e-283
1.58499468e-283
1.25809058e-280
7.35696062e-281
5.74230918e-278
3.38475491e-278
2.59793539e-275
1.54349323e-275
1.16499863e-272
6.97598169e-273
5.17803994e-270
3.12495768e-270
2.28105276e-267
1.38740092e-267
9.95913627e-265
6.10354246e-265
4.30933539e-262
2.66183174e-262
1.84793398e-259
1.15035589e-259
7.85298534e-257
4.92736146e-257
3.30703897e-254
2.09072045e-254
1.38001372e-251
8.79022903e-252
5.70623667e-249
3.66193067e-249
2.33787071e-246
1.51149975e-246
9.49023357e-244
6.18124118e-244
3.81680242e-241
2.5043432e-241
1.52078835e-238
1.00517736e-238
6.00293185e-236
3.99670083e-236
2.34726463e-233
1.57416155e-233
9.09164362e-231
6.14134512e-231
3.48803927e-228
2.37312859e-228
1.32542464e-225
9.08236163e-226
4.98814067e-223
3.44247976e-223
1.85911704e-220
1.29215184e-220
6.86171525e-218
4.8028477e-218
2.50777862e-215
1.76766447e-215
9.0750272e-213
6.44151899e-213
3.25146923e-210
2.32399351e-210
1.1533313e-207
8.30059838e-208
4.04985943e-205
2.93481302e-205
1.40768323e-202
1.02710686e-202
4.84301289e-200
3.55779963e-200
1.64906389e-197
1.21967291e-197
5.55692852e-195
4.13776202e-195
1.85297995e-192
1.38902755e-192
6.1137415e-190
4.61361308e-190
1.99574225e-187
1.51606168e-187
6.4449879e-185
4.92829906e-185
2.05881777e-182
1.58467213e-182
6.50501492e-180
5.03964827e-180
2.03267632e-177
1.58501812e-177
6.28103357e-175
4.92940659e-175
1.91906094e-172
1.51576908e-172
5.79684019e-170
4.60786076e-170
1.73096071e-167
1.38465545e-167
5.10884841e-165
4.11250562e-165
1.49019627e-162
1.20708584e-162
4.29527864e-160
3.50089551e-160
1.22322779e-157
1.00315931e-157
3.44135953e-155
2.8395446e-155
9.56303651e-153
7.93873926e-153
2.62445212e-150
2.19185647e-150
7.11197363e-148
5.97532642e-148
1.90273927e-145
1.60815814e-145
5.02495783e-143
4.27208042e-143
1.30970377e-140
1.11999674e-140
3.36838576e-138
2.89721632e-138
8.54665409e-136
7.39348093e-136
2.13899712e-133
1.86094965e-133
5.27928151e-131
4.61900289e-131
1.28468647e-128
1.13030714e-128
3.08163033e-126
2.72635362e-126
7.28491208e-124
6.48043538e-124
1.69677223e-121
1.51759891e-121
3.89286027e-119
3.50050474e-119
8.79520434e-117
7.95079252e-117
1.95630097e-114
1.77777351e-114
4.28265843e-112
3.91204192e-112
9.22463005e-110
8.46955747e-110
1.954366e-107
1.80347907e-107
4.07137854e-105
3.77581936e-105
8.33692814e-103
7.76981513e-103
1.67742314e-100
1.57091189e-100
3.31502151e-98
3.11938553e-98
6.43226562e-96
6.08118685e-96
1.22487908e-93
1.16339352e-93
2.28813762e-91
2.18318802e-91
4.19110328e-89
4.0167847e-89
7.5234715e-87
7.2422624e-87
1.3228974e-84
1.27894333e-84
2.27726289e-82
2.21090087e-82
3.83553766e-80
3.73914972e-80
6.31679719e-78
6.18286743e-78
1.01657625e-75
9.98915739e-76
1.59754011e-73
1.57570249e-73
2.4496771e-71
2.42482451e-71
3.6624e-69
3.63715001e-69
5.33400239e-67
5.31224123e-67
7.56093397e-65
7.54614954e-65
1.04209611e-62
1.04120037e-62
1.39506122e-60
1.39349672e-60
1.81191909e-58
1.80680802e-58
2.28039454e-56
2.26807386e-56
2.77731249e-54
2.75668972e-54
3.2684838e-52
3.24533306e-52
3.71089166e-50
3.69667055e-50
4.05753985e-48
4.05294081e-48
4.26464666e-46
4.2463172e-46
4.2997572e-44
4.26808357e-44
4.14862912e-42
4.10730316e-42
3.8205845e-40
3.77536692e-40
3.34847683e-38
3.30557457e-38
2.78370142e-36
2.74753414e-36
2.18689747e-34
2.16051752e-34
1.6165905e-32
1.5953152e-32
1.11893439e-30
1.11715543e-30
7.20844242e-29
7.17867807e-29
4.29465571e-27
4.26593732e-27
2.34660256e-25
2.32810389e-25
1.16431373e-23
1.15624806e-23
5.18190455e-22
5.15697684e-22
2.0368252e-20
2.02918366e-20
6.92892118e-19
6.90137227e-19
1.9845049e-17
1.97804083e-17
4.59953555e-16
4.5910437e-16
1.83699883e-14
1.86214676e-14
1.9745705e-10
2.06295692e-10
0.00190403179
0.00904117729
0.414512959
0.529688374
0.743740156
0.699757548
0.322363167
0.270397274
0.0683363245
0.0560638913
0.0144185145
0.0128765247
0.00333838779
0.0030756045
0.000693987584
0.000661724835
0.000131877782
0.000129622118
2.37793644e-05
2.37139116e-05
4.47078677e-06
4.47133295e-06
1.24620078e-06
1.24662398e-06
7.44516812e-07
7.44573713e-07
6.71480882e-07
6.71497401e-07
6.61506387e-07
6.61506685e-07
6.6021789e-07
6.60218601e-07
6.60059481e-07
6.60061854e-07
6.60040843e-07
6.60043507e-07
6.60040046e-07
6.60039536e-07
6.60040251e-07
6.6003869e-07
6.60040322e-07
6.60038801e-07
6.60040045e-07
6.60039649e-07
6.60040485e-07
6.60039746e-07
6.60040337e-07
6.60040049e-07
6.60040359e-07
6.60040113e-07
6.60040665e-07
6.60040454e-07
6.60040912e-07
6.60040396e-07
6.60040473e-07
6.60040419e-07
6.60039333e-07
6.60041235e-07
6.60039681e-07
6.60040903e-07
6.60039289e-07
6.60040298e-07
6.60039121e-07
6.60040228e-07
6.60038849e-07
6.60039924e-07
6.60038955e-07
6.60041042e-07
6.60038058e-07
6.60041078e-07
6.60039029e-07
6.60039982e-07
6.60039206e-07
6.60040636e-07
6.60038921e-07
6.60041362e-07
6.60038684e-07
6.60041114e-07
6.60039771e-07
6.60040876e-07
6.6003953e-07
6.60039927e-07
6.60039803e-07
6.60039749e-07
6.60040665e-07
6.60039498e-07
6.60039884e-07
6.60039055e-07
6.60040691e-07
6.60038778e-07
6.60041485e-07
6.60038724e-07
6.60040908e-07
6.600394e-07
6.60041938e-07
6.60039199e-07
6.60040854e-07
6.60039397e-07
6.60040407e-07
6.60040161e-07
6.60040752e-07
6.60039262e-07
6.60041032e-07
6.60039704e-07
6.60039347e-07
6.60040668e-07
6.600393e-07
6.6003998e-07
6.6004073e-07
6.60039655e-07
6.60040185e-07
6.60039523e-07
6.60039726e-07
6.60039584e-07
6.60039465e-07
6.60040502e-07
6.60038236e-07
6.60041119e-07
6.60039202e-07
6.60041463e-07
6.60039289e-07
6.60041182e-07
6.6003931e-07
6.60040117e-07
6.60040158e-07
6.600406e-07
6.60039325e-07
6.60041426e-07
6.60039249e-07
6.60040943e-07
6.60039945e-07
6.60040995e-07
6.60040588e-07
6.60041274e-07
6.60040386e-07
6.6004132e-07
6.60039996e-07
6.60040548e-07
6.60039634e-07
6.60040533e-07
6.60039571e-07
6.60039685e-07
6.60039134e-07
6.60040887e-07
6.60038712e-07
6.60039899e-07
6.60039248e-07
6.60040145e-07
6.60039962e-07
6.60039462e-07
6.60041784e-07
6.60038205e-07
6.60040726e-07
6.6003863e-07
6.60041821e-07
6.60039463e-07
6.60041047e-07
6.60039027e-07
6.60041491e-07
6.6003848e-07
6.60041981e-07
6.60038801e-07
6.60041933e-07
6.60039192e-07
6.60042405e-07
6.60039593e-07
6.60040416e-07
6.60040169e-07
6.60040148e-07
6.60039101e-07
6.60040123e-07
6.60039315e-07
6.60039063e-07
6.60041209e-07
6.60039686e-07
6.60044851e-07
6.60046029e-07
6.60079096e-07
6.6008243e-07
6.60220406e-07
6.60218395e-07
6.60079029e-07
6.60079702e-07
6.60045017e-07
6.60044894e-07
6.60040621e-07
6.60040652e-07
6.60040348e-07
6.60040813e-07
6.60039465e-07
6.60040744e-07
6.60039614e-07
6.6004113e-07
6.60040148e-07
6.60040888e-07
6.60039497e-07
6.6004027e-07
6.60039602e-07
6.60041241e-07
6.60039323e-07
6.60041293e-07
6.60039568e-07
6.60042004e-07
6.60039163e-07
6.60041781e-07
6.6003938e-07
6.60040421e-07
6.60040041e-07
6.60041201e-07
6.60039888e-07
6.60040652e-07
6.6003983e-07
6.60040851e-07
6.60039747e-07
6.60041183e-07
6.60040504e-07
6.6004038e-07
6.60040684e-07
6.60040336e-07
6.60041032e-07
6.60040551e-07
6.60040334e-07
6.60040693e-07
6.60041384e-07
6.60040938e-07
6.60039605e-07
6.60041399e-07
6.60039418e-07
6.60041316e-07
6.6004006e-07
6.60040579e-07
6.60040504e-07
6.60041146e-07
6.60040579e-07
6.60040481e-07
6.60041284e-07
6.60040582e-07
6.60041302e-07
6.60040783e-07
6.60040969e-07
6.60041189e-07
6.6004177e-07
6.60040009e-07
6.60042005e-07
6.60039486e-07
6.60041667e-07
6.60039459e-07
6.60041034e-07
6.60039853e-07
6.60039884e-07
6.60041043e-07
6.60040565e-07
6.6003995e-07
6.6004046e-07
6.60040688e-07
6.60040592e-07
6.60039612e-07
6.60041282e-07
6.60040222e-07
6.60041512e-07
6.60040481e-07
6.60041775e-07
6.60040574e-07
6.6004033e-07
6.60041371e-07
6.60039661e-07
6.60041094e-07
6.60039385e-07
6.60041225e-07
6.60039837e-07
6.60041893e-07
6.60039633e-07
6.60041005e-07
6.60040666e-07
6.60040367e-07
6.60041701e-07
6.60039764e-07
6.60040697e-07
6.60040222e-07
6.60040472e-07
6.60040491e-07
6.60040673e-07
6.60040368e-07
6.60040395e-07
6.60040375e-07
6.60040082e-07
6.60040421e-07
6.60040725e-07
6.60040668e-07
6.60041295e-07
6.6004094e-07
6.60040584e-07
6.60041655e-07
6.600399e-07
6.60040123e-07
6.60040565e-07
6.60039787e-07
6.60041651e-07
6.60041211e-07
6.60040796e-07
6.60041561e-07
6.60041121e-07
6.60041282e-07
6.60040856e-07
6.60040741e-07
6.60041427e-07
6.60040515e-07
6.6004043e-07
6.60039866e-07
6.60041197e-07
6.60038775e-07
6.60041061e-07
6.60039723e-07
6.60041335e-07
6.60040593e-07
6.60040704e-07
6.60041179e-07
6.60040129e-07
6.6004196e-07
6.60039624e-07
6.60041679e-07
6.60038874e-07
6.6004243e-07
6.60039877e-07
6.60042049e-07
6.60039802e-07
6.60041217e-07
6.60040536e-07
6.60041685e-07
6.60040288e-07
6.6004183e-07
6.60040205e-07
6.60040354e-07
6.60040788e-07
6.60040791e-07
6.60040876e-07
6.6004066e-07
6.60041857e-07
6.60040676e-07
6.60040773e-07
6.60041069e-07
6.60041642e-07
6.60040894e-07
6.60041274e-07
6.6004121e-07
6.60040865e-07
6.60041109e-07
6.6004054e-07
6.60041374e-07
6.60040375e-07
6.60040795e-07
6.60041523e-07
6.60040692e-07
6.60040419e-07
6.60039996e-07
6.60040937e-07
6.6004098e-07
6.6004025e-07
6.60041747e-07
6.60040111e-07
6.60041151e-07
6.60040781e-07
6.60041004e-07
6.60041039e-07
6.60041064e-07
6.60040504e-07
6.60041586e-07
6.60041059e-07
6.60042249e-07
6.60040408e-07
6.60041397e-07
6.60041002e-07
6.6004127e-07
6.60041261e-07
6.60042695e-07
6.60040321e-07
6.60041975e-07
6.60041005e-07
6.60041837e-07
6.60041187e-07
6.60041476e-07
6.60041223e-07
6.60042076e-07
6.60040354e-07
6.60042028e-07
6.60040429e-07
6.60040729e-07
6.60041955e-07
6.60039987e-07
6.60041249e-07
6.60040396e-07
6.60040986e-07
6.60040926e-07
6.60040888e-07
6.60041505e-07
6.60041473e-07
6.60040765e-07
6.60041578e-07
6.60041374e-07
6.60041364e-07
6.6004115e-07
6.60040766e-07
6.60040606e-07
6.60041915e-07
6.60039039e-07
6.60042264e-07
6.60039829e-07
6.60041943e-07
6.60040923e-07
6.60041307e-07
6.6004161e-07
6.60041197e-07
6.60042354e-07
6.6004086e-07
6.60040942e-07
6.60041286e-07
6.60041038e-07
6.60041926e-07
6.60041727e-07
6.60042137e-07
6.60041322e-07
6.60041842e-07
6.6004045e-07
6.60043228e-07
6.60040773e-07
6.60042618e-07
6.6004144e-07
6.600415e-07
6.60041082e-07
6.60041734e-07
6.60041081e-07
6.60041702e-07
6.60041774e-07
6.60041605e-07
6.60042827e-07
6.60041136e-07
6.60041928e-07
6.60041093e-07
6.60041922e-07
6.60042091e-07
6.60041275e-07
6.60042464e-07
6.60040443e-07
6.60041909e-07
6.6004149e-07
6.60042152e-07
6.60041347e-07
6.60041646e-07
6.6004185e-07
6.60041771e-07
6.60041268e-07
6.60041742e-07
6.60041363e-07
6.6004083e-07
6.600413e-07
6.60041343e-07
6.60041638e-07
6.60040992e-07
6.60041174e-07
6.60042329e-07
6.60040897e-07
6.60041942e-07
6.60040445e-07
6.60042473e-07
6.60040564e-07
6.60043014e-07
6.60041534e-07
6.6004227e-07
6.60041558e-07
6.60042273e-07
6.60040931e-07
6.60042304e-07
6.60040873e-07
6.60040968e-07
6.60041912e-07
6.60041483e-07
6.60041338e-07
6.6004261e-07
6.60041215e-07
6.60041416e-07
6.60041043e-07
6.6004108e-07
6.6004173e-07
6.60041683e-07
6.60040985e-07
6.60041665e-07
6.60041624e-07
6.60040307e-07
6.60042014e-07
6.60040503e-07
6.60042693e-07
6.60040591e-07
6.60043106e-07
6.60040767e-07
6.60043514e-07
6.60040155e-07
6.60042849e-07
6.60041342e-07
6.60041402e-07
6.60041683e-07
6.60041618e-07
6.60041639e-07
6.60041805e-07
6.60042052e-07
6.60041702e-07
6.60040369e-07
6.60042512e-07
6.60041186e-07
6.60041912e-07
6.60041996e-07
6.6004184e-07
6.60041273e-07
6.60041781e-07
6.6004164e-07
6.60041894e-07
6.60041592e-07
6.60041871e-07
6.60041967e-07
6.60041633e-07
6.60041641e-07
6.60041902e-07
6.60041857e-07
6.60041948e-07
6.60041728e-07
6.60042001e-07
6.60041795e-07
6.60041896e-07
6.60041934e-07
6.6004204e-07
6.60041957e-07
6.60042042e-07
6.60042145e-07
6.60042172e-07
6.60042118e-07
6.60042231e-07
6.60042301e-07
6.6004228e-07
6.60042372e-07
6.60042439e-07
6.60042561e-07
6.60042594e-07
6.60042669e-07
6.60042778e-07
6.60042842e-07
6.60042959e-07
6.60043106e-07
6.60043248e-07
6.60043339e-07
6.60043551e-07
6.60043733e-07
6.60043958e-07
6.6004422e-07
6.60044513e-07
6.60044864e-07
6.60045248e-07
6.60045629e-07
6.60045942e-07
6.60046196e-07
6.60046392e-07
6.60046533e-07
6.60046569e-07
6.60046613e-07
6.60046621e-07
6.60046612e-07
6.6004663e-07
6.60046632e-07
6.60046615e-07
6.6004664e-07
6.60046608e-07
6.60046612e-07
6.60046616e-07
6.60046617e-07
6.60046612e-07
6.60046608e-07
6.60046616e-07
6.60046617e-07
6.60046599e-07
6.60046639e-07
)
;

boundaryField
{
    closed
    {
        type            calculated;
        value           uniform 0;
    }
    open
    {
        type            calculated;
        value           uniform 0;
    }
    sides
    {
        type            empty;
    }
}


// ************************************************************************* //
