/*--------------------------------*- C++ -*----------------------------------*\
| =========                 |                                                 |
| \\      /  F ield         | OpenFOAM: The Open Source CFD Toolbox           |
|  \\    /   O peration     | Version:  2206                                  |
|   \\  /    A nd           | Website:  www.openfoam.com                      |
|    \\/     M anipulation  |                                                 |
\*---------------------------------------------------------------------------*/
FoamFile
{
    version     2.0;
    format      ascii;
    arch        "LSB;label=32;scalar=64";
    class       volScalarField;
    location    "1.86e-05";
    object      rho;
}
// * * * * * * * * * * * * * * * * * * * * * * * * * * * * * * * * * * * * * //

dimensions      [1 -3 0 0 0 0 0];

internalField   nonuniform List<scalar> 
3183
(
1.03926466
1.03926466
1.03926466
1.03926466
1.03926466
1.03926466
1.03926466
1.03926466
1.03926466
1.03926466
1.03926466
1.03926466
1.03926466
1.03926466
1.03926466
1.03926466
1.03926466
1.03926466
1.03926466
1.03926466
1.03926466
1.03926466
1.03926466
1.03926466
1.03926466
1.03926466
1.03926466
1.03926466
1.03926466
1.03926466
1.03926466
1.03926466
1.03926466
1.03926466
1.03926466
1.03926466
1.03926466
1.03926466
1.03926466
1.03926466
1.03926466
1.03926466
1.03926466
1.03926466
1.03926466
1.03926466
1.03926466
1.03926466
1.03926466
1.03926466
1.03926466
1.03926466
1.03926466
1.03926466
1.03926466
1.03926466
1.03926466
1.03926466
1.03926466
1.03926466
1.03926466
1.03926466
1.03926466
1.03926466
1.03926466
1.03926466
1.03926466
1.03926466
1.03926466
1.03926466
1.03926466
1.03926466
1.03926466
1.03926466
1.03926466
1.03926466
1.03926466
1.03926466
1.03926466
1.03926466
1.03926466
1.03926466
1.03926466
1.03926466
1.03926466
1.03926466
1.03926466
1.03926466
1.03926466
1.03926466
1.03926466
1.03926466
1.03926466
1.03926466
1.03926466
1.03926466
1.03926466
1.03926466
1.03926466
1.03926466
1.03926466
1.03926466
1.03926466
1.03926466
1.03926466
1.03926466
1.03926466
1.03926466
1.03926466
1.03926466
1.03926466
1.03926466
1.03926466
1.03926466
1.03926466
1.03926466
1.03926466
1.03926466
1.03926466
1.03926466
1.03926466
1.03926466
1.03926466
1.03926466
1.03926466
1.03926466
1.03926466
1.03926466
1.03926466
1.03926466
1.03926466
1.03926466
1.03926466
1.03926466
1.03926466
1.03926466
1.03926466
1.03926466
1.03926466
1.03926466
1.03926466
1.03926466
1.03926466
1.03926466
1.03926466
1.03926466
1.03926466
1.03926466
1.03926466
1.03926466
1.03926466
1.03926466
1.03926466
1.03926466
1.03926466
1.03926466
1.03926466
1.03926466
1.03926466
1.03926466
1.03926466
1.03926466
1.03926466
1.03926466
1.03926466
1.03926466
1.03926466
1.03926466
1.03926466
1.03926466
1.03926466
1.03926466
1.03926466
1.03926466
1.03926466
1.03926466
1.03926466
1.03926466
1.03926466
1.03926466
1.03926466
1.03926466
1.03926466
1.03926466
1.03926466
1.03926466
1.03926466
1.03926466
1.03926466
1.03926466
1.03926466
1.03926466
1.03926466
1.03926466
1.03926466
1.03926466
1.03926466
1.03926466
1.03926466
1.03926466
1.03926466
1.03926466
1.03926466
1.03926466
1.03926466
1.03926466
1.03926466
1.03926466
1.03926466
1.03926466
1.03926466
1.03926466
1.03926466
1.03926466
1.03926466
1.03926466
1.03926466
1.03926466
1.03926466
1.03926466
1.03926466
1.03926466
1.03926466
1.03926466
1.03926466
1.03926466
1.03926466
1.03926466
1.03926466
1.03926466
1.03926466
1.03926466
1.03926466
1.03926466
1.03926466
1.03926466
1.03926466
1.03926466
1.03926466
1.03926466
1.03926466
1.03926466
1.03926466
1.03926466
1.03926466
1.03926466
1.03926466
1.03926466
1.03926466
1.03926466
1.03926466
1.03926466
1.03926466
1.03926466
1.03926466
1.03926466
1.03926466
1.03926466
1.03926466
1.03926466
1.03926466
1.03926466
1.03926466
1.03926466
1.03926466
1.03926466
1.03926466
1.03926466
1.03926466
1.03926466
1.03926466
1.03926466
1.03926466
1.03926466
1.03926466
1.03926466
1.03926466
1.03926466
1.03926466
1.03926466
1.03926466
1.03926466
1.03926466
1.03926466
1.03926466
1.03926466
1.03926466
1.03926466
1.03926466
1.03926466
1.03926466
1.03926466
1.03926466
1.03926466
1.03926466
1.03926466
1.03926466
1.03926466
1.03926466
1.03926466
1.03926466
1.03926466
1.03926466
1.03926466
1.03926466
1.03926466
1.03926466
1.03926466
1.03926466
1.03926466
1.03926466
1.03926466
1.03926466
1.03926466
1.03926466
1.03926466
1.03926466
1.03926466
1.03926466
1.03926466
1.03926466
1.03926466
1.03926466
1.03926466
1.03926466
1.03926466
1.03926466
1.03926466
1.03926466
1.03926466
1.03926466
1.03926466
1.03926466
1.03926466
1.03926466
1.03926466
1.03926466
1.03926466
1.03926466
1.03926466
1.03926466
1.03926466
1.03926466
1.03926466
1.03926466
1.03926466
1.03926466
1.03926466
1.03926466
1.03926466
1.03926466
1.03926466
1.03926466
1.03926466
1.03926466
1.03926466
1.03926466
1.03926466
1.03926466
1.03926466
1.03926466
1.03926466
1.03926466
1.03926466
1.03926466
1.03926466
1.03926466
1.03926466
1.03926466
1.03926466
1.03926466
1.03926466
1.03926466
1.03926466
1.03926466
1.03926466
1.03926466
1.03926466
1.03926466
1.03926466
1.03926466
1.03926466
1.03926466
1.03926466
1.03926466
1.03926466
1.03926466
1.03926466
1.03926466
1.03926466
1.03926466
1.03926466
1.03926466
1.03926466
1.03926466
1.03926466
1.03926466
1.03926466
1.03926466
1.03926466
1.03926466
1.03926466
1.03926466
1.03926466
1.03926466
1.03926466
1.03926466
1.03926466
1.03926466
1.03926466
1.03926466
1.03926466
1.03926466
1.03926466
1.03926466
1.03926466
1.03926466
1.03926466
1.03926466
1.03926466
1.03926466
1.03926466
1.03926466
1.03926466
1.03926466
1.03926466
1.03926466
1.03926466
1.03926466
1.03926466
1.03926466
1.03926466
1.03926466
1.03926466
1.03926466
1.03926466
1.03926466
1.03926466
1.03926466
1.03926466
1.03926466
1.03926466
1.03926466
1.03926466
1.03926466
1.03926466
1.03926466
1.03926466
1.03926466
1.03926466
1.03926466
1.03926466
1.03926466
1.03926466
1.03926466
1.03926466
1.03926466
1.03926466
1.03926466
1.03926466
1.03926466
1.03926466
1.03926466
1.03926466
1.03926466
1.03926466
1.03926466
1.03926466
1.03926466
1.03926466
1.03926466
1.03926466
1.03926466
1.03926466
1.03926466
1.03926466
1.03926466
1.03926466
1.03926466
1.03926466
1.03926466
1.03926466
1.03926466
1.03926466
1.03926466
1.03926466
1.03926466
1.03926466
1.03926466
1.03926466
1.03926466
1.03926466
1.03926466
1.03926466
1.03926466
1.03926466
1.03926466
1.03926466
1.03926466
1.03926466
1.03926466
1.03926466
1.03926466
1.03926466
1.03926466
1.03926466
1.03926466
1.03926466
1.03926466
1.03926466
1.03926466
1.03926466
1.03926466
1.03926466
1.03926466
1.03926466
1.03926466
1.03926466
1.03926466
1.03926466
1.03926466
1.03926466
1.03926466
1.03926466
1.03926466
1.03926466
1.03926466
1.03926466
1.03926466
1.03926466
1.03926466
1.03926466
1.03926466
1.03926466
1.03926466
1.03926466
1.03926466
1.03926466
1.03926466
1.03926466
1.03926466
1.03926466
1.03926466
1.03926466
1.03926466
1.03926466
1.03926466
1.03926466
1.03926466
1.03926466
1.03926466
1.03926466
1.03926466
1.03926466
1.03926466
1.03926466
1.03926466
1.03926466
1.03926466
1.03926466
1.03926466
1.03926466
1.03926466
1.03926466
1.03926466
1.03926466
1.03926466
1.03926466
1.03926466
1.03926466
1.03926466
1.03926466
1.03926466
1.03926466
1.03926466
1.03926466
1.03926466
1.03926466
1.03926466
1.03926466
1.03926466
1.03926466
1.03926466
1.03926466
1.03926466
1.03926466
1.03926466
1.03926466
1.03926466
1.03926466
1.03926466
1.03926466
1.03926466
1.03926466
1.03926466
1.03926466
1.03926466
1.03926466
1.03926466
1.03926466
1.03926466
1.03926466
1.03926466
1.03926466
1.03926466
1.03926466
1.03926466
1.03926466
1.03926466
1.03926466
1.03926466
1.03926466
1.03926466
1.03926466
1.03926466
1.03926466
1.03926466
1.03926466
1.03926466
1.03926466
1.03926466
1.03926466
1.03926466
1.03926466
1.03926466
1.03926466
1.03926466
1.03926466
1.03926466
1.03926466
1.03926466
1.03926466
1.03926466
1.03926466
1.03926466
1.03926466
1.03926466
1.03926466
1.03926466
1.03926466
1.03926466
1.03926466
1.03926466
1.03926466
1.03926466
1.03926466
1.03926466
1.03926466
1.03926466
1.03926466
1.03926466
1.03926466
1.03926466
1.03926466
1.03926466
1.03926466
1.03926466
1.03926466
1.03926466
1.03926466
1.03926466
1.03926466
1.03926466
1.03926466
1.03926466
1.03926466
1.03926466
1.03926466
1.03926466
1.03926466
1.03926466
1.03926466
1.03926466
1.03926466
1.03926466
1.03926466
1.03926466
1.03926466
1.03926466
1.03926466
1.03926466
1.03926466
1.03926466
1.03926466
1.03926466
1.03926466
1.03926466
1.03926466
1.03926466
1.03926466
1.03926466
1.03926466
1.03926466
1.03926466
1.03926466
1.03926466
1.03926466
1.03926466
1.03926466
1.03926466
1.03926466
1.03926466
1.03926466
1.03926466
1.03926466
1.03926466
1.03926466
1.03926466
1.03926466
1.03926466
1.03926466
1.03926466
1.03926466
1.03926466
1.03926466
1.03926466
1.03926466
1.03926466
1.03926466
1.03926466
1.03926466
1.03926466
1.03926466
1.03926466
1.03926466
1.03926466
1.03926466
1.03926466
1.03926466
1.03926466
1.03926466
1.03926466
1.03926466
1.03926466
1.03926466
1.03926466
1.03926466
1.03926466
1.03926466
1.03926466
1.03926466
1.03926466
1.03926466
1.03926466
1.03926466
1.03926466
1.03926466
1.03926466
1.03926466
1.03926466
1.03926466
1.03926466
1.03926466
1.03926466
1.03926466
1.03926466
1.03926466
1.03926466
1.03926466
1.03926466
1.03926466
1.03926466
1.03926466
1.03926466
1.03926466
1.03926466
1.03926466
1.03926466
1.03926466
1.03926466
1.03926466
1.03926466
1.03926466
1.03926466
1.03926466
1.03926466
1.03926466
1.03926466
1.03926466
1.03926466
1.03926466
1.03926466
1.03926466
1.03926466
1.03926466
1.03926466
1.03926466
1.03926466
1.03926466
1.03926466
1.03926466
1.03926466
1.03926466
1.03926466
1.03926466
1.03926466
1.03926466
1.03926466
1.03926466
1.03926466
1.03926466
1.03926466
1.03926466
1.03926466
1.03926466
1.03926466
1.03926466
1.03926466
1.03926466
1.03926466
1.03926466
1.03926466
1.03926466
1.03926466
1.03926466
1.03926466
1.03926466
1.03926466
1.03926466
1.03926466
1.03926466
1.03926466
1.03926466
1.03926466
1.03926466
1.03926466
1.03926466
1.03926466
1.03926466
1.03926466
1.03926466
1.03926466
1.03926466
1.03926466
1.03926466
1.03926466
1.03926466
1.03926466
1.03926466
1.03926466
1.03926466
1.03926466
1.03926466
1.03926466
1.03926466
1.03926466
1.03926466
1.03926466
1.03926466
1.03926466
1.03926466
1.03926466
1.03926466
1.03926466
1.03926466
1.03926466
1.03926466
1.03926466
1.03926466
1.03926466
1.03926466
1.03926466
1.03926466
1.03926466
1.03926466
1.03926466
1.03926466
1.03926466
1.03926466
1.03926466
1.03926466
1.03926466
1.03926466
1.03926466
1.03926466
1.03926466
1.03926466
1.03926466
1.03926466
1.03926466
1.03926466
1.03926466
1.03926466
1.03926466
1.03926466
1.03926466
1.03926466
1.03926466
1.03926466
1.03926466
1.03926466
1.03926466
1.03926466
1.03926466
1.03926466
1.03926466
1.03926466
1.03926466
1.03926466
1.03926466
1.03926466
1.03926466
1.03926466
1.03926466
1.03926466
1.03926466
1.03926466
1.03926466
1.03926466
1.03926466
1.03926466
1.03926466
1.03926466
1.03926466
1.03926466
1.03926466
1.03926466
1.03926466
1.03926466
1.03926466
1.03926466
1.03926466
1.03926466
1.03926466
1.03926466
1.03926466
1.03926466
1.03926466
1.03926466
1.03926466
1.03926466
1.03926466
1.03926466
1.03926466
1.03926466
1.03926466
1.03926466
1.03926466
1.03926466
1.03926466
1.03926466
1.03926466
1.03926466
1.03926466
1.03926466
1.03926466
1.03926466
1.03926466
1.03926466
1.03926466
1.03926466
1.03926466
1.03926466
1.03926466
1.03926466
1.03926466
1.03926466
1.03926466
1.03926466
1.03926466
1.03926466
1.03926466
1.03926466
1.03926466
1.03926466
1.03926466
1.03926466
1.03926466
1.03926466
1.03926466
1.03926466
1.03926466
1.03926466
1.03926466
1.03926466
1.03926466
1.03926466
1.03926466
1.03926466
1.03926466
1.03926466
1.03926466
1.03926466
1.03926466
1.03926466
1.03926466
1.03926466
1.03926466
1.03926466
1.03926466
1.03926466
1.03926466
1.03926466
1.03926466
1.03926466
1.03926466
1.03926466
1.03926466
1.03926466
1.03926466
1.03926466
1.03926466
1.03926466
1.03926466
1.03926466
1.03926466
1.03926466
1.03926466
1.03926466
1.03926466
1.03926466
1.03926466
1.03926466
1.03926466
1.03926466
1.03926466
1.03926466
1.03926466
1.03926466
1.03926466
1.03926466
1.03926466
1.03926466
1.03926466
1.03926466
1.03926466
1.03926466
1.03926466
1.03926466
1.03926466
1.03926466
1.03926466
1.03926466
1.03926466
1.03926466
1.03926466
1.03926466
1.03926466
1.03926466
1.03926466
1.03926466
1.03926466
1.03926466
1.03926466
1.03926466
1.03926466
1.03926466
1.03926466
1.03926466
1.03926466
1.03926466
1.03926466
1.03926466
1.03926466
1.03926466
1.03926466
1.03926466
1.03926466
1.03926466
1.03926466
1.03926466
1.03926466
1.03926466
1.03926466
1.03926466
1.03926466
1.03926466
1.03926466
1.03926466
1.03926466
1.03926466
1.03926466
1.03926466
1.03926466
1.03926466
1.03926466
1.03926466
1.03926466
1.03926466
1.03926466
1.03926466
1.03926466
1.03926466
1.03926466
1.03926466
1.03926466
1.03926466
1.03926466
1.03926466
1.03926466
1.03926466
1.03926466
1.03926466
1.03926466
1.03926466
1.03926466
1.03926466
1.03926466
1.03926466
1.03926466
1.03926466
1.03926466
1.03926466
1.03926466
1.03926466
1.03926466
1.03926466
1.03926466
1.03926466
1.03926466
1.03926466
1.03926466
1.03926466
1.03926466
1.03926466
1.03926466
1.03926466
1.03926466
1.03926466
1.03926466
1.03926466
1.03926466
1.03926466
1.03926466
1.03926466
1.03926466
1.03926466
1.03926466
1.03926466
1.03926466
1.03926466
1.03926466
1.03926466
1.03926466
1.03926466
1.03926466
1.03926466
1.03926466
1.03926466
1.03926466
1.03926466
1.03926466
1.03926466
1.03926466
1.03926466
1.03926466
1.03926466
1.03926466
1.03926466
1.03926466
1.03926466
1.03926466
1.03926466
1.03926466
1.03926466
1.03926466
1.03926466
1.03926466
1.03926466
1.03926466
1.03926466
1.03926466
1.03926466
1.03926466
1.03926466
1.03926466
1.03926466
1.03926466
1.03926466
1.03926466
1.03926466
1.03926466
1.03926466
1.03926466
1.03926466
1.03926466
1.03926466
1.03926466
1.03926466
1.03926466
1.03926466
1.03926466
1.03926466
1.03926466
1.03926466
1.03926466
1.03926466
1.03926466
1.03926466
1.03926466
1.03926466
1.03926466
1.03926466
1.03926466
1.03926466
1.03926466
1.03926466
1.03926466
1.03926466
1.03926466
1.03926466
1.03926466
1.03926466
1.03926466
1.03926466
1.03926466
1.03926466
1.03926466
1.03926466
1.03926466
1.03926466
1.03926466
1.03926466
1.03926466
1.03926466
1.03926466
1.03926466
1.03926466
1.03926466
1.03926466
1.03926466
1.03926466
1.03926466
1.03926466
1.03926466
1.03926466
1.03926466
1.03926466
1.03926466
1.03926466
1.03926466
1.03926466
1.03926466
1.03926466
1.03926466
1.03926466
1.03926466
1.03926466
1.03926466
1.03926466
1.03926466
1.03926466
1.03926466
1.03926466
1.03926466
1.03926466
1.03926466
1.03926466
1.03926466
1.03926466
1.03926466
1.03926466
1.03926466
1.03926466
1.03926466
1.03926466
1.03926466
1.03926466
1.03926466
1.03926466
1.03926466
1.03926466
1.03926466
1.03926466
1.03926466
1.03926466
1.03926466
1.03926466
1.03926466
1.03926466
1.03926466
1.03926466
1.03926466
1.03926466
1.03926466
1.03926466
1.03926466
1.03926466
1.03926466
1.03926466
1.03926466
1.03926466
1.03926466
1.03926466
1.03926466
1.03926466
1.03926466
1.03926466
1.03926466
1.03926466
1.03926466
1.03926466
1.03926466
1.03926466
1.03926466
1.03926466
1.03926466
1.03926466
1.03926466
1.03926466
1.03926466
1.03926466
1.03926466
1.03926466
1.03926466
1.03926466
1.03926466
1.03926466
1.03926466
1.03926466
1.03926466
1.03926466
1.03926466
1.03926466
1.03926466
1.03926466
1.03926466
1.03926466
1.03926466
1.03926466
1.03926466
1.03926466
1.03926466
1.03926466
1.03926466
1.03926466
1.03926466
1.03926466
1.03926466
1.03926466
1.03926466
1.03926466
1.03926466
1.03926466
1.03926466
1.03926466
1.03926466
1.03926466
1.03926466
1.03926466
1.03926466
1.03926466
1.03926466
1.03926466
1.03926466
1.03926466
1.03926466
1.03926466
1.03926466
1.03926466
1.03926466
1.03926466
1.03926466
1.03926466
1.03926466
1.03926466
1.03926466
1.03926466
1.03926466
1.03926466
1.03926466
1.03926466
1.03926466
1.03926466
1.03926466
1.03926466
1.03926466
1.03926466
1.03926466
1.03926466
1.03926466
1.03926466
1.03926466
1.03926466
1.03926466
1.03926466
1.03926466
1.03926466
1.03926466
1.03926466
1.03926466
1.03926466
1.03926466
1.03926466
1.03926466
1.03926466
1.03926466
1.03926466
1.03926466
1.03926466
1.03926466
1.03926466
1.03926466
1.03926466
1.03926466
1.03926466
1.03926466
1.03926466
1.03926466
1.03926466
1.03926466
1.03926466
1.03926466
1.03926466
1.03926466
1.03926466
1.03926466
1.03926466
1.03926466
1.03926466
1.03926466
1.03926466
1.03926466
1.03926466
1.03926466
1.03926466
1.03926466
1.03926466
1.03926466
1.03926466
1.03926466
1.03926466
1.03926466
1.03926466
1.03926466
1.03926466
1.03926466
1.03926466
1.03926466
1.03926466
1.03926466
1.03926466
1.03926466
1.03926466
1.03926466
1.03926466
1.03926466
1.03926466
1.03926466
1.03926466
1.03926466
1.03926466
1.03926466
1.03926466
1.03926466
1.03926466
1.03926466
1.03926466
1.03926466
1.03926466
1.03926466
1.03926466
1.03926466
1.03926466
1.03926466
1.03926466
1.03926466
1.03926466
1.03926466
1.03926466
1.03926466
1.03926466
1.03926466
1.03926466
1.03926466
1.03926466
1.03926466
1.03926466
1.03926466
1.03926466
1.03926466
1.03926466
1.03926466
1.03926466
1.03926466
1.03926466
1.03926466
1.03926466
1.03926466
1.03926466
1.03926466
1.03926466
1.03926466
1.03926466
1.03926466
1.03926466
1.03926466
1.03926466
1.03926466
1.03926466
1.03926466
1.03926466
1.03926466
1.03926466
1.03926466
1.03926466
1.03926466
1.03926466
1.03926466
1.03926466
1.03926466
1.03926466
1.03926466
1.03926466
1.03926466
1.03926466
1.03926466
1.03926466
1.03926466
1.03926466
1.03926466
1.03926466
1.03926466
1.03926466
1.03926466
1.03926466
1.03926466
1.03926466
1.03926466
1.03926466
1.03926466
1.03926466
1.03926466
1.03926466
1.03926466
1.03926466
1.03926466
1.03926466
1.03926466
1.03926466
1.03926466
1.03926466
1.03926466
1.03926466
1.03926466
1.03926466
1.03926466
1.03926466
1.03926466
1.03926466
1.03926466
1.03926466
1.03926466
1.03926466
1.03926466
1.03926466
1.03926466
1.03926466
1.03926466
1.03926466
1.03926466
1.03926466
1.03926466
1.03926466
1.03926466
1.03926466
1.03926466
1.03926466
1.03926466
1.03926466
1.03926466
1.03926466
1.03926466
1.03926466
1.03926466
1.03926466
1.03926466
1.03926466
1.03926466
1.03926466
1.03926466
1.03926466
1.03926466
1.03926466
1.03926466
1.03926466
1.03926466
1.03926466
1.03926466
1.03926466
1.03926466
1.03926466
1.03926466
1.03926466
1.03926466
1.03926466
1.03926466
1.03926466
1.03926466
1.03926466
1.03926466
1.03926466
1.03926466
1.03926466
1.03926466
1.03926466
1.03926466
1.03926466
1.03926466
1.03926466
1.03926466
1.03926466
1.03926466
1.03926466
1.03926466
1.03926466
1.03926466
1.03926466
1.03926466
1.03926466
1.03926466
1.03926466
1.03926466
1.03926466
1.03926466
1.03926466
1.03926466
1.03926466
1.03926466
1.03926466
1.03926466
1.03926466
1.03926466
1.03926466
1.03926466
1.03926466
1.03926466
1.03926466
1.03926466
1.03926466
1.03926466
1.03926466
1.03926466
1.03926466
1.03926466
1.03926466
1.03926466
1.03926466
1.03926466
1.03926466
1.03926466
1.03926466
1.03926466
1.03926466
1.03926466
1.03926466
1.03926466
1.03926466
1.03926466
1.03926466
1.03926466
1.03926466
1.03926466
1.03926466
1.03926466
1.03926466
1.03926466
1.03926466
1.03926466
1.03926466
1.03926466
1.03926466
1.03926466
1.03926466
1.03926466
1.03926466
1.03926466
1.03926466
1.03926466
1.03926466
1.03926466
1.03926466
1.03926466
1.03926466
1.03926466
1.03926466
1.03926466
1.03926466
1.03926466
1.03926466
1.03926466
1.03926466
1.03926466
1.03926466
1.03926466
1.03926466
1.03926466
1.03926466
1.03926466
1.03926466
1.03926466
1.03926466
1.03926466
1.03926466
1.03926466
1.03926466
1.03926466
1.03926466
1.03926466
1.03926466
1.03926466
1.03926466
1.03926466
1.03926466
1.03926466
1.03926466
1.03926466
1.03926466
1.03926466
1.03926466
1.03926466
1.03926466
1.03926466
1.03926466
1.03926466
1.03926466
1.03926466
1.03926466
1.03926466
1.03926466
1.03926466
1.03926466
1.03926466
1.03926466
1.03926466
1.03926466
1.03926465
1.03926465
1.03926465
1.03926465
1.03926465
1.03926465
1.03926465
1.03926465
1.03926465
1.03926465
1.03926465
1.03926465
1.03926465
1.03926465
1.03926465
1.03926464
1.03926464
1.03926464
1.03926464
1.03926464
1.03926464
1.03926464
1.03926464
1.03926464
1.03926463
1.03926463
1.03926463
1.03926463
1.03926463
1.03926463
1.03926462
1.03926462
1.03926462
1.03926462
1.03926461
1.03926461
1.03926461
1.03926461
1.0392646
1.0392646
1.0392646
1.03926459
1.03926459
1.03926459
1.03926458
1.03926458
1.03926457
1.03926457
1.03926456
1.03926456
1.03926455
1.03926455
1.03926454
1.03926454
1.03926453
1.03926452
1.03926451
1.03926451
1.0392645
1.03926449
1.03926448
1.03926447
1.03926446
1.03926445
1.03926444
1.03926443
1.03926442
1.03926441
1.0392644
1.03926438
1.03926437
1.03926436
1.03926434
1.03926433
1.03926431
1.03926429
1.03926427
1.03926426
1.03926424
1.03926422
1.03926419
1.03926417
1.03926415
1.03926412
1.0392641
1.03926407
1.03926404
1.03926402
1.03926399
1.03926395
1.03926392
1.03926389
1.03926385
1.03926382
1.03926378
1.03926374
1.03926369
1.03926365
1.03926361
1.03926356
1.03926351
1.03926346
1.0392634
1.03926335
1.03926329
1.03926323
1.03926317
1.0392631
1.03926303
1.03926296
1.03926289
1.03926281
1.03926274
1.03926265
1.03926257
1.03926248
1.03926239
1.03926229
1.03926219
1.03926209
1.03926198
1.03926187
1.03926175
1.03926164
1.03926151
1.03926138
1.03926125
1.03926111
1.03926097
1.03926082
1.03926066
1.03926051
1.03926034
1.03926017
1.03925999
1.03925981
1.03925962
1.03925942
1.03925922
1.03925901
1.03925879
1.03925857
1.03925834
1.0392581
1.03925785
1.03925759
1.03925733
1.03925705
1.03925677
1.03925648
1.03925618
1.03925587
1.03925555
1.03925522
1.03925488
1.03925453
1.03925416
1.03925379
1.0392534
1.03925301
1.0392526
1.03925218
1.03925174
1.0392513
1.03925084
1.03925036
1.03924988
1.03924938
1.03924886
1.03924833
1.03924779
1.03924723
1.03924665
1.03924606
1.03924545
1.03924483
1.03924419
1.03924353
1.03924285
1.03924216
1.03924145
1.03924072
1.03923997
1.0392392
1.03923842
1.03923761
1.03923678
1.03923594
1.03923507
1.03923418
1.03923328
1.03923235
1.03923139
1.03923042
1.03922942
1.03922841
1.03922736
1.0392263
1.03922521
1.0392241
1.03922297
1.03922181
1.03922062
1.03921942
1.03921818
1.03921693
1.03921564
1.03921433
1.039213
1.03921164
1.03921026
1.03920885
1.03920741
1.03920595
1.03920446
1.03920294
1.0392014
1.03919983
1.03919824
1.03919661
1.03919497
1.03919329
1.03919159
1.03918986
1.03918811
1.03918633
1.03918452
1.03918269
1.03918083
1.03917894
1.03917703
1.0391751
1.03917314
1.03917115
1.03916914
1.0391671
1.03916504
1.03916296
1.03916085
1.03915872
1.03915656
1.03915439
1.03915219
1.03914997
1.03914773
1.03914547
1.03914319
1.03914089
1.03913857
1.03913623
1.03913387
1.0391315
1.03912911
1.03912671
1.03912429
1.03912185
1.03911941
1.03911695
1.03911448
1.03911199
1.0391095
1.039107
1.03910449
1.03910197
1.03909944
1.03909691
1.03909438
1.03909184
1.03908929
1.03908675
1.0390842
1.03908166
1.03907912
1.03907658
1.03907404
1.03907151
1.03906898
1.03906646
1.03906395
1.03906144
1.03905895
1.03905647
1.039054
1.03905155
1.0390491
1.03904668
1.03904427
1.03904188
1.03903951
1.03903716
1.03903483
1.03903253
1.03903025
1.03902799
1.03902576
1.03902356
1.03902138
1.03901924
1.03901712
1.03901504
1.03901299
1.03901097
1.03900899
1.03900704
1.03900513
1.03900326
1.03900143
1.03899963
1.03899788
1.03899616
1.03899449
1.03899286
1.03899128
1.03898973
1.03898824
1.03898678
1.03898538
1.03898402
1.03898271
1.03898144
1.03898022
1.03897906
1.03897794
1.03897687
1.03897585
1.03897488
1.03897396
1.03897309
1.03897227
1.0389715
1.03897079
1.03897012
1.03896951
1.03896894
1.03896843
1.03896797
1.03896755
1.03896719
1.03896688
1.03896662
1.03896641
1.03896625
1.03896614
1.03896607
1.03896606
1.03896609
1.03896617
1.03896629
1.03896646
1.03896668
1.03896694
1.03896725
1.0389676
1.03896799
1.03896842
1.03896889
1.03896941
1.03896996
1.03897055
1.03897118
1.03897185
1.03897255
1.03897328
1.03897405
1.03897486
1.03897569
1.03897656
1.03897745
1.03897837
1.03897932
1.0389803
1.0389813
1.03898233
1.03898338
1.03898445
1.03898555
1.03898666
1.03898779
1.03898894
1.03899011
1.03899129
1.03899249
1.0389937
1.03899493
1.03899616
1.03899741
1.03899866
1.03899992
1.0390012
1.03900247
1.03900376
1.03900504
1.03900633
1.03900763
1.03900892
1.03901022
1.03901152
1.03901281
1.03901411
1.0390154
1.03901669
1.03901798
1.03901926
1.03902053
1.03902181
1.03902307
1.03902433
1.03902558
1.03902682
1.03902805
1.03902927
1.03903049
1.03903169
1.03903289
1.03903407
1.03903524
1.0390364
1.03903755
1.03903868
1.03903981
1.03904092
1.03904201
1.0390431
1.03904417
1.03904523
1.03904627
1.0390473
1.03904832
1.03904932
1.03905031
1.03905128
1.03905224
1.03905319
1.03905412
1.03905504
1.03905594
1.03905683
1.03905771
1.03905857
1.03905942
1.03906026
1.03906108
1.03906189
1.03906269
1.03906347
1.03906424
1.039065
1.03906575
1.03906648
1.03906721
1.03906792
1.03906862
1.03906931
1.03906998
1.03907065
1.03907131
1.03907196
1.03907259
1.03907322
1.03907384
1.03907444
1.03907504
1.03907563
1.03907622
1.03907679
1.03907736
1.03907791
1.03907846
1.03907901
1.03907954
1.03908007
1.03908059
1.03908111
1.03908162
1.03908212
1.03908262
1.03908311
1.03908359
1.03908408
1.03908455
1.03908502
1.03908549
1.03908595
1.0390864
1.03908685
1.0390873
1.03908774
1.03908818
1.03908862
1.03908905
1.03908947
1.0390899
1.03909031
1.03909073
1.03909114
1.03909155
1.03909196
1.03909236
1.03909276
1.03909315
1.03909354
1.03909393
1.03909432
1.0390947
1.03909508
1.03909546
1.03909583
1.0390962
1.03909657
1.03909693
1.03909729
1.03909765
1.03909801
1.03909836
1.0390987
1.03909905
1.03909939
1.03909973
1.03910006
1.0391004
1.03910073
1.03910105
1.03910137
1.03910169
1.03910201
1.03910232
1.03910263
1.03910293
1.03910323
1.03910353
1.03910383
1.03910412
1.0391044
1.03910469
1.03910497
1.03910525
1.03910552
1.03910579
1.03910606
1.03910632
1.03910658
1.03910684
1.03910709
1.03910734
1.03910759
1.03910783
1.03910807
1.03910831
1.03910854
1.03910877
1.039109
1.03910922
1.03910945
1.03910967
1.03910988
1.0391101
1.03911031
1.03911052
1.03911072
1.03911092
1.03911113
1.03911133
1.03911152
1.03911172
1.03911191
1.0391121
1.03911229
1.03911248
1.03911267
1.03911285
1.03911304
1.03911322
1.0391134
1.03911358
1.03911376
1.03911394
1.03911412
1.0391143
1.03911448
1.03911465
1.03911483
1.03911501
1.03911518
1.03911536
1.03911554
1.03911571
1.03911589
1.03911607
1.03911624
1.03911642
1.0391166
1.03911678
1.03911696
1.03911714
1.03911732
1.0391175
1.03911768
1.03911787
1.03911805
1.03911823
1.03911842
1.03911861
1.03911879
1.03911898
1.03911917
1.03911936
1.03911955
1.03911974
1.03911993
1.03912012
1.03912031
1.03912051
1.0391207
1.0391209
1.03912109
1.03912129
1.03912148
1.03912168
1.03912187
1.03912207
1.03912227
1.03912246
1.03912266
1.03912285
1.03912305
1.03912325
1.03912344
1.03912364
1.03912383
1.03912402
1.03912422
1.03912441
1.0391246
1.03912479
1.03912498
1.03912517
1.03912536
1.03912554
1.03912573
1.03912591
1.03912609
1.03912628
1.03912645
1.03912663
1.03912681
1.03912698
1.03912716
1.03912733
1.0391275
1.03912767
1.03912783
1.039128
1.03912816
1.03912832
1.03912848
1.03912863
1.03912879
1.03912894
1.03912909
1.03912924
1.03912939
1.03912954
1.03912968
1.03912982
1.03912996
1.0391301
1.03913024
1.03913037
1.03913051
1.03913064
1.03913077
1.0391309
1.03913103
1.03913115
1.03913128
1.0391314
1.03913152
1.03913164
1.03913176
1.03913188
1.039132
1.03913211
1.03913223
1.03913234
1.03913246
1.03913257
1.03913268
1.03913279
1.0391329
1.03913301
1.03913311
1.03913322
1.03913333
1.03913343
1.03913353
1.03913364
1.03913374
1.03913384
1.03913395
1.03913405
1.03913415
1.03913425
1.03913435
1.03913445
1.03913455
1.03913465
1.03913475
1.03913484
1.03913494
1.03913504
1.03913514
1.03913523
1.03913533
1.03913543
1.03913553
1.03913562
1.03913572
1.03913581
1.03913591
1.03913601
1.0391361
1.0391362
1.0391363
1.0391364
1.03913649
1.03913659
1.03913669
1.03913679
1.03913689
1.03913699
1.03913709
1.03913719
1.0391373
1.0391374
1.03913751
1.03913762
1.03913772
1.03913783
1.03913795
1.03913806
1.03913818
1.0391383
1.03913842
1.03913854
1.03913867
1.0391388
1.03913893
1.03913907
1.03913921
1.03913935
1.0391395
1.03913965
1.03913981
1.03913998
1.03914015
1.03914032
1.0391405
1.03914069
1.03914088
1.03914109
1.0391413
1.03914152
1.03914174
1.03914198
1.03914222
1.03914248
1.03914275
1.03914302
1.03914331
1.03914361
1.03914392
1.03914425
1.03914459
1.03914494
1.03914531
1.03914569
1.03914609
1.0391465
1.03914693
1.03914738
1.03914784
1.03914832
1.03914881
1.03914933
1.03914986
1.03915041
1.03915098
1.03915157
1.03915217
1.03915279
1.03915343
1.03915409
1.03915476
1.03915545
1.03915616
1.03915688
1.03915762
1.03915837
1.03915913
1.0391599
1.03916069
1.03916148
1.03916228
1.03916309
1.0391639
1.03916472
1.03916553
1.03916635
1.03916716
1.03916797
1.03916878
1.03916957
1.03917036
1.03917114
1.0391719
1.03917265
1.03917339
1.0391741
1.0391748
1.03917548
1.03917614
1.03917677
1.03917738
1.03917797
1.03917854
1.03917909
1.03917961
1.03918011
1.03918059
1.03918105
1.0391815
1.03918192
1.03918234
1.03918274
1.03918313
1.03918352
1.03918391
1.0391843
1.03918469
1.03918509
1.0391855
1.03918593
1.03918637
1.03918685
1.03918734
1.03918787
1.03918844
1.03918904
1.03918968
1.03919036
1.03919108
1.03919185
1.03919266
1.03919351
1.03919439
1.0391953
1.03919624
1.03919718
1.03919813
1.03919906
1.03919996
1.03920081
1.03920157
1.03920222
1.03920274
1.03920308
1.03920321
1.03920311
1.03920271
1.03920242
1.03920138
1.03921176
1.03921004
1.03947792
1.03947538
1.0398917
1.03982076
0.857618603
0.856016624
0.448995192
0.420683781
0.327001696
0.317729716
0.287140534
0.283786837
0.271572706
0.270381302
0.265493323
0.265146929
0.263507526
0.263432656
0.262968771
0.26295606
0.262840249
0.262838699
0.26281292
0.262812785
0.262807592
0.262807527
0.262806515
0.262806426
0.262806169
0.26280606
0.262805918
0.262805794
0.262805662
0.26280553
0.262805395
0.262805259
0.262805121
0.262804985
0.262804849
0.262804714
0.262804581
0.26280445
0.262804323
0.262804198
0.262804076
0.262803957
0.262803842
0.262803731
0.262803623
0.262803518