/*--------------------------------*- C++ -*----------------------------------*\
| =========                 |                                                 |
| \\      /  F ield         | OpenFOAM: The Open Source CFD Toolbox           |
|  \\    /   O peration     | Version:  2206                                  |
|   \\  /    A nd           | Website:  www.openfoam.com                      |
|    \\/     M anipulation  |                                                 |
\*---------------------------------------------------------------------------*/
FoamFile
{
    version     2.0;
    format      ascii;
    arch        "LSB;label=32;scalar=64";
    class       volVectorField;
    location    "1.86e-05";
    object      U;
}
// * * * * * * * * * * * * * * * * * * * * * * * * * * * * * * * * * * * * * //

dimensions      [0 1 -1 0 0 0 0];

internalField   nonuniform List<vector> 
3183
(
(5.6502897e-13 0 0)
(2.88303585e-13 0 0)
(-4.15224334e-13 0 0)
(-5.38697328e-13 0 0)
(-1.97350427e-13 0 0)
(-1.58786426e-17 0 0)
(-1.18343091e-18 0 0)
(-1.23940823e-22 0 0)
(1.51135937e-19 0 0)
(4.21360462e-18 0 0)
(6.55871204e-14 0 0)
(3.62939455e-13 0 0)
(8.29820321e-13 0 0)
(3.62002562e-13 0 0)
(2.23675853e-13 0 0)
(-3.31200877e-14 0 0)
(-4.83729809e-13 0 0)
(-7.57300251e-13 0 0)
(-1.10907422e-12 0 0)
(-3.47245302e-13 0 0)
(3.60020204e-13 0 0)
(5.51614833e-14 0 0)
(1.78693989e-13 0 0)
(4.91881428e-13 0 0)
(6.57309127e-13 0 0)
(1.12598109e-12 0 0)
(8.56132758e-13 0 0)
(4.807478e-13 0 0)
(2.07513389e-13 0 0)
(1.34488462e-13 0 0)
(4.75078308e-16 0 0)
(7.41635958e-14 0 0)
(-4.28125727e-13 0 0)
(-7.07507378e-13 0 0)
(-7.93735635e-13 0 0)
(-8.6672415e-13 0 0)
(-1.0821994e-12 0 0)
(-1.14958868e-12 0 0)
(-9.85876709e-13 0 0)
(-7.86956826e-13 0 0)
(-2.35258832e-13 0 0)
(2.22866406e-13 0 0)
(8.25708971e-13 0 0)
(8.45639623e-13 0 0)
(1.35252091e-12 0 0)
(1.67602036e-12 0 0)
(1.01732516e-12 0 0)
(6.74278409e-13 0 0)
(1.40767536e-13 0 0)
(-3.96383951e-13 0 0)
(-1.15706954e-12 0 0)
(-1.64100972e-12 0 0)
(-2.84896238e-12 0 0)
(-2.95788737e-12 0 0)
(-3.52163682e-12 0 0)
(-4.11194775e-12 0 0)
(-4.48622168e-12 0 0)
(-5.00170323e-12 0 0)
(-5.45258334e-12 0 0)
(-5.43782168e-12 0 0)
(-5.75451798e-12 0 0)
(-6.4237544e-12 0 0)
(-6.18377049e-12 0 0)
(-6.97041497e-12 0 0)
(-6.61820059e-12 0 0)
(-7.15333488e-12 0 0)
(-7.28325992e-12 0 0)
(-7.24212921e-12 0 0)
(-7.43679016e-12 0 0)
(-8.10091544e-12 0 0)
(-8.15022895e-12 0 0)
(-8.47680179e-12 0 0)
(-8.1979078e-12 0 0)
(-8.93789777e-12 0 0)
(-9.90796e-12 0 0)
(-9.35427061e-12 0 0)
(-9.83859296e-12 0 0)
(-9.40771396e-12 0 0)
(-9.2951718e-12 0 0)
(-9.7487063e-12 0 0)
(-1.09880918e-11 0 0)
(-9.76820716e-12 0 0)
(-1.03514249e-11 0 0)
(-1.118202e-11 0 0)
(-1.09229755e-11 0 0)
(-1.07076417e-11 0 0)
(-1.0696783e-11 0 0)
(-1.15186193e-11 0 0)
(-1.07023357e-11 0 0)
(-1.13708019e-11 0 0)
(-1.21274687e-11 0 0)
(-1.16224948e-11 0 0)
(-1.12204246e-11 0 0)
(-1.13194273e-11 0 0)
(-1.10846823e-11 0 0)
(-1.16028942e-11 0 0)
(-1.04487448e-11 0 0)
(-1.12536743e-11 0 0)
(-1.15445798e-11 0 0)
(-1.12713734e-11 0 0)
(-1.08978499e-11 0 0)
(-1.17195183e-11 0 0)
(-1.14649339e-11 0 0)
(-1.1154955e-11 0 0)
(-1.07145117e-11 0 0)
(-1.17134534e-11 0 0)
(-1.16990347e-11 0 0)
(-1.2224961e-11 0 0)
(-1.26240229e-11 0 0)
(-1.22779816e-11 0 0)
(-1.14304214e-11 0 0)
(-1.19488323e-11 0 0)
(-1.13146489e-11 0 0)
(-1.31309015e-11 0 0)
(-1.15562412e-11 0 0)
(-1.25888336e-11 0 0)
(-1.30147785e-11 0 0)
(-1.21766915e-11 0 0)
(-1.24686053e-11 0 0)
(-1.35293402e-11 0 0)
(-1.3832376e-11 0 0)
(-1.19576865e-11 0 0)
(-1.24628884e-11 0 0)
(-1.26644879e-11 0 0)
(-1.25346449e-11 0 0)
(-1.34870152e-11 0 0)
(-1.35777246e-11 0 0)
(-1.35255928e-11 0 0)
(-1.26058627e-11 0 0)
(-1.28847982e-11 0 0)
(-1.26580381e-11 0 0)
(-1.27454297e-11 0 0)
(-1.31249854e-11 0 0)
(-1.40206358e-11 0 0)
(-1.16458623e-11 0 0)
(-1.30077841e-11 0 0)
(-1.37055957e-11 0 0)
(-1.31276501e-11 0 0)
(-1.33193215e-11 0 0)
(-1.25667084e-11 0 0)
(-1.31885387e-11 0 0)
(-1.34218632e-11 0 0)
(-1.40288894e-11 0 0)
(-1.32909416e-11 0 0)
(-1.27774278e-11 0 0)
(-1.34770336e-11 0 0)
(-1.24847307e-11 0 0)
(-1.3799751e-11 0 0)
(-1.31657574e-11 0 0)
(-1.31363281e-11 0 0)
(-1.42323965e-11 0 0)
(-1.37616421e-11 0 0)
(-1.49083931e-11 0 0)
(-1.40635232e-11 0 0)
(-1.45333748e-11 0 0)
(-1.39143657e-11 0 0)
(-1.49471128e-11 0 0)
(-1.56023551e-11 0 0)
(-1.51612086e-11 0 0)
(-1.5711018e-11 0 0)
(-1.54608255e-11 0 0)
(-1.52913373e-11 0 0)
(-1.54014338e-11 0 0)
(-1.54840814e-11 0 0)
(-1.60273801e-11 0 0)
(-1.6140899e-11 0 0)
(-1.52988594e-11 0 0)
(-1.55941018e-11 0 0)
(-1.59794434e-11 0 0)
(-1.68643499e-11 0 0)
(-1.71234669e-11 0 0)
(-1.57004113e-11 0 0)
(-1.83761866e-11 0 0)
(-1.70629576e-11 0 0)
(-1.69864963e-11 0 0)
(-1.79334598e-11 0 0)
(-1.83077073e-11 0 0)
(-1.65567219e-11 0 0)
(-1.76053277e-11 0 0)
(-1.79513066e-11 0 0)
(-1.61222818e-11 0 0)
(-1.65138673e-11 0 0)
(-1.62388423e-11 0 0)
(-1.61462807e-11 0 0)
(-1.80032762e-11 0 0)
(-1.83398718e-11 0 0)
(-1.70594807e-11 0 0)
(-1.64935089e-11 0 0)
(-1.73909492e-11 0 0)
(-1.69237403e-11 0 0)
(-1.76260064e-11 0 0)
(-1.71154458e-11 0 0)
(-1.71906614e-11 0 0)
(-1.76183853e-11 0 0)
(-1.74796483e-11 0 0)
(-1.69947003e-11 0 0)
(-1.60215001e-11 0 0)
(-1.59320784e-11 0 0)
(-1.68424629e-11 0 0)
(-1.72782153e-11 0 0)
(-1.72639325e-11 0 0)
(-1.65656575e-11 0 0)
(-1.68309718e-11 0 0)
(-1.6395174e-11 0 0)
(-1.63316037e-11 0 0)
(-1.68263422e-11 0 0)
(-1.64706994e-11 0 0)
(-1.738672e-11 0 0)
(-1.77625684e-11 0 0)
(-1.77685679e-11 0 0)
(-1.70646652e-11 0 0)
(-1.76993583e-11 0 0)
(-1.77808314e-11 0 0)
(-1.73568521e-11 0 0)
(-1.74472081e-11 0 0)
(-1.78240196e-11 0 0)
(-1.7277081e-11 0 0)
(-1.71196169e-11 0 0)
(-1.7692189e-11 0 0)
(-1.66634822e-11 0 0)
(-1.78023532e-11 0 0)
(-1.75236723e-11 0 0)
(-1.80800607e-11 0 0)
(-1.87947807e-11 0 0)
(-1.78261524e-11 0 0)
(-1.77288809e-11 0 0)
(-1.78024814e-11 0 0)
(-1.82054775e-11 0 0)
(-1.84651602e-11 0 0)
(-1.80177214e-11 0 0)
(-1.82349447e-11 0 0)
(-1.82022427e-11 0 0)
(-1.75930693e-11 0 0)
(-1.84293994e-11 0 0)
(-1.71477214e-11 0 0)
(-1.65909182e-11 0 0)
(-1.73526326e-11 0 0)
(-1.79900121e-11 0 0)
(-1.84066719e-11 0 0)
(-1.74605682e-11 0 0)
(-1.86891527e-11 0 0)
(-1.76343416e-11 0 0)
(-1.8305811e-11 0 0)
(-1.74048802e-11 0 0)
(-1.90356404e-11 0 0)
(-1.99099694e-11 0 0)
(-1.77309556e-11 0 0)
(-1.8659245e-11 0 0)
(-1.78459933e-11 0 0)
(-1.91680152e-11 0 0)
(-1.83010727e-11 0 0)
(-1.78176635e-11 0 0)
(-1.78588175e-11 0 0)
(-1.86307289e-11 0 0)
(-1.83828041e-11 0 0)
(-1.84240842e-11 0 0)
(-1.77304517e-11 0 0)
(-1.83472141e-11 0 0)
(-1.82200763e-11 0 0)
(-1.80323004e-11 0 0)
(-1.81850123e-11 0 0)
(-1.87403658e-11 0 0)
(-1.82368864e-11 0 0)
(-1.82281139e-11 0 0)
(-1.80498613e-11 0 0)
(-1.95289663e-11 0 0)
(-1.84688646e-11 0 0)
(-1.91021796e-11 0 0)
(-1.89981907e-11 0 0)
(-1.89734494e-11 0 0)
(-1.89775316e-11 0 0)
(-1.9458908e-11 0 0)
(-1.90651864e-11 0 0)
(-1.91867546e-11 0 0)
(-1.93867724e-11 0 0)
(-1.85390821e-11 0 0)
(-1.91740534e-11 0 0)
(-1.92923281e-11 0 0)
(-1.79549537e-11 0 0)
(-1.7486844e-11 0 0)
(-1.80915534e-11 0 0)
(-1.75986328e-11 0 0)
(-1.81527283e-11 0 0)
(-1.92645872e-11 0 0)
(-1.85668782e-11 0 0)
(-1.79932055e-11 0 0)
(-1.87679662e-11 0 0)
(-1.93082646e-11 0 0)
(-1.90023909e-11 0 0)
(-1.87680582e-11 0 0)
(-1.92584232e-11 0 0)
(-1.99724685e-11 0 0)
(-1.97573646e-11 0 0)
(-1.92947565e-11 0 0)
(-1.94194585e-11 0 0)
(-1.94813319e-11 0 0)
(-1.95069395e-11 0 0)
(-2.03457664e-11 0 0)
(-1.90528413e-11 0 0)
(-1.99735867e-11 0 0)
(-2.0088809e-11 0 0)
(-1.95882988e-11 0 0)
(-2.02909848e-11 0 0)
(-2.09387829e-11 0 0)
(-2.09631623e-11 0 0)
(-2.15045285e-11 0 0)
(-2.03227757e-11 0 0)
(-2.02755293e-11 0 0)
(-2.14124352e-11 0 0)
(-2.04065799e-11 0 0)
(-2.19533714e-11 0 0)
(-2.09965063e-11 0 0)
(-2.02861627e-11 0 0)
(-2.0884455e-11 0 0)
(-2.04861186e-11 0 0)
(-2.14182458e-11 0 0)
(-2.04846343e-11 0 0)
(-2.25128545e-11 0 0)
(-2.17508265e-11 0 0)
(-2.10108846e-11 0 0)
(-2.17257368e-11 0 0)
(-2.2134553e-11 0 0)
(-2.19187656e-11 0 0)
(-2.12786418e-11 0 0)
(-2.18355531e-11 0 0)
(-2.0999363e-11 0 0)
(-2.07906866e-11 0 0)
(-2.17056672e-11 0 0)
(-2.10050229e-11 0 0)
(-2.10455193e-11 0 0)
(-2.07805645e-11 0 0)
(-2.08480118e-11 0 0)
(-2.05980422e-11 0 0)
(-2.0922113e-11 0 0)
(-2.04634454e-11 0 0)
(-1.99332013e-11 0 0)
(-2.00653345e-11 0 0)
(-2.08846272e-11 0 0)
(-2.09525634e-11 0 0)
(-2.09432375e-11 0 0)
(-2.03959882e-11 0 0)
(-2.06736257e-11 0 0)
(-2.06272453e-11 0 0)
(-1.99362583e-11 0 0)
(-2.02003119e-11 0 0)
(-2.05985053e-11 0 0)
(-2.13168029e-11 0 0)
(-2.01044974e-11 0 0)
(-2.03601478e-11 0 0)
(-2.07408398e-11 0 0)
(-2.08451304e-11 0 0)
(-2.03562515e-11 0 0)
(-2.09683572e-11 0 0)
(-2.03216783e-11 0 0)
(-1.94304908e-11 0 0)
(-1.95367903e-11 0 0)
(-2.0854335e-11 0 0)
(-2.02486291e-11 0 0)
(-1.99894195e-11 0 0)
(-1.92742637e-11 0 0)
(-1.96267057e-11 0 0)
(-2.02520587e-11 0 0)
(-1.94974203e-11 0 0)
(-1.95774407e-11 0 0)
(-1.89917038e-11 0 0)
(-1.89408581e-11 0 0)
(-1.91180045e-11 0 0)
(-1.88391822e-11 0 0)
(-1.86878213e-11 0 0)
(-1.87858872e-11 0 0)
(-1.818967e-11 0 0)
(-1.89130334e-11 0 0)
(-1.80538918e-11 0 0)
(-1.74198044e-11 0 0)
(-1.88642321e-11 0 0)
(-1.82905214e-11 0 0)
(-1.81679314e-11 0 0)
(-1.84384258e-11 0 0)
(-1.75110762e-11 0 0)
(-1.92354098e-11 0 0)
(-1.79728041e-11 0 0)
(-1.73120112e-11 0 0)
(-1.73302863e-11 0 0)
(-1.74370909e-11 0 0)
(-1.68847148e-11 0 0)
(-1.77152081e-11 0 0)
(-1.6382397e-11 0 0)
(-1.79737785e-11 0 0)
(-1.69435524e-11 0 0)
(-1.68667461e-11 0 0)
(-1.70940531e-11 0 0)
(-1.76001595e-11 0 0)
(-1.72803868e-11 0 0)
(-1.76538068e-11 0 0)
(-1.76873871e-11 0 0)
(-1.78044365e-11 0 0)
(-1.65371662e-11 0 0)
(-1.63875691e-11 0 0)
(-1.57692638e-11 0 0)
(-1.56831586e-11 0 0)
(-1.58365941e-11 0 0)
(-1.62397606e-11 0 0)
(-1.5006191e-11 0 0)
(-1.50066703e-11 0 0)
(-1.52327505e-11 0 0)
(-1.54195353e-11 0 0)
(-1.57610721e-11 0 0)
(-1.52418815e-11 0 0)
(-1.49909525e-11 0 0)
(-1.46600255e-11 0 0)
(-1.55420063e-11 0 0)
(-1.46503583e-11 0 0)
(-1.45358576e-11 0 0)
(-1.47127839e-11 0 0)
(-1.65053685e-11 0 0)
(-1.55549043e-11 0 0)
(-1.57319622e-11 0 0)
(-1.53274812e-11 0 0)
(-1.56773751e-11 0 0)
(-1.63542374e-11 0 0)
(-1.5075145e-11 0 0)
(-1.58129543e-11 0 0)
(-1.48174495e-11 0 0)
(-1.50630669e-11 0 0)
(-1.58921161e-11 0 0)
(-1.52165048e-11 0 0)
(-1.61538477e-11 0 0)
(-1.46979009e-11 0 0)
(-1.45655108e-11 0 0)
(-1.43984662e-11 0 0)
(-1.4779064e-11 0 0)
(-1.57335345e-11 0 0)
(-1.48957201e-11 0 0)
(-1.46503212e-11 0 0)
(-1.37476228e-11 0 0)
(-1.45318204e-11 0 0)
(-1.53388374e-11 0 0)
(-1.37931339e-11 0 0)
(-1.35248663e-11 0 0)
(-1.35192822e-11 0 0)
(-1.31192582e-11 0 0)
(-1.38701944e-11 0 0)
(-1.34169572e-11 0 0)
(-1.3803675e-11 0 0)
(-1.35659849e-11 0 0)
(-1.24454964e-11 0 0)
(-1.37311107e-11 0 0)
(-1.32540205e-11 0 0)
(-1.31850836e-11 0 0)
(-1.19491858e-11 0 0)
(-1.30411559e-11 0 0)
(-1.30110044e-11 0 0)
(-1.33172517e-11 0 0)
(-1.36791271e-11 0 0)
(-1.23760143e-11 0 0)
(-1.24168927e-11 0 0)
(-1.33363098e-11 0 0)
(-1.24508595e-11 0 0)
(-1.29896931e-11 0 0)
(-1.27773768e-11 0 0)
(-1.24516269e-11 0 0)
(-1.22933705e-11 0 0)
(-1.26410069e-11 0 0)
(-1.26934282e-11 0 0)
(-1.20943265e-11 0 0)
(-1.24770479e-11 0 0)
(-1.1779275e-11 0 0)
(-1.13491731e-11 0 0)
(-1.14788003e-11 0 0)
(-1.22147131e-11 0 0)
(-1.17925533e-11 0 0)
(-1.13209605e-11 0 0)
(-1.13552661e-11 0 0)
(-1.30152016e-11 0 0)
(-1.13742217e-11 0 0)
(-1.15276184e-11 0 0)
(-1.18995266e-11 0 0)
(-1.17484931e-11 0 0)
(-1.04548848e-11 0 0)
(-1.04954963e-11 0 0)
(-1.06450039e-11 0 0)
(-1.0727717e-11 0 0)
(-1.07662852e-11 0 0)
(-9.92550907e-12 0 0)
(-1.0340619e-11 0 0)
(-1.0612437e-11 0 0)
(-1.07868594e-11 0 0)
(-1.08938474e-11 0 0)
(-1.06151161e-11 0 0)
(-1.01814842e-11 0 0)
(-1.03553872e-11 0 0)
(-1.01746027e-11 0 0)
(-1.01008927e-11 0 0)
(-1.08132273e-11 0 0)
(-1.00110578e-11 0 0)
(-9.33531695e-12 0 0)
(-9.78011794e-12 0 0)
(-9.87719603e-12 0 0)
(-1.01018464e-11 0 0)
(-9.06918846e-12 0 0)
(-1.01263601e-11 0 0)
(-1.00982508e-11 0 0)
(-8.98566765e-12 0 0)
(-8.20310808e-12 0 0)
(-8.7752773e-12 0 0)
(-9.8537031e-12 0 0)
(-9.48536938e-12 0 0)
(-7.6697328e-12 0 0)
(-1.0299837e-11 0 0)
(-8.96133098e-12 0 0)
(-9.94936841e-12 0 0)
(-1.01010269e-11 0 0)
(-9.63303288e-12 0 0)
(-9.15422077e-12 0 0)
(-9.38202867e-12 0 0)
(-9.42222929e-12 0 0)
(-9.63651449e-12 0 0)
(-8.17189911e-12 0 0)
(-8.73899758e-12 0 0)
(-8.96626925e-12 0 0)
(-9.31546281e-12 0 0)
(-8.62672492e-12 0 0)
(-7.45960615e-12 0 0)
(-8.01284838e-12 0 0)
(-8.02042179e-12 0 0)
(-7.85972871e-12 0 0)
(-8.11971546e-12 0 0)
(-7.80118504e-12 0 0)
(-7.37288921e-12 0 0)
(-7.66283719e-12 0 0)
(-8.15436252e-12 0 0)
(-6.87917859e-12 0 0)
(-6.22120265e-12 0 0)
(-7.47940583e-12 0 0)
(-6.91376818e-12 0 0)
(-6.31840145e-12 0 0)
(-6.23096573e-12 0 0)
(-6.59341814e-12 0 0)
(-7.16957726e-12 0 0)
(-7.35076693e-12 0 0)
(-6.11475418e-12 0 0)
(-6.13125593e-12 0 0)
(-6.6165108e-12 0 0)
(-7.38553012e-12 0 0)
(-6.7343292e-12 0 0)
(-5.95872032e-12 0 0)
(-6.49923836e-12 0 0)
(-6.16350506e-12 0 0)
(-6.87428865e-12 0 0)
(-5.44054582e-12 0 0)
(-6.65906955e-12 0 0)
(-6.10450199e-12 0 0)
(-6.32208566e-12 0 0)
(-5.40878666e-12 0 0)
(-6.26577878e-12 0 0)
(-5.78336029e-12 0 0)
(-4.37053017e-12 0 0)
(-3.69267803e-12 0 0)
(-4.78711027e-12 0 0)
(-4.46309308e-12 0 0)
(-3.41289231e-12 0 0)
(-4.94433152e-12 0 0)
(-3.96797003e-12 0 0)
(-3.52000181e-12 0 0)
(-4.1835737e-12 0 0)
(-2.6127293e-12 0 0)
(-2.99712513e-12 0 0)
(-3.3902807e-12 0 0)
(-2.26433087e-12 0 0)
(-2.22346399e-12 0 0)
(-3.03906263e-12 0 0)
(-2.37742799e-12 0 0)
(-1.67437708e-12 0 0)
(-1.57648371e-12 0 0)
(-1.16054284e-12 0 0)
(-1.26231536e-12 0 0)
(-1.87834446e-12 0 0)
(-1.57998329e-12 0 0)
(-8.23365789e-13 0 0)
(-1.07372966e-12 0 0)
(-2.31607122e-12 0 0)
(-1.12311304e-12 0 0)
(-4.76454036e-13 0 0)
(-1.18854549e-12 0 0)
(-1.61546059e-12 0 0)
(-6.76828166e-13 0 0)
(-6.65554464e-13 0 0)
(-1.36775622e-12 0 0)
(-5.22060456e-13 0 0)
(-1.12453432e-12 0 0)
(-2.5459461e-13 0 0)
(-5.36052442e-13 0 0)
(-1.16024871e-12 0 0)
(-9.64572212e-13 0 0)
(-3.93638787e-13 0 0)
(-1.82142404e-12 0 0)
(-5.80840147e-13 0 0)
(-4.41338772e-13 0 0)
(2.06699972e-13 0 0)
(1.06625599e-12 0 0)
(3.62033101e-13 0 0)
(-3.95358603e-13 0 0)
(-7.7433859e-14 0 0)
(-1.60963389e-13 0 0)
(1.24475777e-12 0 0)
(1.69459363e-13 0 0)
(-8.16015837e-14 0 0)
(7.39413925e-13 0 0)
(-1.99616748e-13 0 0)
(7.24706356e-13 0 0)
(1.30301136e-12 0 0)
(1.05329177e-12 0 0)
(1.66441081e-12 0 0)
(1.24701518e-12 0 0)
(1.14921743e-12 0 0)
(1.02375231e-12 0 0)
(1.91758947e-12 0 0)
(1.1297468e-12 0 0)
(1.0831392e-12 0 0)
(2.16318476e-12 0 0)
(1.34151569e-12 0 0)
(1.94703297e-12 0 0)
(1.16177299e-12 0 0)
(8.75875357e-13 0 0)
(1.42233968e-12 0 0)
(1.61758572e-12 0 0)
(1.24173875e-12 0 0)
(5.91237462e-13 0 0)
(1.90911346e-12 0 0)
(1.93075023e-12 0 0)
(1.9385993e-12 0 0)
(1.98653375e-12 0 0)
(2.87345597e-12 0 0)
(1.58126493e-12 0 0)
(2.47600415e-12 0 0)
(2.35838705e-12 0 0)
(2.04334547e-12 0 0)
(2.3198265e-12 0 0)
(1.84942259e-12 0 0)
(1.81816839e-12 0 0)
(2.22312447e-12 0 0)
(1.53423827e-12 0 0)
(2.18028424e-12 0 0)
(2.78029532e-12 0 0)
(2.82127835e-12 0 0)
(1.64650985e-12 0 0)
(2.73209198e-12 0 0)
(2.50453778e-12 0 0)
(2.44969555e-12 0 0)
(2.56674898e-12 0 0)
(2.54254137e-12 0 0)
(3.50835506e-12 0 0)
(3.24048151e-12 0 0)
(2.55634636e-12 0 0)
(3.36160258e-12 0 0)
(2.43673707e-12 0 0)
(2.2657147e-12 0 0)
(1.9302849e-12 0 0)
(2.00556588e-12 0 0)
(1.14147999e-12 0 0)
(2.02230349e-12 0 0)
(2.00968535e-12 0 0)
(2.08387207e-12 0 0)
(1.21356032e-12 0 0)
(2.45899382e-12 0 0)
(1.48957625e-12 0 0)
(2.32267983e-12 0 0)
(2.46684584e-12 0 0)
(3.4906622e-12 0 0)
(2.8497246e-12 0 0)
(3.65754179e-12 0 0)
(2.89709243e-12 0 0)
(4.38617393e-12 0 0)
(3.34904313e-12 0 0)
(3.2972927e-12 0 0)
(3.68533319e-12 0 0)
(3.80317071e-12 0 0)
(2.77107986e-12 0 0)
(3.38960559e-12 0 0)
(2.9117684e-12 0 0)
(2.46927044e-12 0 0)
(3.30852372e-12 0 0)
(3.19452075e-12 0 0)
(4.3562082e-12 0 0)
(3.77861299e-12 0 0)
(4.16265539e-12 0 0)
(3.61048026e-12 0 0)
(3.95744784e-12 0 0)
(3.87696646e-12 0 0)
(4.16511054e-12 0 0)
(4.36666247e-12 0 0)
(4.69363685e-12 0 0)
(3.91909998e-12 0 0)
(4.1863116e-12 0 0)
(4.83645515e-12 0 0)
(4.35540944e-12 0 0)
(3.4252285e-12 0 0)
(3.64102539e-12 0 0)
(4.88533772e-12 0 0)
(5.20529321e-12 0 0)
(5.28714091e-12 0 0)
(4.26440318e-12 0 0)
(4.9918963e-12 0 0)
(4.14957474e-12 0 0)
(5.47592912e-12 0 0)
(4.83229622e-12 0 0)
(4.95270872e-12 0 0)
(5.40633003e-12 0 0)
(4.51998758e-12 0 0)
(4.9385329e-12 0 0)
(4.669036e-12 0 0)
(5.4747804e-12 0 0)
(5.3529203e-12 0 0)
(5.7902045e-12 0 0)
(6.26783492e-12 0 0)
(5.72118963e-12 0 0)
(6.13544388e-12 0 0)
(5.84550665e-12 0 0)
(6.87048821e-12 0 0)
(5.71889315e-12 0 0)
(6.2992518e-12 0 0)
(5.52959627e-12 0 0)
(6.42931432e-12 0 0)
(5.80994641e-12 0 0)
(6.58040515e-12 0 0)
(6.21928943e-12 0 0)
(5.55549397e-12 0 0)
(6.28179341e-12 0 0)
(5.65793996e-12 0 0)
(6.89061209e-12 0 0)
(6.83327719e-12 0 0)
(6.20009085e-12 0 0)
(7.04565213e-12 0 0)
(5.56015263e-12 0 0)
(6.96967462e-12 0 0)
(6.4028687e-12 0 0)
(6.73452807e-12 0 0)
(6.29759603e-12 0 0)
(6.96400778e-12 0 0)
(7.57791114e-12 0 0)
(6.61352638e-12 0 0)
(6.79140781e-12 0 0)
(5.75408715e-12 0 0)
(6.20094037e-12 0 0)
(6.51215901e-12 0 0)
(5.17383617e-12 0 0)
(6.78561986e-12 0 0)
(5.79310987e-12 0 0)
(6.69898469e-12 0 0)
(6.29137081e-12 0 0)
(6.35305122e-12 0 0)
(7.03751684e-12 0 0)
(6.50936805e-12 0 0)
(5.73785017e-12 0 0)
(7.03186705e-12 0 0)
(5.77912054e-12 0 0)
(6.43735045e-12 0 0)
(5.91480493e-12 0 0)
(6.58938246e-12 0 0)
(6.34938004e-12 0 0)
(5.91111817e-12 0 0)
(6.60498933e-12 0 0)
(5.80313366e-12 0 0)
(7.34194599e-12 0 0)
(6.11739422e-12 0 0)
(7.42815623e-12 0 0)
(7.17531524e-12 0 0)
(6.4927837e-12 0 0)
(7.60778793e-12 0 0)
(6.25641749e-12 0 0)
(7.07225527e-12 0 0)
(6.20861102e-12 0 0)
(6.43761825e-12 0 0)
(7.10225205e-12 0 0)
(6.54015977e-12 0 0)
(8.0660616e-12 0 0)
(7.75434287e-12 0 0)
(7.15023889e-12 0 0)
(7.14191311e-12 0 0)
(6.94056399e-12 0 0)
(7.47522284e-12 0 0)
(6.86416666e-12 0 0)
(8.25183035e-12 0 0)
(6.54172656e-12 0 0)
(7.25765372e-12 0 0)
(7.11772937e-12 0 0)
(6.87193917e-12 0 0)
(7.23418429e-12 0 0)
(6.6351902e-12 0 0)
(6.27109195e-12 0 0)
(6.94494913e-12 0 0)
(7.64759648e-12 0 0)
(6.79471614e-12 0 0)
(6.18051643e-12 0 0)
(7.61787833e-12 0 0)
(6.84558201e-12 0 0)
(6.54012975e-12 0 0)
(7.46119365e-12 0 0)
(6.39065798e-12 0 0)
(6.82739418e-12 0 0)
(6.22009259e-12 0 0)
(6.65012613e-12 0 0)
(7.26144264e-12 0 0)
(6.59818642e-12 0 0)
(6.54669705e-12 0 0)
(6.7592948e-12 0 0)
(6.01924633e-12 0 0)
(6.65103211e-12 0 0)
(6.77004601e-12 0 0)
(6.65626072e-12 0 0)
(6.90169698e-12 0 0)
(6.73141572e-12 0 0)
(6.84732594e-12 0 0)
(7.8747146e-12 0 0)
(6.49123284e-12 0 0)
(6.4661774e-12 0 0)
(7.29325833e-12 0 0)
(6.00412378e-12 0 0)
(7.07671482e-12 0 0)
(7.00651584e-12 0 0)
(6.77679184e-12 0 0)
(6.98065363e-12 0 0)
(8.43119959e-12 0 0)
(6.96212269e-12 0 0)
(8.14825909e-12 0 0)
(7.87875136e-12 0 0)
(7.78524151e-12 0 0)
(6.61808083e-12 0 0)
(7.91600963e-12 0 0)
(8.42014441e-12 0 0)
(7.06348436e-12 0 0)
(7.6698929e-12 0 0)
(7.82524243e-12 0 0)
(7.46639875e-12 0 0)
(8.3818956e-12 0 0)
(7.79342535e-12 0 0)
(8.45037248e-12 0 0)
(8.07360087e-12 0 0)
(8.76078619e-12 0 0)
(9.11058066e-12 0 0)
(8.643662e-12 0 0)
(8.68150354e-12 0 0)
(9.0417971e-12 0 0)
(9.58508849e-12 0 0)
(8.73514109e-12 0 0)
(8.77324238e-12 0 0)
(9.81643234e-12 0 0)
(8.83482526e-12 0 0)
(9.85715498e-12 0 0)
(8.82655761e-12 0 0)
(9.33511109e-12 0 0)
(9.53888791e-12 0 0)
(9.88143663e-12 0 0)
(9.15272595e-12 0 0)
(1.00788227e-11 0 0)
(9.35880199e-12 0 0)
(9.80125225e-12 0 0)
(1.01301058e-11 0 0)
(9.72429201e-12 0 0)
(9.74941057e-12 0 0)
(8.77853267e-12 0 0)
(9.19898168e-12 0 0)
(8.74149143e-12 0 0)
(1.01862774e-11 0 0)
(9.69477516e-12 0 0)
(9.97559101e-12 0 0)
(1.03348791e-11 0 0)
(9.88038489e-12 0 0)
(9.46094403e-12 0 0)
(9.8914912e-12 0 0)
(1.02448524e-11 0 0)
(8.94142797e-12 0 0)
(9.89247035e-12 0 0)
(9.14546761e-12 0 0)
(9.48823189e-12 0 0)
(9.27997766e-12 0 0)
(9.12618068e-12 0 0)
(1.013523e-11 0 0)
(9.66853823e-12 0 0)
(9.99284636e-12 0 0)
(9.15596139e-12 0 0)
(9.9813109e-12 0 0)
(9.51192955e-12 0 0)
(9.4959935e-12 0 0)
(9.80274075e-12 0 0)
(9.13856448e-12 0 0)
(1.02138562e-11 0 0)
(9.40946959e-12 0 0)
(1.03738941e-11 0 0)
(8.89438926e-12 0 0)
(1.03324676e-11 0 0)
(1.11384426e-11 0 0)
(1.01437136e-11 0 0)
(1.09962294e-11 0 0)
(9.39821694e-12 0 0)
(1.04023124e-11 0 0)
(9.42919083e-12 0 0)
(1.08775468e-11 0 0)
(9.99185171e-12 0 0)
(1.01927141e-11 0 0)
(9.41111786e-12 0 0)
(1.02777399e-11 0 0)
(9.96090256e-12 0 0)
(1.11242438e-11 0 0)
(1.06776767e-11 0 0)
(1.05201499e-11 0 0)
(9.86420618e-12 0 0)
(9.43890662e-12 0 0)
(1.04436944e-11 0 0)
(1.05141565e-11 0 0)
(9.73845892e-12 0 0)
(1.06026103e-11 0 0)
(1.09193724e-11 0 0)
(1.01931044e-11 0 0)
(1.03699641e-11 0 0)
(1.05420203e-11 0 0)
(1.0814246e-11 0 0)
(1.04871457e-11 0 0)
(1.06206125e-11 0 0)
(1.08404997e-11 0 0)
(1.09624814e-11 0 0)
(1.02644621e-11 0 0)
(1.0985123e-11 0 0)
(1.078006e-11 0 0)
(1.08728182e-11 0 0)
(1.05590018e-11 0 0)
(1.14456758e-11 0 0)
(1.05880719e-11 0 0)
(1.02109448e-11 0 0)
(1.12624482e-11 0 0)
(1.04892165e-11 0 0)
(1.00270034e-11 0 0)
(1.03282212e-11 0 0)
(1.00269852e-11 0 0)
(1.04968929e-11 0 0)
(9.45245627e-12 0 0)
(9.00201957e-12 0 0)
(1.06084377e-11 0 0)
(9.93224573e-12 0 0)
(9.1968718e-12 0 0)
(8.97973566e-12 0 0)
(9.70701245e-12 0 0)
(1.02972489e-11 0 0)
(9.87627279e-12 0 0)
(9.78873503e-12 0 0)
(1.01282616e-11 0 0)
(9.40971654e-12 0 0)
(1.00524645e-11 0 0)
(9.742232e-12 0 0)
(9.50038384e-12 0 0)
(9.47977968e-12 0 0)
(1.02087785e-11 0 0)
(7.92111858e-12 0 0)
(8.96350242e-12 0 0)
(8.8231181e-12 0 0)
(8.52781821e-12 0 0)
(9.22312099e-12 0 0)
(7.75950985e-12 0 0)
(7.91022749e-12 0 0)
(8.69561728e-12 0 0)
(9.1059044e-12 0 0)
(8.79638045e-12 0 0)
(8.75884212e-12 0 0)
(8.60430458e-12 0 0)
(8.20450034e-12 0 0)
(8.34738215e-12 0 0)
(8.52878701e-12 0 0)
(8.31993745e-12 0 0)
(1.00437643e-11 0 0)
(9.42413601e-12 0 0)
(8.64348454e-12 0 0)
(9.95119394e-12 0 0)
(1.01171097e-11 0 0)
(1.00279749e-11 0 0)
(1.01817772e-11 0 0)
(9.92231707e-12 0 0)
(1.02757485e-11 0 0)
(9.29201073e-12 0 0)
(9.97656197e-12 0 0)
(1.04933165e-11 0 0)
(1.12151492e-11 0 0)
(1.02456012e-11 0 0)
(1.04410774e-11 0 0)
(1.06233616e-11 0 0)
(1.09455978e-11 0 0)
(1.02046642e-11 0 0)
(9.75763181e-12 0 0)
(9.26050405e-12 0 0)
(9.99769794e-12 0 0)
(9.61340008e-12 0 0)
(1.06092854e-11 0 0)
(9.48967279e-12 0 0)
(1.0439308e-11 0 0)
(9.80461909e-12 0 0)
(1.10052601e-11 0 0)
(1.00055477e-11 0 0)
(1.02556288e-11 0 0)
(9.94686703e-12 0 0)
(1.114606e-11 0 0)
(9.74138002e-12 0 0)
(1.04168022e-11 0 0)
(1.01470764e-11 0 0)
(9.55384576e-12 0 0)
(9.78578695e-12 0 0)
(1.0132227e-11 0 0)
(1.01566123e-11 0 0)
(9.78129301e-12 0 0)
(9.82847561e-12 0 0)
(1.01231493e-11 0 0)
(9.45131725e-12 0 0)
(9.95527564e-12 0 0)
(9.38624562e-12 0 0)
(8.62396294e-12 0 0)
(8.92445743e-12 0 0)
(7.9052292e-12 0 0)
(8.47570623e-12 0 0)
(7.84494615e-12 0 0)
(7.4669349e-12 0 0)
(8.13780099e-12 0 0)
(7.40932892e-12 0 0)
(7.73875538e-12 0 0)
(7.22110017e-12 0 0)
(6.88094415e-12 0 0)
(6.68192728e-12 0 0)
(6.93504099e-12 0 0)
(6.48010328e-12 0 0)
(7.04218582e-12 0 0)
(5.85603895e-12 0 0)
(6.13160538e-12 0 0)
(5.43844306e-12 0 0)
(6.88563834e-12 0 0)
(6.45856993e-12 0 0)
(6.07762559e-12 0 0)
(6.46256677e-12 0 0)
(6.71719798e-12 0 0)
(6.81967963e-12 0 0)
(6.10926104e-12 0 0)
(5.43400816e-12 0 0)
(5.04038259e-12 0 0)
(4.49316284e-12 0 0)
(4.44636789e-12 0 0)
(4.87297631e-12 0 0)
(5.21669994e-12 0 0)
(4.41954198e-12 0 0)
(4.06299244e-12 0 0)
(3.75397409e-12 0 0)
(4.11865503e-12 0 0)
(3.60081308e-12 0 0)
(3.55018719e-12 0 0)
(2.80062139e-12 0 0)
(3.66368482e-12 0 0)
(2.85118003e-12 0 0)
(3.06664164e-12 0 0)
(3.3368847e-12 0 0)
(2.0051438e-12 0 0)
(3.11385594e-12 0 0)
(2.28323922e-12 0 0)
(3.19264451e-12 0 0)
(2.07123935e-12 0 0)
(3.42595422e-12 0 0)
(2.68840165e-12 0 0)
(3.99693117e-12 0 0)
(2.74483855e-12 0 0)
(2.69237138e-12 0 0)
(2.52199912e-12 0 0)
(2.82822378e-12 0 0)
(2.75802732e-12 0 0)
(2.39637724e-12 0 0)
(2.15177054e-12 0 0)
(2.36340624e-12 0 0)
(1.33569616e-12 0 0)
(2.76532128e-12 0 0)
(2.33678804e-12 0 0)
(9.66295515e-13 0 0)
(2.34747406e-12 0 0)
(1.73332187e-12 0 0)
(2.19418528e-12 0 0)
(1.8681529e-12 0 0)
(1.74742859e-12 0 0)
(1.20464695e-12 0 0)
(1.83637682e-12 0 0)
(1.21926446e-12 0 0)
(2.20247708e-12 0 0)
(1.47187393e-12 0 0)
(1.67984031e-13 0 0)
(1.14082131e-12 0 0)
(1.0093441e-12 0 0)
(9.11734901e-13 0 0)
(6.85056884e-13 0 0)
(1.25723023e-12 0 0)
(2.51136807e-13 0 0)
(7.06726046e-13 0 0)
(1.94343925e-13 0 0)
(7.82166428e-13 0 0)
(-9.12430618e-13 0 0)
(4.2872262e-14 0 0)
(-4.95581826e-14 0 0)
(-4.58492337e-13 0 0)
(-5.1187347e-13 0 0)
(-5.00870141e-13 0 0)
(-3.77487261e-13 0 0)
(-1.02907844e-13 0 0)
(-5.10953287e-13 0 0)
(-1.75459464e-12 0 0)
(-1.06875482e-12 0 0)
(-2.34373678e-12 0 0)
(-1.1236792e-12 0 0)
(-1.52078843e-12 0 0)
(-2.39363641e-12 0 0)
(-1.48951087e-12 0 0)
(-2.54709301e-12 0 0)
(-1.93459521e-12 0 0)
(-2.29131685e-12 0 0)
(-2.56876675e-12 0 0)
(-2.98705893e-12 0 0)
(-2.75098873e-12 0 0)
(-3.35132785e-12 0 0)
(-2.58429624e-12 0 0)
(-3.66440039e-12 0 0)
(-3.61302747e-12 0 0)
(-4.56684688e-12 0 0)
(-3.63260376e-12 0 0)
(-3.47807762e-12 0 0)
(-4.54417506e-12 0 0)
(-4.96064909e-12 0 0)
(-3.44128094e-12 0 0)
(-4.46191114e-12 0 0)
(-4.50643767e-12 0 0)
(-4.02192452e-12 0 0)
(-4.00319305e-12 0 0)
(-3.34361176e-12 0 0)
(-3.52942259e-12 0 0)
(-4.28711754e-12 0 0)
(-4.20690828e-12 0 0)
(-5.22363128e-12 0 0)
(-5.20575656e-12 0 0)
(-5.04145919e-12 0 0)
(-4.64861051e-12 0 0)
(-5.03351281e-12 0 0)
(-5.19455236e-12 0 0)
(-4.40322693e-12 0 0)
(-4.70192609e-12 0 0)
(-4.70598733e-12 0 0)
(-4.35356279e-12 0 0)
(-5.40031605e-12 0 0)
(-5.49956952e-12 0 0)
(-5.70039876e-12 0 0)
(-6.13800545e-12 0 0)
(-5.90062721e-12 0 0)
(-5.73807346e-12 0 0)
(-5.15870131e-12 0 0)
(-5.62310714e-12 0 0)
(-6.02961246e-12 0 0)
(-5.73473367e-12 0 0)
(-5.40163715e-12 0 0)
(-5.99256065e-12 0 0)
(-6.03383412e-12 0 0)
(-5.35976383e-12 0 0)
(-5.54012324e-12 0 0)
(-5.70370272e-12 0 0)
(-5.46917952e-12 0 0)
(-6.31690593e-12 0 0)
(-5.98154329e-12 0 0)
(-5.93779332e-12 0 0)
(-6.10429205e-12 0 0)
(-6.10228909e-12 0 0)
(-5.86738675e-12 0 0)
(-6.30958126e-12 0 0)
(-6.40330238e-12 0 0)
(-6.61092868e-12 0 0)
(-5.97393941e-12 0 0)
(-7.44747625e-12 0 0)
(-7.29940296e-12 0 0)
(-7.15362663e-12 0 0)
(-8.72807393e-12 0 0)
(-7.55145146e-12 0 0)
(-8.27130001e-12 0 0)
(-8.92846677e-12 0 0)
(-7.2717591e-12 0 0)
(-8.68645169e-12 0 0)
(-8.39903698e-12 0 0)
(-8.26983586e-12 0 0)
(-8.63408208e-12 0 0)
(-8.59621623e-12 0 0)
(-8.68693187e-12 0 0)
(-8.86253562e-12 0 0)
(-8.71499451e-12 0 0)
(-1.05200836e-11 0 0)
(-8.84889948e-12 0 0)
(-8.40237139e-12 0 0)
(-8.83029977e-12 0 0)
(-8.46226075e-12 0 0)
(-9.1117626e-12 0 0)
(-9.15922038e-12 0 0)
(-8.71748617e-12 0 0)
(-9.35289964e-12 0 0)
(-9.43008589e-12 0 0)
(-9.50142217e-12 0 0)
(-9.28910779e-12 0 0)
(-1.08875741e-11 0 0)
(-9.39644439e-12 0 0)
(-9.60938074e-12 0 0)
(-1.02232844e-11 0 0)
(-1.04158175e-11 0 0)
(-9.69007378e-12 0 0)
(-1.10294834e-11 0 0)
(-9.81472763e-12 0 0)
(-8.93725661e-12 0 0)
(-9.82894411e-12 0 0)
(-1.0291139e-11 0 0)
(-9.29629252e-12 0 0)
(-9.83868683e-12 0 0)
(-1.01327399e-11 0 0)
(-9.55219035e-12 0 0)
(-9.81003537e-12 0 0)
(-1.00127832e-11 0 0)
(-9.88456151e-12 0 0)
(-9.08972968e-12 0 0)
(-1.00375098e-11 0 0)
(-9.75372419e-12 0 0)
(-9.56575529e-12 0 0)
(-1.0010539e-11 0 0)
(-1.08700719e-11 0 0)
(-1.00933529e-11 0 0)
(-1.00510528e-11 0 0)
(-1.09501943e-11 0 0)
(-9.37266969e-12 0 0)
(-9.40579943e-12 0 0)
(-9.59630252e-12 0 0)
(-1.04844326e-11 0 0)
(-9.60011758e-12 0 0)
(-9.9391347e-12 0 0)
(-1.01251216e-11 0 0)
(-9.28548143e-12 0 0)
(-1.12396686e-11 0 0)
(-1.02620999e-11 0 0)
(-1.00380927e-11 0 0)
(-1.000127e-11 0 0)
(-1.003273e-11 0 0)
(-9.01311104e-12 0 0)
(-9.02370569e-12 0 0)
(-8.85474877e-12 0 0)
(-9.36882397e-12 0 0)
(-8.49154422e-12 0 0)
(-8.80074598e-12 0 0)
(-9.05831922e-12 0 0)
(-9.23454365e-12 0 0)
(-9.14114365e-12 0 0)
(-9.49744659e-12 0 0)
(-8.53869186e-12 0 0)
(-9.11298106e-12 0 0)
(-7.8452931e-12 0 0)
(-8.46073144e-12 0 0)
(-9.24757277e-12 0 0)
(-8.95158745e-12 0 0)
(-9.2411566e-12 0 0)
(-1.01685607e-11 0 0)
(-9.12587735e-12 0 0)
(-9.3998213e-12 0 0)
(-9.67617496e-12 0 0)
(-8.83859698e-12 0 0)
(-9.16003972e-12 0 0)
(-9.42165709e-12 0 0)
(-9.65097473e-12 0 0)
(-9.97010983e-12 0 0)
(-9.18288928e-12 0 0)
(-1.00537996e-11 0 0)
(-9.79186169e-12 0 0)
(-9.00713468e-12 0 0)
(-9.95783731e-12 0 0)
(-9.79379837e-12 0 0)
(-1.01452736e-11 0 0)
(-1.00226318e-11 0 0)
(-1.06026478e-11 0 0)
(-1.01895114e-11 0 0)
(-1.01618193e-11 0 0)
(-1.06108357e-11 0 0)
(-1.09241817e-11 0 0)
(-1.06900375e-11 0 0)
(-9.85300104e-12 0 0)
(-1.07712936e-11 0 0)
(-1.09829276e-11 0 0)
(-1.15254635e-11 0 0)
(-1.1195227e-11 0 0)
(-1.1559366e-11 0 0)
(-1.10536238e-11 0 0)
(-1.11935508e-11 0 0)
(-1.08336638e-11 0 0)
(-1.1311826e-11 0 0)
(-1.00228167e-11 0 0)
(-1.11199607e-11 0 0)
(-1.14517415e-11 0 0)
(-1.06877851e-11 0 0)
(-1.12639517e-11 0 0)
(-9.90302953e-12 0 0)
(-1.05090114e-11 0 0)
(-9.90840578e-12 0 0)
(-1.03203601e-11 0 0)
(-1.07907993e-11 0 0)
(-1.05268944e-11 0 0)
(-1.17797761e-11 0 0)
(-1.18560637e-11 0 0)
(-1.13270524e-11 0 0)
(-1.19535979e-11 0 0)
(-1.19194327e-11 0 0)
(-1.146119e-11 0 0)
(-1.12450574e-11 0 0)
(-1.17870083e-11 0 0)
(-1.16045532e-11 0 0)
(-1.19219105e-11 0 0)
(-1.13361889e-11 0 0)
(-1.12083744e-11 0 0)
(-1.18141145e-11 0 0)
(-1.1400203e-11 0 0)
(-1.27655869e-11 0 0)
(-1.15719923e-11 0 0)
(-1.17183336e-11 0 0)
(-1.15114919e-11 0 0)
(-1.19003659e-11 0 0)
(-1.17757671e-11 0 0)
(-1.3043421e-11 0 0)
(-1.23329797e-11 0 0)
(-1.281015e-11 0 0)
(-1.29854965e-11 0 0)
(-1.24372677e-11 0 0)
(-1.15315468e-11 0 0)
(-1.19457669e-11 0 0)
(-1.19014945e-11 0 0)
(-1.1951858e-11 0 0)
(-1.1074356e-11 0 0)
(-1.12830967e-11 0 0)
(-1.25066273e-11 0 0)
(-1.19686817e-11 0 0)
(-1.13366078e-11 0 0)
(-1.17367341e-11 0 0)
(-1.09345524e-11 0 0)
(-1.07593895e-11 0 0)
(-1.07563114e-11 0 0)
(-1.11497578e-11 0 0)
(-1.05751299e-11 0 0)
(-1.04253843e-11 0 0)
(-1.21992142e-11 0 0)
(-1.08452663e-11 0 0)
(-1.06394323e-11 0 0)
(-1.13161834e-11 0 0)
(-1.24416855e-11 0 0)
(-1.16150941e-11 0 0)
(-1.2201499e-11 0 0)
(-1.05703711e-11 0 0)
(-1.04975618e-11 0 0)
(-1.07060745e-11 0 0)
(-1.0677427e-11 0 0)