/*--------------------------------*- C++ -*----------------------------------*\
| =========                 |                                                 |
| \\      /  F ield         | OpenFOAM: The Open Source CFD Toolbox           |
|  \\    /   O peration     | Version:  2206                                  |
|   \\  /    A nd           | Website:  www.openfoam.com                      |
|    \\/     M anipulation  |                                                 |
\*---------------------------------------------------------------------------*/
FoamFile
{
    version     2.0;
    format      ascii;
    arch        "LSB;label=32;scalar=64";
    class       surfaceScalarField;
    location    "6e-07";
    object      phi;
}
// * * * * * * * * * * * * * * * * * * * * * * * * * * * * * * * * * * * * * //

dimensions      [1 0 -1 0 0 0 0];

oriented        oriented;

internalField   nonuniform List<scalar> 
3182
(
2.71048306e-20
-1.35524815e-20
4.06566527e-20
-9.48656079e-20
-3.14363397e-25
-3.77753766e-26
-2.54323496e-27
-2.42645623e-33
1.87842064e-31
2.2240542e-26
3.06989998e-25
1.47023533e-24
1.897324e-19
-2.71049483e-20
-2.1683198e-19
-8.38006154e-25
1.08415769e-19
-1.62628685e-19
-1.3552323e-19
1.89730779e-19
8.07002478e-25
4.02156201e-25
2.93455084e-26
2.09996504e-25
2.76224983e-24
6.17946289e-24
4.33639116e-19
-2.71043621e-19
-1.62620576e-19
1.62586614e-19
-4.33614914e-19
4.33630451e-19
4.76108569e-24
-3.25203357e-19
1.6260933e-19
1.62596762e-19
-1.62615789e-19
-1.62610565e-19
1.62600549e-19
-1.90973928e-23
-1.08375436e-19
-3.25155177e-19
7.58726722e-19
-3.24939608e-19
3.25159287e-19
-2.11051799e-23
-3.25202423e-19
2.16738527e-19
-2.16736272e-19
-5.94036651e-23
3.24765656e-19
-1.08340329e-18
-3.25345522e-19
9.7541831e-19
8.30544265e-23
7.12956024e-23
2.1239489e-22
4.33520835e-19
2.1717145e-19
-2.16540202e-19
-2.16806748e-19
4.33456585e-19
-6.50461351e-19
-2.17232913e-19
-8.66299929e-19
2.1671415e-19
4.34422409e-19
8.66526782e-19
-8.78416991e-23
4.33718252e-19
-8.69118377e-19
-4.336702e-19
-4.37097937e-19
-4.39243206e-19
-4.36872893e-19
-8.70104631e-19
-4.36485025e-19
-4.27508315e-19
1.09827517e-20
1.75759273e-18
2.1777668e-18
2.62946928e-18
2.62646707e-18
1.76864196e-18
2.61720671e-18
2.61790798e-18
3.47418677e-18
2.58890037e-18
1.70126743e-18
3.49151934e-18
2.88544629e-20
3.76956365e-20
7.11214469e-20
2.59533883e-18
3.33912451e-18
3.28743803e-18
-3.47653332e-18
1.32071382e-21
4.79162212e-20
-1.65240663e-18
-1.60632137e-18
-1.64205098e-18
-1.84508152e-18
1.49746277e-18
-3.55425518e-19
-2.35138417e-19
-4.04681963e-19
-1.69250227e-18
3.48644147e-19
2.60235824e-19
-1.60777776e-18
-5.04472976e-18
-4.07037683e-18
-4.05076521e-18
-3.95216946e-18
-2.1129013e-18
-1.61916569e-18
1.4641422e-19
3.53438324e-18
3.57647097e-19
1.79030098e-18
5.26333808e-18
3.69823985e-18
9.06479187e-20
3.1830247e-18
-6.93090842e-20
-4.58065059e-19
6.25462477e-20
1.93093474e-21
2.98545908e-20
-2.09552096e-18
-2.21311265e-19
-1.14707596e-19
-1.57389238e-18
1.59839192e-18
-1.40239963e-18
-3.21220364e-18
3.36452989e-19
-1.55905307e-18
-1.3710823e-18
1.80483611e-18
3.59456653e-18
2.01877495e-18
2.05583966e-18
1.6707923e-18
-7.84010783e-20
-2.46468658e-20
-2.07363553e-18
-3.59133588e-18
-1.40301776e-18
-1.44539205e-18
-1.48844992e-18
-1.4361012e-18
-4.80988452e-18
-4.99873249e-18
-4.99501306e-18
-3.68796897e-18
-2.04058243e-18
-2.08741382e-18
-2.188996e-19
3.28045876e-18
3.04623727e-18
4.96620178e-18
3.32374106e-18
5.18879487e-18
3.86156846e-18
1.81035228e-18
2.11592509e-18
1.84730654e-18
5.27611872e-18
3.24335795e-18
-5.4741517e-19
1.09910199e-18
-2.18044615e-18
-1.85506355e-18
-2.12947052e-18
-2.10581901e-18
-1.06913465e-19
1.92950969e-19
-1.67748796e-18
-5.18509081e-18
-1.44032701e-18
-3.47940345e-18
-1.8563577e-18
-1.77982047e-18
-3.55351172e-18
-4.91578332e-18
-4.89960934e-18
-8.22122319e-18
-8.03883275e-18
-4.82598961e-18
-5.05205273e-18
-3.620868e-18
-1.56549727e-18
-8.16762832e-20
1.73182212e-18
-1.34322342e-18
-3.16533517e-18
-1.61714917e-18
-1.82390725e-18
-3.74885145e-18
-5.01625386e-18
-3.54455415e-18
-2.11946862e-18
-1.76589116e-18
-1.95047026e-18
-1.89837906e-19
-3.34080016e-19
-1.88194223e-18
-2.09588083e-18
-2.12245395e-19
-1.17808781e-19
-1.77535136e-19
1.47708672e-18
1.14170319e-18
3.05058739e-18
1.51800949e-18
3.30322004e-18
6.87196076e-18
1.84722853e-18
5.15842553e-18
5.17419297e-18
3.9737854e-18
7.12231617e-18
5.29383475e-18
5.52476564e-18
2.08316683e-18
2.02772762e-18
1.97861054e-18
3.2082929e-18
3.4840134e-18
1.43104504e-18
1.3869405e-18
3.32392306e-18
1.30690451e-19
1.92812563e-18
1.9691307e-18
3.81945048e-18
-1.11109632e-18
-1.15269029e-18
-1.32415102e-18
-1.5651766e-18
-5.97691747e-20
3.37240807e-18
3.17338849e-18
1.61435485e-18
5.1197363e-18
7.00045865e-18
5.1226449e-18
8.82253015e-18
5.47928767e-18
5.34123525e-18
6.90903031e-18
3.65205888e-18
3.5963149e-18
3.67468346e-18
3.66558124e-18
3.37488559e-18
1.67885751e-18
3.19415928e-18
1.3310208e-18
1.45642901e-18
1.62860195e-18
2.11055947e-19
1.97538049e-19
-1.57720015e-18
-1.28108591e-18
-5.07130924e-18
-3.22485159e-18
-1.28849248e-18
-3.23780535e-18
-3.26700315e-18
-6.88574525e-18
-5.1150555e-18
-3.2674016e-18
-3.52257661e-18
-2.08797478e-18
-3.79614543e-18
-1.96359627e-18
-3.83438308e-18
-3.66766885e-18
-1.83471818e-18
-1.89967514e-18
3.31786512e-20
-2.03701097e-18
-3.52080792e-18
-3.51713921e-18
-5.30777049e-18
-3.21491686e-18
-3.23760985e-18
-3.60587231e-18
-2.3323074e-19
-1.9787674e-18
-3.81693928e-18
4.91465028e-20
1.91010271e-18
1.18828975e-18
2.9738606e-18
-1.80326767e-19
-4.94445983e-19
1.5061126e-18
7.77542066e-20
2.21421342e-20
-1.84421993e-18
-1.34435184e-19
7.95548723e-20
1.97736893e-18
-1.75984056e-18
-1.85060294e-18
-5.51784545e-18
-3.61261151e-18
-7.01093782e-18
-4.04930526e-18
-5.40726251e-18
-2.29992617e-18
-3.93842345e-18
-8.88828166e-18
-8.84284885e-18
-7.18446794e-18
-8.69682844e-18
-7.37175623e-18
-5.57244813e-18
-7.44468085e-18
-5.70774676e-18
-7.24458275e-18
-5.52510025e-18
-3.84360908e-18
-3.44416324e-18
-5.29263511e-18
-3.53895803e-18
-3.44565304e-19
-5.48203837e-18
4.37540862e-20
-1.3784766e-18
1.40130449e-19
1.93440552e-18
2.05678182e-18
-1.46673729e-18
-1.7765585e-18
-1.95561705e-18
-2.1667401e-18
-5.39341986e-18
-8.00356441e-19
-3.91113686e-18
-2.49466838e-19
1.51120305e-18
-2.22171421e-18
-3.65236961e-18
-5.19770406e-18
-2.18071531e-18
-3.50349533e-18
-1.44214226e-18
3.15311654e-20
-1.17933469e-19
-3.84257609e-19
-3.59186591e-18
-1.77174523e-18
-4.10755062e-19
-1.82891334e-18
-4.13153027e-20
3.13237791e-18
3.10292141e-18
3.07438587e-18
1.33646697e-18
1.47189664e-18
-1.87365357e-18
-2.09571111e-18
-3.63926484e-18
-2.01458142e-18
-1.80199646e-18
-3.23326332e-18
-1.58344624e-18
1.88302428e-18
3.74761869e-18
3.25427215e-18
1.07609765e-19
7.0411248e-18
5.39424317e-18
5.23820496e-18
3.51733042e-18
3.61240004e-18
1.73045504e-18
1.66169525e-18
1.56429924e-18
1.1975705e-18
-5.34708647e-20
-1.74287819e-18
1.61418872e-18
3.00403326e-18
-2.63268858e-19
3.27988174e-18
3.43361574e-18
5.22884972e-18
1.86412436e-18
3.53848644e-18
3.76601245e-18
-3.36747014e-18
-4.44718222e-18
-4.89928284e-18
-6.62923661e-18
-4.84529549e-18
-5.24796811e-18
-6.79852897e-18
-6.79978935e-18
-7.13422826e-18
-3.92153688e-18
-3.72604082e-18
-3.41673577e-18
3.30813253e-20
1.71441683e-18
-2.49610026e-19
-1.72403141e-18
-2.09690844e-18
-3.67454496e-18
-2.04333313e-18
1.76043585e-18
3.45123156e-18
6.02799416e-19
3.56375162e-18
1.81758068e-18
2.27705382e-18
2.17368091e-18
3.78825982e-18
1.88643443e-18
2.27889744e-18
4.00774313e-19
2.49959432e-20
4.9877464e-18
5.02330538e-18
3.26215892e-18
-1.49439765e-19
-1.23131459e-19
-1.69486219e-18
1.46413513e-18
-2.22117983e-18
-4.40525828e-19
-5.75728143e-19
-5.79038444e-19
1.31465519e-18
1.4928641e-18
-3.18471945e-19
-3.54115361e-19
-1.36714986e-18
-3.17857426e-18
-3.06787729e-18
-2.89250457e-18
-1.24620492e-18
-3.35747223e-18
1.80765246e-19
1.67504892e-18
3.54085951e-18
3.63896257e-18
2.05329156e-18
2.06769387e-18
4.14012561e-19
3.66593842e-19
-1.65728674e-18
-4.92034266e-18
-5.07910366e-18
-5.32509661e-18
-1.95705097e-18
2.9436375e-18
1.24744613e-18
1.4593641e-19
9.27343553e-20
2.05997908e-18
4.0059191e-18
3.77916558e-18
3.71206015e-18
3.56810113e-18
3.55954538e-18
5.32933245e-18
2.28826854e-18
3.69598428e-18
2.10321988e-18
2.22515669e-19
-1.48592566e-18
-4.96408121e-18
-1.72043403e-18
-1.54581144e-18
-1.76156193e-19
-1.76607489e-19
1.60390911e-18
1.60701387e-18
-4.33799138e-19
3.06522974e-18
-2.68996802e-19
-1.62605548e-18
-3.45431527e-18
-3.34223169e-18
-3.57094878e-18
-3.72535076e-18
-7.1918903e-18
-3.67794013e-18
-5.64077298e-18
-7.11524933e-18
-5.4173398e-18
-3.9209958e-18
-2.18129043e-18
1.16019795e-18
1.29952305e-18
1.16881213e-18
1.51407693e-18
1.53543579e-19
-1.62235647e-18
3.4160579e-19
-3.06116154e-18
-5.02262141e-18
-3.02356817e-18
-3.47022793e-18
-3.57417428e-18
-3.31780501e-18
-3.26203026e-18
-1.9474673e-18
-1.62572935e-19
-2.08930123e-18
1.42102978e-18
1.47881925e-18
-1.52680171e-19
1.07317589e-19
3.26479134e-18
5.05082333e-18
1.79026293e-18
-1.39033509e-18
2.22604016e-19
3.75442523e-18
7.12770729e-18
1.02660404e-17
1.0227096e-17
8.48189466e-18
6.64985317e-18
4.8627526e-18
3.36520746e-18
3.47205916e-18
5.2845871e-18
3.59686956e-18
1.28087116e-19
-1.65030915e-18
-1.73195043e-18
-1.40489587e-18
-3.05331137e-18
-1.4576812e-18
1.82024903e-19
2.80247681e-19
1.98523124e-18
1.69524536e-20
2.0390226e-19
-3.32905803e-18
-1.46326758e-18
-1.54822984e-18
-3.10013546e-18
3.69916511e-18
3.63177274e-18
3.73332662e-18
2.17638972e-18
1.23847037e-19
1.06629044e-19
-1.83359485e-18
-1.87213422e-18
-2.0664925e-18
-3.67257493e-18
-7.09030864e-18
-5.2459307e-18
-8.89166771e-18
-8.76929307e-18
-1.04394604e-17
-8.98000906e-18
-7.15149021e-18
-5.78644962e-18
-5.06769756e-18
-1.68998833e-18
1.59926405e-18
1.75144059e-18
1.32784181e-18
3.35534934e-18
5.12794934e-18
3.49566425e-18
2.88150634e-19
2.10925471e-18
3.88273735e-18
7.25099826e-18
3.477032e-18
7.02482829e-18
5.38793188e-18
5.17438363e-18
5.73282549e-18
5.42734895e-18
7.15728866e-18
5.3044735e-18
7.17490113e-18
5.52550693e-18
3.37952833e-18
2.16801637e-19
-1.49169751e-18
-3.56325469e-18
-2.3079994e-18
1.37470604e-18
1.74929812e-18
4.96471763e-18
3.6320558e-18
1.78145437e-18
3.6719294e-18
3.62237712e-18
1.83001546e-18
8.37123416e-20
-3.37498144e-18
-1.73957348e-18
-1.52135618e-18
-1.62554765e-18
8.9698651e-20
-1.23092878e-18
-1.48748591e-18
-3.50990054e-18
-1.85778866e-18
-2.02370828e-18
-1.85738324e-18
1.56743454e-18
-1.84696372e-18
-1.52266381e-18
-1.71596812e-18
2.3471345e-19
2.24682824e-19
1.82135163e-19
2.01485463e-18
-1.72690782e-18
1.91110713e-18
3.35669037e-18
1.43685459e-18
1.48854562e-18
-3.21883431e-18
-3.36433495e-18
-1.78799732e-18
-1.74880216e-18
-3.62636289e-18
-1.84843189e-18
-2.22573974e-18
-1.82528163e-18
1.57251827e-18
-1.9501196e-18
-1.66997713e-19
-2.15622115e-19
1.94495882e-18
7.44987479e-19
4.42808204e-19
-1.40977083e-18
-1.67217937e-18
1.44346739e-18
-3.61821538e-19
-3.2246338e-19
3.00559389e-18
-4.76800373e-19
-3.79851848e-18
1.52212459e-18
1.83042789e-19
-1.23078578e-18
7.66411458e-19
5.53661194e-19
2.14105308e-18
-1.49869025e-18
1.65529849e-18
-4.08585428e-19
-4.1195003e-18
-2.65191578e-18
-4.2376536e-18
-2.1757697e-18
-4.55295145e-19
-2.62042259e-19
1.77524412e-18
1.74597566e-18
1.57289643e-18
-3.38591512e-18
-1.60675777e-18
-3.47771678e-18
-1.73791889e-18
-3.32114416e-18
-5.23381434e-18
-3.41292399e-18
-4.20258961e-19
-3.52401787e-18
-2.31579639e-19
1.84754004e-18
1.71452341e-18
2.03278823e-18
1.66337225e-18
3.21800901e-18
1.00723311e-19
1.69518982e-18
1.79854327e-18
3.43470411e-18
5.02381293e-18
3.30403363e-18
1.58098502e-18
-9.10185252e-20
5.49624391e-20
-3.46708919e-18
-1.61224219e-18
3.42263442e-18
1.54600422e-18
1.61113429e-18
3.70580461e-18
3.54449947e-19
2.15687025e-18
2.07038612e-18
2.01075988e-18
2.25609332e-18
2.18510833e-18
3.82258194e-18
3.80347599e-18
5.64133722e-18
2.08275668e-18
3.91018015e-18
2.14856091e-18
2.10420772e-18
1.8968261e-18
1.65433942e-19
4.97068132e-18
3.04295602e-18
4.95275028e-18
1.63797398e-18
4.95741726e-18
6.77463937e-18
6.77512632e-18
4.92900846e-18
3.6786893e-18
-1.53464876e-18
-3.36085134e-18
-1.7428298e-18
-1.80544629e-18
-3.54108989e-18
4.39980635e-21
-1.42593462e-18
-1.53693991e-18
-4.77606629e-18
-3.0664526e-18
7.06578963e-20
1.52513639e-19
1.42016958e-20
1.74215192e-18
3.56790749e-18
3.52437913e-18
3.28378313e-20
-9.88699342e-20
-1.61243281e-19
1.41751876e-18
1.35064017e-18
1.38520059e-18
1.43664849e-18
2.86020337e-18
3.29576286e-18
5.0570157e-18
3.29855101e-18
3.31315555e-18
3.29765599e-18
1.45239542e-19
-3.03423627e-20
3.23324754e-18
-5.80485502e-20
-8.66733511e-20
1.74016155e-20
-3.57108026e-21
-1.74718682e-18
-3.4975415e-18
-4.96627167e-18
-4.31078746e-20
1.27821588e-19
-1.75081737e-18
-3.12043503e-18
-3.66286496e-18
-1.65138955e-18
-1.59441416e-18
-1.76296758e-18
-1.513086e-18
-1.75868439e-18
-1.72247345e-18
2.52352532e-19
1.17646103e-19
-1.55183632e-18
-1.15110424e-19
2.05688035e-19
3.20346438e-18
6.59560973e-18
3.43033681e-18
6.55744256e-18
-1.90096677e-19
-1.71199924e-18
1.14824738e-18
-7.36750186e-20
1.51460861e-18
-1.6046999e-19
7.01985417e-18
3.4760935e-18
5.15266838e-18
3.52764784e-18
3.86481707e-18
1.77585435e-19
-1.34508602e-18
-1.92860221e-18
-3.48677872e-18
1.69346573e-18
2.73986165e-19
2.05848868e-18
2.02602862e-18
3.33640614e-18
1.96822131e-18
2.00743832e-18
3.7616849e-18
3.67798772e-18
2.38243978e-18
5.55753348e-18
5.90986616e-18
3.83913621e-18
1.55635331e-18
-5.60799989e-20
1.64514033e-18
-1.82362484e-19
-2.51065713e-19
1.97348076e-19
-1.70445123e-18
-3.42278501e-18
-1.99988576e-18
-1.74250386e-18
1.92683044e-18
3.47924165e-18
2.81718667e-19
5.95270621e-20
-1.70306841e-18
-5.18400257e-18
-3.56572996e-18
-2.15423296e-18
-2.18870681e-18
-3.81562762e-18
-3.63083353e-18
-5.58617941e-18
-5.68209807e-18
-6.84792954e-18
-6.92211739e-18
-3.52431813e-18
-1.53642403e-18
-3.55415701e-18
-5.47814351e-18
-5.21354209e-18
-5.30867889e-18
-1.67007336e-18
-3.38395747e-18
-1.46926452e-18
-3.05812604e-18
-3.67271584e-18
-2.01681014e-18
-1.75093392e-18
-2.47994307e-19
-1.72417315e-18
-5.00657793e-18
-3.48855148e-18
-5.06752389e-18
-3.35888276e-18
-1.82069924e-18
-2.02727212e-18
1.4785612e-18
-3.87422229e-20
-2.93875334e-19
-1.60590305e-19
-5.06522985e-18
-1.66927035e-18
-1.6066634e-18
1.5277542e-18
-2.06666105e-18
1.67655489e-18
-3.69408613e-19
1.15666695e-20
-3.86516446e-19
-2.93175112e-19
-1.18369147e-19
1.79882118e-18
3.00588908e-18
5.30480166e-18
5.03470273e-18
5.06501642e-18
-2.34644134e-19
1.51207422e-18
-1.57375216e-18
1.73941249e-19
-2.95168265e-18
-2.90201902e-18
-4.54026756e-18
-3.21395875e-18
-1.32037264e-18
-2.03457658e-18
-1.8623456e-19
-4.01308392e-18
-5.95185791e-18
-4.53072983e-19
-1.76336841e-18
3.45361636e-18
1.55756176e-18
1.13202001e-19
-1.64516222e-18
2.85418584e-20
-1.61571084e-18
-1.81190704e-18
-3.05479371e-19
1.4933733e-19
-6.01087554e-20
-9.28471355e-20
2.19420339e-18
2.13216893e-18
2.39010339e-18
6.65059436e-19
2.52932696e-18
5.68845933e-18
3.64379432e-18
3.2713603e-19
5.25672304e-18
4.84921318e-18
5.20206836e-18
5.19498715e-18
3.55261131e-18
5.47660793e-18
7.11027226e-18
8.76938018e-18
6.95439524e-18
3.45570613e-18
3.76273713e-18
1.23026781e-19
1.86040218e-18
3.70692854e-18
1.95148476e-18
3.49047064e-18
2.8784804e-19
1.66145697e-18
-2.49300115e-19
-1.91314979e-18
-5.27444334e-18
-1.99443335e-18
-5.51694556e-18
-3.678622e-18
-5.1763594e-18
-3.70797126e-18
-5.36878304e-18
-5.4053289e-18
-5.21584157e-18
-5.29843706e-18
-3.66891089e-18
1.3324362e-18
-3.72943712e-18
-1.68083488e-20
-1.0330504e-19
-1.83881829e-18
1.72818454e-19
-3.57722892e-18
-3.51103376e-18
-3.71481761e-18
-2.1309508e-18
-3.73864383e-18
-5.58460198e-18
-3.77672852e-18
-7.10859503e-18
-7.17502382e-18
-3.76148791e-18
-5.35271558e-18
-3.57707056e-18
-5.2611566e-18
-3.66763137e-18
-3.77144067e-18
-1.74662798e-18
-1.34710936e-19
-1.72446193e-18
1.5864073e-18
2.08474872e-18
5.24539371e-18
7.22581306e-18
3.74177323e-18
5.07294922e-18
1.78827604e-18
1.97149783e-19
2.07608e-18
3.68962218e-18
-1.35947722e-18
-1.6077849e-18
4.37570378e-19
-1.33133968e-18
5.28145875e-19
3.21412793e-19
1.82294934e-18
1.68543786e-18
3.27661711e-18
5.41417978e-18
5.26191538e-18
6.86332629e-18
6.92615985e-18
5.3711933e-18
3.3775805e-18
5.40331863e-18
5.44721473e-18
3.69549364e-18
5.18237422e-18
5.38444639e-18
5.70155324e-18
2.26465128e-18
6.16201103e-18
7.54202459e-18
7.25979179e-18
4.29204071e-18
7.32496953e-18
7.10067006e-18
7.3493096e-18
1.07751499e-17
8.76620906e-18
1.06062067e-17
1.04607917e-17
1.03241245e-17
1.02967409e-17
1.19123347e-17
8.50384116e-18
5.03969431e-18
6.54657903e-18
5.62263569e-18
6.76506758e-18
3.68835609e-18
3.74696884e-18
-1.24896751e-18
2.17295798e-18
1.88484173e-18
6.8039557e-19
-2.93280257e-18
-5.057064e-18
-1.67057215e-18
-3.21724766e-18
-4.75723378e-18
-1.9285961e-18
-3.23247793e-18
-3.47959391e-18
-1.55118999e-18
-1.93953198e-18
1.31976101e-18
-3.57503874e-19
1.0897788e-18
7.62694663e-19
-3.84864423e-18
-5.55889653e-18
-5.30864243e-18
-5.07982254e-18
-8.76691097e-18
-3.99849284e-18
-3.72187085e-18
-3.81232073e-18
-3.43106595e-18
-5.08828707e-18
-7.0020862e-18
-3.43175051e-18
-3.42020438e-18
-3.1860564e-18
-3.55276212e-18
-5.39079951e-18
-3.67726226e-18
-3.68369031e-18
-3.77074361e-18
-4.14927487e-18
-5.62737791e-18
-7.2720191e-18
-5.96019213e-18
-7.58151489e-18
-5.71442985e-18
-5.57338046e-18
-3.83021977e-18
-1.91286244e-18
-3.53033761e-18
-1.55890305e-18
-6.80474211e-20
1.66430265e-18
-1.35327437e-19
3.56729907e-18
5.26587405e-18
8.96193453e-18
7.24612389e-18
1.05663723e-17
1.09200017e-17
9.14655462e-18
9.24485769e-18
7.46013488e-18
7.65520489e-18
4.12949848e-18
5.84510232e-18
5.96835521e-18
4.34817479e-18
3.946446e-18
2.62920702e-18
4.26900017e-18
4.04660164e-18
2.07283675e-18
1.96487695e-18
4.36993512e-19
-1.43654205e-18
-9.52758467e-19
-4.6153792e-18
-1.30742512e-18
-3.25940758e-18
-4.98529352e-18
-3.40579583e-19
-5.11542076e-19
1.14680096e-18
3.04313901e-18
4.46412644e-18
4.45629081e-18
4.98155408e-18
4.86852942e-18
6.75176089e-18
5.15251609e-18
3.31541252e-18
3.49366824e-18
4.17302198e-18
2.29520484e-18
2.12775745e-18
2.00760926e-18
-1.64855348e-18
-3.275952e-18
-1.67988022e-18
-1.88049566e-18
-3.29804327e-18
-7.01190032e-18
-6.65889335e-18
-3.65112783e-18
-5.41131743e-18
-5.2355439e-18
-5.36061552e-18
-3.62010974e-18
-2.05120497e-18
-2.11495533e-18
-3.98560796e-18
1.42696418e-18
-3.88734275e-18
-4.14418859e-18
-5.68652978e-18
-6.86261094e-18
-5.37829233e-18
-8.70889685e-18
-7.32811814e-18
-7.46267751e-18
-5.28980354e-18
-3.58129574e-18
-2.7937042e-19
-2.31886465e-19
1.40367003e-18
1.38728124e-18
-3.25502451e-21
1.06883966e-19
1.69882649e-18
3.34557056e-18
6.66066694e-18
4.75084258e-18
5.1775712e-18
4.99143762e-18
3.10310925e-18
1.5758279e-18
1.69000175e-18
3.01726366e-18
-3.97740934e-19
1.42443172e-18
-1.26615884e-19
-1.69745347e-18
-3.12663134e-18
-3.19226403e-18
-1.33865477e-18
-1.40609226e-18
5.24517698e-19
6.05178054e-19
-1.0246747e-18
5.61352197e-19
-1.0433445e-18
4.23061722e-18
3.95959859e-18
7.44912228e-18
5.29747847e-18
1.56323708e-18
3.07526482e-18
3.57939455e-18
3.62951133e-18
3.19336327e-19
1.88330716e-18
-4.61784272e-18
-4.88250951e-18
-5.00146581e-18
-3.31094446e-18
-3.28648366e-18
-3.40625872e-18
-1.43856169e-18
-2.05665778e-18
-1.85810927e-18
-3.35554208e-18
-1.51320447e-18
-4.09800918e-19
-3.70059637e-18
-3.71077362e-18
-1.91359829e-18
-3.69123805e-18
-3.7440974e-18
-5.43361582e-18
-5.61252108e-18
-3.89906816e-18
-5.86273037e-18
-7.81930993e-18
-1.04263135e-17
-1.21556991e-17
-1.19963146e-17
-1.2075936e-17
-8.58473223e-18
-6.97739279e-18
-5.54733467e-18
-7.48170308e-18
-7.45812049e-18
-3.88037835e-18
-4.92965762e-19
3.10013986e-18
1.78311011e-18
3.5159713e-18
3.10313837e-18
4.68027382e-18
-3.83910821e-19
1.52329056e-18
1.29526524e-18
3.03919721e-18
3.04806842e-18
-1.95030132e-19
1.54366627e-18
-2.38647406e-19
-1.80619414e-18
-3.65845802e-18
-3.67440525e-18
-2.51122976e-18
-3.95461406e-18
-3.80762405e-18
-2.14464182e-18
-2.12985887e-18
-3.87953589e-18
-5.24757175e-18
-5.48511645e-18
-5.27985249e-18
-5.03904389e-18
-1.61190115e-18
-1.61121016e-18
-1.88146137e-18
1.7155153e-18
3.37748512e-18
-1.6899411e-18
1.74781218e-18
3.60917343e-18
3.65879917e-18
2.24045647e-19
-1.21669064e-18
3.0356371e-19
2.06015344e-18
2.1764186e-18
3.97996371e-18
2.25485226e-18
3.86768669e-18
9.07335445e-18
6.94927092e-18
6.58308944e-18
3.31718524e-18
3.45524395e-18
3.57237105e-18
7.06196117e-18
6.83953525e-18
5.19150055e-18
3.25588206e-18
5.24156256e-18
5.33248257e-18
4.09914087e-18
5.63264906e-18
3.51078363e-18
3.70013414e-18
3.53953746e-18
1.49836354e-18
1.76010824e-18
1.61011054e-18
2.84026082e-19
-5.05045973e-18
-1.46392731e-19
-1.71811178e-18
-3.76066296e-18
-3.57110852e-18
-3.56902508e-18
1.13859375e-19
-3.17676333e-18
-4.91998601e-18
-6.84790825e-18
-6.80226412e-18
-6.9622998e-18
-1.04141793e-17
-1.21966595e-17
-8.76164888e-18
-8.77426086e-18
-8.88933271e-18
-3.6228603e-18
-3.6390627e-18
-3.69853932e-18
-1.770011e-18
-2.89775507e-19
3.12539368e-18
3.45364431e-18
-2.78260199e-19
1.57867964e-18
1.30081591e-18
2.94458571e-18
2.3767005e-18
-6.32586874e-19
1.22822069e-18
-2.11524545e-18
-3.59357682e-18
-3.6431724e-18
-6.64390418e-18
-6.81433592e-18
-3.25813383e-18
-5.14445355e-18
-3.47981927e-18
-3.4250385e-18
-3.89477593e-18
-5.88348364e-19
-3.63233457e-18
-3.48878821e-18
-1.73009945e-18
-3.57559686e-18
-1.50721783e-18
1.92362312e-18
1.8683438e-18
7.21018616e-20
-1.55252039e-18
-1.29203856e-18
4.53350242e-19
3.43247203e-19
2.14744539e-19
-1.73269207e-18
1.82020922e-18
1.67632776e-18
-2.06540009e-18
-1.54674177e-18
-1.54624039e-18
1.83057941e-18
3.55383367e-18
2.82455396e-19
3.79061847e-18
3.49577658e-18
4.19152865e-20
3.47743809e-18
1.69266999e-18
2.04864741e-18
3.29768643e-18
4.8408459e-18
3.49670847e-18
4.82621068e-18
5.06620839e-18
8.49338958e-18
6.6901155e-18
7.14210242e-18
5.07904679e-18
7.11867415e-18
7.4760403e-18
5.35844781e-18
6.96380393e-18
5.22773214e-18
3.47996643e-18
5.24857974e-18
1.88231498e-18
1.83972411e-18
-1.26862936e-18
-2.8287227e-18
-1.20961136e-18
-2.8631697e-18
-1.53877311e-18
8.71751202e-20
1.62845147e-18
1.5121092e-19
1.27433485e-19
1.5844669e-19
3.25198364e-18
3.0294612e-18
3.29179998e-18
5.08636734e-18
3.22309129e-18
5.60713222e-18
1.80396718e-18
3.68027475e-18
1.56751636e-18
1.41752467e-18
-3.09973333e-19
-2.01899097e-18
-3.55064361e-18
-5.46796033e-18
-1.74500926e-18
-5.21706104e-18
-6.93495093e-18
-3.63728059e-18
-5.37953121e-18
-3.51215217e-18
-3.45839563e-18
-3.56490234e-18
-3.65056527e-18
-4.99812562e-18
-5.03965943e-18
-4.90269112e-18
-4.94197681e-18
-1.31473648e-18
-1.27828609e-18
-1.81809812e-18
2.48999923e-20
1.71489212e-18
1.71190601e-18
1.83350781e-18
3.12921871e-18
3.33358097e-18
3.48716533e-18
3.47861998e-18
1.63597207e-18
1.76473495e-18
1.77094907e-18
-1.86237282e-19
1.43859287e-18
-1.79354923e-18
-1.59771865e-18
1.68992436e-19
-1.60568974e-18
-4.87501977e-18
-5.05472283e-18
-5.04689589e-18
-5.14530563e-18
-3.17068277e-19
-2.00436818e-18
-6.18102905e-20
1.57485013e-18
1.66221973e-18
5.44920323e-18
3.3540129e-18
3.88417756e-18
1.86224091e-18
2.30645706e-18
5.30079779e-19
1.78312211e-18
-1.3549244e-18
3.77194032e-18
3.88856022e-18
4.89237912e-19
3.81744573e-19
2.89709893e-19
3.45420881e-18
2.25968253e-19
3.6568703e-18
4.53198713e-19
1.8536891e-18
2.09554381e-19
-1.47134082e-18
3.53591206e-18
5.00997454e-18
1.54329504e-18
-3.60046604e-19
2.96455484e-18
-2.90550314e-19
1.24480713e-18
-3.26794861e-19
-1.72020076e-18
-5.00203665e-18
-3.42775555e-18
-3.43923633e-18
-1.54816831e-18
1.94407385e-19
-5.21958445e-20
3.43007945e-18
1.73359833e-18
3.25275399e-18
1.49892187e-18
1.68335925e-19
-1.29934225e-18
-3.42361023e-18
-2.11221581e-18
-2.14057049e-18
7.97466617e-19
-2.23803189e-18
-5.07626534e-19
3.12482364e-18
3.34951065e-18
1.84146918e-18
3.7940021e-18
1.86960447e-18
1.91337588e-18
-1.65860684e-18
1.68361847e-18
1.66308282e-18
-2.95810995e-19
1.57700697e-18
1.67415124e-18
-1.49768855e-20
-1.59341664e-19
-3.49572461e-19
-5.15079284e-18
-5.4468622e-18
-5.28671298e-18
-5.43576463e-18
-8.67536004e-18
-6.89866077e-18
-3.69373498e-18
-3.89880127e-18
-3.84376505e-19
-2.09781078e-18
-3.76077709e-18
-5.54214355e-18
-7.53299744e-18
-4.06574153e-18
-5.63341866e-18
-5.4607453e-18
-7.04938678e-18
-5.319598e-18
-5.39738845e-18
-5.39400174e-18
-5.428895e-18
-5.49780748e-18
-2.06083513e-18
-3.54520079e-18
-3.67978667e-18
-3.57277461e-20
-3.5982409e-18
-1.64331192e-18
-3.48998719e-18
-2.85791997e-20
1.70956133e-18
1.73905299e-18
3.21121689e-20
2.91812247e-19
4.16123527e-19
2.4648309e-18
2.39491261e-18
2.40994105e-18
5.43522793e-18
5.59612321e-18
5.71443328e-18
1.99167783e-18
7.04799406e-18
5.56505541e-18
5.70994215e-18
3.66435872e-18
3.80181035e-18
1.59722022e-18
9.60692942e-20
-1.63625415e-18
-1.69882459e-18
-1.72409212e-18
-1.59024311e-18
-1.75038114e-18
-3.72710795e-18
-2.05441499e-18
-1.99685748e-18
-1.88201474e-18
-2.78096645e-19
1.46477253e-18
-7.40625691e-20
-1.6715327e-19
-5.50920183e-20
-1.67674815e-18
-1.93724502e-18
-1.71947511e-18
-2.24127218e-19
1.6719169e-18
-1.79520843e-18
1.57715663e-18
3.23230015e-18
3.14135543e-18
1.82134377e-18
3.61857312e-18
5.88959007e-19
3.91686454e-18
1.98722251e-18
3.00287214e-19
3.78334186e-18
1.72571983e-18
2.04644826e-20
-3.66921751e-18
-5.21530498e-18
-3.61448522e-18
-1.62903336e-18
4.04249896e-20
-1.96927088e-18
-1.85078063e-18
-3.70923451e-19
-3.13374565e-19
3.65735316e-18
-1.65513512e-18
1.47194112e-18
1.59174093e-18
-1.58422253e-18
-1.25257867e-18
1.86632188e-19
-3.30587179e-18
1.13488205e-19
1.62856543e-18
-1.65909746e-18
1.2582739e-18
-2.21710759e-18
1.56262382e-18
-4.50125242e-19
3.04910231e-18
4.89819784e-18
2.83254251e-18
3.52986824e-18
-3.8566631e-20
5.10121888e-18
6.03332442e-20
3.95168582e-18
1.54059256e-18
2.68858791e-19
2.43872169e-19
1.97656332e-18
-1.83843642e-18
-1.87725277e-18
-3.47921676e-18
-3.76395678e-20
-1.59743874e-18
-1.43899492e-18
1.72397964e-18
-3.42147631e-18
-1.38514068e-18
-1.50802497e-18
-1.60316808e-18
-1.78916922e-18
1.50397294e-20
-3.80108336e-18
-2.00129798e-18
-2.10788746e-18
-4.03700908e-19
-3.79211601e-18
-3.84772593e-18
-6.88405693e-18
-1.68943475e-18
-3.27798951e-18
-3.25708766e-18
-1.62993258e-18
-1.69685788e-18
4.80338866e-20
-5.25607016e-18
-5.29831339e-18
-7.08423335e-18
-7.27336895e-18
-7.34391171e-18
-5.42502718e-18
-5.44012188e-18
-3.59525345e-18
-3.08055018e-18
2.98875994e-20
2.01604458e-18
2.13221691e-18
7.10739009e-18
8.94411938e-18
6.91479314e-18
8.89607352e-18
3.68820305e-18
3.75792743e-18
3.59673288e-18
1.98641641e-18
4.97953836e-18
4.81064466e-18
2.8419151e-18
6.46595722e-18
4.53402995e-18
3.22271152e-18
3.35849535e-18
1.71857463e-18
1.88561074e-18
1.85339458e-18
-3.26093566e-18
-3.39599224e-18
-8.99908387e-18
-5.61474939e-18
-5.27384675e-18
-6.94002684e-18
-5.11010222e-18
-3.73233471e-18
-3.62554576e-18
-1.83179852e-18
-1.88354477e-18
2.08771715e-19
-5.99042825e-20
-1.99429379e-18
-4.05809382e-18
-3.75130381e-18
-5.49479525e-18
-7.11877071e-18
-7.12682583e-18
-5.00977463e-18
-1.80460974e-18
-5.38454854e-18
-5.12799382e-18
-6.8480275e-18
-3.35809814e-18
1.55801769e-18
-1.53783248e-18
-1.57173164e-18
1.36214825e-19
1.94251706e-18
1.40871131e-19
1.6049751e-18
3.37717022e-18
3.27019485e-18
-8.98720007e-20
1.46477369e-18
1.9715294e-18
3.59227632e-18
5.15833943e-18
3.83567278e-18
3.55619926e-18
7.16353182e-18
3.71504343e-18
5.65290589e-18
7.40548611e-18
3.77911123e-18
7.01643105e-18
7.18477038e-18
6.95633992e-18
1.04525383e-17
1.03119207e-17
7.34806494e-18
5.70996001e-18
2.35718969e-18
1.83311308e-18
3.30471134e-18
3.52762384e-18
1.33700634e-19
4.05179817e-20
-1.39510842e-18
-1.78286599e-18
1.8655578e-19
1.23699518e-19
1.89521366e-18
-1.31750479e-18
-3.41211655e-18
-1.79962066e-18
-2.17274149e-18
-3.8589989e-18
-2.24040121e-18
-3.85842779e-19
-5.38523407e-18
-4.21833531e-18
-3.87957553e-18
-5.45884558e-18
-3.85525925e-18
-2.51893306e-19
-1.99344133e-18
-3.78896473e-18
-1.79587751e-18
-1.3733771e-18
2.01944147e-18
-2.64448178e-18
-1.11692856e-18
5.08381425e-19
2.08266615e-18
1.74311937e-18
-1.6766066e-18
2.40272724e-19
1.93388687e-19
-1.44028428e-18
1.78537183e-18
-1.80153242e-18
-3.32830254e-18
-3.13077695e-18
1.86479359e-18
1.71727552e-18
-1.07770207e-19
-1.26069181e-19
1.44038353e-18
4.78363721e-18
3.45604309e-18
4.72603966e-18
4.86670337e-18
4.87273969e-18
1.11754646e-18
3.37069447e-18
3.22704113e-18
4.97532384e-18
4.95083475e-18
3.4004623e-18
3.10600379e-18
1.39576932e-18
1.27568754e-18
-2.05018292e-18
-1.96323547e-18
-3.29877801e-18
-3.85125241e-18
-3.63624971e-18
-3.78690224e-18
-5.41615042e-18
-5.27255693e-18
-7.19565149e-18
-3.88761116e-18
-5.66867845e-18
-3.88791408e-18
-5.35953844e-18
-3.88500654e-18
-6.74439389e-18
-4.96956378e-18
-5.11115547e-18
-3.14057174e-18
-6.32510259e-18
-5.29922035e-18
-6.87159634e-18
-5.43224474e-18
-3.45800722e-18
1.70896968e-18
-3.58539373e-19
3.299059e-18
3.51837095e-18
5.22802429e-18
5.30894136e-18
3.84801998e-18
7.1996728e-18
7.47961814e-18
5.68147239e-18
7.31277894e-18
5.15114375e-18
1.53939445e-18
1.70137693e-18
3.20360863e-18
5.04315561e-18
3.32640657e-18
3.51377298e-18
1.96529174e-18
2.28265447e-18
3.04120918e-19
7.71043523e-20
1.14623852e-19
-1.31684174e-18
-3.19228767e-18
-4.6837548e-18
-9.72003619e-19
5.45977376e-19
-1.00511695e-18
-1.12842639e-18
4.80010581e-19
2.05178626e-18
5.3701436e-18
5.15623608e-18
3.55627728e-18
4.94702444e-18
3.073262e-18
3.22781116e-18
-1.8673184e-19
3.25421441e-18
3.05886366e-18
5.00595883e-18
3.12955982e-18
2.10985512e-18
3.53003e-18
5.2537872e-18
3.79587502e-18
3.76516948e-18
2.2121452e-19
1.48417536e-18
-1.72328337e-18
-1.56059345e-18
-1.64417276e-18
-1.30273781e-18
2.44698087e-18
2.32165811e-18
-7.08710559e-19
2.34243762e-18
2.79257977e-19
3.43225302e-18
1.24175718e-18
-3.33511773e-19
-2.14679307e-18
-5.64568292e-19
-1.62504063e-19
1.67988977e-18
1.52444413e-18
1.55809912e-19
2.20840929e-19
1.74472701e-18
-1.53379516e-18
-3.47562038e-18
-3.17606567e-18
-1.35270258e-18
-1.53469756e-18
-1.47047861e-18
3.53299611e-19
2.11584501e-18
3.7240538e-18
3.41904846e-18
1.69819376e-18
1.72204767e-18
1.79434318e-18
3.66252179e-18
3.4906323e-18
2.09748668e-18