/*--------------------------------*- C++ -*----------------------------------*\
| =========                 |                                                 |
| \\      /  F ield         | OpenFOAM: The Open Source CFD Toolbox           |
|  \\    /   O peration     | Version:  2206                                  |
|   \\  /    A nd           | Website:  www.openfoam.com                      |
|    \\/     M anipulation  |                                                 |
\*---------------------------------------------------------------------------*/
FoamFile
{
    version     2.0;
    format      ascii;
    arch        "LSB;label=32;scalar=64";
    class       volVectorField;
    location    "6e-07";
    object      U;
}
// * * * * * * * * * * * * * * * * * * * * * * * * * * * * * * * * * * * * * //

dimensions      [0 1 -1 0 0 0 0];

internalField   nonuniform List<vector> 
3183
(
(3.42486884e-15 0 0)
(-1.8019291e-15 0 0)
(3.79220892e-15 0 0)
(-5.98565122e-15 0 0)
(-6.29850885e-15 0 0)
(-1.10898325e-20 0 0)
(-8.03547003e-22 0 0)
(-4.47706616e-27 0 0)
(3.52611757e-27 0 0)
(5.30510746e-26 0 0)
(6.67796511e-21 0 0)
(8.58315129e-20 0 0)
(1.5779238e-14 0 0)
(9.96232907e-15 0 0)
(-1.04829716e-14 0 0)
(-1.83848088e-14 0 0)
(1.54763244e-14 0 0)
(-8.14276926e-15 0 0)
(-2.57048094e-14 0 0)
(4.50779039e-15 0 0)
(1.42310564e-14 0 0)
(1.17309734e-19 0 0)
(9.26966331e-21 0 0)
(2.13053482e-24 0 0)
(6.305219e-20 0 0)
(7.69481444e-19 0 0)
(3.21973916e-14 0 0)
(-7.28396355e-20 0 0)
(-3.56499656e-14 0 0)
(2.25052962e-14 0 0)
(-4.73671456e-14 0 0)
(8.30656188e-15 0 0)
(4.3706541e-14 0 0)
(-2.75924647e-14 0 0)
(2.12267804e-19 0 0)
(3.05511147e-14 0 0)
(-3.21496585e-14 0 0)
(-3.38297232e-14 0 0)
(3.55943377e-14 0 0)
(-9.34927469e-19 0 0)
(-3.94166005e-14 0 0)
(-2.76436402e-14 0 0)
(7.27300215e-14 0 0)
(1.53199819e-14 0 0)
(3.221804e-14 0 0)
(-5.25014165e-18 0 0)
(-5.34933318e-14 0 0)
(3.75092689e-14 0 0)
(-3.94780277e-14 0 0)
(5.72691505e-18 0 0)
(4.36801168e-14 0 0)
(-9.20014119e-14 0 0)
(-9.67962986e-14 0 0)
(7.63538574e-14 0 0)
(8.0399711e-14 0 0)
(-8.45398315e-14 0 0)
(1.08901718e-17 0 0)
(9.3655307e-14 0 0)
(9.85357453e-14 0 0)
(-3.45273904e-14 0 0)
(-3.62883218e-14 0 0)
(3.81703418e-14 0 0)
(-4.0149956e-14 0 0)
(-8.48874367e-14 0 0)
(-1.33503767e-13 0 0)
(4.67490609e-14 0 0)
(9.87755134e-14 0 0)
(1.55712234e-13 0 0)
(1.09128723e-13 0 0)
(4.12332688e-16 0 0)
(-7.52310533e-16 0 0)
(-1.90357234e-13 0 0)
(-6.73311981e-14 0 0)
(6.93212461e-14 0 0)
(-1.48406031e-13 0 0)
(-2.33163147e-13 0 0)
(-8.27532327e-14 0 0)
(-8.5362378e-14 0 0)
(1.53812538e-15 0 0)
(1.9190959e-13 0 0)
(3.03071442e-13 0 0)
(5.27751483e-13 0 0)
(4.45704621e-13 0 0)
(2.38626408e-13 0 0)
(1.26375809e-13 0 0)
(5.16118878e-13 0 0)
(5.41853904e-13 0 0)
(1.49674502e-13 0 0)
(2.93495336e-13 0 0)
(3.16875674e-13 0 0)
(1.70068969e-13 0 0)
(7.04344613e-15 0 0)
(1.01014823e-14 0 0)
(1.86577056e-13 0 0)
(5.93461706e-13 0 0)
(3.80940502e-13 0 0)
(-4.23268352e-13 0 0)
(1.91198043e-13 0 0)
(-2.15701385e-13 0 0)
(-2.37402796e-13 0 0)
(-3.98262628e-15 0 0)
(-2.62356581e-13 0 0)
(-2.77665574e-13 0 0)
(2.2658407e-13 0 0)
(-3.14899039e-13 0 0)
(2.41883707e-13 0 0)
(-1.78866853e-14 0 0)
(-7.79968349e-14 0 0)
(-2.42367498e-13 0 0)
(-2.51363151e-13 0 0)
(2.80311206e-13 0 0)
(3.00965812e-15 0 0)
(-9.52200932e-13 0 0)
(-1.04865422e-12 0 0)
(-4.12523163e-13 0 0)
(-4.14936974e-13 0 0)
(-6.00147291e-13 0 0)
(3.02364046e-13 0 0)
(3.00256973e-13 0 0)
(7.36395083e-14 0 0)
(3.3945997e-13 0 0)
(3.3083944e-13 0 0)
(9.54262365e-13 0 0)
(3.68055495e-13 0 0)
(-2.8235463e-14 0 0)
(3.17040744e-13 0 0)
(-5.51563035e-14 0 0)
(-3.30318008e-13 0 0)
(2.45135832e-14 0 0)
(4.80306627e-15 0 0)
(2.51951827e-13 0 0)
(-6.23583656e-13 0 0)
(-5.35498637e-14 0 0)
(-2.78182443e-13 0 0)
(-1.95039597e-14 0 0)
(3.18085072e-13 0 0)
(-5.59242742e-13 0 0)
(-5.97073904e-13 0 0)
(3.36710406e-13 0 0)
(1.96511132e-14 0 0)
(-2.53893668e-13 0 0)
(3.33343141e-13 0 0)
(6.53580089e-13 0 0)
(3.67266587e-13 0 0)
(5.00941347e-14 0 0)
(2.77428736e-13 0 0)
(1.12610749e-14 0 0)
(-3.23474626e-13 0 0)
(-3.75024193e-13 0 0)
(-3.2709052e-13 0 0)
(-5.19654261e-13 0 0)
(2.96833679e-13 0 0)
(-5.89492145e-13 0 0)
(-4.98075224e-13 0 0)
(-9.73585538e-13 0 0)
(-5.62806297e-13 0 0)
(-9.3658415e-13 0 0)
(-9.32183164e-14 0 0)
(-6.31138183e-13 0 0)
(-1.06119545e-13 0 0)
(3.07858966e-13 0 0)
(5.81166647e-13 0 0)
(3.10713732e-13 0 0)
(6.1429801e-13 0 0)
(8.76682826e-13 0 0)
(1.01586492e-12 0 0)
(4.54518414e-14 0 0)
(3.32227934e-13 0 0)
(6.67200615e-13 0 0)
(3.29982187e-13 0 0)
(6.40836713e-13 0 0)
(2.58638677e-13 0 0)
(-4.5013657e-14 0 0)
(1.89232451e-13 0 0)
(-3.76477512e-13 0 0)
(-6.4401591e-13 0 0)
(1.96923652e-13 0 0)
(-3.26694768e-13 0 0)
(1.0705355e-14 0 0)
(1.99840895e-14 0 0)
(-3.35725354e-13 0 0)
(-5.85220294e-13 0 0)
(-6.13038416e-13 0 0)
(-3.32685496e-13 0 0)
(-5.09780521e-14 0 0)
(-6.21480762e-13 0 0)
(-8.95624088e-13 0 0)
(-6.37424155e-13 0 0)
(-1.17381949e-12 0 0)
(-1.18612623e-12 0 0)
(-3.21090883e-13 0 0)
(-8.81881939e-13 0 0)
(-9.75134647e-13 0 0)
(-3.21879846e-13 0 0)
(-2.50579143e-13 0 0)
(2.5406722e-13 0 0)
(9.1137443e-14 0 0)
(-4.98197125e-14 0 0)
(-5.37374695e-13 0 0)
(-3.52550003e-13 0 0)
(-6.09454837e-13 0 0)
(-9.96373972e-13 0 0)
(-2.56304739e-13 0 0)
(-1.13944384e-13 0 0)
(-5.83546956e-13 0 0)
(-6.62626697e-13 0 0)
(-4.64310509e-14 0 0)
(-2.02623572e-14 0 0)
(2.07244696e-13 0 0)
(-6.14981354e-13 0 0)
(-9.58276077e-14 0 0)
(1.36010031e-14 0 0)
(-3.30790423e-13 0 0)
(5.92927532e-13 0 0)
(-5.65003557e-14 0 0)
(2.56989649e-13 0 0)
(2.57588166e-13 0 0)
(2.84673077e-13 0 0)
(9.44664533e-13 0 0)
(3.51266098e-13 0 0)
(6.17385706e-13 0 0)
(6.41570818e-13 0 0)
(9.78864845e-13 0 0)
(1.00104682e-12 0 0)
(3.52852731e-13 0 0)
(6.88160159e-13 0 0)
(1.0245848e-12 0 0)
(6.03784432e-13 0 0)
(-1.95566716e-13 0 0)
(6.33068863e-13 0 0)
(8.65315375e-13 0 0)
(5.07063784e-14 0 0)
(5.35586944e-13 0 0)
(9.26186688e-15 0 0)
(2.86017061e-13 0 0)
(4.56755593e-14 0 0)
(3.54762492e-14 0 0)
(9.72278616e-13 0 0)
(3.72784152e-13 0 0)
(-2.01676316e-13 0 0)
(-2.49504301e-13 0 0)
(-2.75926849e-13 0 0)
(-1.18009426e-14 0 0)
(4.34002457e-14 0 0)
(5.70911251e-13 0 0)
(5.9160703e-13 0 0)
(-2.44926817e-13 0 0)
(9.07081463e-13 0 0)
(9.95177728e-13 0 0)
(1.23189417e-12 0 0)
(9.91144648e-13 0 0)
(9.98379374e-13 0 0)
(6.45195083e-13 0 0)
(9.60812363e-13 0 0)
(3.97084454e-13 0 0)
(3.28598211e-13 0 0)
(9.45172176e-13 0 0)
(3.80922342e-13 0 0)
(8.70696822e-13 0 0)
(3.00523316e-13 0 0)
(2.79409912e-13 0 0)
(5.5949232e-13 0 0)
(8.00460526e-15 0 0)
(-2.01173628e-14 0 0)
(5.63814533e-14 0 0)
(-2.86431157e-13 0 0)
(2.35081885e-14 0 0)
(-8.81826625e-13 0 0)
(-3.23179915e-13 0 0)
(-5.58697e-13 0 0)
(2.83808964e-14 0 0)
(-5.89068481e-13 0 0)
(-1.23667569e-12 0 0)
(-6.50814452e-13 0 0)
(-3.14570136e-13 0 0)
(-1.37666312e-14 0 0)
(-9.72928831e-13 0 0)
(-6.47350385e-13 0 0)
(-3.85147557e-13 0 0)
(-3.59662395e-13 0 0)
(-7.08162595e-13 0 0)
(-2.7969236e-13 0 0)
(-7.7893661e-14 0 0)
(-3.20104542e-13 0 0)
(-3.13443317e-13 0 0)
(-9.91567864e-14 0 0)
(-8.66012946e-13 0 0)
(-3.79460297e-13 0 0)
(-9.27419458e-13 0 0)
(-2.7646235e-13 0 0)
(-3.53483266e-13 0 0)
(-4.2038007e-14 0 0)
(-6.22826694e-13 0 0)
(-3.85701204e-13 0 0)
(-3.45202708e-13 0 0)
(3.09789082e-13 0 0)
(5.59055707e-14 0 0)
(4.56675344e-13 0 0)
(4.86038389e-14 0 0)
(-3.93891996e-13 0 0)
(8.51980169e-13 0 0)
(1.09546104e-14 0 0)
(-7.5764635e-15 0 0)
(1.43942484e-14 0 0)
(-6.28262976e-13 0 0)
(-2.91893932e-14 0 0)
(6.07449802e-14 0 0)
(5.64415333e-13 0 0)
(-6.02961024e-13 0 0)
(-6.48742667e-13 0 0)
(-3.88429521e-13 0 0)
(-9.46456632e-13 0 0)
(-6.97107609e-13 0 0)
(-7.27767721e-13 0 0)
(-6.87938074e-13 0 0)
(-7.31399807e-13 0 0)
(-1.28954778e-12 0 0)
(-1.30368408e-12 0 0)
(-7.39485093e-13 0 0)
(-1.55963651e-12 0 0)
(-1.32953485e-12 0 0)
(-1.29360993e-12 0 0)
(-1.31253069e-12 0 0)
(-7.46584707e-13 0 0)
(-9.8671734e-13 0 0)
(-7.6459358e-13 0 0)
(-9.33445286e-13 0 0)
(-6.88670228e-13 0 0)
(-3.4658796e-13 0 0)
(-6.70917026e-13 0 0)
(-2.48241186e-14 0 0)
(-6.89520555e-13 0 0)
(-3.41963406e-13 0 0)
(-2.8153594e-13 0 0)
(5.78632187e-14 0 0)
(3.16834191e-13 0 0)
(1.01345686e-13 0 0)
(-3.21765174e-15 0 0)
(6.80405867e-15 0 0)
(-3.24310013e-13 0 0)
(-4.0275017e-13 0 0)
(-9.46354113e-13 0 0)
(-4.57160552e-13 0 0)
(-6.79977157e-13 0 0)
(-7.81164006e-14 0 0)
(2.83881776e-13 0 0)
(-3.67584755e-13 0 0)
(-3.60771193e-13 0 0)
(-6.96484552e-13 0 0)
(-5.91677986e-13 0 0)
(-1.10643846e-13 0 0)
(-8.84249531e-13 0 0)
(1.7561738e-14 0 0)
(-2.19945751e-14 0 0)
(-2.83459098e-13 0 0)
(-3.99766478e-13 0 0)
(1.49495819e-14 0 0)
(-3.94179859e-13 0 0)
(-3.58185727e-14 0 0)
(-5.86293537e-13 0 0)
(2.41453335e-13 0 0)
(3.06694398e-13 0 0)
(5.50869218e-13 0 0)
(8.77407671e-13 0 0)
(-3.73582597e-14 0 0)
(-3.41141324e-13 0 0)
(-3.31548471e-13 0 0)
(-9.80890702e-14 0 0)
(-9.44465307e-13 0 0)
(-6.23546764e-14 0 0)
(-2.12799124e-16 0 0)
(-5.65588086e-13 0 0)
(-9.92499764e-15 0 0)
(1.067692e-13 0 0)
(6.29715619e-13 0 0)
(2.96724398e-13 0 0)
(6.40556852e-13 0 0)
(6.79743223e-13 0 0)
(1.25378998e-12 0 0)
(-2.23252844e-13 0 0)
(1.23737515e-12 0 0)
(3.03979511e-13 0 0)
(3.17816566e-13 0 0)
(5.50635832e-15 0 0)
(2.44994614e-13 0 0)
(2.86066315e-13 0 0)
(-8.98315379e-13 0 0)
(3.05809533e-13 0 0)
(2.61573907e-13 0 0)
(3.08543122e-13 0 0)
(5.19169931e-13 0 0)
(6.3854335e-13 0 0)
(3.12941201e-13 0 0)
(9.54739826e-13 0 0)
(3.60084206e-13 0 0)
(3.70207811e-13 0 0)
(1.90304391e-14 0 0)
(-5.38562573e-13 0 0)
(-3.14818207e-13 0 0)
(-9.09168699e-13 0 0)
(-5.88950923e-13 0 0)
(-8.84736766e-13 0 0)
(-9.82846245e-13 0 0)
(-1.51571834e-12 0 0)
(-9.4457684e-13 0 0)
(-4.40822312e-13 0 0)
(-6.53683807e-13 0 0)
(-6.61900881e-13 0 0)
(-2.85637133e-13 0 0)
(2.83159943e-13 0 0)
(-4.02067059e-14 0 0)
(-5.83856929e-15 0 0)
(-3.44771223e-13 0 0)
(-6.28322267e-13 0 0)
(-1.15721951e-13 0 0)
(-2.89477029e-13 0 0)
(6.08820111e-13 0 0)
(5.42142997e-14 0 0)
(3.88355751e-13 0 0)
(9.1635763e-13 0 0)
(1.07908356e-13 0 0)
(4.52192733e-14 0 0)
(3.9456464e-13 0 0)
(6.79621675e-13 0 0)
(3.6514582e-13 0 0)
(1.05933625e-13 0 0)
(3.34778196e-13 0 0)
(2.74473847e-13 0 0)
(6.42326649e-13 0 0)
(5.84237359e-13 0 0)
(6.12246933e-13 0 0)
(-5.71792384e-14 0 0)
(-3.05743922e-14 0 0)
(3.04516099e-13 0 0)
(-6.93471277e-14 0 0)
(-3.98923491e-13 0 0)
(-8.39266668e-14 0 0)
(-3.61991651e-13 0 0)
(-6.67258417e-14 0 0)
(-4.17041407e-14 0 0)
(2.64271935e-13 0 0)
(-5.15166105e-14 0 0)
(-2.94167794e-13 0 0)
(-2.59602037e-13 0 0)
(-3.02770019e-13 0 0)
(-5.44003168e-13 0 0)
(-2.13542271e-13 0 0)
(-3.21772712e-14 0 0)
(-2.78864858e-13 0 0)
(3.27464444e-13 0 0)
(2.68461273e-15 0 0)
(6.49215848e-13 0 0)
(6.69863196e-13 0 0)
(6.51987758e-14 0 0)
(5.82393809e-14 0 0)
(1.05146323e-13 0 0)
(2.54242108e-13 0 0)
(-5.69150055e-13 0 0)
(-6.25640403e-13 0 0)
(-3.48125796e-13 0 0)
(-9.54811367e-13 0 0)
(2.55960042e-13 0 0)
(2.12049774e-13 0 0)
(7.57957422e-15 0 0)
(1.93953499e-15 0 0)
(6.34948957e-13 0 0)
(9.39317179e-14 0 0)
(6.87661974e-13 0 0)
(3.91142996e-13 0 0)
(9.43870413e-13 0 0)
(8.58251573e-14 0 0)
(6.22750202e-13 0 0)
(3.72422368e-13 0 0)
(9.85668405e-13 0 0)
(6.59620215e-13 0 0)
(7.09342527e-14 0 0)
(-5.74791015e-13 0 0)
(-2.76735943e-13 0 0)
(-3.57609579e-13 0 0)
(-2.54399093e-13 0 0)
(-3.30255697e-13 0 0)
(-2.19072591e-14 0 0)
(2.86013878e-13 0 0)
(-2.16683809e-14 0 0)
(2.85321574e-13 0 0)
(-2.70023298e-14 0 0)
(2.49747713e-13 0 0)
(-3.18713248e-13 0 0)
(-6.10076508e-13 0 0)
(-5.09580602e-14 0 0)
(-6.11600045e-13 0 0)
(-3.82859707e-13 0 0)
(-1.27418149e-12 0 0)
(-6.7798339e-13 0 0)
(-6.82930554e-13 0 0)
(-1.01460272e-12 0 0)
(-9.58362706e-13 0 0)
(-7.29740972e-13 0 0)
(-3.64752943e-13 0 0)
(-7.63564807e-14 0 0)
(2.25688985e-13 0 0)
(-3.29653874e-13 0 0)
(2.19542561e-13 0 0)
(5.30771056e-14 0 0)
(-5.4589991e-15 0 0)
(-1.92214714e-14 0 0)
(-5.19570334e-13 0 0)
(-6.29976814e-13 0 0)
(-5.60685371e-13 0 0)
(-3.01428875e-13 0 0)
(-1.20610212e-12 0 0)
(-5.98361848e-13 0 0)
(-3.33882405e-13 0 0)
(-2.1982551e-14 0 0)
(-3.56353655e-13 0 0)
(-5.9040215e-13 0 0)
(-6.20271759e-14 0 0)
(2.90983418e-13 0 0)
(-5.23299212e-14 0 0)
(3.15563515e-13 0 0)
(5.87416312e-13 0 0)
(6.02759389e-13 0 0)
(3.64760627e-13 0 0)
(-2.82902306e-13 0 0)
(6.4049755e-15 0 0)
(3.66439528e-13 0 0)
(6.84514462e-13 0 0)
(1.61077273e-12 0 0)
(1.55893603e-12 0 0)
(1.5355567e-12 0 0)
(1.22383139e-12 0 0)
(5.89912313e-13 0 0)
(6.54866271e-13 0 0)
(8.60437509e-13 0 0)
(9.87395858e-13 0 0)
(6.30970826e-13 0 0)
(-2.44528245e-13 0 0)
(-3.0006643e-13 0 0)
(-3.04121017e-13 0 0)
(-2.88135236e-13 0 0)
(-2.69352358e-13 0 0)
(-2.39486996e-13 0 0)
(-2.71952057e-16 0 0)
(5.78410654e-15 0 0)
(3.92415592e-13 0 0)
(2.76929972e-13 0 0)
(-2.32566449e-13 0 0)
(-2.99024994e-13 0 0)
(-2.94719518e-13 0 0)
(-2.96034607e-13 0 0)
(-5.79926495e-13 0 0)
(4.17906885e-14 0 0)
(6.80792303e-13 0 0)
(6.7185482e-13 0 0)
(3.92835858e-13 0 0)
(3.30784355e-13 0 0)
(-8.53475979e-15 0 0)
(-2.48396902e-13 0 0)
(-3.90296206e-13 0 0)
(-1.30964435e-14 0 0)
(-7.03957093e-13 0 0)
(-1.22849349e-12 0 0)
(-9.76278445e-13 0 0)
(-9.91015618e-13 0 0)
(-1.27888646e-12 0 0)
(-1.30546369e-12 0 0)
(-1.02119019e-12 0 0)
(-1.30372814e-12 0 0)
(-1.02773991e-12 0 0)
(-9.54176384e-13 0 0)
(-3.14352362e-13 0 0)
(-3.37144799e-13 0 0)
(3.09296783e-13 0 0)
(6.01467857e-13 0 0)
(-3.04992001e-14 0 0)
(6.25279215e-13 0 0)
(6.40073751e-13 0 0)
(3.23456317e-13 0 0)
(3.85365517e-13 0 0)
(3.76409288e-13 0 0)
(1.00928075e-12 0 0)
(6.92738078e-13 0 0)
(9.24800164e-13 0 0)
(6.7990572e-13 0 0)
(9.3321562e-13 0 0)
(9.84738021e-13 0 0)
(1.29715483e-12 0 0)
(4.21509553e-13 0 0)
(9.94653785e-13 0 0)
(1.2514659e-12 0 0)
(4.1480868e-13 0 0)
(6.54470356e-13 0 0)
(6.20508256e-13 0 0)
(3.02809727e-14 0 0)
(-6.13325968e-13 0 0)
(-4.06922946e-13 0 0)
(2.52006913e-13 0 0)
(-1.56519057e-14 0 0)
(3.38625419e-13 0 0)
(8.90310131e-13 0 0)
(5.73551552e-14 0 0)
(6.73438459e-13 0 0)
(6.1320433e-13 0 0)
(3.8103106e-13 0 0)
(3.87714356e-14 0 0)
(-4.17176592e-14 0 0)
(-3.342057e-13 0 0)
(-5.88375086e-13 0 0)
(-2.74004067e-13 0 0)
(2.92657398e-13 0 0)
(-8.1687095e-13 0 0)
(2.91976868e-13 0 0)
(-3.19236719e-13 0 0)
(-5.8462482e-13 0 0)
(-6.33326981e-13 0 0)
(2.06305448e-13 0 0)
(-2.89102817e-13 0 0)
(-2.16135379e-14 0 0)
(-2.94825514e-13 0 0)
(-3.77752996e-14 0 0)
(2.32846339e-14 0 0)
(-5.15354205e-13 0 0)
(2.65013499e-13 0 0)
(1.09553576e-13 0 0)
(-3.71596785e-14 0 0)
(6.12485899e-13 0 0)
(3.36815163e-13 0 0)
(5.51707312e-15 0 0)
(5.67719871e-13 0 0)
(-2.89127573e-13 0 0)
(-6.46680253e-13 0 0)
(-2.77588642e-13 0 0)
(2.53966026e-13 0 0)
(-6.04768824e-13 0 0)
(-3.79123638e-13 0 0)
(-6.67873407e-13 0 0)
(-3.29249811e-13 0 0)
(-3.91929268e-14 0 0)
(2.8069984e-13 0 0)
(-3.41639623e-13 0 0)
(-1.87346275e-14 0 0)
(2.91731686e-13 0 0)
(9.14877172e-14 0 0)
(7.99540982e-14 0 0)
(-2.24524316e-13 0 0)
(-2.21617495e-15 0 0)
(-1.33342476e-14 0 0)
(2.33899027e-13 0 0)
(-3.50620133e-14 0 0)
(-2.68609508e-14 0 0)
(2.09313979e-13 0 0)
(-6.51132411e-13 0 0)
(-4.43364343e-14 0 0)
(2.83727969e-13 0 0)
(-2.27367261e-13 0 0)
(9.9938888e-14 0 0)
(3.81186792e-13 0 0)
(6.8851387e-14 0 0)
(-2.55250344e-13 0 0)
(3.34901246e-13 0 0)
(-2.80718419e-14 0 0)
(-4.14669062e-13 0 0)
(-4.2903775e-13 0 0)
(-8.01613377e-13 0 0)
(-6.72961509e-13 0 0)
(2.04811843e-13 0 0)
(-4.85889997e-14 0 0)
(1.05001777e-14 0 0)
(3.20307963e-13 0 0)
(3.19973958e-13 0 0)
(-5.9627098e-14 0 0)
(-5.51778682e-13 0 0)
(-3.29906899e-13 0 0)
(-6.41958248e-13 0 0)
(-2.92410007e-13 0 0)
(-3.86483715e-13 0 0)
(-5.84893613e-13 0 0)
(-5.96718723e-14 0 0)
(-3.45619233e-13 0 0)
(-3.22016657e-13 0 0)
(-3.12856513e-13 0 0)
(6.02027712e-13 0 0)
(3.46869477e-13 0 0)
(1.35533729e-14 0 0)
(3.20199605e-13 0 0)
(3.26248838e-13 0 0)
(-1.1119251e-14 0 0)
(3.61293745e-13 0 0)
(5.77924712e-13 0 0)
(3.3246517e-13 0 0)
(9.28771404e-13 0 0)
(2.80606547e-13 0 0)
(1.92637401e-14 0 0)
(-5.38664611e-14 0 0)
(-2.54273091e-13 0 0)
(-3.47646926e-14 0 0)
(-1.38168494e-14 0 0)
(3.46610719e-13 0 0)
(-3.65863419e-14 0 0)
(3.47055416e-13 0 0)
(3.40619995e-13 0 0)
(5.21961899e-14 0 0)
(6.77392201e-13 0 0)
(3.87074724e-13 0 0)
(4.50425199e-14 0 0)
(1.30361385e-13 0 0)
(6.51865499e-13 0 0)
(3.70472175e-13 0 0)
(9.99262202e-13 0 0)
(1.11366425e-13 0 0)
(3.93715166e-13 0 0)
(3.9447222e-13 0 0)
(6.94260926e-13 0 0)
(3.39074645e-13 0 0)
(3.15782408e-14 0 0)
(5.99185528e-13 0 0)
(-2.58475532e-15 0 0)
(8.70668819e-13 0 0)
(3.63259925e-14 0 0)
(8.59885372e-13 0 0)
(6.65572283e-13 0 0)
(1.24665789e-12 0 0)
(9.04382667e-13 0 0)
(3.79433106e-13 0 0)
(3.21966377e-13 0 0)
(-2.89083448e-13 0 0)
(-3.00817576e-13 0 0)
(-3.2501714e-13 0 0)
(-6.16326833e-13 0 0)
(-3.48390928e-13 0 0)
(-2.51336165e-13 0 0)
(-2.63175927e-13 0 0)
(-6.25927099e-13 0 0)
(-2.4091468e-13 0 0)
(-3.159183e-13 0 0)
(-5.51512014e-13 0 0)
(5.75698916e-13 0 0)
(4.41984541e-14 0 0)
(3.47874261e-13 0 0)
(6.32244659e-13 0 0)
(2.84333718e-14 0 0)
(2.93103712e-13 0 0)
(-2.88130579e-13 0 0)
(2.73898331e-13 0 0)
(2.37790616e-13 0 0)
(2.6728497e-13 0 0)
(2.68857296e-13 0 0)
(2.2649377e-13 0 0)
(3.03032128e-13 0 0)
(6.35542995e-13 0 0)
(8.6842073e-13 0 0)
(3.25289835e-13 0 0)
(8.92289252e-13 0 0)
(-2.50352748e-13 0 0)
(5.78750656e-13 0 0)
(-2.93160729e-13 0 0)
(2.94685114e-13 0 0)
(-3.14394257e-14 0 0)
(-2.62423694e-13 0 0)
(2.81965184e-13 0 0)
(-3.12401844e-13 0 0)
(-3.42728947e-13 0 0)
(-9.11837442e-13 0 0)
(-3.11628075e-13 0 0)
(2.30240087e-14 0 0)
(-2.02632395e-14 0 0)
(-5.85756744e-13 0 0)
(-6.16138478e-13 0 0)
(2.59000893e-13 0 0)
(-5.5888722e-13 0 0)
(-5.47627952e-14 0 0)
(-5.56097143e-13 0 0)
(-3.02478934e-13 0 0)
(-3.20423408e-13 0 0)
(2.71566131e-14 0 0)
(2.18231871e-14 0 0)
(9.11642245e-16 0 0)
(-3.02228208e-13 0 0)
(5.86307368e-13 0 0)
(6.94369701e-14 0 0)
(5.29557359e-13 0 0)
(6.60132509e-13 0 0)
(9.04744724e-13 0 0)
(5.57432561e-13 0 0)
(-2.90687163e-13 0 0)
(-3.66899643e-13 0 0)
(2.54686873e-13 0 0)
(3.1457015e-13 0 0)
(2.48732004e-13 0 0)
(6.36563078e-13 0 0)
(3.72544969e-13 0 0)
(9.12976668e-13 0 0)
(3.31475699e-13 0 0)
(7.14534303e-13 0 0)
(3.01048834e-13 0 0)
(5.06701944e-14 0 0)
(-5.95394084e-13 0 0)
(-6.44362265e-13 0 0)
(-2.55965047e-13 0 0)
(5.75236737e-13 0 0)
(-2.10597966e-13 0 0)
(6.51612891e-13 0 0)
(3.18995404e-14 0 0)
(3.25767916e-13 0 0)
(3.90848892e-13 0 0)
(9.37735872e-13 0 0)
(3.98578253e-13 0 0)
(6.85229298e-13 0 0)
(3.76497241e-13 0 0)
(7.66066059e-13 0 0)
(7.0426455e-13 0 0)
(6.11447077e-13 0 0)
(2.02497403e-14 0 0)
(2.67107224e-13 0 0)
(-3.09569579e-13 0 0)
(-4.29943537e-14 0 0)
(8.28534941e-15 0 0)
(-1.42531878e-14 0 0)
(-6.1339735e-13 0 0)
(-3.68188545e-14 0 0)
(-6.31097266e-13 0 0)
(3.2642608e-13 0 0)
(6.29423774e-13 0 0)
(5.4425284e-14 0 0)
(1.17555917e-14 0 0)
(-2.98051167e-13 0 0)
(-6.25586283e-13 0 0)
(-6.55636725e-13 0 0)
(-9.60336618e-13 0 0)
(-3.74716959e-13 0 0)
(-3.60187284e-13 0 0)
(-6.70906501e-13 0 0)
(-6.99121993e-13 0 0)
(-7.06307029e-13 0 0)
(-1.28652585e-12 0 0)
(-6.92979873e-13 0 0)
(-5.75952215e-13 0 0)
(-6.8051648e-13 0 0)
(-2.56709847e-13 0 0)
(-7.1917512e-13 0 0)
(-9.26657142e-13 0 0)
(-9.81249552e-13 0 0)
(-6.52365018e-13 0 0)
(-2.46342672e-13 0 0)
(-7.73426779e-14 0 0)
(-5.06557623e-13 0 0)
(-5.56551219e-14 0 0)
(-3.62015887e-13 0 0)
(-6.16246962e-13 0 0)
(-2.42912183e-14 0 0)
(-3.42942354e-13 0 0)
(-5.9646735e-13 0 0)
(-6.38236642e-13 0 0)
(-6.13976955e-13 0 0)
(-9.22744398e-13 0 0)
(-2.73913749e-14 0 0)
(-3.17567257e-13 0 0)
(2.20428754e-13 0 0)
(1.21223012e-14 0 0)
(2.3074033e-13 0 0)
(2.57824282e-13 0 0)
(-6.39390452e-13 0 0)
(-5.9073481e-13 0 0)
(-2.8670796e-13 0 0)
(-3.49435499e-14 0 0)
(-7.88080614e-15 0 0)
(-7.22379143e-14 0 0)
(1.21581411e-14 0 0)
(-6.06455525e-14 0 0)
(2.16103646e-14 0 0)
(2.35810411e-13 0 0)
(-3.68590985e-13 0 0)
(4.23802263e-14 0 0)
(5.50275825e-13 0 0)
(9.50121072e-13 0 0)
(9.40469034e-13 0 0)
(3.04772375e-13 0 0)
(2.757194e-13 0 0)
(-7.60712674e-16 0 0)
(6.04592611e-13 0 0)
(-2.58630278e-13 0 0)
(-2.82274192e-13 0 0)
(-5.56960458e-13 0 0)
(-5.43585113e-13 0 0)
(-5.28315614e-13 0 0)
(-9.23655273e-15 0 0)
(-2.99474998e-13 0 0)
(-6.38801454e-13 0 0)
(-3.95600876e-13 0 0)
(-4.03106423e-13 0 0)
(-7.0364215e-13 0 0)
(2.52227813e-13 0 0)
(3.1066681e-13 0 0)
(6.04009152e-13 0 0)
(-3.02706792e-13 0 0)
(4.19815666e-15 0 0)
(2.33786515e-14 0 0)
(-7.29050501e-16 0 0)
(-3.25032592e-13 0 0)
(-3.27393828e-13 0 0)
(-3.2284767e-13 0 0)
(8.64938368e-15 0 0)
(-2.13062806e-14 0 0)
(3.55065271e-13 0 0)
(6.89919186e-14 0 0)
(3.93318476e-13 0 0)
(1.13901196e-13 0 0)
(4.51057868e-13 0 0)
(7.13158952e-13 0 0)
(1.0007755e-12 0 0)
(3.70873116e-14 0 0)
(3.68265643e-13 0 0)
(6.18252122e-13 0 0)
(8.79845134e-13 0 0)
(6.76047021e-13 0 0)
(1.25364168e-12 0 0)
(5.42195888e-14 0 0)
(1.29412862e-12 0 0)
(1.25778798e-12 0 0)
(1.0078914e-12 0 0)
(9.15545443e-13 0 0)
(4.04713238e-13 0 0)
(3.0165219e-13 0 0)
(2.53844894e-14 0 0)
(6.8032252e-13 0 0)
(2.27122639e-14 0 0)
(6.90534199e-13 0 0)
(6.10786071e-13 0 0)
(-2.61530109e-13 0 0)
(-7.45216635e-15 0 0)
(-7.63696938e-14 0 0)
(-3.19128465e-13 0 0)
(-6.78529882e-13 0 0)
(-3.63472097e-13 0 0)
(-6.75227805e-13 0 0)
(-6.56062778e-13 0 0)
(-6.2428025e-13 0 0)
(-1.01946197e-12 0 0)
(-6.67514524e-13 0 0)
(-6.40755338e-13 0 0)
(-9.62059678e-13 0 0)
(-6.7427395e-13 0 0)
(2.72298004e-13 0 0)
(-6.28016084e-14 0 0)
(-6.48568042e-13 0 0)
(2.33146129e-14 0 0)
(-7.00021038e-14 0 0)
(-2.82669287e-13 0 0)
(-3.14579391e-13 0 0)
(-3.62156626e-13 0 0)
(-3.31541247e-13 0 0)
(-6.77395216e-13 0 0)
(-6.54498367e-13 0 0)
(-7.10082211e-13 0 0)
(-1.31613929e-13 0 0)
(-9.19635069e-13 0 0)
(-1.32746e-12 0 0)
(-9.74450736e-13 0 0)
(-9.3389756e-13 0 0)
(-7.05113634e-13 0 0)
(-3.3059374e-13 0 0)
(-9.46730733e-13 0 0)
(-4.03198551e-13 0 0)
(-3.33979076e-13 0 0)
(-3.08341996e-13 0 0)
(-3.18798226e-13 0 0)
(2.8459161e-13 0 0)
(3.21590851e-13 0 0)
(6.90461741e-13 0 0)
(6.54035769e-13 0 0)
(1.02673868e-12 0 0)
(6.21930315e-13 0 0)
(3.24645321e-13 0 0)
(6.17845842e-13 0 0)
(5.76993463e-14 0 0)
(6.35951571e-13 0 0)
(9.62369641e-14 0 0)
(-2.14203454e-15 0 0)
(-2.41350998e-13 0 0)
(-5.50043795e-13 0 0)
(4.43378924e-14 0 0)
(3.64706377e-13 0 0)
(3.49158401e-13 0 0)
(6.19281409e-13 0 0)
(2.52882355e-14 0 0)
(9.1333539e-13 0 0)
(6.65233936e-13 0 0)
(6.83017073e-13 0 0)
(1.19995643e-12 0 0)
(1.03231569e-12 0 0)
(6.55403009e-13 0 0)
(9.51785406e-13 0 0)
(1.23081803e-12 0 0)
(1.19137494e-13 0 0)
(6.16158258e-13 0 0)
(6.60605626e-13 0 0)
(1.01505766e-12 0 0)
(9.84954486e-13 0 0)
(4.67037723e-13 0 0)
(7.82311502e-13 0 0)
(1.32927645e-12 0 0)
(1.02171485e-12 0 0)
(7.66852623e-13 0 0)
(9.8797369e-13 0 0)
(1.58303936e-12 0 0)
(1.36892216e-12 0 0)
(1.6041164e-12 0 0)
(1.61695257e-12 0 0)
(1.05269993e-12 0 0)
(1.86658445e-12 0 0)
(2.20440048e-12 0 0)
(1.2520512e-12 0 0)
(1.85586923e-12 0 0)
(6.40424485e-13 0 0)
(8.81481874e-13 0 0)
(9.60526434e-13 0 0)
(9.97401092e-13 0 0)
(9.70225032e-13 0 0)
(3.55613065e-13 0 0)
(3.95447404e-13 0 0)
(6.58153399e-14 0 0)
(3.29745912e-13 0 0)
(3.82170691e-13 0 0)
(9.28768669e-14 0 0)
(-9.10821679e-13 0 0)
(-2.96912889e-13 0 0)
(-2.99392712e-13 0 0)
(-5.86158935e-13 0 0)
(-6.30314733e-13 0 0)
(-3.05405193e-13 0 0)
(-5.8661912e-13 0 0)
(-3.63722236e-13 0 0)
(-5.56824819e-13 0 0)
(-5.76878703e-14 0 0)
(2.06549129e-13 0 0)
(-4.12975097e-14 0 0)
(4.30730519e-13 0 0)
(-6.8616602e-13 0 0)
(-9.58969727e-13 0 0)
(-4.37686873e-13 0 0)
(-1.19585183e-12 0 0)
(-6.77458051e-13 0 0)
(-9.73734712e-13 0 0)
(-4.11925927e-13 0 0)
(-9.60304389e-13 0 0)
(-6.80881012e-13 0 0)
(-6.30891411e-13 0 0)
(-6.37407838e-13 0 0)
(-9.67419029e-13 0 0)
(-3.18395929e-13 0 0)
(-8.88804396e-13 0 0)
(-6.53619097e-13 0 0)
(-6.17281834e-13 0 0)
(-1.00633553e-13 0 0)
(-9.40413687e-13 0 0)
(-6.98104194e-13 0 0)
(-3.57874389e-13 0 0)
(-7.71001905e-13 0 0)
(-1.00228325e-12 0 0)
(-7.2275607e-13 0 0)
(-1.0875809e-12 0 0)
(-1.02016664e-12 0 0)
(-7.08813363e-13 0 0)
(-1.03271546e-12 0 0)
(-6.27644142e-13 0 0)
(-3.53333673e-13 0 0)
(-2.89587533e-13 0 0)
(2.78966966e-13 0 0)
(-3.21366584e-13 0 0)
(2.55762304e-13 0 0)
(3.68262755e-13 0 0)
(6.32203212e-13 0 0)
(1.00926275e-12 0 0)
(1.2934069e-12 0 0)
(1.32832687e-12 0 0)
(1.3572402e-12 0 0)
(1.95722914e-12 0 0)
(1.34632635e-12 0 0)
(1.05964794e-12 0 0)
(7.38750924e-13 0 0)
(1.06717773e-12 0 0)
(7.41977502e-13 0 0)
(1.02688778e-12 0 0)
(8.07418746e-13 0 0)
(9.67279077e-13 0 0)
(1.06959547e-12 0 0)
(1.95652576e-13 0 0)
(9.99203169e-13 0 0)
(1.12518886e-13 0 0)
(4.15923342e-14 0 0)
(8.04552371e-14 0 0)
(6.89782558e-14 0 0)
(2.96270095e-14 0 0)
(-7.9395658e-13 0 0)
(-2.9303653e-13 0 0)
(-2.69183559e-13 0 0)
(-5.99527565e-13 0 0)
(-6.21900213e-13 0 0)
(2.27268638e-13 0 0)
(2.30062874e-13 0 0)
(-6.91252726e-14 0 0)
(8.50721704e-13 0 0)
(5.15016952e-13 0 0)
(9.04173973e-13 0 0)
(2.94163703e-13 0 0)
(1.5006048e-12 0 0)
(3.59482251e-13 0 0)
(9.28593868e-13 0 0)
(6.02223174e-13 0 0)
(3.97289143e-13 0 0)
(1.05529145e-12 0 0)
(3.47981804e-13 0 0)
(4.15204407e-14 0 0)
(3.67566862e-13 0 0)
(-6.02702054e-13 0 0)
(-3.12182446e-14 0 0)
(-5.89903565e-13 0 0)
(-3.31005774e-13 0 0)
(-9.20198357e-13 0 0)
(-9.54630647e-13 0 0)
(-3.9652711e-13 0 0)
(-5.57508196e-14 0 0)
(-1.52782917e-12 0 0)
(-7.05129514e-13 0 0)
(-6.47022377e-13 0 0)
(-3.39318834e-13 0 0)
(-9.14936173e-14 0 0)
(-9.76458982e-14 0 0)
(-3.74115479e-13 0 0)
(-6.539732e-13 0 0)
(-7.12754596e-13 0 0)
(-4.51499482e-13 0 0)
(-1.26737982e-12 0 0)
(-6.58972235e-13 0 0)
(-7.192866e-13 0 0)
(-1.85429457e-12 0 0)
(-1.03943483e-12 0 0)
(-7.30482781e-13 0 0)
(-8.95317618e-13 0 0)
(-3.78695081e-13 0 0)
(2.57865803e-13 0 0)
(-2.87412372e-13 0 0)
(2.06390952e-13 0 0)
(-7.54919346e-15 0 0)
(-2.98483788e-15 0 0)
(3.25659265e-13 0 0)
(5.97831962e-13 0 0)
(6.45717424e-13 0 0)
(1.21613552e-12 0 0)
(6.05897025e-13 0 0)
(6.25486107e-13 0 0)
(6.18227269e-13 0 0)
(5.37023082e-13 0 0)
(3.11441038e-14 0 0)
(5.57335273e-13 0 0)
(5.28732194e-13 0 0)
(-4.16093477e-14 0 0)
(-1.78646903e-14 0 0)
(-1.39025397e-14 0 0)
(-8.95050486e-13 0 0)
(3.16597553e-14 0 0)
(-2.44235044e-13 0 0)
(2.723041e-13 0 0)
(-5.05110608e-13 0 0)
(6.49035683e-14 0 0)
(1.21282418e-13 0 0)
(7.57473371e-14 0 0)
(8.22197387e-14 0 0)
(1.57696705e-13 0 0)
(3.88808797e-13 0 0)
(1.07196409e-12 0 0)
(9.74608155e-13 0 0)
(6.3333808e-13 0 0)
(2.61144348e-13 0 0)
(3.07118945e-13 0 0)
(6.54580311e-13 0 0)
(3.78462514e-13 0 0)
(1.13158897e-14 0 0)
(-2.55329284e-13 0 0)
(-5.483142e-13 0 0)
(-6.36118522e-13 0 0)
(-8.78388818e-13 0 0)
(-6.31320149e-13 0 0)
(-6.07190406e-13 0 0)
(-3.15177841e-13 0 0)
(-5.84804304e-13 0 0)
(2.2400973e-13 0 0)
(-3.19862416e-13 0 0)
(-6.08271454e-13 0 0)
(-2.86726949e-13 0 0)
(1.89267271e-13 0 0)
(-9.33319242e-13 0 0)
(-6.36122744e-13 0 0)
(-1.02318861e-13 0 0)
(-3.72044483e-13 0 0)
(-4.58877867e-14 0 0)
(-9.94079563e-13 0 0)
(-7.18429284e-13 0 0)
(-9.76954324e-13 0 0)
(-1.11582467e-12 0 0)
(-1.32061326e-12 0 0)
(-1.90654081e-12 0 0)
(-1.57339935e-12 0 0)
(-1.6188097e-12 0 0)
(-1.56816198e-12 0 0)
(-9.78823672e-13 0 0)
(-1.26799781e-12 0 0)
(-1.35142919e-12 0 0)
(-1.03900565e-12 0 0)
(-1.0024542e-12 0 0)
(1.88406531e-13 0 0)
(-5.83063505e-14 0 0)
(2.9240903e-13 0 0)
(6.20000239e-13 0 0)
(6.1032142e-13 0 0)
(2.81691044e-13 0 0)
(2.58567994e-13 0 0)
(2.47129608e-13 0 0)
(5.45289436e-13 0 0)
(-2.87524847e-14 0 0)
(5.61968067e-13 0 0)
(3.06569987e-13 0 0)
(-3.98250329e-14 0 0)
(-3.26363653e-14 0 0)
(2.64007298e-13 0 0)
(-6.40406778e-13 0 0)
(-6.56474519e-13 0 0)
(-6.80731937e-13 0 0)
(-4.20302351e-13 0 0)
(-4.22874929e-13 0 0)
(-6.4350288e-13 0 0)
(-3.89433535e-13 0 0)
(-6.59053081e-13 0 0)
(-1.18050374e-13 0 0)
(-9.1750427e-13 0 0)
(-1.01467572e-12 0 0)
(-9.34421369e-13 0 0)
(-2.81618001e-13 0 0)
(-1.39284293e-14 0 0)
(-5.99891064e-13 0 0)
(-8.0096826e-15 0 0)
(5.51423421e-13 0 0)
(3.4839495e-13 0 0)
(4.09257035e-15 0 0)
(3.04933823e-13 0 0)
(4.02673238e-13 0 0)
(5.46949161e-13 0 0)
(-1.67788255e-13 0 0)
(2.90756118e-14 0 0)
(3.51171009e-14 0 0)
(3.85705196e-13 0 0)
(3.85716339e-13 0 0)
(7.4181316e-13 0 0)
(6.56393344e-13 0 0)
(1.07362081e-12 0 0)
(9.89329311e-13 0 0)
(9.19528391e-13 0 0)
(9.20413737e-13 0 0)
(5.76654216e-13 0 0)
(6.78750374e-13 0 0)
(6.20990377e-13 0 0)
(9.61279073e-13 0 0)
(9.56984701e-13 0 0)
(6.31346374e-13 0 0)
(3.33124466e-13 0 0)
(9.60234089e-13 0 0)
(6.58904354e-13 0 0)
(4.5963e-13 0 0)
(1.21472934e-12 0 0)
(6.88000403e-13 0 0)
(4.8639166e-14 0 0)
(3.20065258e-13 0 0)
(2.93775916e-13 0 0)
(3.23399757e-13 0 0)
(2.81994547e-13 0 0)
(-2.52401612e-13 0 0)
(-6.19819804e-13 0 0)
(-3.36152818e-13 0 0)
(-5.08265044e-14 0 0)
(-9.72211156e-13 0 0)
(-6.15613534e-13 0 0)
(-4.37787321e-14 0 0)
(-2.7688562e-13 0 0)
(-5.75921937e-13 0 0)
(-6.55789066e-13 0 0)
(-1.25577664e-12 0 0)
(-9.40560746e-13 0 0)
(-1.56394891e-12 0 0)
(-1.33363759e-12 0 0)
(-1.58731399e-12 0 0)
(-1.32173814e-12 0 0)
(-1.57630634e-12 0 0)
(-3.93969726e-13 0 0)
(-9.42089928e-13 0 0)
(-6.80492489e-13 0 0)
(-2.70190132e-14 0 0)
(-3.31054237e-13 0 0)
(-4.80193907e-14 0 0)
(6.64904793e-13 0 0)
(5.60924784e-13 0 0)
(-2.39066885e-14 0 0)
(2.65067417e-13 0 0)
(2.59746935e-13 0 0)
(4.90945285e-13 0 0)
(2.03020468e-13 0 0)
(-3.91008122e-13 0 0)
(5.45296226e-13 0 0)
(-6.91099751e-13 0 0)
(-6.19511844e-13 0 0)
(-6.69713383e-13 0 0)
(-9.07208368e-13 0 0)
(-6.39808305e-13 0 0)
(-1.17015143e-12 0 0)
(-6.88006151e-13 0 0)
(-3.13472215e-13 0 0)
(-3.67772512e-13 0 0)
(-3.72550031e-13 0 0)
(-9.11871082e-14 0 0)
(-6.60696453e-13 0 0)
(-5.77726879e-13 0 0)
(-3.54175746e-13 0 0)
(-6.20333403e-13 0 0)
(-4.53416505e-15 0 0)
(3.80007654e-13 0 0)
(-6.19541144e-15 0 0)
(3.44986183e-14 0 0)
(-2.47042014e-13 0 0)
(4.13843552e-14 0 0)
(5.53794337e-14 0 0)
(3.40073544e-13 0 0)
(-3.02673648e-13 0 0)
(-2.61697099e-13 0 0)
(-1.55978242e-14 0 0)
(4.19440231e-15 0 0)
(2.62119884e-13 0 0)
(-2.62099747e-13 0 0)
(-3.01326553e-13 0 0)
(9.09893102e-13 0 0)
(9.24513772e-14 0 0)
(3.18855969e-14 0 0)
(6.69169422e-13 0 0)
(3.29203492e-13 0 0)
(3.20674312e-13 0 0)
(3.18757906e-13 0 0)
(3.05265072e-13 0 0)
(6.05694993e-14 0 0)
(8.84541616e-13 0 0)
(5.90122346e-13 0 0)
(9.74810929e-13 0 0)
(1.17392836e-12 0 0)
(6.7067164e-14 0 0)
(1.49146943e-12 0 0)
(1.31284615e-12 0 0)
(6.46455442e-13 0 0)
(9.45523716e-13 0 0)
(1.02143027e-12 0 0)
(1.30931117e-12 0 0)
(6.76832642e-13 0 0)
(6.5025534e-13 0 0)
(9.57177536e-13 0 0)