/*--------------------------------*- C++ -*----------------------------------*\
| =========                 |                                                 |
| \\      /  F ield         | OpenFOAM: The Open Source CFD Toolbox           |
|  \\    /   O peration     | Version:  2206                                  |
|   \\  /    A nd           | Website:  www.openfoam.com                      |
|    \\/     M anipulation  |                                                 |
\*---------------------------------------------------------------------------*/
FoamFile
{
    version     2.0;
    format      ascii;
    arch        "LSB;label=32;scalar=64";
    class       surfaceScalarField;
    location    "2e-06";
    object      phi;
}
// * * * * * * * * * * * * * * * * * * * * * * * * * * * * * * * * * * * * * //

dimensions      [1 0 -1 0 0 0 0];

oriented        oriented;

internalField   nonuniform List<scalar> 
3182
(
4.19952966e-19
-3.79283037e-19
1.35413352e-19
-2.84528198e-19
-1.36156376e-23
-6.07233009e-25
-4.40847312e-26
-4.00573341e-31
5.71497338e-30
2.99028633e-25
4.10931906e-24
1.65053606e-22
1.0289963e-18
-3.79292471e-19
-7.85618343e-19
-8.43590887e-24
8.6631438e-19
-9.21352999e-19
-1.38124037e-18
1.75884939e-18
2.88464985e-22
1.36127834e-23
1.11890917e-24
4.07796484e-24
4.22230707e-23
1.9072319e-19
2.26964843e-18
-1.94726259e-18
-8.13062454e-19
2.15331349e-19
-1.13561387e-18
1.24488124e-18
7.51692624e-23
-8.65632138e-19
3.25000983e-19
4.86718502e-19
-4.87751277e-19
-4.86834568e-19
4.87434793e-19
-7.50523951e-22
-8.68832778e-19
-1.07872565e-18
3.22888358e-19
1.41106843e-18
2.17371865e-19
1.3003931e-18
1.08192754e-19
-6.63693018e-22
-7.58200987e-19
-5.42767563e-19
-4.35262134e-19
-8.61469367e-19
-6.4944971e-19
4.31097825e-19
8.66406287e-19
6.51698981e-19
2.18454704e-19
6.48530914e-19
-4.33394332e-19
-1.30121824e-18
-1.51799136e-18
-8.6896105e-19
-2.18744276e-19
-4.33986458e-19
-2.08324309e-19
4.36555727e-19
1.08568901e-18
8.64712572e-19
4.4093571e-19
1.29051767e-18
8.67759303e-19
4.45620698e-19
1.73742793e-18
1.74094835e-18
1.74957054e-18
1.75018127e-18
2.60399182e-18
2.18803882e-18
2.19238247e-18
3.52082929e-18
4.79840947e-18
6.07674536e-18
5.19929587e-18
3.50316296e-18
4.28913019e-18
3.44163119e-18
2.61368151e-18
1.66766866e-18
3.36398968e-18
1.71533826e-18
-8.31119834e-19
-1.57600038e-18
-1.49520655e-18
-8.38275436e-19
-2.62653835e-18
1.80019504e-19
5.29414923e-19
3.95281087e-19
1.59929363e-18
-4.55927144e-19
1.54423416e-18
1.36768401e-18
1.11848821e-18
2.44420023e-18
2.87112132e-18
-2.22595329e-18
-2.50721294e-18
-1.67990994e-18
5.02293258e-19
-1.9940122e-19
-3.16376621e-18
-1.06131484e-18
-4.98424259e-19
-2.3601373e-18
-2.93360162e-18
-5.81131208e-18
-7.51289142e-18
-7.45989119e-18
-5.43294383e-18
-5.08124134e-18
-5.97764654e-18
-6.15005609e-18
-1.93350131e-18
-1.38117939e-18
-4.9128702e-19
-2.19649114e-18
-1.95181413e-18
-4.95324714e-18
-2.87912222e-18
-6.18161204e-19
1.05885629e-18
-9.5272478e-19
1.1410834e-18
-2.52318415e-19
2.61089343e-18
1.31371314e-18
3.22242452e-18
4.18302693e-18
3.3685312e-18
4.89722419e-18
2.69505247e-18
2.16312111e-18
4.54325116e-18
1.98488162e-18
3.12230299e-18
3.64028621e-18
5.17685384e-18
4.36643092e-18
1.47180392e-18
3.63363569e-18
1.7218544e-18
4.81144917e-18
-3.78186792e-19
-1.55063299e-18
-3.49174449e-18
3.53306319e-19
-2.50229147e-18
-6.9875966e-19
-1.2130462e-18
-4.59190404e-18
-2.75733599e-18
-1.16420946e-18
1.24001822e-18
1.22745898e-18
-2.27034137e-18
-1.70481074e-18
-4.86106501e-18
-3.04561229e-18
-1.51200076e-18
-3.28681501e-18
-1.98261834e-18
-5.7565852e-19
-3.23262696e-19
-2.7546109e-18
-1.65546535e-18
-4.06249739e-18
-3.31205493e-18
-1.4726097e-18
3.08608646e-19
2.02785208e-18
3.59659812e-18
3.65371162e-18
2.39928451e-18
-1.2460798e-18
2.74074747e-18
7.50854868e-19
2.85736988e-18
6.40630967e-18
4.99218779e-18
6.56790473e-18
8.10773188e-18
4.38925709e-18
1.47029728e-18
1.79597919e-18
4.24460831e-18
3.59151107e-18
5.06231269e-18
4.66979354e-18
1.55968204e-18
9.64672964e-19
-3.01834557e-19
1.20413141e-18
4.87004334e-19
1.73761257e-18
1.34565532e-18
2.88079542e-18
2.50771679e-18
4.49184465e-18
4.73553025e-18
3.35060896e-18
4.96645289e-18
6.16983139e-18
3.69918274e-18
5.18983509e-18
4.85155522e-18
2.60464767e-18
4.97555859e-18
6.18809387e-18
4.36060737e-18
4.04307595e-18
3.94107123e-18
2.27639291e-18
3.27336965e-18
8.98892927e-19
1.80451347e-18
-1.67717336e-19
-1.70475607e-18
6.19893301e-19
9.00483525e-19
-5.1962038e-19
1.56762409e-19
3.06037588e-18
4.40719781e-18
5.54170829e-18
1.4827092e-18
4.52639089e-20
7.14996567e-20
7.1549169e-19
-9.46787317e-19
8.44382046e-19
2.1035063e-18
3.45500482e-19
2.56095711e-19
1.49431738e-18
8.10022271e-19
-1.66672749e-18
1.12615288e-18
-7.83878386e-19
1.05310867e-18
3.16255247e-18
-1.27223017e-19
5.56209107e-20
-6.14103618e-19
2.75877511e-19
2.11836454e-18
3.84291584e-18
3.9761012e-18
3.37551329e-18
3.53151349e-18
1.5118239e-18
-1.28609925e-18
-9.76100401e-19
-1.32740375e-19
-7.82263977e-19
-1.9496424e-18
-3.20120727e-18
-1.177861e-18
-1.92111151e-18
-4.67952774e-18
-1.58124672e-18
-2.6701355e-18
-5.38446033e-18
-3.28790101e-18
-1.94959785e-18
-5.42015292e-18
-3.41446681e-18
-6.00874846e-18
-6.00389925e-18
-1.11670958e-17
-1.09654052e-17
-1.21815525e-17
-9.42849048e-18
-1.0985449e-17
-1.26443915e-17
-9.07008994e-18
-1.01866962e-17
-1.08610071e-17
-1.44715901e-17
-1.06269657e-17
-1.26277688e-17
-8.47245474e-18
-9.23450394e-18
-9.44293728e-18
-1.1804065e-17
-1.19213807e-17
-1.19302014e-17
-1.12510848e-17
-1.14476743e-17
-1.35553194e-17
-1.43726059e-17
-1.27080732e-17
-1.36359069e-17
-1.14923809e-17
-1.32571896e-17
-1.16714186e-17
-1.5175714e-17
-1.16541918e-17
-1.53367909e-17
-1.58843371e-17
-1.42753328e-17
-1.50604478e-17
-1.48130353e-17
-1.81071086e-17
-1.63150863e-17
-1.67570031e-17
-1.51191065e-17
-1.72013519e-17
-1.93634478e-17
-1.79173388e-17
-1.82323893e-17
-1.78479758e-17
-1.87850239e-17
-2.21706125e-17
-2.06607927e-17
-2.0007208e-17
-1.8685436e-17
-1.55844563e-17
-1.50351251e-17
-1.73167809e-17
-1.60146876e-17
-1.36392925e-17
-1.21536076e-17
-9.27768687e-18
-1.10932236e-17
-1.14221778e-17
-1.14399876e-17
-9.71613103e-18
-9.50758023e-18
-9.39732483e-18
-9.9044465e-18
-9.92191831e-18
-1.2411835e-17
-6.1774702e-18
-7.48189698e-18
-9.57172153e-18
-9.36026637e-18
-6.78725973e-18
-5.26957689e-18
-8.01966461e-18
-4.38751938e-18
-8.6136977e-18
-6.9831491e-18
-1.11929956e-17
-8.69456935e-18
-5.80338175e-18
-8.49282663e-18
-8.39533511e-18
-1.05854429e-17
-1.15113539e-17
-1.01760432e-17
-9.49391591e-18
-9.07786717e-18
-8.84746064e-18
-6.92296488e-18
-1.16566444e-17
-1.38945708e-17
-1.69762625e-17
-1.25183667e-17
-1.24675565e-17
-1.45208533e-17
-1.40051462e-17
-1.29007088e-17
-1.33619757e-17
-1.15238794e-17
-1.18918043e-17
-1.26187031e-17
-1.34772859e-17
-1.29944417e-17
-7.8744977e-18
-1.25647325e-17
-1.26165397e-17
-1.1204087e-17
-1.26442311e-17
-7.31843232e-18
-9.89760898e-18
-8.60270866e-18
-1.2120217e-17
-9.13397659e-18
-7.88701292e-18
-7.72097406e-18
-9.60553429e-18
-6.73497e-18
-8.56433953e-18
-3.98027862e-18
-6.60180836e-18
-4.76475528e-18
-6.78018061e-18
-6.32766154e-19
-4.22857161e-18
-3.1667088e-18
-4.28840611e-18
-7.39140531e-19
-1.24549608e-18
-4.72060875e-18
-3.68257075e-18
-4.07362023e-18
-6.50560443e-18
-8.76245886e-18
-2.03732424e-18
-5.41522535e-18
-5.52752977e-18
-4.3900567e-18
-2.78039187e-18
-1.61141313e-18
-2.60804419e-18
-2.99434286e-18
-4.78280498e-18
-3.64473366e-18
-3.50974645e-19
1.35813136e-18
-1.49526849e-18
-5.40745455e-19
1.76628862e-18
5.11161988e-19
-3.50704779e-20
2.42280242e-19
-1.33415948e-19
9.58682007e-19
-8.77571711e-19
-7.04200845e-19
-3.8511196e-19
-2.70167586e-18
-1.63921969e-18
-4.46846487e-18
-3.00022138e-18
-3.47495e-18
-2.18895103e-18
-1.6487768e-18
-1.47086172e-19
1.22587776e-18
1.15763237e-18
1.69663894e-18
1.15534536e-18
2.56629618e-18
9.89881627e-19
2.25631798e-20
2.37999023e-18
2.46905489e-18
7.31898332e-19
3.09105313e-18
5.44120822e-18
2.68455586e-19
2.03966907e-18
3.29475126e-18
6.01325088e-19
-1.38814722e-18
7.62158622e-20
-2.34723571e-18
-7.49013159e-19
3.13100375e-19
5.86291119e-19
9.22514101e-19
4.62334776e-18
6.24389252e-18
7.87210311e-18
1.26826729e-17
9.75678858e-18
1.28492246e-17
9.42541696e-18
9.37082831e-18
8.73974865e-18
5.47074993e-18
8.35984974e-18
4.97911746e-18
5.51996095e-18
3.4421749e-18
2.00851621e-18
5.7309857e-18
3.73439821e-18
4.167054e-18
1.2136984e-18
1.41286755e-18
3.38184299e-18
8.34925232e-18
6.54678982e-18
6.54611801e-18
6.62512955e-18
5.55084366e-18
3.50948761e-18
1.89173851e-18
1.46124574e-18
1.18232515e-18
-1.49429161e-18
-1.77097766e-18
-2.39755223e-18
-8.20630095e-18
-7.76404881e-18
-5.91330565e-18
-9.56341023e-18
-7.51985013e-18
-3.57337317e-18
-2.4533304e-18
-1.31515937e-18
-1.93702509e-18
-4.37846264e-19
-2.2037516e-18
-6.52772367e-18
-6.73940736e-18
-6.47242479e-18
-6.8425959e-18
-5.78792818e-18
-6.39098371e-18
-4.15675366e-18
-6.75905622e-18
-5.86218919e-18
-3.51686405e-18
-2.97972209e-18
-3.43346556e-18
-5.24859735e-18
-7.6589353e-18
-6.65297198e-18
-4.54410512e-18
-8.41194495e-18
-5.98138874e-18
-5.62428808e-18
-3.50066057e-18
-7.39488908e-18
-3.13034326e-18
-4.58492705e-18
-5.70575164e-18
-6.49839621e-18
-7.24417276e-18
-9.6700853e-18
-6.36536102e-18
-3.44760837e-18
-5.14464369e-18
-4.41168429e-18
-5.42716686e-18
-5.64722819e-18
-5.39492749e-18
-4.78802349e-18
-3.40617164e-18
-2.52944026e-18
-4.67955728e-18
-4.86900989e-18
-6.23884983e-18
-6.11601422e-18
-8.20026592e-18
-8.65359581e-18
-5.44267776e-18
-5.3003628e-18
-4.30421952e-18
1.21738437e-18
-1.32579677e-18
1.81062074e-18
2.85861181e-18
4.83365668e-19
-1.14508103e-18
-4.90090989e-18
-1.68711979e-18
-3.41686984e-18
-3.16032556e-18
-2.84895641e-19
1.41293092e-18
-1.00413278e-18
-2.60241128e-18
4.28114997e-19
-2.40864319e-18
-2.50657287e-19
2.50700588e-18
4.24347604e-18
5.11839463e-18
8.65022918e-18
7.12528783e-18
5.73040493e-18
8.25957177e-18
5.68467556e-18
5.94077775e-18
8.94667908e-18
6.06407958e-18
9.03410213e-18
1.00175286e-17
1.38502742e-17
1.33143347e-17
1.29225993e-17
1.61633473e-17
1.4790956e-17
1.76845198e-17
1.61089117e-17
1.68951873e-17
1.42100289e-17
1.42816012e-17
1.29649496e-17
1.19505795e-17
7.08585397e-18
9.30845335e-18
1.05358433e-17
1.1899291e-17
1.05305934e-17
1.02563781e-17
1.28966006e-17
1.19254872e-17
5.79920748e-18
5.36592785e-18
4.0346103e-18
5.51040191e-18
4.5478793e-18
4.57736773e-18
3.31713317e-19
4.614512e-18
1.84936128e-18
1.1539035e-18
2.55431332e-18
1.53905758e-18
4.59988751e-18
4.84793791e-18
3.3279814e-18
4.08487526e-18
6.16496991e-18
6.32614672e-18
6.4476499e-18
6.26323772e-18
4.13909236e-18
7.7024206e-18
6.11549625e-18
2.62586964e-18
5.66062564e-18
1.56337235e-18
-2.57848615e-18
-8.84541684e-19
2.22804168e-18
3.47298609e-18
6.63603814e-18
5.33864409e-18
3.05394104e-18
2.68862996e-18
3.40353293e-18
1.76257017e-18
-1.34243305e-18
-1.24557716e-18
1.23163556e-18
-1.41953698e-18
-2.9768946e-18
-3.4640753e-18
-6.62502994e-18
-7.00101486e-18
-7.76018085e-18
-7.66409107e-18
-7.99969336e-18
-7.22583058e-18
-1.0957633e-17
-9.18661226e-18
-1.00596819e-17
-8.60435975e-18
-9.6280988e-18
-1.23914539e-17
-1.08853726e-17
-1.2602857e-17
-1.23130281e-17
-1.1883449e-17
-9.92595725e-18
-1.00854907e-17
-1.01901692e-17
-8.84728679e-18
-1.12969662e-17
-7.56123296e-18
-5.58554187e-18
-5.54518071e-18
-4.97322379e-18
-4.20545274e-18
-3.55654048e-18
-2.79375672e-18
-1.10698003e-18
-3.51603179e-18
-2.78536985e-18
-1.95463104e-18
-2.01685165e-18
-1.71456738e-18
2.18339663e-18
2.72978457e-18
1.41668651e-18
-3.50748382e-19
3.75326667e-18
3.1312731e-18
5.14269932e-18
5.88393615e-18
6.96350532e-18
7.12629337e-18
7.41909403e-18
6.84150324e-18
4.9366545e-18
4.04919754e-18
6.16470137e-18
7.80505811e-18
6.17884712e-18
6.43417702e-18
2.36845638e-18
3.92805086e-18
5.32994092e-18
5.10407887e-18
4.31159949e-18
5.48324188e-18
5.57635336e-18
1.08170224e-17
8.49920606e-18
1.25388026e-17
1.59741066e-17
1.26166827e-17
1.08910339e-17
1.11200115e-17
1.07129747e-17
1.46160548e-17
1.50983821e-17
1.42179317e-17
1.66340359e-17
1.621084e-17
1.24517381e-17
1.35447776e-17
1.49852481e-17
1.58693089e-17
1.63669487e-17
1.57123565e-17
1.5302194e-17
1.49162521e-17
1.22160215e-17
1.39383713e-17
1.39279573e-17
1.35170067e-17
1.30049348e-17
1.58699823e-17
1.60222678e-17
1.55291625e-17
1.66744561e-17
1.51380722e-17
1.79866391e-17
1.57670982e-17
1.33587101e-17
1.37939397e-17
1.33593387e-17
1.32443238e-17
9.87719398e-18
9.90543733e-18
7.63050042e-18
8.92009521e-18
6.90303523e-18
9.00376326e-18
7.78475098e-18
5.92487643e-18
4.98075018e-18
4.35052833e-19
2.50331374e-18
1.5375398e-18
1.91338861e-18
3.6631039e-18
2.81077448e-18
6.36276784e-18
2.75666029e-18
4.74481787e-18
2.87555379e-18
8.7465207e-19
-4.88946775e-19
2.73216617e-18
3.68816383e-19
3.05609586e-18
1.90266356e-19
-3.70599166e-19
-7.03295084e-19
1.90016157e-18
3.72704674e-19
2.01826457e-18
-5.1447656e-19
-4.23559566e-19
-2.06904944e-18
-3.08594766e-18
-2.88498002e-18
1.59926334e-19
-3.093993e-18
-1.64229012e-18
-4.89779731e-18
-2.75460959e-18
-1.28730021e-20
5.89857664e-19
1.66812894e-18
2.29518905e-19
-1.21018589e-18
3.83362155e-19
-2.3153556e-18
-1.3034038e-18
-3.76606346e-18
-1.92732621e-18
-4.13620922e-18
-2.46397461e-18
-5.53642326e-18
-3.80477983e-18
-6.49598159e-18
-5.23808441e-18
-4.49211866e-18
-7.31699259e-18
-6.49458332e-18
-1.00510321e-17
-5.66280342e-18
-1.07774605e-17
-5.5410591e-18
-8.95792369e-18
-6.68755446e-18
-6.33574202e-18
-4.9575566e-18
-1.21633576e-18
-2.37910362e-18
-5.96930823e-18
-3.07894019e-18
-4.39844365e-18
-4.21316031e-18
-5.37107876e-18
-3.54281097e-18
-6.30846396e-18
-3.82464421e-18
-2.89894779e-18
-1.83629027e-18
-1.3366987e-19
1.90985714e-18
1.671153e-19
-1.94678665e-18
-1.68556856e-19
-2.46058217e-18
-7.18350156e-19
-2.27313944e-19
-4.95451343e-18
-1.89370148e-18
-2.29465739e-18
-2.37516957e-19
-9.2441902e-21
-1.66012803e-18
3.79766112e-19
-3.94757147e-19
-7.88914554e-19
-1.21542784e-18
-1.2075935e-18
1.11064082e-18
2.4751888e-18
-1.71195188e-19
1.47260718e-18
3.02360147e-18
1.20307459e-18
-1.41891971e-18
-1.36504392e-18
1.5236273e-18
3.29482022e-20
-1.28012245e-18
-1.56411779e-18
-8.50624727e-19
-5.28174567e-19
8.94645609e-19
2.55745209e-19
3.621155e-18
1.87920991e-19
1.30363822e-18
9.72681193e-19
-2.13705009e-18
2.48113948e-18
-3.8622519e-19
2.01586938e-18
1.43031989e-18
1.41018406e-18
2.82666707e-18
4.64198494e-18
3.69652894e-19
-1.44877366e-18
-2.749671e-18
-2.92501866e-18
-3.73193218e-18
-2.68171203e-18
-4.25944533e-18
-2.46471486e-18
-1.98586082e-18
-4.38432684e-18
-3.39428089e-18
-2.40267007e-18
-1.06718169e-18
-3.51857753e-18
8.87819797e-19
-3.60490684e-18
-1.14032029e-18
-2.02348365e-18
-6.87768392e-19
-4.69182496e-19
1.19434448e-18
-1.89095741e-18
-2.23202595e-18
-3.28419413e-19
-1.59202213e-18
6.41305613e-19
5.49527913e-19
5.7740478e-19
3.05148504e-18
-2.3009929e-19
7.12168351e-19
6.00912408e-19
2.58489393e-18
3.26186794e-18
1.0870752e-18
6.40051919e-19
1.76667553e-18
1.89080524e-19
1.05121845e-18
2.25049162e-18
2.185451e-18
2.12224883e-18
3.26036043e-18
4.2863284e-18
3.08162139e-19
-1.61654115e-18
-6.76822923e-19
-3.27750226e-18
-3.70972833e-18
-5.22518049e-20
3.0845882e-20
-1.12325286e-18
-7.73242264e-19
2.87553318e-18
4.06692963e-20
-2.38883658e-18
2.30329202e-19
2.91330387e-20
1.77750113e-18
2.0497785e-18
4.27479081e-18
1.55424814e-18
2.81731153e-18
1.01857003e-18
2.88299046e-18
3.6785057e-18
3.41660445e-18
3.58758955e-18
3.44270097e-18
2.09787451e-18
1.07112801e-19
-2.97905983e-18
5.16912457e-20
9.45465147e-19
1.09536926e-18
4.0850444e-18
3.35944754e-18
3.23716088e-18
1.14033295e-18
2.34642861e-18
2.52406155e-18
6.7269926e-19
-1.10845899e-18
8.28063232e-19
-1.51203623e-18
2.49113014e-19
-1.37404208e-18
-1.93544173e-18
-1.95586407e-18
-1.6968269e-18
-1.05730214e-21
1.42247039e-19
3.55907684e-18
3.19041139e-18
1.77494219e-18
2.0110777e-18
3.41601212e-18
3.77526147e-18
3.80506275e-18
4.1254934e-18
4.30965371e-18
4.65136351e-18
5.68250354e-18
4.44142836e-18
7.42107565e-18
7.53612631e-18
5.99971793e-18
9.73948285e-18
1.03680853e-17
1.34641865e-17
1.51397782e-17
1.22605303e-17
1.30502806e-17
1.13492545e-17
1.32209445e-17
1.51530369e-17
1.11422925e-17
1.26970477e-17
1.39269509e-17
9.92099722e-18
9.60056876e-18
9.32423605e-18
7.76118647e-18
1.15937088e-17
1.41465251e-17
1.70151497e-17
1.69376252e-17
1.86999482e-17
1.77918079e-17
1.95768633e-17
1.69016552e-17
1.57172755e-17
1.76902633e-17
1.57616745e-17
1.47964253e-17
1.60519143e-17
1.57412633e-17
1.79294588e-17
1.83762141e-17
1.82520192e-17
1.95860775e-17
1.69984217e-17
1.50478493e-17
1.2906796e-17
1.16625713e-17
1.43688712e-17
1.31655153e-17
1.29221542e-17
1.4351443e-17
1.043374e-17
1.51939108e-17
9.10799889e-18
8.02987627e-18
1.03946906e-17
9.68955748e-18
7.19227046e-18
2.9598225e-18
5.56211856e-18
4.24219755e-18
4.08149353e-18
2.14190172e-18
-2.42521934e-18
-1.95203207e-19
-1.76942114e-18
-2.81421672e-18
-2.79269686e-18
-1.96087953e-18
5.26370847e-19
-2.02419024e-18
-2.23801914e-18
-4.85316276e-19
-6.12451828e-19
-4.83413334e-19
2.47942988e-18
4.65780127e-18
3.20229666e-18
2.94577952e-18
3.79617981e-18
4.48967332e-18
7.59921102e-18
7.70720417e-18
6.32742778e-18
5.82493394e-18
3.998912e-18
2.47000991e-18
3.45569484e-19
-7.35730811e-20
2.60787124e-18
-1.59280063e-19
-2.32002657e-18
-2.51588946e-18
-1.11611191e-18
1.53623717e-18
-1.50422799e-18
7.54647709e-19
7.74623576e-19
8.57242485e-19
5.19889948e-18
5.26201765e-18
7.18490104e-18
5.23597096e-18
6.67052444e-18
4.57040155e-18
3.03971831e-18
1.01475562e-18
2.91636152e-18
4.68765839e-18
6.75071426e-18
1.36051167e-17
1.10965833e-17
1.02903961e-17
8.78930756e-18
9.34398615e-18
1.21539314e-17
8.18455429e-18
9.30432083e-18
8.08841016e-18
8.94601092e-18
8.18786373e-18
5.62963598e-18
3.69930784e-18
4.07057872e-18
1.04216096e-18
3.72361672e-18
4.28523085e-18
4.42618106e-18
5.44479039e-18
5.20176777e-18
4.28196932e-18
3.20249407e-18
4.74497427e-18
3.05777278e-18
3.24257763e-18
4.95724124e-18
3.36061302e-18
2.32370012e-18
4.3878566e-18
4.8201576e-18
2.74561655e-18
3.24570108e-18
4.07925547e-18
4.04816798e-19
3.20231745e-18
-8.77603216e-20
1.39165304e-18
-5.73176389e-19
-1.12525512e-18
-4.85623597e-18
-4.59136463e-18
-2.22822798e-18
-2.97642091e-18
-3.87413713e-18
-3.97323093e-18
-3.45981278e-18
-3.957603e-18
-2.43970467e-18
-5.4292548e-18
-5.65556236e-18
-5.28383805e-18
-6.54105292e-18
-5.27660244e-18
-7.11972728e-18
-7.67625024e-18
-7.62819298e-18
-6.94541871e-18
-8.61268299e-18
-6.98598883e-18
-6.56214826e-18
-8.53663168e-18
-8.59908348e-18
-9.16834133e-18
-9.22307981e-18
-7.01251046e-18
-1.03183077e-17
-1.16118351e-17
-8.41042864e-18
-8.21540538e-18
-7.17612067e-18
-6.66403064e-18
-6.89714723e-18
-5.52561534e-18
-4.44255995e-18
-1.00958357e-18
-7.25008951e-18
-5.65304123e-18
-4.0351944e-18
-4.69417378e-18
-5.25214251e-18
-4.01995493e-18
-5.45258129e-18
-4.32396817e-18
-5.95377882e-18
-5.98464107e-18
-5.037643e-18
-4.73246261e-18
-3.22115239e-18
-4.58897503e-18
-3.54685515e-18
-1.95880399e-18
-2.46919945e-18
-1.42226717e-18
5.90058818e-19
-1.43080366e-18
1.47218498e-19
-4.64451706e-18
-3.71461873e-18
-7.04290397e-18
-5.02770502e-18
-3.31973674e-18
-4.09997568e-18
-3.60263915e-18
-2.32499285e-18
-5.04710046e-18
-6.61798797e-18
-3.39318686e-18
-1.82621035e-19
-5.37059898e-18
-5.233147e-18
-7.64449733e-18
-6.06361455e-18
-4.74446099e-18
-5.70704139e-18
-4.67034195e-18
-6.04721379e-18
-7.0242235e-18
-7.69108143e-18
-1.00775842e-17
-8.24368575e-18
-6.7550538e-18
-5.3471411e-18
-6.21191055e-18
-9.88482101e-18
-6.5995515e-18
-1.16615352e-17
-1.42527042e-17
-1.24813798e-17
-1.36363628e-17
-1.37498292e-17
-1.52172378e-17
-1.54766135e-17
-1.28379294e-17
-1.24222399e-17
-1.44971394e-17
-1.1836435e-17
-1.00861957e-17
-6.92278697e-18
-6.14396842e-18
-6.19334067e-18
-6.25383776e-18
-8.73391628e-18
-8.13512328e-18
-9.09663404e-18
-1.07219339e-17
-7.4030718e-18
-7.8832199e-18
-7.88024571e-18
-6.72327483e-18
-6.52234124e-18
-9.63400187e-18
-9.01793693e-18
-9.47182911e-18
-6.4971979e-18
-6.42944854e-18
-6.20680682e-18
-8.1011602e-18
-9.26434881e-18
-1.12468926e-17
-8.41512675e-18
-9.92691231e-18
-8.58505976e-18
-8.57711324e-18
-6.98833379e-18
-1.20311838e-17
-1.10371236e-17
-1.31576702e-17
-1.32084753e-17
-1.04325387e-17
-1.24457682e-17
-1.03329959e-17
-9.77071037e-18
-8.52337897e-18
-5.13265023e-18
-5.33928938e-18
-3.37051554e-18
-3.17880267e-18
3.35632503e-19
-1.95562854e-18
-3.31712715e-18
-2.6052154e-18
-7.92019546e-18
-2.9309167e-18
-7.25078686e-18
-6.76518686e-18
-8.5615394e-18
-8.58338124e-18
-6.14750086e-18
-8.11126745e-18
-6.05671628e-18
-6.08067123e-18
-4.70786443e-18
-4.45223879e-18
-5.37688442e-18
-5.96602933e-18
-4.27333276e-18
-7.65610603e-18
-1.10768094e-17
-1.06383644e-17
-9.5025865e-18
-8.97223703e-18
-7.16868209e-18
-7.77198274e-18
-7.33844968e-18
-5.94216629e-18
-3.80350649e-18
-3.81578596e-18
-1.18678648e-18
-2.84242756e-18
-2.79349636e-18
-2.66323802e-18
-1.69332442e-18
-1.75295242e-18
-1.57047627e-18
-3.53432998e-18
-5.18099492e-18
-5.05118135e-18
-5.56770377e-18
-2.83777707e-18
-5.37067679e-18
-2.29460453e-18
-4.99701833e-18
-8.30642179e-18
-5.98453615e-18
-7.58679089e-18
-4.21239882e-18
-7.50336949e-18
-6.08173338e-18
-5.04657591e-18
-5.78032877e-18
-6.96506971e-19
-3.53225152e-18
-1.10463318e-18
-3.55026227e-18
-4.02019959e-18
-5.78580979e-18
-8.1728927e-18
-8.08375123e-18
-4.20491767e-18
-7.88392836e-18
-3.27336707e-18
-6.90765592e-18
-7.88132728e-18
-7.85895374e-18
-6.23445971e-18
-3.96127316e-18
-3.88721662e-18
-3.72745241e-18
-1.83798145e-18
1.53020126e-19
-2.12982508e-19
1.64241685e-18
2.1044203e-18
1.87851275e-18
1.55623357e-18
8.48433696e-19
-2.59226702e-18
2.01429175e-18
-6.49360173e-19
7.37912561e-19
3.212846e-18
3.98679766e-18
5.11227742e-18
6.47074029e-18
7.17679288e-18
6.94061988e-18
1.01250412e-17
6.02803953e-18
7.09309611e-18
7.76669705e-18
1.12573687e-17
1.01797628e-17
1.36918297e-17
1.29823108e-17
1.20062703e-17
1.01440259e-17
6.85353294e-18
8.498574e-18
5.80091961e-18
7.15347383e-18
6.99683941e-18
7.44701513e-18
6.05039024e-18
5.83662385e-18
9.45119194e-18
6.03609828e-18
9.76264011e-18
5.08529468e-18
4.70745553e-18
5.07377604e-18
5.16345251e-18
5.928086e-18
4.52898579e-18
7.14860534e-18
5.69521617e-18
5.06128334e-18
5.1530695e-18
6.08244466e-18
3.38870505e-18
2.57992455e-18
1.55891581e-18
1.03781105e-18
1.94842553e-18
4.09012489e-18
4.79331e-18
6.76358156e-18
7.45991989e-18
7.17890745e-18
4.72929661e-18
2.90733391e-18
4.25946136e-18
4.49121087e-18
4.2939411e-18
5.43147291e-18
4.66373964e-18
8.73881893e-18
8.2347457e-18
5.19356811e-18
6.58052566e-18
7.61245721e-18
7.99638654e-18
8.8800631e-18
7.59608636e-18
8.4734621e-18
8.10674537e-18
6.05355544e-18
7.18263649e-18
5.00328396e-18
2.79814425e-18
8.08074049e-19
-4.96163895e-19
-2.34034784e-19
1.85458409e-18
1.12558141e-18
6.58145837e-19
2.758737e-18
-1.83408848e-19
3.64435258e-19
4.78449289e-19
-1.56186091e-18
1.63909285e-19
-3.64908701e-19
-3.39054393e-18
-3.29107257e-18
-6.93591752e-18
-4.15264536e-18
-4.17678632e-18
-7.92342105e-18
-5.16657359e-18
-6.16639589e-18
-8.99238799e-18
-7.28185156e-18
-6.13693408e-18
-6.94020146e-18
-6.77485358e-18
-4.06293451e-18
5.75996301e-19
-3.41211031e-19
1.07644332e-18
-1.33872906e-18
-1.31104735e-18
-9.31491241e-19
-5.09093789e-18
-1.79839413e-18
-9.12664603e-20
-1.36411347e-18
2.11236577e-20
-2.27215859e-18
-9.15806338e-19
-1.822958e-18
-2.42235564e-18
1.81230134e-18
2.98736683e-18
1.40537778e-18
1.53470658e-18
4.25098024e-18
2.13524002e-18
-6.20538863e-19
-7.67601828e-19
-3.84433047e-18
-3.38603343e-19
8.88343246e-19
-3.43197248e-18
-4.84934787e-18
-6.03615694e-18
-6.9917344e-18
-8.59002929e-18
-6.7772245e-18
-8.70903515e-18
-7.79006493e-18
-7.26000612e-18
-5.95928145e-18
-6.1756283e-18
-6.21660375e-18
-1.2562384e-17
-1.30940062e-17
-1.06639366e-17
-1.06601993e-17
-9.39537243e-18
-8.6493314e-18
-1.08177286e-17
-1.02850382e-17
-9.04964556e-18
-9.95489558e-18
-7.91311906e-18
-7.98067464e-18
-6.74185503e-18
-9.01799199e-18
-6.32741879e-18
-2.59676551e-18
-3.65199363e-18
-6.68988594e-18
-1.10033213e-17
-9.63416366e-18
-8.02191885e-18
-8.05958316e-18
-9.22317579e-18
-1.00096664e-17
-1.06354827e-17
-9.28773298e-18
-1.02911739e-17
-7.96818163e-18
-9.88411873e-18
-8.63675944e-18
-1.01746121e-17
-1.03738542e-17
-1.36131162e-17
-1.34222783e-17
-1.29580019e-17
-1.14578166e-17
-8.16031711e-18
-7.45267443e-18
-5.7717839e-18
-5.45364315e-18
-5.61239909e-18
-7.23568427e-18
-6.08723298e-18
-4.13840351e-18
-1.95092862e-18
-2.57670755e-18
-2.73915567e-18
-1.36483235e-18
1.67699794e-18
7.48458165e-20
-2.08686377e-18
-1.53836373e-18
-2.27803457e-18
-1.30867936e-18
-5.60068256e-18
-7.37780625e-18
-6.65956091e-18
-5.06955432e-18
-5.06008827e-18
-6.72618278e-18
-1.95764225e-18
-9.03437164e-20
3.24537934e-19
-2.54830448e-18
3.28053434e-19
-9.03728909e-19
-2.08432907e-18
-3.61173301e-18
-5.50111075e-18
-3.38203019e-18
-3.2938923e-19
1.61882718e-19
5.42961749e-19
-1.28395401e-18
-1.01264885e-18
2.62783037e-18
2.65799163e-18
3.65760169e-18
3.64509724e-18
3.39724867e-18
5.41873936e-18
5.34276228e-18
8.04677105e-18
4.88630933e-18
6.57388292e-18
4.65188294e-18
1.57764121e-18
2.93389106e-18
7.9790311e-19
3.45909908e-18
2.16897718e-18
3.8571844e-18
6.93649698e-18
4.91930411e-18
7.98939436e-18
7.55117494e-18
4.62624743e-18
8.13458451e-18
4.35341874e-18
6.90435668e-18
6.88588248e-18
4.27263832e-18
3.9849301e-18
2.6775544e-18
7.87673386e-19
-4.40596808e-19
-6.93123558e-19
-2.51123916e-18
-4.57378884e-18
-1.17868738e-18
-1.23912578e-19
9.53432254e-19
1.80555392e-18
-6.11264517e-19
5.05823766e-18
3.53572501e-18
4.78304956e-18
1.04875234e-18
-8.36647585e-19
-3.06052426e-18
-3.76960687e-18
-5.34772542e-18
-6.00382102e-18
-8.37754749e-18
-4.12812046e-18
-1.03961486e-17
-5.34142382e-18
-2.47519201e-18
-4.6283581e-18
-3.31357208e-18
-1.45561566e-18
-1.97606334e-18
-7.8495484e-18
-1.14303044e-17
-1.38695522e-17
-1.52807541e-17
-1.55244307e-17
-1.49589069e-17
-1.646253e-17
-1.57677667e-17
-1.42953732e-17
-1.20438626e-17
-1.1548196e-17
-1.18016085e-17
-9.80895357e-18
-9.00937066e-18
-7.98640424e-18
-1.11209309e-17
-1.32106623e-17
-1.42125172e-17
-1.27646485e-17
-1.24258827e-17
-1.32285906e-17
-1.38157842e-17
-1.30384458e-17
-9.64261705e-18
-8.07651635e-18
-8.60098728e-18
-8.76276137e-18
-1.0620575e-17
-1.12693787e-17
-7.23556016e-18
-8.49264074e-18
-7.56696681e-18
-5.62036368e-18
-9.05298838e-18
-9.18056506e-18
-1.37316749e-17
-1.05060466e-17
-1.30080216e-17
-1.3134227e-17
-1.33608654e-17
-1.09216711e-17
-1.24215968e-17
-1.00435081e-17
-9.4763727e-18
-3.96908613e-18
-1.34175456e-18
-1.02524266e-18
-1.07636569e-19
-7.31604156e-19
-4.5005483e-18
-3.4146635e-18
-3.02171535e-18
-6.7556374e-18
-6.47569973e-18
-4.26087256e-18
-1.20608379e-18
-3.87875514e-18
-6.10695172e-18
-3.36721731e-18
-1.5873917e-18
-3.39238379e-18
-2.33869531e-18
-3.57238822e-18
-1.61301799e-18
9.18198423e-21
1.95111517e-18
6.95820114e-19
1.68459378e-18
5.34511903e-18
3.27532938e-18
6.55276886e-18
1.09599748e-17
6.42095562e-18
7.22042006e-18
6.85945236e-18
5.57015949e-18
6.8126622e-18
3.81893305e-18
4.79291806e-18
4.24838432e-18
6.04840142e-18
6.3698143e-18
7.81564653e-18
6.72352915e-18
7.64630336e-18
5.2579399e-18
4.35664315e-18
4.89061379e-18
3.51475287e-18
1.8835029e-18
1.68195329e-18
1.85328419e-18
3.58983141e-18
4.9193427e-18
5.39275826e-18
5.41196855e-18
2.74873286e-18
6.00542289e-18
3.47163899e-18
4.10575909e-18
3.08127368e-18
4.77894673e-18
4.82582383e-18
4.0580369e-18
2.34139477e-18
1.96037924e-18
2.4642494e-18
1.03389898e-18
9.65573793e-19
-1.76603004e-18
1.53799127e-18
5.04113733e-18
8.49852231e-18
6.12428459e-18
7.965441e-18
6.12061491e-18
3.38878421e-18
2.33414668e-18
1.54059398e-18
3.16674877e-18
1.72308649e-18
1.13906088e-18
1.5367304e-18
-1.45781684e-18
-3.70370263e-18
-2.28953667e-18
3.86004279e-20
1.42706679e-18
4.130561e-18
3.84521902e-18
3.2863763e-18
2.84059912e-18
3.64309271e-18
1.04395491e-18
1.08983092e-18
5.87114804e-19
-7.80116241e-19
-4.33714974e-19
-4.33630327e-19
7.61574374e-19
2.40594887e-18
1.74299213e-18
1.06460028e-18
-9.2550227e-19
-5.55798044e-19
2.10899271e-18
1.77596537e-18
3.31265001e-18
4.48856263e-18
8.73581291e-18
7.12707402e-18
5.83981656e-18
7.46090833e-18
5.8229635e-18
6.57050929e-18
6.09352245e-18
7.11330237e-18
5.80292034e-18
4.1942125e-18
4.96607471e-18
5.79930095e-18
6.47255516e-18
4.91522613e-18
8.0575778e-18
7.65514384e-18
7.55787768e-18
5.13087227e-18
5.84902935e-18
6.03343821e-18
5.76206628e-18
3.70952852e-18
3.02361071e-18
1.00524771e-18
1.74502385e-18
1.2398376e-18
3.27282502e-20
-2.34096249e-19
1.38002616e-18
-1.19929357e-18
-2.57628335e-18
-2.13195925e-19
-3.05679415e-18
-1.25917245e-18
1.88373118e-18
3.03360632e-19
2.29752588e-18
3.13911036e-18
2.62890795e-18
3.46645538e-18
1.93360175e-18
4.4222594e-19
-2.20357423e-19
-9.72885647e-19
2.66309361e-18
3.26331065e-18
1.57774665e-18
8.69024384e-19
3.31611196e-18
7.65906199e-19
1.66738814e-18
1.76809555e-18
1.4767261e-18
3.80081694e-19
-2.04253806e-18
-2.06731865e-18
-1.09672802e-18
-2.30385114e-19
-1.42303414e-18
-2.17671675e-18
-3.02165746e-18
-1.33469489e-18
1.02252877e-18
-4.60833148e-19
-4.43528489e-19
5.59396343e-19
3.29384917e-18
2.61742685e-18
1.49146683e-18
2.00693749e-18
3.32684077e-18
3.04350159e-18
3.17868547e-18
4.67890408e-18
3.60419278e-18
3.45537745e-18
3.32589687e-18
4.96785206e-18
4.8292523e-18
9.33379126e-18
6.82351859e-18
5.38717813e-18
8.22801566e-18
6.91506788e-18
9.73070812e-18
7.18352999e-18
7.80575072e-18
8.46159546e-18
1.01813176e-17
1.23222708e-17
1.20969806e-17
1.56574499e-17
1.55660143e-17
1.2865217e-17
1.68102934e-17
1.29168331e-17
1.2889876e-17
1.07790207e-17
1.47737872e-17
1.27674532e-17
1.21719625e-17
1.14505475e-17
1.10731738e-17
1.15454218e-17
1.24049702e-17
1.18609851e-17
1.24823328e-17
1.36855371e-17
1.10879628e-17
1.24275468e-17
1.24061063e-17
1.06298922e-17
7.43573253e-18
8.627737e-18
6.61296624e-18
1.15230616e-17
1.2107531e-17
1.5898701e-17
1.61197782e-17
1.49006416e-17
1.47074861e-17
1.61251399e-17
1.4917429e-17
1.54648024e-17
1.59801114e-17
1.69133801e-17
1.77313463e-17
1.57192492e-17
1.75918601e-17
1.80301017e-17
1.95168415e-17
2.18910756e-17
1.92630966e-17
1.72544581e-17
1.89516451e-17
2.16363283e-17
2.29695976e-17
2.11242465e-17
2.33693676e-17