/*--------------------------------*- C++ -*----------------------------------*\
| =========                 |                                                 |
| \\      /  F ield         | OpenFOAM: The Open Source CFD Toolbox           |
|  \\    /   O peration     | Version:  2206                                  |
|   \\  /    A nd           | Website:  www.openfoam.com                      |
|    \\/     M anipulation  |                                                 |
\*---------------------------------------------------------------------------*/
FoamFile
{
    version     2.0;
    format      ascii;
    arch        "LSB;label=32;scalar=64";
    class       volVectorField;
    location    "2e-06";
    object      U;
}
// * * * * * * * * * * * * * * * * * * * * * * * * * * * * * * * * * * * * * //

dimensions      [0 1 -1 0 0 0 0];

internalField   nonuniform List<vector> 
3183
(
(2.91111455e-14 0 0)
(-5.40567004e-15 0 0)
(-7.58469423e-15 0 0)
(-1.99521104e-14 0 0)
(-2.09948957e-14 0 0)
(-1.77202593e-19 0 0)
(-1.39286589e-20 0 0)
(-1.90166078e-25 0 0)
(6.04432246e-26 0 0)
(1.65855493e-24 0 0)
(8.97857077e-20 0 0)
(1.14855103e-18 0 0)
(7.88948924e-14 0 0)
(3.65276504e-14 0 0)
(-5.94023991e-14 0 0)
(-6.98597303e-14 0 0)
(6.96395378e-14 0 0)
(-8.14484933e-15 0 0)
(-1.92778765e-13 0 0)
(1.35210029e-14 0 0)
(1.23329993e-13 0 0)
(3.95310894e-18 0 0)
(3.3065703e-19 0 0)
(2.17337155e-20 0 0)
(1.20380841e-18 0 0)
(1.8370729e-14 0 0)
(1.99606745e-13 0 0)
(6.7748178e-15 0 0)
(-2.21007561e-13 0 0)
(7.4624138e-15 0 0)
(-1.18390597e-13 0 0)
(5.81437329e-14 0 0)
(1.13605853e-13 0 0)
(-9.19429967e-14 0 0)
(2.61487849e-18 0 0)
(9.16126345e-14 0 0)
(-9.64204368e-14 0 0)
(-1.014491e-13 0 0)
(1.0671923e-13 0 0)
(-1.31214278e-17 0 0)
(-1.5765086e-13 0 0)
(-1.93464348e-13 0 0)
(2.90101196e-14 0 0)
(1.37772342e-13 0 0)
(1.77154049e-13 0 0)
(8.48261555e-14 0 0)
(8.91897032e-14 0 0)
(1.86612784e-14 0 0)
(-1.38071569e-13 0 0)
(-1.03944173e-13 0 0)
(-4.39471568e-14 0 0)
(-4.58590771e-14 0 0)
(-1.44967855e-13 0 0)
(2.53088429e-14 0 0)
(1.87100494e-13 0 0)
(8.51747415e-14 0 0)
(8.91581194e-14 0 0)
(9.33099967e-14 0 0)
(-2.31613766e-16 0 0)
(-1.38126697e-13 0 0)
(-2.18134751e-13 0 0)
(-1.91432531e-13 0 0)
(-8.08620885e-14 0 0)
(-1.26865732e-13 0 0)
(8.60554761e-16 0 0)
(9.32016966e-14 0 0)
(9.91887201e-14 0 0)
(1.54758034e-13 0 0)
(1.63271166e-13 0 0)
(-5.50121962e-14 0 0)
(1.77956602e-13 0 0)
(1.29843455e-13 0 0)
(1.34965863e-13 0 0)
(4.18595384e-13 0 0)
(3.71999326e-13 0 0)
(8.79403119e-14 0 0)
(4.08319543e-13 0 0)
(3.47979812e-13 0 0)
(1.85110251e-13 0 0)
(5.74286556e-13 0 0)
(8.03223768e-13 0 0)
(8.42332496e-13 0 0)
(1.10153038e-12 0 0)
(1.3258607e-13 0 0)
(2.67184329e-13 0 0)
(7.50698129e-13 0 0)
(2.67253199e-13 0 0)
(3.21597654e-13 0 0)
(5.56999672e-13 0 0)
(4.25092517e-14 0 0)
(1.67390912e-13 0 0)
(-9.29387101e-15 0 0)
(-4.83379214e-13 0 0)
(-5.26076952e-13 0 0)
(1.36439502e-13 0 0)
(4.52768644e-16 0 0)
(-4.80425998e-13 0 0)
(8.5560303e-13 0 0)
(4.78415952e-13 0 0)
(-4.1820045e-13 0 0)
(-7.43332161e-14 0 0)
(6.8248698e-13 0 0)
(-4.44205923e-13 0 0)
(1.88154617e-13 0 0)
(2.51239549e-13 0 0)
(8.59834298e-13 0 0)
(-5.67054478e-13 0 0)
(2.61824081e-14 0 0)
(-4.3311163e-13 0 0)
(3.01099706e-13 0 0)
(-1.24026501e-13 0 0)
(9.80319326e-14 0 0)
(-3.98811919e-13 0 0)
(-5.0793685e-13 0 0)
(-8.00663318e-15 0 0)
(-1.088807e-12 0 0)
(-1.15263131e-12 0 0)
(-1.4760675e-12 0 0)
(-1.94329721e-13 0 0)
(-1.12121404e-12 0 0)
(-1.04719716e-12 0 0)
(-1.10471221e-12 0 0)
(-4.85945352e-13 0 0)
(-2.83444567e-13 0 0)
(-2.74576209e-13 0 0)
(9.52427023e-14 0 0)
(5.34546102e-14 0 0)
(-8.04044702e-13 0 0)
(-5.06922653e-13 0 0)
(-1.06695811e-12 0 0)
(5.97428862e-13 0 0)
(-1.78016472e-13 0 0)
(8.78822583e-14 0 0)
(-2.62529679e-13 0 0)
(4.79656604e-13 0 0)
(8.74176779e-15 0 0)
(6.34707865e-13 0 0)
(5.09939605e-13 0 0)
(3.68151331e-13 0 0)
(6.8906163e-13 0 0)
(7.06748025e-13 0 0)
(-2.47911758e-13 0 0)
(1.07155988e-12 0 0)
(1.37495788e-15 0 0)
(5.07501631e-13 0 0)
(1.3777101e-12 0 0)
(1.86089462e-13 0 0)
(1.13869588e-12 0 0)
(-2.10464565e-13 0 0)
(-2.34693949e-14 0 0)
(1.29264417e-12 0 0)
(3.07796273e-14 0 0)
(1.45775154e-13 0 0)
(9.97118085e-14 0 0)
(-4.40133909e-13 0 0)
(-4.82761945e-13 0 0)
(-2.25165911e-13 0 0)
(-1.53233406e-13 0 0)
(4.45095187e-14 0 0)
(-5.4929873e-13 0 0)
(-6.45234993e-13 0 0)
(4.30690161e-15 0 0)
(-6.11363268e-14 0 0)
(-1.22404616e-15 0 0)
(1.93399709e-13 0 0)
(-5.20217957e-14 0 0)
(-1.08215728e-12 0 0)
(-6.28917057e-13 0 0)
(-2.24619221e-13 0 0)
(-3.68996096e-16 0 0)
(-9.39466127e-13 0 0)
(2.66132535e-13 0 0)
(-1.98026192e-13 0 0)
(3.26999268e-14 0 0)
(-4.64371932e-13 0 0)
(-6.6930036e-13 0 0)
(-8.09148059e-14 0 0)
(-7.52274524e-13 0 0)
(-6.01397789e-14 0 0)
(1.26179149e-13 0 0)
(2.8269445e-13 0 0)
(4.48580991e-13 0 0)
(1.8356976e-13 0 0)
(7.71518495e-13 0 0)
(6.0894598e-13 0 0)
(2.21587314e-13 0 0)
(2.47838162e-13 0 0)
(3.39190133e-13 0 0)
(5.86530552e-13 0 0)
(7.72356231e-13 0 0)
(1.10004776e-12 0 0)
(1.50319017e-12 0 0)
(-5.29316299e-14 0 0)
(7.07904669e-13 0 0)
(4.8514192e-13 0 0)
(6.1983293e-13 0 0)
(5.65344247e-13 0 0)
(7.49432329e-13 0 0)
(4.95635562e-13 0 0)
(6.28649814e-13 0 0)
(3.11663252e-13 0 0)
(-9.53499963e-13 0 0)
(7.67528283e-13 0 0)
(5.1239462e-13 0 0)
(-7.32597206e-14 0 0)
(2.66946312e-13 0 0)
(2.0270683e-14 0 0)
(1.03197403e-12 0 0)
(4.83530341e-13 0 0)
(6.93214173e-13 0 0)
(6.01884192e-13 0 0)
(1.11896985e-12 0 0)
(-5.37000323e-14 0 0)
(1.6578031e-12 0 0)
(7.95808446e-14 0 0)
(4.48251906e-13 0 0)
(8.45296195e-13 0 0)
(7.10574127e-13 0 0)
(1.26903432e-12 0 0)
(6.89552938e-13 0 0)
(-3.46821347e-13 0 0)
(9.76109348e-13 0 0)
(4.12658958e-13 0 0)
(7.65469842e-13 0 0)
(7.51237198e-14 0 0)
(-8.38058635e-13 0 0)
(1.64181728e-13 0 0)
(1.37197708e-13 0 0)
(2.71404505e-13 0 0)
(-4.20755548e-13 0 0)
(4.38625646e-13 0 0)
(3.44526193e-13 0 0)
(3.61062305e-13 0 0)
(1.11195064e-12 0 0)
(7.23858454e-13 0 0)
(-3.94847738e-13 0 0)
(-9.95393669e-15 0 0)
(9.73016401e-13 0 0)
(-4.07757221e-13 0 0)
(6.7865127e-14 0 0)
(4.33350336e-13 0 0)
(-4.02710969e-13 0 0)
(-5.34600649e-14 0 0)
(7.05053896e-13 0 0)
(2.49673433e-13 0 0)
(-5.20454755e-13 0 0)
(-2.55312501e-13 0 0)
(-1.58574189e-13 0 0)
(4.59349751e-13 0 0)
(-3.02214364e-13 0 0)
(7.84710714e-13 0 0)
(-2.98848754e-13 0 0)
(-2.10770478e-13 0 0)
(1.76026721e-13 0 0)
(6.42590661e-13 0 0)
(1.23310245e-13 0 0)
(9.07581889e-13 0 0)
(7.36416905e-13 0 0)
(1.21622416e-12 0 0)
(-1.42607362e-13 0 0)
(2.90588003e-13 0 0)
(9.50705533e-14 0 0)
(1.53429187e-13 0 0)
(-6.44086754e-13 0 0)
(-1.57385977e-13 0 0)
(-7.74642382e-13 0 0)
(-2.23189673e-14 0 0)
(-1.90520452e-13 0 0)
(-5.16245327e-13 0 0)
(-8.77461296e-13 0 0)
(-1.05405834e-13 0 0)
(-5.7091361e-13 0 0)
(-1.07850949e-12 0 0)
(-8.95569897e-14 0 0)
(-5.37846432e-13 0 0)
(-5.24546228e-13 0 0)
(-7.12765845e-13 0 0)
(-1.09003293e-12 0 0)
(-1.63715341e-12 0 0)
(-1.42407e-12 0 0)
(-1.6429705e-12 0 0)
(-2.18183332e-12 0 0)
(-1.79262725e-12 0 0)
(-1.37747782e-12 0 0)
(-1.53931539e-12 0 0)
(-1.02277934e-12 0 0)
(-1.68788601e-12 0 0)
(-1.66236899e-12 0 0)
(-2.5111852e-12 0 0)
(-1.36802533e-12 0 0)
(-1.698295e-12 0 0)
(-1.46580027e-12 0 0)
(-1.48949459e-12 0 0)
(-1.57324275e-12 0 0)
(-2.12223315e-12 0 0)
(-1.07280931e-12 0 0)
(-1.76993476e-12 0 0)
(-2.0046302e-12 0 0)
(-1.79196687e-12 0 0)
(-2.84166673e-12 0 0)
(-8.27238153e-13 0 0)
(-2.2209163e-12 0 0)
(-1.60622426e-12 0 0)
(-2.50972955e-12 0 0)
(-2.2813883e-12 0 0)
(-2.28643346e-12 0 0)
(-2.03368882e-12 0 0)
(-1.75175324e-12 0 0)
(-2.41412737e-12 0 0)
(-1.88634536e-12 0 0)
(-2.60853748e-12 0 0)
(-2.57376486e-12 0 0)
(-2.46887855e-12 0 0)
(-2.4004676e-12 0 0)
(-2.46856368e-12 0 0)
(-3.06421419e-12 0 0)
(-2.51480148e-12 0 0)
(-2.99917256e-12 0 0)
(-2.59909901e-12 0 0)
(-2.59951948e-12 0 0)
(-2.8936952e-12 0 0)
(-3.00551811e-12 0 0)
(-3.70155218e-12 0 0)
(-2.80399001e-12 0 0)
(-3.44042384e-12 0 0)
(-2.98592527e-12 0 0)
(-2.76096803e-12 0 0)
(-2.7569745e-12 0 0)
(-2.53473946e-12 0 0)
(-1.93683269e-12 0 0)
(-2.17859615e-12 0 0)
(-2.02109365e-12 0 0)
(-1.3436959e-12 0 0)
(-1.71883201e-12 0 0)
(-1.79158514e-12 0 0)
(-1.67996623e-12 0 0)
(-1.0925871e-12 0 0)
(-2.05935467e-12 0 0)
(-1.41617584e-12 0 0)
(-1.11562426e-12 0 0)
(-1.74484118e-12 0 0)
(-1.94368434e-12 0 0)
(-1.38890894e-12 0 0)
(-8.0396077e-13 0 0)
(-1.14317696e-12 0 0)
(-1.61959113e-12 0 0)
(-1.53752255e-12 0 0)
(-6.66696054e-13 0 0)
(-1.11688978e-12 0 0)
(-1.07916198e-12 0 0)
(-1.03783241e-12 0 0)
(-5.24265413e-13 0 0)
(-2.20288052e-12 0 0)
(-1.24179204e-12 0 0)
(-1.13219672e-12 0 0)
(-9.26743711e-13 0 0)
(-1.36001153e-12 0 0)
(-1.74816304e-12 0 0)
(-1.88956973e-12 0 0)
(-1.54702815e-12 0 0)
(-1.45102334e-12 0 0)
(-1.71652823e-12 0 0)
(-1.842197e-12 0 0)
(-1.63972286e-12 0 0)
(-6.86327484e-13 0 0)
(-2.41547952e-12 0 0)
(-2.4485439e-12 0 0)
(-2.19547442e-12 0 0)
(-1.36368445e-12 0 0)
(-2.30543855e-12 0 0)
(-1.73071562e-12 0 0)
(-2.43380483e-12 0 0)
(-1.36564364e-12 0 0)
(-2.60321303e-12 0 0)
(-1.38307023e-12 0 0)
(-2.27427853e-12 0 0)
(-1.82069646e-12 0 0)
(-1.98459596e-12 0 0)
(-1.65819547e-12 0 0)
(-2.44366091e-12 0 0)
(-1.41752653e-12 0 0)
(-1.86979439e-12 0 0)
(-2.08086039e-12 0 0)
(-1.75805777e-12 0 0)
(-1.38592735e-12 0 0)
(-1.36267899e-12 0 0)
(-1.85647507e-12 0 0)
(-1.29037802e-12 0 0)
(-1.33393338e-12 0 0)
(-1.02744976e-12 0 0)
(-1.5843359e-12 0 0)
(-1.16990626e-12 0 0)
(-7.73104199e-13 0 0)
(-1.25370603e-12 0 0)
(-9.95460866e-13 0 0)
(-4.87102228e-13 0 0)
(-1.06442401e-12 0 0)
(-4.87180358e-13 0 0)
(-6.75773072e-13 0 0)
(-5.48275628e-13 0 0)
(-9.85542477e-14 0 0)
(-1.87182489e-13 0 0)
(-6.4255861e-13 0 0)
(-1.60423757e-13 0 0)
(-1.09178581e-12 0 0)
(-1.71469236e-13 0 0)
(-5.3842821e-13 0 0)
(-1.2837511e-12 0 0)
(-1.11347422e-12 0 0)
(-1.01284467e-12 0 0)
(-7.07351832e-13 0 0)
(-1.47740431e-13 0 0)
(-8.85892606e-13 0 0)
(-4.91019518e-13 0 0)
(2.13714697e-14 0 0)
(-8.51322273e-13 0 0)
(-4.91516891e-13 0 0)
(-3.34838071e-13 0 0)
(-2.15360326e-13 0 0)
(-6.304459e-14 0 0)
(9.85401299e-14 0 0)
(-2.00185779e-13 0 0)
(1.60869555e-13 0 0)
(1.74170334e-13 0 0)
(-2.31909223e-13 0 0)
(2.47948473e-13 0 0)
(4.86909557e-13 0 0)
(2.71743335e-13 0 0)
(-9.51757376e-13 0 0)
(1.92882055e-13 0 0)
(6.35964706e-13 0 0)
(-6.01896008e-13 0 0)
(-7.68010037e-13 0 0)
(1.96941861e-13 0 0)
(-6.36358187e-13 0 0)
(-9.32825667e-13 0 0)
(-4.71980482e-13 0 0)
(2.22812221e-13 0 0)
(-1.13009676e-12 0 0)
(4.67801452e-13 0 0)
(2.64291368e-13 0 0)
(3.79690741e-13 0 0)
(-2.27570084e-13 0 0)
(2.98205674e-13 0 0)
(3.69710177e-13 0 0)
(2.42535885e-13 0 0)
(4.77987751e-13 0 0)
(9.93818482e-13 0 0)
(-5.3381306e-13 0 0)
(4.60712911e-13 0 0)
(2.56452083e-13 0 0)
(5.23188836e-13 0 0)
(5.84906599e-13 0 0)
(4.20559094e-13 0 0)
(2.97200232e-13 0 0)
(-7.41025619e-13 0 0)
(6.72898224e-13 0 0)
(2.80146607e-13 0 0)
(-5.2262604e-13 0 0)
(3.76990248e-13 0 0)
(-6.81511239e-13 0 0)
(2.82851964e-13 0 0)
(2.91399426e-13 0 0)
(6.96403074e-13 0 0)
(9.08815374e-13 0 0)
(2.0651791e-12 0 0)
(1.8175267e-12 0 0)
(1.4172072e-12 0 0)
(1.84583507e-12 0 0)
(1.38927116e-12 0 0)
(1.07946055e-12 0 0)
(1.67148925e-12 0 0)
(4.38169018e-13 0 0)
(1.70215145e-12 0 0)
(8.56018339e-13 0 0)
(5.18541144e-13 0 0)
(-2.84074217e-14 0 0)
(6.29473598e-13 0 0)
(7.56666967e-13 0 0)
(3.23433758e-13 0 0)
(8.91043793e-13 0 0)
(-1.38968696e-15 0 0)
(-1.18711518e-13 0 0)
(7.32144984e-13 0 0)
(1.1113838e-12 0 0)
(1.03558637e-12 0 0)
(9.81268369e-13 0 0)
(1.41545819e-12 0 0)
(2.61534714e-13 0 0)
(4.76654491e-13 0 0)
(-4.05359167e-13 0 0)
(1.20275061e-12 0 0)
(-5.03449933e-13 0 0)
(-1.44826992e-13 0 0)
(5.02138448e-13 0 0)
(-1.30842791e-12 0 0)
(-1.59115857e-12 0 0)
(-3.47135844e-13 0 0)
(-1.83972773e-12 0 0)
(-1.27418378e-12 0 0)
(-9.42573728e-13 0 0)
(-1.21703637e-12 0 0)
(-2.66572961e-13 0 0)
(5.44457435e-14 0 0)
(-2.97579194e-13 0 0)
(2.3499273e-13 0 0)
(-9.15047001e-13 0 0)
(-9.81668912e-13 0 0)
(-1.17292992e-12 0 0)
(-5.27465184e-13 0 0)
(-2.02239575e-12 0 0)
(-1.07210215e-12 0 0)
(-1.03719643e-12 0 0)
(-1.87401933e-13 0 0)
(-4.41866377e-13 0 0)
(-1.56640601e-12 0 0)
(-6.08724086e-13 0 0)
(-6.00428684e-13 0 0)
(-9.3826166e-13 0 0)
(-6.54140852e-13 0 0)
(-1.39184793e-12 0 0)
(-5.80971153e-13 0 0)
(-7.73442545e-13 0 0)
(-1.44914322e-12 0 0)
(-1.0453749e-12 0 0)
(-6.21108003e-13 0 0)
(-1.10756346e-12 0 0)
(-9.86530705e-14 0 0)
(-7.71577392e-13 0 0)
(-8.34526578e-13 0 0)
(-1.00861456e-12 0 0)
(-4.19101735e-13 0 0)
(-1.9216902e-12 0 0)
(-1.05371507e-12 0 0)
(-5.1440993e-13 0 0)
(-2.14999425e-13 0 0)
(-1.14548367e-12 0 0)
(-1.30288164e-12 0 0)
(-3.85519774e-13 0 0)
(-5.1585214e-13 0 0)
(-1.34171183e-12 0 0)
(-3.3124039e-13 0 0)
(-5.50903181e-13 0 0)
(-1.0301606e-12 0 0)
(-4.11513805e-13 0 0)
(-2.65259721e-13 0 0)
(-1.18931479e-12 0 0)
(-1.20879687e-12 0 0)
(-1.18154094e-12 0 0)
(-6.58730479e-13 0 0)
(-1.51392073e-12 0 0)
(-6.42593005e-13 0 0)
(-7.86936123e-13 0 0)
(9.65841701e-13 0 0)
(-6.51115213e-13 0 0)
(4.75440486e-13 0 0)
(6.03264804e-13 0 0)
(-1.00606452e-13 0 0)
(-1.01407181e-13 0 0)
(-6.32904032e-13 0 0)
(-4.9320449e-13 0 0)
(-1.09756069e-12 0 0)
(-5.62073377e-13 0 0)
(1.67021226e-13 0 0)
(5.0107329e-13 0 0)
(-4.33799687e-13 0 0)
(3.77962523e-13 0 0)
(-4.63678392e-13 0 0)
(-4.57343856e-13 0 0)
(5.87880052e-13 0 0)
(3.59775111e-13 0 0)
(7.47237021e-13 0 0)
(9.75521923e-13 0 0)
(1.71838755e-12 0 0)
(6.32319159e-13 0 0)
(1.16899272e-12 0 0)
(7.07836032e-13 0 0)
(8.25470582e-13 0 0)
(1.78631918e-12 0 0)
(1.16448165e-12 0 0)
(7.05380171e-13 0 0)
(1.47318089e-12 0 0)
(2.17761141e-12 0 0)
(1.41691972e-12 0 0)
(2.52849435e-12 0 0)
(2.30633253e-12 0 0)
(2.96449885e-12 0 0)
(2.06658391e-12 0 0)
(2.35523246e-12 0 0)
(2.47875371e-12 0 0)
(1.97632429e-12 0 0)
(2.58854572e-12 0 0)
(1.89926557e-12 0 0)
(2.01435096e-12 0 0)
(1.10381941e-12 0 0)
(1.83668218e-12 0 0)
(1.6414717e-12 0 0)
(1.38603264e-12 0 0)
(1.17430248e-12 0 0)
(1.50982771e-12 0 0)
(1.1213785e-12 0 0)
(2.29093135e-12 0 0)
(1.70642201e-12 0 0)
(8.07030937e-13 0 0)
(7.75916699e-13 0 0)
(2.6920786e-13 0 0)
(1.06013362e-12 0 0)
(7.43236465e-13 0 0)
(5.89112943e-14 0 0)
(8.79760585e-13 0 0)
(-2.25391163e-13 0 0)
(5.86292134e-13 0 0)
(1.42724061e-12 0 0)
(-4.88191124e-13 0 0)
(3.08242878e-13 0 0)
(5.13318907e-13 0 0)
(6.05380363e-13 0 0)
(2.59550873e-13 0 0)
(9.40963345e-13 0 0)
(1.32590384e-12 0 0)
(1.07908224e-12 0 0)
(1.5269002e-12 0 0)
(6.99663061e-13 0 0)
(5.73745014e-13 0 0)
(8.44348777e-13 0 0)
(9.57335846e-13 0 0)
(5.52314067e-13 0 0)
(5.77562383e-13 0 0)
(2.81647538e-13 0 0)
(-2.12615471e-14 0 0)
(-6.06957685e-13 0 0)
(3.09969799e-13 0 0)
(1.22687052e-12 0 0)
(8.44801616e-13 0 0)
(5.24173938e-13 0 0)
(3.14667291e-13 0 0)
(1.35122197e-13 0 0)
(5.1882288e-13 0 0)
(2.17925465e-13 0 0)
(-4.08027058e-13 0 0)
(2.62207778e-13 0 0)
(3.07170882e-13 0 0)
(-5.09895109e-13 0 0)
(-8.4700615e-13 0 0)
(-8.47910945e-13 0 0)
(-7.2756739e-13 0 0)
(-1.0691315e-12 0 0)
(-1.10371539e-12 0 0)
(-1.67661665e-12 0 0)
(-8.07556929e-13 0 0)
(-1.42825928e-12 0 0)
(-1.71731501e-12 0 0)
(-1.0914074e-12 0 0)
(-1.07479115e-12 0 0)
(-2.23147849e-12 0 0)
(-1.15140829e-12 0 0)
(-1.23684544e-12 0 0)
(-2.1681567e-12 0 0)
(-2.11208812e-12 0 0)
(-1.62018463e-12 0 0)
(-1.71885556e-12 0 0)
(-1.61557179e-12 0 0)
(-1.3909184e-12 0 0)
(-1.65361869e-12 0 0)
(-1.84908935e-12 0 0)
(-1.12571082e-12 0 0)
(-1.3007179e-12 0 0)
(-3.2951534e-13 0 0)
(-1.08841435e-12 0 0)
(-8.25213588e-13 0 0)
(-5.96212745e-13 0 0)
(-3.58205113e-13 0 0)
(-2.31048832e-13 0 0)
(-3.78727279e-13 0 0)
(-4.6057759e-13 0 0)
(1.27768756e-13 0 0)
(-5.72809571e-13 0 0)
(4.05291236e-13 0 0)
(1.07339405e-13 0 0)
(2.07812284e-13 0 0)
(1.87751879e-13 0 0)
(1.12834112e-13 0 0)
(-2.60810154e-13 0 0)
(8.97317951e-13 0 0)
(4.38348538e-13 0 0)
(8.88338632e-13 0 0)
(1.38393884e-12 0 0)
(1.02409296e-12 0 0)
(1.09413519e-12 0 0)
(7.69192127e-13 0 0)
(4.04358082e-13 0 0)
(1.06382803e-12 0 0)
(7.38931164e-13 0 0)
(1.10879796e-12 0 0)
(5.83850767e-13 0 0)
(1.25335089e-12 0 0)
(1.04979335e-12 0 0)
(4.32573612e-13 0 0)
(4.94330785e-14 0 0)
(1.10778442e-12 0 0)
(7.51887097e-13 0 0)
(4.51611669e-13 0 0)
(9.73394525e-13 0 0)
(1.33185377e-12 0 0)
(1.13946231e-12 0 0)
(1.48775368e-12 0 0)
(2.36656607e-12 0 0)
(1.37482376e-12 0 0)
(2.06735019e-12 0 0)
(1.57457033e-12 0 0)
(1.49803866e-12 0 0)
(1.96740243e-12 0 0)
(3.14969568e-12 0 0)
(2.35081596e-12 0 0)
(2.30651684e-12 0 0)
(2.35408148e-12 0 0)
(2.50049533e-12 0 0)
(1.72504271e-12 0 0)
(1.96619523e-12 0 0)
(2.73907066e-12 0 0)
(2.0787213e-12 0 0)
(2.36259263e-12 0 0)
(3.21739996e-12 0 0)
(1.90532001e-12 0 0)
(2.15143119e-12 0 0)
(2.37348507e-12 0 0)
(2.16983622e-12 0 0)
(1.36333065e-12 0 0)
(2.3787494e-12 0 0)
(2.52606477e-12 0 0)
(1.83504317e-12 0 0)
(2.59679169e-12 0 0)
(2.81803471e-12 0 0)
(2.15742108e-12 0 0)
(2.25013135e-12 0 0)
(2.70810735e-12 0 0)
(2.75380719e-12 0 0)
(2.22434158e-12 0 0)
(2.09939313e-12 0 0)
(1.83861043e-12 0 0)
(1.76980458e-12 0 0)
(1.07712257e-12 0 0)
(1.68651762e-12 0 0)
(6.38343466e-13 0 0)
(1.47539596e-12 0 0)
(1.15005812e-12 0 0)
(1.66053736e-12 0 0)
(5.82664672e-13 0 0)
(7.73231042e-13 0 0)
(5.10823804e-13 0 0)
(-1.64666504e-13 0 0)
(3.98743498e-13 0 0)
(3.45516643e-13 0 0)
(3.75498122e-13 0 0)
(1.05488936e-12 0 0)
(6.0433235e-13 0 0)
(7.89040926e-13 0 0)
(2.49752364e-13 0 0)
(5.07572896e-13 0 0)
(4.94315304e-13 0 0)
(-4.0593554e-13 0 0)
(5.34698598e-13 0 0)
(-2.31807351e-13 0 0)
(4.59877205e-13 0 0)
(3.0972795e-13 0 0)
(-6.81343953e-15 0 0)
(-1.63291171e-13 0 0)
(-1.84263906e-13 0 0)
(1.1080842e-12 0 0)
(3.06154286e-14 0 0)
(8.64904461e-14 0 0)
(-6.5555143e-13 0 0)
(-6.44534616e-13 0 0)
(2.77380462e-13 0 0)
(-3.51485598e-13 0 0)
(3.40568417e-13 0 0)
(-3.8601954e-13 0 0)
(-9.26656527e-13 0 0)
(-3.23862931e-13 0 0)
(-5.36110599e-13 0 0)
(-4.3243437e-13 0 0)
(3.17236138e-13 0 0)
(3.17816737e-13 0 0)
(-2.34761784e-15 0 0)
(1.15246712e-13 0 0)
(-3.85056728e-13 0 0)
(1.21399447e-14 0 0)
(-2.79579405e-13 0 0)
(-3.54283661e-14 0 0)
(-4.71316618e-13 0 0)
(-5.85272406e-13 0 0)
(-2.78207262e-13 0 0)
(-5.45950493e-13 0 0)
(-7.2127722e-13 0 0)
(-1.31825357e-12 0 0)
(-6.45575034e-13 0 0)
(-1.71468874e-12 0 0)
(2.87846122e-14 0 0)
(-1.04301807e-12 0 0)
(-1.29939252e-12 0 0)
(-1.27174376e-12 0 0)
(-1.08017478e-12 0 0)
(-1.56020411e-12 0 0)
(-1.4314246e-12 0 0)
(-8.50078292e-13 0 0)
(-1.00652745e-12 0 0)
(-4.09241014e-13 0 0)
(-4.94567349e-13 0 0)
(-3.87081571e-14 0 0)
(-1.0289333e-12 0 0)
(-3.3890672e-13 0 0)
(-5.33876594e-13 0 0)
(-6.37356908e-13 0 0)
(-4.72235042e-13 0 0)
(-1.5093672e-12 0 0)
(-8.65479622e-13 0 0)
(-2.16766225e-13 0 0)
(-4.34887075e-13 0 0)
(-3.94089586e-13 0 0)
(3.13098587e-14 0 0)
(2.55927806e-14 0 0)
(7.91663344e-13 0 0)
(-6.68840428e-13 0 0)
(-8.16317118e-14 0 0)
(-3.58926727e-13 0 0)
(-1.38522339e-13 0 0)
(-2.57372512e-13 0 0)
(-1.09907688e-13 0 0)
(-6.79771531e-13 0 0)
(-5.78594166e-13 0 0)
(-1.60318548e-13 0 0)
(8.03951153e-14 0 0)
(-8.64972953e-13 0 0)
(5.14360552e-13 0 0)
(-2.61049256e-14 0 0)
(2.22768924e-13 0 0)
(-5.32169591e-13 0 0)
(1.10541219e-13 0 0)
(2.09886964e-13 0 0)
(7.14589339e-13 0 0)
(6.28290308e-14 0 0)
(-2.07152858e-13 0 0)
(1.82648456e-13 0 0)
(8.07387041e-13 0 0)
(-5.13859177e-13 0 0)
(-6.30032942e-13 0 0)
(1.7458602e-13 0 0)
(7.41639375e-13 0 0)
(-3.19222902e-13 0 0)
(-3.67442706e-13 0 0)
(1.58048935e-13 0 0)
(-1.9754474e-13 0 0)
(-7.26622396e-14 0 0)
(5.60233759e-13 0 0)
(6.77094961e-13 0 0)
(-2.43081009e-13 0 0)
(1.98604912e-14 0 0)
(3.73943376e-13 0 0)
(9.73541143e-15 0 0)
(-1.50908573e-13 0 0)
(3.1351692e-13 0 0)
(1.24435845e-14 0 0)
(2.32531602e-13 0 0)
(3.37819476e-13 0 0)
(-1.14369363e-13 0 0)
(1.30945672e-12 0 0)
(-2.18738053e-13 0 0)
(-1.64988071e-13 0 0)
(1.8441132e-13 0 0)
(-6.71915296e-13 0 0)
(-1.42154099e-13 0 0)
(-1.13688497e-12 0 0)
(-9.34737002e-13 0 0)
(4.05341817e-14 0 0)
(5.95733071e-13 0 0)
(-6.91993375e-13 0 0)
(-1.4702244e-12 0 0)
(-5.16973765e-13 0 0)
(-3.41491899e-14 0 0)
(4.5792828e-13 0 0)
(5.68993517e-14 0 0)
(-6.39069286e-13 0 0)
(-4.85856907e-13 0 0)
(-7.12234983e-13 0 0)
(6.40370442e-13 0 0)
(-5.43474229e-13 0 0)
(8.29578726e-13 0 0)
(-7.86256661e-13 0 0)
(-1.08455151e-12 0 0)
(2.54682983e-13 0 0)
(1.15559503e-13 0 0)
(1.47393836e-13 0 0)
(1.51362368e-13 0 0)
(2.13152761e-13 0 0)
(6.48965646e-13 0 0)
(5.78601973e-14 0 0)
(2.19029846e-13 0 0)
(-2.92705209e-13 0 0)
(5.33737977e-14 0 0)
(2.70722637e-13 0 0)
(6.13514299e-13 0 0)
(3.61486634e-13 0 0)
(5.75229191e-14 0 0)
(2.48709713e-13 0 0)
(-2.07094758e-13 0 0)
(4.85197168e-13 0 0)
(-5.25832661e-13 0 0)
(1.01684288e-12 0 0)
(4.44941051e-13 0 0)
(1.17345664e-12 0 0)
(-3.88049981e-13 0 0)
(-2.69973815e-13 0 0)
(3.80904598e-14 0 0)
(-2.76531805e-13 0 0)
(-5.8354042e-13 0 0)
(4.07336387e-14 0 0)
(-3.92639155e-13 0 0)
(4.2788448e-13 0 0)
(4.30747964e-14 0 0)
(9.09563765e-14 0 0)
(-1.41767409e-13 0 0)
(-6.60096243e-13 0 0)
(3.63375163e-13 0 0)
(-3.32307603e-13 0 0)
(1.8398133e-13 0 0)
(4.47441337e-13 0 0)
(8.11860782e-13 0 0)
(4.71071376e-13 0 0)
(1.65847898e-13 0 0)
(-5.09507657e-13 0 0)
(4.64619781e-13 0 0)
(7.17986476e-13 0 0)
(3.95197774e-13 0 0)
(5.70517336e-13 0 0)
(6.24658656e-13 0 0)
(8.02418871e-13 0 0)
(4.02745388e-13 0 0)
(-1.98846168e-13 0 0)
(-2.35825763e-13 0 0)
(-1.23148758e-13 0 0)
(4.81514788e-13 0 0)
(-3.12305706e-13 0 0)
(1.10150364e-12 0 0)
(8.41090809e-13 0 0)
(-1.48782758e-13 0 0)
(5.55963204e-13 0 0)
(4.8597172e-13 0 0)
(5.3398e-13 0 0)
(-5.59623031e-13 0 0)
(4.67806326e-13 0 0)
(6.11818439e-14 0 0)
(8.65909447e-14 0 0)
(-4.58185362e-13 0 0)
(-4.32124192e-13 0 0)
(3.79784176e-14 0 0)
(-7.54139354e-13 0 0)
(1.49900941e-13 0 0)
(1.75890634e-13 0 0)
(4.0040794e-13 0 0)
(7.10404902e-14 0 0)
(1.38010723e-13 0 0)
(1.07172837e-12 0 0)
(5.25530421e-13 0 0)
(1.49762188e-14 0 0)
(4.6112185e-13 0 0)
(7.58773326e-13 0 0)
(6.39173045e-13 0 0)
(5.33225445e-13 0 0)
(1.02000289e-12 0 0)
(8.50368619e-13 0 0)
(9.86096374e-13 0 0)
(1.2464585e-12 0 0)
(4.45193312e-13 0 0)
(1.62856934e-12 0 0)
(1.90908357e-12 0 0)
(2.02179292e-12 0 0)
(1.91022055e-12 0 0)
(2.62959725e-12 0 0)
(1.34358937e-12 0 0)
(1.91095641e-12 0 0)
(1.74121507e-12 0 0)
(2.5258223e-12 0 0)
(2.5563479e-12 0 0)
(2.13652155e-12 0 0)
(1.29010611e-12 0 0)
(1.34202096e-12 0 0)
(1.5029024e-12 0 0)
(2.01965971e-12 0 0)
(1.00399321e-12 0 0)
(1.74473352e-12 0 0)
(1.69178211e-12 0 0)
(2.69696344e-12 0 0)
(3.26999623e-12 0 0)
(2.22786838e-12 0 0)
(2.93467985e-12 0 0)
(2.27294129e-12 0 0)
(3.42218889e-12 0 0)
(1.90164327e-12 0 0)
(3.04952803e-12 0 0)
(2.37498534e-12 0 0)
(2.0580509e-12 0 0)
(2.69961902e-12 0 0)
(2.91886281e-12 0 0)
(2.15094077e-12 0 0)
(3.03468474e-12 0 0)
(2.05937006e-12 0 0)
(4.12144359e-12 0 0)
(2.18462453e-12 0 0)
(2.34347589e-12 0 0)
(1.85135117e-12 0 0)
(2.09705984e-12 0 0)
(2.14315718e-12 0 0)
(2.07409157e-12 0 0)
(1.959257e-12 0 0)
(1.36805038e-12 0 0)
(2.33510003e-12 0 0)
(1.43087423e-12 0 0)
(2.04703045e-12 0 0)
(1.2743791e-12 0 0)
(2.16981116e-12 0 0)
(1.80770536e-12 0 0)
(8.2113659e-13 0 0)
(1.86770028e-13 0 0)
(5.11424741e-13 0 0)
(9.31910846e-13 0 0)
(6.35018442e-13 0 0)
(4.2553947e-13 0 0)
(-7.09610627e-14 0 0)
(-5.73334644e-13 0 0)
(1.97480152e-13 0 0)
(-4.64376053e-13 0 0)
(-3.10832665e-13 0 0)
(-2.09381602e-13 0 0)
(3.35115254e-15 0 0)
(-7.29468651e-14 0 0)
(-7.55629156e-13 0 0)
(4.09103259e-13 0 0)
(1.35655506e-13 0 0)
(-6.45026875e-13 0 0)
(4.88637651e-13 0 0)
(2.65727431e-13 0 0)
(1.09976491e-12 0 0)
(-2.29565474e-13 0 0)
(1.05961794e-12 0 0)
(8.21092296e-13 0 0)
(3.9827409e-13 0 0)
(1.35508935e-12 0 0)
(7.09364331e-13 0 0)
(1.0522227e-12 0 0)
(7.00443569e-13 0 0)
(2.76017275e-13 0 0)
(1.68413283e-13 0 0)
(-4.55830078e-13 0 0)
(1.09715308e-12 0 0)
(-2.90250803e-13 0 0)
(-8.09327281e-13 0 0)
(-2.45634121e-13 0 0)
(4.14539986e-13 0 0)
(-9.88732429e-14 0 0)
(8.309072e-13 0 0)
(-2.33768247e-13 0 0)
(-1.86051116e-13 0 0)
(-4.06044778e-14 0 0)
(8.1709545e-13 0 0)
(5.17770177e-13 0 0)
(5.18034881e-13 0 0)
(1.43142085e-12 0 0)
(7.4327643e-13 0 0)
(9.74874525e-13 0 0)
(1.81687975e-13 0 0)
(6.87404034e-13 0 0)
(1.61443822e-13 0 0)
(8.67469363e-14 0 0)
(9.09429493e-13 0 0)
(2.65528023e-12 0 0)
(2.07340742e-12 0 0)
(1.21647923e-12 0 0)
(1.03948711e-12 0 0)
(1.95700895e-12 0 0)
(1.22414182e-12 0 0)
(1.81622618e-12 0 0)
(1.27650521e-12 0 0)
(1.72559447e-12 0 0)
(8.29940882e-13 0 0)
(1.31016637e-12 0 0)
(1.56137276e-12 0 0)
(5.57091851e-13 0 0)
(8.53818398e-13 0 0)
(6.28770739e-13 0 0)
(-9.36849104e-14 0 0)
(4.39850629e-13 0 0)
(1.02997431e-12 0 0)
(1.34994352e-12 0 0)
(2.39589057e-13 0 0)
(6.31711588e-13 0 0)
(6.43445638e-13 0 0)
(6.90615528e-13 0 0)
(1.19948472e-12 0 0)
(5.95906173e-13 0 0)
(5.56829086e-13 0 0)
(2.4866952e-13 0 0)
(7.936897e-13 0 0)
(6.33398539e-13 0 0)
(2.42271632e-13 0 0)
(6.7711196e-13 0 0)
(5.6661459e-13 0 0)
(4.99979624e-13 0 0)
(6.67423563e-13 0 0)
(-4.20042705e-14 0 0)
(7.06427169e-13 0 0)
(-9.60107911e-15 0 0)
(-5.95494531e-14 0 0)
(-3.11337191e-13 0 0)
(-3.50353297e-13 0 0)
(-4.53713424e-13 0 0)
(-6.89466024e-13 0 0)
(-4.23235423e-13 0 0)
(-1.97317415e-13 0 0)
(-7.9186171e-13 0 0)
(-3.10684219e-13 0 0)
(-1.89801966e-13 0 0)
(-7.5141403e-14 0 0)
(-9.42024533e-13 0 0)
(-8.80561817e-13 0 0)
(-8.84470069e-13 0 0)
(-1.01663253e-12 0 0)
(-7.06162193e-13 0 0)
(-6.59041003e-13 0 0)
(-1.43447247e-12 0 0)
(-1.20003598e-12 0 0)
(-8.23274227e-13 0 0)
(-1.13356462e-12 0 0)
(-2.4235737e-12 0 0)
(-8.50928519e-13 0 0)
(-9.3242258e-13 0 0)
(-1.01700439e-12 0 0)
(-2.0370461e-12 0 0)
(-7.03321639e-13 0 0)
(-1.47966249e-12 0 0)
(-1.67422771e-12 0 0)
(-1.10555896e-12 0 0)
(-1.83551187e-12 0 0)
(-1.75579023e-12 0 0)
(-1.35753386e-12 0 0)
(-6.32158184e-13 0 0)
(-5.00993351e-13 0 0)
(-1.49034434e-12 0 0)
(-5.27913648e-13 0 0)
(-1.08429782e-13 0 0)
(-7.61686076e-13 0 0)
(-9.4896558e-13 0 0)
(-1.42376193e-13 0 0)
(-1.7763113e-12 0 0)
(-7.64034509e-13 0 0)
(-3.49696385e-13 0 0)
(-7.24104666e-13 0 0)
(-2.18836536e-13 0 0)
(-1.01438507e-12 0 0)
(-7.21829752e-13 0 0)
(-8.98011968e-13 0 0)
(-4.20945868e-13 0 0)
(-9.23779723e-13 0 0)
(-7.25471116e-13 0 0)
(-4.08282999e-13 0 0)
(-1.33127408e-13 0 0)
(-6.23330286e-13 0 0)
(-4.08979896e-13 0 0)
(4.86503141e-13 0 0)
(-4.31728908e-13 0 0)
(-1.50417457e-13 0 0)
(-7.11583155e-14 0 0)
(-3.1496303e-13 0 0)
(-9.82203767e-13 0 0)
(-1.27525803e-12 0 0)
(-2.70597004e-13 0 0)
(-2.56167305e-13 0 0)
(-7.65705936e-13 0 0)
(-7.67639011e-13 0 0)
(-6.05662915e-13 0 0)
(-9.68930988e-13 0 0)
(-3.68067944e-13 0 0)
(-4.87022738e-13 0 0)
(-6.3107683e-13 0 0)
(-9.45119385e-13 0 0)
(-8.28376737e-13 0 0)
(-8.45305882e-13 0 0)
(-2.42265729e-13 0 0)
(-6.29085297e-13 0 0)
(-9.13405785e-13 0 0)
(-1.34116187e-12 0 0)
(-5.47077738e-13 0 0)
(-1.02205305e-12 0 0)
(-7.36748663e-13 0 0)
(-9.52004218e-13 0 0)
(-9.87295871e-13 0 0)
(-5.5979682e-13 0 0)
(-1.03580738e-12 0 0)
(-1.20569186e-12 0 0)
(-1.65135788e-12 0 0)
(-1.68760656e-12 0 0)
(-1.53649266e-12 0 0)
(-2.10086195e-12 0 0)
(-2.0529473e-12 0 0)
(-1.9974699e-12 0 0)
(-2.38040732e-12 0 0)
(-2.50715247e-12 0 0)
(-2.12186805e-12 0 0)
(-2.39354254e-12 0 0)
(-1.86425483e-12 0 0)
(-1.96569836e-12 0 0)
(-1.5085786e-12 0 0)
(-1.57731984e-12 0 0)
(-1.25409332e-12 0 0)
(-5.30892927e-13 0 0)
(-6.86386145e-13 0 0)
(-1.48510047e-12 0 0)
(-1.25886418e-12 0 0)
(-1.44508468e-12 0 0)
(-1.89593867e-12 0 0)
(-1.08543089e-12 0 0)
(-8.76803272e-13 0 0)
(-1.28181002e-12 0 0)
(-1.21910957e-12 0 0)
(-1.68886659e-12 0 0)
(-6.20973779e-13 0 0)
(-1.48740395e-12 0 0)
(-1.43988301e-12 0 0)
(-1.27112437e-12 0 0)
(-1.17206257e-12 0 0)
(-9.80486498e-13 0 0)
(-1.4468018e-12 0 0)
(-7.71905757e-13 0 0)
(-2.1334812e-12 0 0)
(-6.98706352e-13 0 0)
(-1.83404621e-12 0 0)
(-1.36456484e-12 0 0)
(-1.33229954e-12 0 0)
(-6.19493944e-13 0 0)
(-1.87117523e-12 0 0)
(-1.5669682e-12 0 0)
(-1.74023577e-12 0 0)
(-1.38125898e-12 0 0)
(-2.22602897e-12 0 0)
(-2.69832199e-12 0 0)
(-9.7055334e-13 0 0)
(-1.34665901e-12 0 0)
(-1.48677013e-12 0 0)
(-1.06005514e-12 0 0)
(-7.76369844e-13 0 0)
(-1.10180493e-12 0 0)
(-3.58947691e-13 0 0)
(-5.24570527e-13 0 0)
(2.18263058e-13 0 0)
(-1.76960444e-13 0 0)
(-3.15559476e-13 0 0)
(-8.19953528e-13 0 0)
(-6.26713384e-13 0 0)
(-1.35855108e-12 0 0)
(-5.07754199e-13 0 0)
(-7.02922643e-13 0 0)
(-1.57274027e-12 0 0)
(-1.16358947e-12 0 0)
(-1.18921478e-12 0 0)
(-1.12949101e-12 0 0)
(-1.63217195e-12 0 0)
(-7.28529066e-13 0 0)
(-4.17513277e-13 0 0)
(-9.81893508e-13 0 0)
(-4.1884729e-13 0 0)
(-7.51885579e-13 0 0)
(-1.10437213e-12 0 0)
(-1.9124315e-12 0 0)
(-1.1629777e-12 0 0)
(-1.15973911e-12 0 0)
(-1.4379839e-12 0 0)
(-1.53664967e-12 0 0)
(-9.99268018e-13 0 0)
(-1.11868643e-12 0 0)
(-1.28625064e-12 0 0)
(-7.09568949e-13 0 0)
(-6.42762176e-13 0 0)
(-3.99013e-13 0 0)
(-3.72595343e-13 0 0)
(-1.90362661e-13 0 0)
(-4.4428895e-13 0 0)
(-8.95185269e-13 0 0)
(4.00190739e-13 0 0)
(-9.17387183e-13 0 0)
(-1.74106944e-14 0 0)
(-5.80722857e-13 0 0)
(-1.01084439e-12 0 0)
(-5.26586265e-13 0 0)
(-4.68157255e-13 0 0)
(-6.38444463e-13 0 0)
(-1.06043661e-12 0 0)
(-3.42179608e-13 0 0)
(-8.06255067e-13 0 0)
(-1.26209282e-12 0 0)
(-1.20224454e-12 0 0)
(-4.8861559e-13 0 0)
(-6.76604501e-13 0 0)
(-1.64580072e-12 0 0)
(-4.75617928e-13 0 0)
(-5.28625553e-13 0 0)
(-7.00075514e-13 0 0)
(-3.13934304e-13 0 0)
(5.48996878e-13 0 0)
(-1.08307547e-12 0 0)
(-8.32226878e-13 0 0)
(1.33004499e-13 0 0)
(-9.01002877e-13 0 0)
(-2.04480389e-12 0 0)
(-9.16909749e-13 0 0)
(-1.74866573e-12 0 0)
(-1.88253166e-13 0 0)
(-8.81773143e-13 0 0)
(-9.46205773e-13 0 0)
(-5.70964425e-13 0 0)
(-1.33638193e-12 0 0)
(-1.02647755e-12 0 0)
(-7.98846892e-13 0 0)
(-7.18969525e-13 0 0)
(-3.1829733e-15 0 0)
(-2.72682937e-13 0 0)
(-2.1647021e-13 0 0)
(1.85067625e-13 0 0)
(3.70107359e-13 0 0)
(3.05605773e-13 0 0)
(1.37138634e-13 0 0)
(3.3239848e-13 0 0)
(2.74023041e-13 0 0)
(-3.72314316e-13 0 0)
(-3.33725155e-13 0 0)
(6.72131334e-14 0 0)
(6.86741455e-13 0 0)
(7.89249825e-13 0 0)
(4.26039012e-13 0 0)
(1.38013286e-12 0 0)
(1.23213832e-12 0 0)
(7.79720387e-13 0 0)
(7.00325301e-13 0 0)
(1.80971994e-12 0 0)
(1.42873081e-12 0 0)
(1.41109633e-12 0 0)
(9.67804948e-13 0 0)
(1.40702891e-12 0 0)
(1.55579457e-12 0 0)
(2.74890553e-12 0 0)
(1.72170682e-12 0 0)
(1.68234737e-12 0 0)
(1.24268484e-12 0 0)
(6.41055125e-13 0 0)
(1.21976589e-12 0 0)
(1.0379416e-12 0 0)
(1.00161179e-12 0 0)
(1.33274343e-12 0 0)
(1.46205696e-12 0 0)
(6.9289015e-13 0 0)
(8.6980806e-13 0 0)