/*--------------------------------*- C++ -*----------------------------------*\
| =========                 |                                                 |
| \\      /  F ield         | OpenFOAM: The Open Source CFD Toolbox           |
|  \\    /   O peration     | Version:  2206                                  |
|   \\  /    A nd           | Website:  www.openfoam.com                      |
|    \\/     M anipulation  |                                                 |
\*---------------------------------------------------------------------------*/
FoamFile
{
    version     2.0;
    format      ascii;
    arch        "LSB;label=32;scalar=64";
    class       volScalarField;
    location    "5e-06";
    object      p;
}
// * * * * * * * * * * * * * * * * * * * * * * * * * * * * * * * * * * * * * //

dimensions      [1 -1 -2 0 0 0 0];

internalField   nonuniform List<scalar> 
3183
(
101325
101325
101325
101325
101325
101325
101325
101325
101325
101325
101325
101325
101325
101325
101325
101325
101325
101325
101325
101325
101325
101325
101325
101325
101325
101325
101325
101325
101325
101325
101325
101325
101325
101325
101325
101325
101325
101325
101325
101325
101325
101325
101325
101325
101325
101325
101325
101325
101325
101325
101325
101325
101325
101325
101325
101325
101325
101325
101325
101325
101325
101325
101325
101325
101325
101325
101325
101325
101325
101325
101325
101325
101325
101325
101325
101325
101325
101325
101325
101325
101325
101325
101325
101325
101325
101325
101325
101325
101325
101325
101325
101325
101325
101325
101325
101325
101325
101325
101325
101325
101325
101325
101325
101325
101325
101325
101325
101325
101325
101325
101325
101325
101325
101325
101325
101325
101325
101325
101325
101325
101325
101325
101325
101325
101325
101325
101325
101325
101325
101325
101325
101325
101325
101325
101325
101325
101325
101325
101325
101325
101325
101325
101325
101325
101325
101325
101325
101325
101325
101325
101325
101325
101325
101325
101325
101325
101325
101325
101325
101325
101325
101325
101325
101325
101325
101325
101325
101325
101325
101325
101325
101325
101325
101325
101325
101325
101325
101325
101325
101325
101325
101325
101325
101325
101325
101325
101325
101325
101325
101325
101325
101325
101325
101325
101325
101325
101325
101325
101325
101325
101325
101325
101325
101325
101325
101325
101325
101325
101325
101325
101325
101325
101325
101325
101325
101325
101325
101325
101325
101325
101325
101325
101325
101325
101325
101325
101325
101325
101325
101325
101325
101325
101325
101325
101325
101325
101325
101325
101325
101325
101325
101325
101325
101325
101325
101325
101325
101325
101325
101325
101325
101325
101325
101325
101325
101325
101325
101325
101325
101325
101325
101325
101325
101325
101325
101325
101325
101325
101325
101325
101325
101325
101325
101325
101325
101325
101325
101325
101325
101325
101325
101325
101325
101325
101325
101325
101325
101325
101325
101325
101325
101325
101325
101325
101325
101325
101325
101325
101325
101325
101325
101325
101325
101325
101325
101325
101325
101325
101325
101325
101325
101325
101325
101325
101325
101325
101325
101325
101325
101325
101325
101325
101325
101325
101325
101325
101325
101325
101325
101325
101325
101325
101325
101325
101325
101325
101325
101325
101325
101325
101325
101325
101325
101325
101325
101325
101325
101325
101325
101325
101325
101325
101325
101325
101325
101325
101325
101325
101325
101325
101325
101325
101325
101325
101325
101325
101325
101325
101325
101325
101325
101325
101325
101325
101325
101325
101325
101325
101325
101325
101325
101325
101325
101325
101325
101325
101325
101325
101325
101325
101325
101325
101325
101325
101325
101325
101325
101325
101325
101325
101325
101325
101325
101325
101325
101325
101325
101325
101325
101325
101325
101325
101325
101325
101325
101325
101325
101325
101325
101325
101325
101325
101325
101325
101325
101325
101325
101325
101325
101325
101325
101325
101325
101325
101325
101325
101325
101325
101325
101325
101325
101325
101325
101325
101325
101325
101325
101325
101325
101325
101325
101325
101325
101325
101325
101325
101325
101325
101325
101325
101325
101325
101325
101325
101325
101325
101325
101325
101325
101325
101325
101325
101325
101325
101325
101325
101325
101325
101325
101325
101325
101325
101325
101325
101325
101325
101325
101325
101325
101325
101325
101325
101325
101325
101325
101325
101325
101325
101325
101325
101325
101325
101325
101325
101325
101325
101325
101325
101325
101325
101325
101325
101325
101325
101325
101325
101325
101325
101325
101325
101325
101325
101325
101325
101325
101325
101325
101325
101325
101325
101325
101325
101325
101325
101325
101325
101325
101325
101325
101325
101325
101325
101325
101325
101325
101325
101325
101325
101325
101325
101325
101325
101325
101325
101325
101325
101325
101325
101325
101325
101325
101325
101325
101325
101325
101325
101325
101325
101325
101325
101325
101325
101325
101325
101325
101325
101325
101325
101325
101325
101325
101325
101325
101325
101325
101325
101325
101325
101325
101325
101325
101325
101325
101325
101325
101325
101325
101325
101325
101325
101325
101325
101325
101325
101325
101325
101325
101325
101325
101325
101325
101325
101325
101325
101325
101325
101325
101325
101325
101325
101325
101325
101325
101325
101325
101325
101325
101325
101325
101325
101325
101325
101325
101325
101325
101325
101325
101325
101325
101325
101325
101325
101325
101325
101325
101325
101325
101325
101325
101325
101325
101325
101325
101325
101325
101325
101325
101325
101325
101325
101325
101325
101325
101325
101325
101325
101325
101325
101325
101325
101325
101325
101325
101325
101325
101325
101325
101325
101325
101325
101325
101325
101325
101325
101325
101325
101325
101325
101325
101325
101325
101325
101325
101325
101325
101325
101325
101325
101325
101325
101325
101325
101325
101325
101325
101325
101325
101325
101325
101325
101325
101325
101325
101325
101325
101325
101325
101325
101325
101325
101325
101325
101325
101325
101325
101325
101325
101325
101325
101325
101325
101325
101325
101325
101325
101325
101325
101325
101325
101325
101325
101325
101325
101325
101325
101325
101325
101325
101325
101325
101325
101325
101325
101325
101325
101325
101325
101325
101325
101325
101325
101325
101325
101325
101325
101325
101325
101325
101325
101325
101325
101325
101325
101325
101325
101325
101325
101325
101325
101325
101325
101325
101325
101325
101325
101325
101325
101325
101325
101325
101325
101325
101325
101325
101325
101325
101325
101325
101325
101325
101325
101325
101325
101325
101325
101325
101325
101325
101325
101325
101325
101325
101325
101325
101325
101325
101325
101325
101325
101325
101325
101325
101325
101325
101325
101325
101325
101325
101325
101325
101325
101325
101325
101325
101325
101325
101325
101325
101325
101325
101325
101325
101325
101325
101325
101325
101325
101325
101325
101325
101325
101325
101325
101325
101325
101325
101325
101325
101325
101325
101325
101325
101325
101325
101325
101325
101325
101325
101325
101325
101325
101325
101325
101325
101325
101325
101325
101325
101325
101325
101325
101325
101325
101325
101325
101325
101325
101325
101325
101325
101325
101325
101325
101325
101325
101325
101325
101325
101325
101325
101325
101325
101325
101325
101325
101325
101325
101325
101325
101325
101325
101325
101325
101325
101325
101325
101325
101325
101325
101325
101325
101325
101325
101325
101325
101325
101325
101325
101325
101325
101325
101325
101325
101325
101325
101325
101325
101325
101325
101325
101325
101325
101325
101325
101325
101325
101325
101325
101325
101325
101325
101325
101325
101325
101325
101325
101325
101325
101325
101325
101325
101325
101325
101325
101325
101325
101325
101325
101325
101325
101325
101325
101325
101325
101325
101325
101325
101325
101325
101325
101325
101325
101325
101325
101325
101325
101325
101325
101325
101325
101325
101325
101325
101325
101325
101325
101325
101325
101325
101325
101325
101325
101325
101325
101325
101325
101325
101325
101325
101325
101325
101325
101325
101325
101325
101325
101325
101325
101325
101325
101325
101325
101325
101325
101325
101325
101325
101325
101325
101325
101325
101325
101325
101325
101325
101325
101325
101325
101325
101325
101325
101325
101325
101325
101325
101325
101325
101325
101325
101325
101325
101325
101325
101325
101325
101325
101325
101325
101325
101325
101325
101325
101325
101325
101325
101325
101325
101325
101325
101325
101325
101325
101325
101325
101325
101325
101325
101325
101325
101325
101325
101325
101325
101325
101325
101325
101325
101325
101325
101325
101325
101325
101325
101325
101325
101325
101325
101325
101325
101325
101325
101325
101325
101325
101325
101325
101325
101325
101325
101325
101325
101325
101325
101325
101325
101325
101325
101325
101325
101325
101325
101325
101325
101325
101325
101325
101325
101325
101325
101325
101325
101325
101325
101325
101325
101325
101325
101325
101325
101325
101325
101325
101325
101325
101325
101325
101325
101325
101325
101325
101325
101325
101325
101325
101325
101325
101325
101325
101325
101325
101325
101325
101325
101325
101325
101325
101325
101325
101325
101325
101325
101325
101325
101325
101325
101325
101325
101325
101325
101325
101325
101325
101325
101325
101325
101325
101325
101325
101325
101325
101325
101325
101325
101325
101325
101325
101325
101325
101325
101325
101325
101325
101325
101325
101325
101325
101325
101325
101325
101325
101325
101325
101325
101325
101325
101325
101325
101325
101325
101325
101325
101325
101325
101325
101325
101325
101325
101325
101325
101325
101325
101325
101325
101325
101325
101325
101325
101325
101325
101325
101325
101325
101325
101325
101325
101325
101325
101325
101325
101325
101325
101325
101325
101325
101325
101325
101325
101325
101325
101325
101325
101325
101325
101325
101325
101325
101325
101325
101325
101325
101325
101325
101325
101325
101325
101325
101325
101325
101325
101325
101325
101325
101325
101325
101325
101325
101325
101325
101325
101325
101325
101325
101325
101325
101325
101325
101325
101325
101325
101325
101325
101325
101325
101325
101325
101325
101325
101325
101325
101325
101325
101325
101325
101325
101325
101325
101325
101325
101325
101325
101325
101325
101325
101325
101325
101325
101325
101325
101325
101325
101325
101325
101325
101325
101325
101325
101325
101325
101325
101325
101325
101325
101325
101325
101325
101325
101325
101325
101325
101325
101325
101325
101325
101325
101325
101325
101325
101325
101325
101325
101325
101325
101325
101325
101325
101325
101325
101325
101325
101325
101325
101325
101325
101325
101325
101325
101325
101325
101325
101325
101325
101325
101325
101325
101325
101325
101325
101325
101325
101325
101325
101325
101325
101325
101325
101325
101325
101325
101325
101325
101325
101325
101325
101325
101325
101325
101325
101325
101325
101325
101325
101325
101325
101325
101325
101325
101325
101325
101325
101325
101325
101325
101325
101325
101325
101325
101325
101325
101325
101325
101325
101325
101325
101325
101325
101325
101325
101325
101325
101325
101325
101325
101325
101325
101325
101325
101325
101325
101325
101325
101325
101325
101325
101325
101325
101325
101325
101325
101325
101325
101325
101325
101325
101325
101325
101325
101325
101325
101325
101325
101325
101325
101325
101325
101325
101325
101325
101325
101325
101325
101325
101325
101325
101325
101325
101325
101325
101325
101325
101325
101325
101325
101325
101325
101325
101325
101325
101325
101325
101325
101325
101325
101325
101325
101325
101325
101325
101325
101325
101325
101325
101325
101325
101325
101325
101325
101325
101325
101325
101325
101325
101325
101325
101325
101325
101325
101325
101325
101325
101325
101325
101325
101325
101325
101325
101325
101325
101325
101325
101325
101325
101325
101325
101325
101325
101325
101325
101325
101325
101325
101325
101325
101325
101325
101325
101325
101325
101325
101325
101325
101325
101325
101325
101325
101325
101325
101325
101325
101325
101325
101325
101325
101325
101325
101325
101325
101325
101325
101325
101325
101325
101325
101325
101325
101325
101325
101325
101325
101325
101325
101325
101325
101325
101325
101325
101325
101325
101325
101325
101325
101325
101325
101325
101325
101325
101325
101325
101325
101325
101325
101325
101325
101325
101325
101325
101325
101325
101325
101325
101325
101325
101325
101325
101325
101325
101325
101325
101325
101325
101325
101325
101325
101325
101325
101325
101325
101325
101325
101325
101325
101325
101325
101325
101325
101325
101325
101325
101325
101325
101325
101325
101325
101325
101325
101325
101325
101325
101325
101325
101325
101325
101325
101325
101325
101325
101325
101325
101325
101325
101325
101325
101325
101325
101325
101325
101325
101325
101325
101325
101325
101325
101325
101325
101325
101325
101325
101325
101325
101325
101325
101325
101325
101325
101325
101325
101325
101325
101325
101325
101325
101325
101325
101325
101325
101325
101325
101325
101325
101325
101325
101325
101325
101325
101325
101325
101325
101325
101325
101325
101325
101325
101325
101325
101325
101325
101325
101325
101325
101325
101325
101325
101325
101325
101325
101325
101325
101325
101325
101325
101325
101325
101325
101325
101325
101325
101325
101325
101325
101325
101325
101325
101325
101325
101325
101325
101325
101325
101325
101325
101325
101325
101325
101325
101325
101325
101325
101325
101325
101325
101325
101325
101325
101325
101325
101325
101325
101325
101325
101325
101325
101325
101325
101325
101325
101325
101325
101325
101325
101325
101325
101325
101325
101325
101325
101325
101325
101325
101325
101325
101325
101325
101325
101325
101325
101325
101325
101325
101325
101325
101325
101325
101325
101325
101325
101325
101325
101325
101325
101325
101325
101325
101325
101325
101325
101325
101325
101325
101325
101325
101325
101325
101325
101325
101325
101325
101325
101325
101325
101325
101325
101325
101325
101325
101325
101325
101325
101325
101325
101325
101325
101325
101325
101325
101325
101325
101325
101325
101325
101325
101325
101325
101325
101325
101325
101325
101325
101325
101325
101325
101325
101325
101325
101325
101325
101325
101325
101325
101325
101325
101325
101325
101325
101325
101325
101325
101325
101325
101325
101325
101325
101325
101325
101325
101325
101325
101325
101325
101325
101325
101325
101325
101325
101325
101325
101325
101325
101325
101325
101325
101325
101325
101325
101325
101325
101325
101325
101325
101325
101325
101325
101325
101325
101325
101325
101325
101325
101325
101325
101325
101325
101325
101325
101325
101325
101325
101325
101325
101325
101325
101325
101325
101325
101325
101325
101325
101325
101325
101325
101325
101325
101325
101325
101325
101325
101325
101325
101325
101325
101325
101325
101325
101325
101325
101325
101325
101325
101325
101325
101325
101325
101325
101325
101325
101325
101325
101325
101325
101325
101325
101325
101325
101325
101325
101325
101325
101325
101325
101325
101325
101325
101325
101325
101325
101325
101325
101325
101325
101325
101325
101325
101325
101325
101325
101325
101325
101325
101325
101325
101325
101325
101325
101325
101325
101325
101325
101325
101325
101325
101325
101325
101325
101325
101325
101325
101325
101325
101325
101325
101325
101325
101325
101325
101325
101325
101325
101325
101325
101325
101325
101325
101325
101325
101325
101325
101325
101325
101325
101325
101325
101325
101325
101325
101325
101325
101325
101325
101325
101325
101325
101325
101325
101325
101325
101325
101325
101325
101325
101325
101325
101325
101325
101325
101325
101325
101325
101325
101325
101325
101325
101325
101325
101325
101325
101325
101325
101325
101325
101325
101325
101325
101325
101325
101325
101325
101325
101325
101325
101325
101325
101325
101325
101325
101325
101325
101325
101325
101325
101325
101325
101325
101325
101325
101325
101325
101325
101325
101325
101325
101325
101325
101325
101325
101325
101325
101325
101325
101325
101325
101325
101325
101325
101325
101325
101325
101325
101325
101325
101325
101325
101325
101325
101325
101325
101325
101325
101325
101325
101325
101325
101325
101325
101325
101325
101325
101325
101325
101325
101325
101325
101325
101325
101325
101325
101325
101325
101325
101325
101325
101325
101325
101325
101325
101325
101325
101325
101325
101325
101325
101325
101325
101325
101325
101325
101325
101325
101325
101325
101325
101325
101325
101325
101325
101325
101325
101325
101325
101325
101325
101325
101325
101325
101325
101325
101325
101325
101325
101325
101325
101325
101325
101325
101325
101325
101325
101325
101325
101325
101325
101325
101325
101325
101325
101325
101325
101325
101325
101325
101325
101325
101325
101325
101325
101325
101325
101325
101325
101325
101325
101325
101325
101325
101325
101325
101325
101325
101325
101325
101325
101325
101325
101325
101325
101325
101325
101325
101325
101325
101325
101325
101325
101325
101325
101325
101325
101325
101325
101325
101325
101325
101325
101324.999
101324.999
101324.999
101324.999
101324.999
101324.999
101324.999
101324.999
101324.999
101324.999
101324.999
101324.999
101324.998
101324.998
101324.998
101324.998
101324.998
101324.998
101324.997
101324.997
101324.997
101324.997
101324.996
101324.996
101324.996
101324.995
101324.995
101324.994
101324.994
101324.993
101324.993
101324.992
101324.992
101324.991
101324.99
101324.989
101324.988
101324.987
101324.986
101324.985
101324.984
101324.982
101324.981
101324.979
101324.978
101324.976
101324.974
101324.972
101324.969
101324.967
101324.964
101324.961
101324.958
101324.955
101324.951
101324.947
101324.943
101324.938
101324.934
101324.928
101324.923
101324.917
101324.91
101324.903
101324.896
101324.888
101324.879
101324.87
101324.86
101324.85
101324.838
101324.826
101324.814
101324.8
101324.785
101324.769
101324.752
101324.735
101324.715
101324.695
101324.673
101324.65
101324.625
101324.599
101324.571
101324.541
101324.509
101324.475
101324.439
101324.401
101324.36
101324.317
101324.272
101324.223
101324.172
101324.117
101324.06
101323.999
101323.934
101323.866
101323.794
101323.717
101323.637
101323.551
101323.462
101323.367
101323.267
101323.162
101323.051
101322.935
101322.812
101322.683
101322.548
101322.405
101322.256
101322.1
101321.935
101321.763
101321.583
101321.394
101321.197
101320.991
101320.776
101320.551
101320.316
101320.071
101319.816
101319.55
101319.274
101318.986
101318.687
101318.377
101318.055
101317.72
101317.374
101317.015
101316.644
101316.259
101315.862
101315.453
101315.03
101314.593
101314.144
101313.681
101313.206
101312.717
101312.215
101311.7
101311.172
101310.631
101310.078
101309.513
101308.935
101308.346
101307.746
101307.135
101306.513
101305.881
101305.24
101304.59
101303.932
101303.266
101302.593
101301.915
101301.23
101300.542
101299.85
101299.155
101298.459
101297.762
101297.065
101296.37
101295.677
101294.988
101294.304
101293.626
101292.955
101292.292
101291.64
101290.998
101290.368
101289.752
101289.151
101288.565
101287.996
101287.446
101286.915
101286.405
101285.916
101285.451
101285.009
101284.591
101284.2
101283.834
101283.497
101283.187
101282.905
101282.653
101282.431
101282.239
101282.077
101281.946
101281.846
101281.777
101281.738
101281.731
101281.754
101281.807
101281.89
101282.002
101282.143
101282.312
101282.508
101282.732
101282.98
101283.254
101283.551
101283.871
101284.213
101284.575
101284.956
101285.355
101285.771
101286.202
101286.647
101287.105
101287.575
101288.054
101288.543
101289.038
101289.541
101290.048
101290.559
101291.072
101291.587
101292.102
101292.616
101293.129
101293.638
101294.144
101294.645
101295.14
101295.629
101296.111
101296.585
101297.05
101297.505
101297.951
101298.386
101298.81
101299.222
101299.622
101300.009
101300.383
101300.743
101301.089
101301.421
101301.737
101302.038
101302.323
101302.593
101302.846
101303.082
101303.301
101303.503
101303.688
101303.856
101304.005
101304.138
101304.253
101304.35
101304.43
101304.493
101304.539
101304.57
101304.584
101304.584
101304.569
101304.542
101304.501
101304.45
101304.389
101304.319
101304.242
101304.159
101304.073
101303.985
101303.897
101303.81
101303.728
101303.652
101303.584
101303.526
101303.481
101303.451
101303.437
101303.442
101303.468
101303.515
101303.587
101303.684
101303.807
101303.957
101304.134
101304.339
101304.571
101304.83
101305.114
101305.421
101305.75
101306.097
101306.459
101306.832
101307.211
101307.59
101307.965
101308.328
101308.673
101308.993
101309.279
101309.525
101309.723
101309.868
101309.953
101309.976
101309.936
101309.835
101309.68
101309.481
101309.256
101309.023
101308.793
101308.592
101308.746
101308.918
101308.724
101307.153
101307.32
101307.572
101308.066
101308.232
101308.44
101308.585
101308.736
101308.879
101309.024
101309.164
101309.296
101309.416
101309.519
101309.603
101309.665
101309.704
101309.72
101309.712
101309.68
101309.626
101309.549
101309.453
101309.338
101309.206
101309.059
101308.898
101308.725
101308.542
101308.35
101308.152
101307.948
101307.739
101307.528
101307.315
101307.101
101306.888
101306.676
101306.466
101306.259
101306.055
101305.856
101305.662
101305.473
101305.289
101305.112
101304.941
101304.777
101304.62
101304.47
101304.327
101304.192
101304.065
101303.945
101303.833
101303.728
101303.631
101303.542
101303.46
101303.386
101303.319
101303.259
101303.205
101303.159
101303.12
101303.086
101303.059
101303.038
101303.023
101303.012
101303.008
101303.008
101303.013
101303.022
101303.035
101303.052
101303.073
101303.097
101303.124
101303.154
101303.186
101303.22
101303.257
101303.295
101303.334
101303.374
101303.416
101303.457
101303.5
101303.542
101303.584
101303.626
101303.667
101303.707
101303.747
101303.785
101303.822
101303.857
101303.89
101303.922
101303.951
101303.978
101304.003
101304.025
101304.045
101304.062
101304.075
101304.086
101304.094
101304.098
101304.099
101304.097
101304.091
101304.082
101304.069
101304.053
101304.033
101304.009
101303.981
101303.949
101303.914
101303.875
101303.832
101303.785
101303.734
101303.679
101303.62
101303.557
101303.49
101303.42
101303.345
101303.267
101303.184
101303.098
101303.008
101302.914
101302.816
101302.715
101302.609
101302.5
101302.387
101302.27
101302.15
101302.026
101301.898
101301.766
101301.631
101301.493
101301.35
101301.205
101301.055
101300.903
101300.746
101300.587
101300.423
101300.257
101300.087
101299.914
101299.737
101299.557
101299.374
101299.188
101298.998
101298.806
101298.61
101298.411
101298.209
101298.003
101297.795
101297.584
101297.37
101297.153
101296.933
101296.711
101296.485
101296.257
101296.026
101295.793
101295.556
101295.317
101295.076
101294.833
101294.587
101294.339
101294.09
101293.838
101293.584
101293.328
101293.071
101292.812
101292.551
101292.289
101292.026
101291.761
101291.495
101291.229
101290.961
101290.693
101290.423
101290.154
101289.884
101289.614
101289.344
101289.074
101288.805
101288.535
101288.267
101287.999
101287.732
101287.466
101287.202
101286.939
101286.677
101286.418
101286.16
101285.905
101285.652
101285.401
101285.153
101284.908
101284.667
101284.428
101284.193
101283.962
101283.735
101283.511
101283.292
101283.077
101282.867
101282.662
101282.461
101282.266
101282.076
101281.892
101281.713
101281.54
101281.373
101281.212
101281.057
101280.909
101280.767
101280.632
101280.504
101280.383
101280.269
101280.162
101280.062
101279.97
101279.886
101279.809
101279.74
101279.678
101279.625
101279.579
101279.542
101279.513
101279.492
101279.479
101279.474
101279.478
101279.49
101279.51
101279.539
101279.576
101279.621
101279.675
101279.737
101279.808
101279.886
101279.973
101280.069
101280.172
101280.284
101280.404
101280.532
101280.668
101280.812
101280.963
101281.123
101281.29
101281.464
101281.646
101281.836
101282.033
101282.237
101282.448
101282.666
101282.89
101283.122
101283.36
101283.604
101283.855
101284.111
101284.374
101284.643
101284.917
101285.197
101285.482
101285.772
101286.068
101286.368
101286.673
101286.983
101287.297
101287.615
101287.937
101288.263
101288.593
101288.927
101289.264
101289.604
101289.947
101290.293
101290.642
101290.993
101291.347
101291.703
101292.061
101292.421
101292.782
101293.145
101293.51
101293.876
101294.242
101294.61
101294.979
101295.348
101295.717
101296.087
101296.457
101296.827
101297.197
101297.567
101297.936
101298.305
101298.673
101299.04
101299.407
101299.772
101300.137
101300.5
101300.861
101301.221
101301.58
101301.937
101302.292
101302.645
101302.996
101303.345
101303.692
101304.037
101304.379
101304.719
101305.056
101305.391
101305.723
101306.052
101306.379
101306.703
101307.024
101307.342
101307.657
101307.968
101308.277
101308.583
101308.885
101309.184
101309.48
101309.773
101310.062
101310.348
101310.63
101310.909
101311.185
101311.457
101311.726
101311.991
101312.253
101312.511
101312.766
101313.017
101313.264
101313.508
101313.749
101313.986
101314.22
101314.45
101314.676
101314.899
101315.119
101315.335
101315.547
101315.757
101315.962
101316.165
101316.364
101316.559
101316.751
101316.94
101317.126
101317.308
101317.487
101317.663
101317.835
101318.005
101318.171
101318.334
101318.494
101318.651
101318.805
101318.957
101319.105
101319.25
101319.392
101319.531
101319.668
101319.802
101319.933
101320.061
101320.187
101320.31
101320.43
101320.548
101320.664
101320.776
101320.887
101320.995
101321.1
101321.204
101321.305
101321.403
101321.5
101321.594
101321.686
101321.776
101321.864
101321.95
101322.033
101322.115
101322.195
101322.273
101322.349
101322.423
101322.496
101322.566
101322.635
101322.703
101322.768
101322.832
101322.894
101322.955
101323.014
101323.072
101323.128
101323.183
101323.236
101323.288
101323.339
101323.388
101323.436
101323.483
101323.528
101323.572
101323.615
101323.657
101323.698
101323.738
101323.776
101323.814
101323.85
101323.886
101323.92
101323.954
101323.986
101324.018
101324.048
101324.078
101324.107
101324.136
101324.163
101324.189
101324.215
101324.24
101324.265
101324.288
101324.311
101324.333
101324.355
101324.376
101324.396
101324.416
101324.435
101324.454
101324.472
101324.489
101324.506
101324.523
101324.539
101324.554
101324.569
101324.584
101324.6
101324.616
101324.632
101324.649
101324.667
101324.684
101324.702
101324.72
101324.739
101324.757
101324.776
101324.794
101324.812
101324.83
101324.847
101324.863
101324.879
101324.894
101324.908
101324.922
101324.934
101324.945
101324.955
101324.963
101324.971
101324.977
101324.983
101324.987
101324.991
101324.993
101324.996
101324.997
101324.998
101324.999
101324.999
101325
101325
101325
101325
101325
101325
101325
101325
101325
101325
101325
101325
101325
101325
101325
101325
101325
101325
101325
101325
101325
101325
101325
101325
101325
101325
101325
101325
101325
101325
101325
101325
101325
101325
101325
101325
101325
101325
101325
101325
101325
)
;

boundaryField
{
    closed
    {
        type            zeroGradient;
    }
    open
    {
        type            waveTransmissive;
        gamma           1.25;
        fieldInf        101325;
        lInf            1;
        value           uniform 101325;
    }
    sides
    {
        type            empty;
    }
}


// ************************************************************************* //
