/*--------------------------------*- C++ -*----------------------------------*\
| =========                 |                                                 |
| \\      /  F ield         | OpenFOAM: The Open Source CFD Toolbox           |
|  \\    /   O peration     | Version:  2206                                  |
|   \\  /    A nd           | Website:  www.openfoam.com                      |
|    \\/     M anipulation  |                                                 |
\*---------------------------------------------------------------------------*/
FoamFile
{
    version     2.0;
    format      ascii;
    arch        "LSB;label=32;scalar=64";
    class       surfaceScalarField;
    location    "5e-06";
    object      phi;
}
// * * * * * * * * * * * * * * * * * * * * * * * * * * * * * * * * * * * * * //

dimensions      [1 0 -1 0 0 0 0];

oriented        oriented;

internalField   nonuniform List<scalar> 
3182
(
1.6289382e-18
-1.38708719e-18
3.35360154e-19
-6.90118875e-19
-2.22457237e-22
-3.74500365e-24
-2.73013703e-25
-5.70255494e-30
9.36948331e-29
2.10088492e-24
2.86455111e-23
3.9066821e-21
2.7939819e-18
-1.1055201e-18
-1.78263386e-18
5.41675823e-20
1.79751709e-18
-2.13968161e-18
-3.42834405e-18
4.21043307e-18
8.86647031e-21
1.13745955e-22
2.44875586e-23
1.76963917e-22
7.60418801e-19
1.84507144e-18
3.41996821e-18
-8.43325761e-19
-2.16748847e-18
-2.38476663e-18
-1.66945141e-18
3.71135154e-19
-7.04451017e-19
-1.34633796e-18
3.24415588e-19
4.82058377e-19
-4.87661135e-19
-6.45843218e-19
2.12877001e-19
-3.94152525e-19
-2.4921789e-18
-2.5812032e-18
-8.69128265e-19
4.33222601e-19
6.54894265e-19
2.05301381e-18
1.2992882e-18
3.21957426e-19
-1.0739184e-19
-5.41169137e-19
-4.01844938e-21
-4.19554198e-19
-8.6612778e-19
-4.35627962e-19
-8.66786238e-19
-6.43286118e-19
3.3523719e-21
4.32608773e-19
-3.03611489e-22
1.30234459e-18
1.52478923e-18
1.95595708e-18
2.81622421e-18
3.04132444e-18
2.63117044e-18
3.05390546e-18
3.69862336e-18
3.89831933e-18
4.35566753e-18
4.31965753e-18
4.32854263e-18
3.07953434e-18
4.77512519e-18
4.77175146e-18
4.7881405e-18
4.36494104e-18
5.20449674e-18
6.1108171e-18
6.5952202e-18
6.21671318e-18
6.16158429e-18
6.88836344e-18
7.69424104e-18
5.97241939e-18
7.53760858e-18
7.67472489e-18
7.92132186e-18
7.76751737e-18
7.72686117e-18
6.75380987e-18
7.7922495e-18
4.53428309e-18
4.69085042e-18
6.57257134e-18
6.30792471e-18
7.23559987e-18
1.08478386e-17
1.23170793e-17
1.27363844e-17
1.22206459e-17
9.16710752e-18
9.76480664e-18
8.5588579e-18
1.06760167e-17
1.04961289e-17
1.13334059e-17
1.18405998e-17
1.15650297e-17
1.51532983e-17
1.70227394e-17
1.6276715e-17
1.69246879e-17
1.64612371e-17
1.73829188e-17
1.54285487e-17
1.55157897e-17
1.57213816e-17
1.55021174e-17
1.46433374e-17
1.28206228e-17
1.33116047e-17
1.10103036e-17
1.35982557e-17
1.29815078e-17
1.01528267e-17
1.29441071e-17
1.09970191e-17
1.0223266e-17
9.21668115e-18
1.01914403e-17
9.86879824e-18
7.92757251e-18
8.48325487e-18
8.0622192e-18
1.00917082e-17
9.39256858e-18
9.45575789e-18
9.16630124e-18
6.68687575e-18
5.73084779e-18
7.76537946e-18
6.54930949e-18
4.46723452e-18
5.47556406e-18
5.15264588e-18
6.09570601e-18
5.34432933e-18
6.35519807e-18
7.41942282e-18
7.67980125e-18
6.97763933e-18
9.39882826e-18
9.64047891e-18
7.88716665e-18
9.26511782e-18
7.8989527e-18
4.52670233e-18
5.98976903e-18
1.51461239e-18
2.45900338e-18
3.60110231e-18
2.80197329e-18
4.62656746e-19
2.49655167e-18
1.36960542e-18
5.89492428e-18
2.05596885e-18
5.27748289e-18
-2.31804412e-19
-1.59479941e-18
-3.64750448e-19
5.96535924e-19
1.00620772e-18
-7.14612905e-19
-1.99601438e-18
-1.75840384e-18
-4.42003876e-19
-3.71379119e-18
-2.99478783e-18
-6.90007501e-18
-5.62840763e-18
-4.32241654e-18
-5.52785852e-19
-1.39005368e-18
-4.38447457e-18
-5.92714988e-18
-5.05644383e-18
-6.44183435e-18
-6.48971024e-18
-6.07591499e-18
-3.53890072e-18
-9.81643048e-18
-9.61039019e-18
-1.16090529e-17
-1.02232269e-17
-1.00432572e-17
-9.13906368e-18
-1.19919474e-17
-1.09395434e-17
-1.40177657e-17
-1.23445822e-17
-1.13432202e-17
-9.43234675e-18
-1.01236832e-17
-1.08453372e-17
-1.09263121e-17
-1.00311998e-17
-8.42802622e-18
-7.36881373e-18
-8.483317e-18
-8.56527797e-18
-9.51927289e-18
-1.07658367e-17
-1.2624478e-17
-1.18453831e-17
-1.73018736e-17
-1.79168311e-17
-2.28185386e-17
-2.1095051e-17
-1.82634099e-17
-1.88846965e-17
-1.84652761e-17
-1.72254578e-17
-1.72142155e-17
-1.98333923e-17
-1.93303369e-17
-1.96244147e-17
-2.0614145e-17
-2.31989751e-17
-2.11411787e-17
-2.09110657e-17
-2.12335266e-17
-2.33513697e-17
-2.07183217e-17
-2.4532926e-17
-2.27684979e-17
-2.58187906e-17
-2.25294219e-17
-2.39623795e-17
-2.69134491e-17
-2.6678204e-17
-2.64150065e-17
-2.67690869e-17
-2.60959486e-17
-3.04287332e-17
-2.84535319e-17
-2.88927809e-17
-2.90560309e-17
-2.72579442e-17
-2.55637774e-17
-3.0134562e-17
-2.64319843e-17
-2.68539699e-17
-2.81652679e-17
-2.83218038e-17
-2.68187542e-17
-2.3616362e-17
-2.35507668e-17
-2.57036962e-17
-2.4620007e-17
-2.44158763e-17
-2.90455423e-17
-2.6891796e-17
-2.8406461e-17
-2.78987038e-17
-2.97155326e-17
-2.80745363e-17
-2.95886704e-17
-3.01199379e-17
-2.67874812e-17
-2.66896091e-17
-2.76094771e-17
-2.89644818e-17
-2.77978836e-17
-3.17888712e-17
-3.23971627e-17
-3.38124416e-17
-3.49414347e-17
-3.67452607e-17
-3.38483623e-17
-3.52621649e-17
-3.67511293e-17
-3.86265667e-17
-4.18426038e-17
-4.27966908e-17
-4.42879136e-17
-4.58643411e-17
-4.38134119e-17
-4.30906246e-17
-4.31142943e-17
-4.15291282e-17
-4.30328362e-17
-4.37809173e-17
-4.51390105e-17
-4.582225e-17
-4.46815138e-17
-4.74496958e-17
-4.77772794e-17
-5.00166259e-17
-5.28074242e-17
-5.30383013e-17
-4.97631273e-17
-4.85025918e-17
-4.76954385e-17
-4.6201189e-17
-4.75357949e-17
-4.52755715e-17
-4.62228319e-17
-4.82705396e-17
-4.66377038e-17
-4.75501826e-17
-5.21047916e-17
-5.22193281e-17
-5.21909674e-17
-5.41158945e-17
-5.40184127e-17
-5.50948034e-17
-5.76005104e-17
-5.518799e-17
-5.45817315e-17
-5.45269286e-17
-5.57247922e-17
-5.46411828e-17
-5.11310009e-17
-5.41457918e-17
-5.09019277e-17
-5.17337216e-17
-5.09089277e-17
-5.10487771e-17
-4.98237009e-17
-4.59120405e-17
-4.22163082e-17
-4.41479459e-17
-4.58135895e-17
-4.40869829e-17
-4.59622162e-17
-4.59056005e-17
-4.77350886e-17
-4.74856043e-17
-4.54533842e-17
-4.52849304e-17
-4.77325609e-17
-4.75536589e-17
-4.94678072e-17
-4.98898463e-17
-4.85311432e-17
-5.03089315e-17
-4.76681556e-17
-4.69574194e-17
-4.82437422e-17
-4.76122439e-17
-5.05816687e-17
-4.74541257e-17
-4.77678759e-17
-4.73189554e-17
-4.75700999e-17
-4.66550032e-17
-4.76757332e-17
-4.61177176e-17
-4.41686542e-17
-4.08047157e-17
-4.15552292e-17
-4.58234369e-17
-4.47783866e-17
-4.79074928e-17
-4.65319582e-17
-4.45941157e-17
-4.28998653e-17
-4.57975134e-17
-4.46748721e-17
-4.30843326e-17
-3.99941201e-17
-3.8604824e-17
-3.95820367e-17
-3.63319033e-17
-3.77109134e-17
-3.75721203e-17
-3.68808654e-17
-3.37682721e-17
-3.46066476e-17
-3.18170371e-17
-3.23245077e-17
-3.04553894e-17
-3.10538382e-17
-3.28979201e-17
-3.30610485e-17
-3.5792411e-17
-3.52387298e-17
-3.27326187e-17
-2.95466182e-17
-2.87680667e-17
-2.68041812e-17
-2.5255162e-17
-2.63126668e-17
-2.65720952e-17
-2.61142072e-17
-2.92826741e-17
-2.30348473e-17
-2.53969983e-17
-2.47041634e-17
-2.84889819e-17
-2.61865265e-17
-2.41354739e-17
-2.52494606e-17
-2.51583004e-17
-2.08867926e-17
-2.62786059e-17
-2.1039553e-17
-2.13538148e-17
-2.13824851e-17
-1.93975307e-17
-2.08826211e-17
-2.05695018e-17
-1.93531462e-17
-2.4430957e-17
-2.08378222e-17
-1.88234401e-17
-1.51894415e-17
-1.97457394e-17
-1.86158364e-17
-1.86237311e-17
-1.7310712e-17
-2.15412893e-17
-1.96652156e-17
-2.03450747e-17
-2.54521156e-17
-2.31519108e-17
-2.27641823e-17
-2.52343927e-17
-2.48138794e-17
-2.38403316e-17
-2.40414243e-17
-2.16363357e-17
-2.23278909e-17
-2.14075025e-17
-1.99955284e-17
-1.83245257e-17
-1.97471974e-17
-1.72293874e-17
-1.76923995e-17
-1.44034505e-17
-1.37090371e-17
-1.27752016e-17
-1.13277185e-17
-1.00300502e-17
-1.18049073e-17
-1.19801824e-17
-1.04534983e-17
-1.11644868e-17
-8.00737553e-18
-9.44143231e-18
-7.9436728e-18
-8.71107033e-18
-5.16227642e-18
-6.13119164e-18
-3.95406382e-18
-5.91254871e-18
-7.06793949e-18
-6.23916642e-18
-6.94618595e-18
-3.8634846e-18
-8.60762303e-20
1.1569929e-18
7.19636777e-19
3.31204778e-18
6.15561974e-18
7.73977665e-18
7.63847158e-18
4.34296735e-18
4.64435349e-18
2.97842472e-18
2.20310997e-18
-2.93460713e-19
7.10537968e-19
1.06494168e-18
1.07641991e-18
1.88880892e-19
-1.6665596e-18
4.5220139e-18
8.05662993e-19
1.24533914e-18
2.77916903e-18
6.77498518e-18
7.71968868e-18
1.0741716e-17
6.73348803e-18
9.45080272e-18
6.66953717e-18
6.96677167e-18
2.16382141e-18
3.18063341e-18
1.26233642e-18
1.13017969e-18
-1.57813927e-19
-1.03404564e-18
-5.32326349e-18
-4.4483694e-18
-3.81205692e-18
-4.63718676e-18
-4.27152067e-18
-3.57808271e-18
-2.14453273e-18
-7.41305777e-18
-4.01088041e-18
-1.57602035e-18
1.9379925e-18
1.66884112e-18
-1.07940074e-18
3.23803366e-19
-8.01429646e-19
-2.02713482e-18
-3.41840254e-18
-3.90455994e-18
-4.01370081e-18
-8.86590768e-19
-3.28914228e-19
-9.10013673e-19
1.04192299e-18
1.12716717e-18
-1.33312106e-18
-9.02105271e-19
-1.91702595e-18
-3.25266412e-18
-6.0906184e-18
-5.05051203e-18
-2.19179743e-18
-1.97025932e-18
2.8214543e-18
-1.05796122e-19
2.34162995e-18
4.71383119e-18
4.21174254e-18
3.08757325e-18
5.8236411e-18
5.29923718e-18
6.23845605e-18
5.94057926e-18
3.15117615e-18
2.06926816e-18
1.54677403e-18
3.05197134e-18
3.43328075e-18
3.25197624e-18
9.12798385e-19
1.50898313e-18
2.56102273e-18
2.28946934e-18
6.45257014e-18
5.31435665e-18
7.35382995e-18
7.06722842e-18
8.10627291e-18
6.62572128e-18
5.09870405e-18
8.33125495e-18
7.67755616e-18
6.30370185e-18
6.19810935e-18
8.98203679e-18
5.32541387e-18
6.44860767e-18
6.35024026e-18
9.30214508e-18
9.6683825e-18
9.6475175e-18
8.6393097e-18
7.38927945e-18
9.53725453e-18
1.13699513e-17
1.45032779e-17
1.62846516e-17
1.54577229e-17
1.34583745e-17
1.46188626e-17
1.43103345e-17
1.46381691e-17
1.28359319e-17
1.24323691e-17
1.22561846e-17
1.16896127e-17
1.0914522e-17
1.44875042e-17
1.09362181e-17
1.14279416e-17
1.06748499e-17
1.03520892e-17
1.10877146e-17
1.50055976e-17
1.2874545e-17
1.39443742e-17
1.39978818e-17
1.22854175e-17
1.25879488e-17
1.20394542e-17
1.30386351e-17
1.34553028e-17
1.82664777e-17
2.12572113e-17
1.8740902e-17
1.95159718e-17
1.71461927e-17
1.81676885e-17
1.56835927e-17
1.61902182e-17
1.20104906e-17
1.02306279e-17
1.12988539e-17
1.27404028e-17
1.12402537e-17
1.11288988e-17
1.23594692e-17
1.09813518e-17
1.44170062e-17
1.17895661e-17
1.42968253e-17
1.51214935e-17
1.5613812e-17
1.18105372e-17
1.45112117e-17
1.38161447e-17
1.12719009e-17
1.07657369e-17
6.04869065e-18
9.33023602e-18
8.3585743e-18
4.66693049e-18
9.52867344e-18
7.12725246e-18
1.05317125e-17
7.95902954e-18
8.84970051e-18
1.00925059e-17
8.99562204e-18
7.75442494e-18
6.75274939e-18
7.92178427e-18
2.95940023e-18
1.94513696e-18
4.59968016e-18
3.86083672e-18
6.69778274e-18
6.33705321e-18
5.67953522e-18
6.81815281e-18
8.20331813e-18
8.06311887e-18
6.51729154e-18
1.02730193e-17
1.27132865e-17
1.08554491e-17
1.26653323e-17
1.13576032e-17
9.39906689e-18
9.21086466e-18
1.00479746e-17
1.16104242e-17
9.57306564e-18
9.78835629e-18
1.17550216e-17
1.1337038e-17
1.16176609e-17
8.71357247e-18
7.7501037e-18
8.00586303e-18
1.19830191e-17
1.53030595e-17
1.47568493e-17
1.40649109e-17
1.38729795e-17
1.41759746e-17
1.5105811e-17
1.58412111e-17
1.61458579e-17
1.24778726e-17
1.40232564e-17
1.15162339e-17
1.32842001e-17
1.40167987e-17
1.38124037e-17
1.41591882e-17
1.67236868e-17
1.72034809e-17
1.72935052e-17
2.2087233e-17
1.85761233e-17
1.40038361e-17
1.43369945e-17
1.16570299e-17
1.22648469e-17
1.59370384e-17
1.39264944e-17
1.07782703e-17
1.11670359e-17
1.36804432e-17
1.49411733e-17
1.41156217e-17
1.17093377e-17
1.14829827e-17
1.12273981e-17
1.45228863e-17
1.37024909e-17
1.33113305e-17
1.66492095e-17
1.34631412e-17
1.24800943e-17
1.16701415e-17
1.47117661e-17
1.5268958e-17
1.43940483e-17
1.21205162e-17
1.65143172e-17
1.4511566e-17
1.43679168e-17
1.337548e-17
1.24706212e-17
1.23318624e-17
1.11642482e-17
1.0541187e-17
8.47791132e-18
1.08239014e-17
1.0579589e-17
1.07142462e-17
1.00668091e-17
1.13414165e-17
1.15382007e-17
9.76830293e-18
1.03853534e-17
9.23006083e-18
8.19887185e-18
6.74789544e-18
8.29620019e-18
1.00989898e-17
7.30003964e-18
1.15421446e-17
1.39912383e-17
1.20857064e-17
1.22035591e-17
1.20442237e-17
1.21385293e-17
1.47260874e-17
1.08377555e-17
9.53816093e-18
8.76738596e-18
8.95236888e-18
1.02537967e-17
6.32186664e-18
7.24730915e-18
9.80351226e-18
8.39708537e-18
9.40574734e-18
8.29671506e-18
1.18692898e-17
8.95052854e-18
7.86864488e-18
1.02567086e-17
1.19504057e-17
1.00430376e-17
1.06153731e-17
7.68817332e-18
7.20210238e-18
7.77656138e-18
7.13361118e-18
8.23597996e-18
7.99779241e-18
6.16334899e-18
9.04626924e-18
9.40431412e-18
8.86484744e-18
9.0991029e-18
1.06960101e-17
1.0455744e-17
1.14468099e-17
1.24584925e-17
1.23776133e-17
1.41627496e-17
1.17388543e-17
1.18227697e-17
1.2749157e-17
1.22091945e-17
1.27806048e-17
1.23098021e-17
1.35242698e-17
1.70456588e-17
1.60551672e-17
1.26408576e-17
1.51521637e-17
1.74186815e-17
1.79171791e-17
1.96133658e-17
1.72231823e-17
1.90052757e-17
2.03137422e-17
2.05716851e-17
1.8928683e-17
1.95000701e-17
2.05263131e-17
1.7328995e-17
1.80747047e-17
2.04305277e-17
2.01405478e-17
1.83268745e-17
1.60944621e-17
1.64639885e-17
1.88183096e-17
1.83576638e-17
1.58569611e-17
1.93788384e-17
1.38962321e-17
1.47722988e-17
1.35061028e-17
1.04804828e-17
1.45715024e-17
1.36529958e-17
1.40549897e-17
1.42855353e-17
1.41865067e-17
1.66087463e-17
1.61619183e-17
1.47502933e-17
1.32183992e-17
1.26509214e-17
9.63774657e-18
8.38827643e-18
9.4935261e-18
1.04372655e-17
1.06515914e-17
8.72280609e-18
8.31778072e-18
6.52141507e-18
3.74664965e-18
4.93911082e-18
4.47219394e-18
7.51261776e-19
3.28112375e-18
1.72218923e-18
2.2134076e-18
2.0459879e-18
9.16180407e-19
1.35455877e-18
4.02331641e-18
-1.36645562e-18
2.30448445e-18
5.22174684e-18
2.59555814e-18
4.21899013e-18
3.45563534e-18
3.99048461e-18
2.24934501e-18
5.06138479e-19
1.02147916e-18
8.97947351e-19
6.24338598e-19
6.94693993e-19
2.74100406e-18
1.56385791e-18
1.05523441e-18
-3.9088267e-19
-7.57882714e-19
1.71313436e-18
3.00130129e-18
3.78653343e-18
9.67483332e-19
1.01757999e-18
4.16151247e-19
8.36442304e-19
-6.4458174e-20
2.32086824e-18
1.30826627e-18
3.10634873e-19
-5.73272819e-19
-1.44915722e-18
9.41798467e-21
2.49235091e-18
3.24989253e-19
-5.25890036e-19
3.73170902e-18
3.72802571e-18
2.9074243e-18
5.00356816e-18
6.19842246e-18
6.76767778e-18
8.34869728e-18
9.05281416e-18
7.47159755e-18
5.74718964e-18
4.77220315e-18
3.4772186e-18
4.23444244e-18
4.31651866e-18
4.27192957e-18
7.82232247e-18
1.07110898e-17
1.09372995e-17
1.15887159e-17
1.24669746e-17
1.57672636e-17
1.20394306e-17
1.20417617e-17
9.83233933e-18
9.72899138e-18
8.74336548e-18
1.16561641e-17
1.06998705e-17
1.17528874e-17
1.18357084e-17
1.12002073e-17
1.48018078e-17
1.23265808e-17
1.47760237e-17
1.62810898e-17
1.5145818e-17
1.43092491e-17
1.7615771e-17
1.40493948e-17
1.43042397e-17
1.58056806e-17
1.50889708e-17
1.41908264e-17
1.54016209e-17
1.75792251e-17
1.71378906e-17
1.51206124e-17
1.82925361e-17
2.24381335e-17
2.18017782e-17
2.15146111e-17
1.82641486e-17
1.77217113e-17
1.76138365e-17
1.98202117e-17
1.82016401e-17
2.11898477e-17
2.10288978e-17
1.81592139e-17
1.75157644e-17
1.51761564e-17
1.65632291e-17
1.67096502e-17
1.73210995e-17
1.795359e-17
2.26512513e-17
2.14746722e-17
2.12040569e-17
1.6361459e-17
1.56673182e-17
1.36362947e-17
1.5325711e-17
1.26731735e-17
1.51316065e-17
1.75572849e-17
1.99257184e-17
1.86591381e-17
1.66549576e-17
1.9754843e-17
1.87188949e-17
2.14222031e-17
1.99745015e-17
2.1786485e-17
1.91196878e-17
1.82170158e-17
1.97555042e-17
2.19624953e-17
2.31304522e-17
2.27730638e-17
2.15246405e-17
2.11850125e-17
2.38189482e-17
2.48519292e-17
2.72766143e-17
2.86650365e-17
2.93973873e-17
3.28000446e-17
3.31347029e-17
2.95239263e-17
2.86059511e-17
3.14675794e-17
2.79715797e-17
2.935407e-17
2.74863686e-17
3.00699992e-17
3.02591494e-17
2.87915543e-17
3.11231028e-17
3.148635e-17
2.87201221e-17
2.79422032e-17
2.84844661e-17
3.12613517e-17
3.1181225e-17
2.89415067e-17
3.08902946e-17
2.99613735e-17
3.19283869e-17
3.03881281e-17
2.87010896e-17
3.24156092e-17
3.01517909e-17
3.24832427e-17
3.06903904e-17
3.11842122e-17
3.25547527e-17
3.20543126e-17
3.30046473e-17
3.51246801e-17
3.461718e-17
3.46578745e-17
3.79628818e-17
3.3441333e-17
3.17542104e-17
3.01679287e-17
3.44116916e-17
3.16012268e-17
2.80865419e-17
3.09844706e-17
3.06470316e-17
2.6959014e-17
2.94979561e-17
2.55866078e-17
2.38906112e-17
2.3000143e-17
2.60402495e-17
2.36046097e-17
2.07026671e-17
2.19923435e-17
2.4960758e-17
2.22684837e-17
2.17630002e-17
2.15425627e-17
2.08173122e-17
2.15794903e-17
1.82606396e-17
1.81572528e-17
2.00325033e-17
1.91846418e-17
1.78646773e-17
1.67336013e-17
1.77331324e-17
1.66845842e-17
1.24257999e-17
1.22673755e-17
1.52390374e-17
1.30190371e-17
1.27995721e-17
1.41168008e-17
1.59115548e-17
1.46597442e-17
1.33287944e-17
1.22692442e-17
9.95138493e-18
1.38548583e-17
1.10642493e-17
1.05929796e-17
9.99754361e-18
1.23047175e-17
7.94065447e-18
1.33360479e-17
1.39611174e-17
1.08704826e-17
1.21394868e-17
1.15835274e-17
1.42570867e-17
1.48395614e-17
1.42405844e-17
1.62200886e-17
1.55297503e-17
1.17041622e-17
1.02568375e-17
1.1152973e-17
1.40522637e-17
1.3745608e-17
1.44894862e-17
1.39589797e-17
1.50363743e-17
1.32301477e-17
1.80220744e-17
1.77492988e-17
1.75959862e-17
1.70528279e-17
1.49832507e-17
1.68878402e-17
1.72578814e-17
1.80902572e-17
2.20703374e-17
2.28995727e-17
2.41127256e-17
2.52101376e-17
2.26472032e-17
1.87251575e-17
1.70276539e-17
1.7140346e-17
1.51532878e-17
1.66337838e-17
1.82107048e-17
1.39992832e-17
1.60293288e-17
1.66980849e-17
1.73093351e-17
1.56772713e-17
1.49724287e-17
1.10877124e-17
1.0586575e-17
1.06644804e-17
7.75222027e-18
7.57208503e-18
3.37492938e-18
6.01579534e-18
4.08690384e-18
2.21430872e-18
2.46846508e-18
1.37974372e-18
1.21606811e-18
1.19325382e-18
1.25259113e-18
-2.54804546e-18
-4.91810076e-18
-4.8674466e-18
-7.7884473e-18
-7.39311956e-18
-1.07234306e-17
-8.60810917e-18
-7.16050202e-18
-4.24005821e-18
-7.60957284e-18
-8.58971372e-18
-1.20527521e-17
-1.38772464e-17
-1.69526943e-17
-1.88000181e-17
-2.154336e-17
-1.96395993e-17
-2.15784577e-17
-2.20529806e-17
-2.39461565e-17
-2.33434355e-17
-2.40774764e-17
-2.38969842e-17
-2.31928741e-17
-2.46055362e-17
-2.53734584e-17
-2.60323388e-17
-2.44889679e-17
-2.83107303e-17
-2.48220314e-17
-2.36861255e-17
-2.6700866e-17
-2.59570681e-17
-2.38970241e-17
-2.50105321e-17
-2.29088214e-17
-1.97619307e-17
-2.24631746e-17
-2.00924914e-17
-2.02267114e-17
-2.23905542e-17
-2.40721041e-17
-2.49859701e-17
-2.33825746e-17
-2.54443929e-17
-2.46831435e-17
-2.61609463e-17
-2.43917715e-17
-2.53099569e-17
-2.46818779e-17
-2.59194746e-17
-2.39797372e-17
-2.51050298e-17
-1.91979181e-17
-2.09354131e-17
-1.82586217e-17
-1.79643446e-17
-2.15411808e-17
-2.51039363e-17
-2.50930909e-17
-2.4653388e-17
-2.72475104e-17
-2.57039631e-17
-2.52467432e-17
-2.72260254e-17
-2.50427317e-17
-2.44813176e-17
-2.49651673e-17
-2.35553264e-17
-2.28311303e-17
-2.21830621e-17
-2.40060941e-17
-2.61484265e-17
-2.57110866e-17
-2.88854315e-17
-3.19598258e-17
-2.79676291e-17
-2.83020121e-17
-3.07255192e-17
-3.24396857e-17
-3.07798382e-17
-3.16408051e-17
-3.15142518e-17
-3.31362661e-17
-3.28440443e-17
-3.09787748e-17
-3.15730847e-17
-3.01794157e-17
-3.35446219e-17
-3.54925219e-17
-3.52735727e-17
-3.15983258e-17
-3.12609339e-17
-3.00814648e-17
-2.90149123e-17
-3.1466981e-17
-2.96850403e-17
-2.98173852e-17
-3.03208909e-17
-2.88228744e-17
-2.77659992e-17
-2.57630841e-17
-2.5800789e-17
-3.14007349e-17
-2.8013531e-17
-2.88321615e-17
-2.80483083e-17
-2.82940785e-17
-2.58289146e-17
-2.52189626e-17
-2.75285275e-17
-2.93954627e-17
-2.66934429e-17
-2.53531727e-17
-2.23577213e-17
-2.39057277e-17
-1.84845226e-17
-2.10466937e-17
-2.23878321e-17
-2.40282448e-17
-2.7303407e-17
-2.72401927e-17
-2.72449582e-17
-2.72410967e-17
-2.6916957e-17
-3.01641701e-17
-2.85458564e-17
-2.85081673e-17
-3.09895621e-17
-2.7683735e-17
-2.78235175e-17
-2.80215642e-17
-2.8551224e-17
-3.07660773e-17
-2.87497951e-17
-2.54991566e-17
-2.60674578e-17
-2.45310089e-17
-2.36208124e-17
-2.34875505e-17
-2.38422155e-17
-1.91519042e-17
-1.88898825e-17
-1.84247976e-17
-1.9924568e-17
-1.78316935e-17
-1.99220481e-17
-1.85917251e-17
-1.72973605e-17
-2.00845093e-17
-2.24051626e-17
-1.98609545e-17
-1.85051737e-17
-1.75771001e-17
-1.98865198e-17
-1.69960788e-17
-1.65131582e-17
-1.81756793e-17
-1.65414011e-17
-1.58648964e-17
-1.82425726e-17
-1.99374422e-17
-2.07093942e-17
-1.93677691e-17
-1.81325497e-17
-1.97660606e-17
-1.83573691e-17
-2.05063262e-17
-1.72566002e-17
-1.89606298e-17
-1.65422621e-17
-1.46399394e-17
-1.26794168e-17
-1.30015848e-17
-1.24668981e-17
-1.60321847e-17
-1.95482443e-17
-1.73152637e-17
-1.62005907e-17
-1.43577709e-17
-1.3557556e-17
-1.25765464e-17
-1.20424447e-17
-1.22485034e-17
-1.07203496e-17
-1.37622235e-17
-1.43241249e-17
-1.63949349e-17
-1.59013839e-17
-1.61942177e-17
-1.39848844e-17
-1.27210155e-17
-1.24070412e-17
-8.72658126e-18
-8.14705522e-18
-7.2860245e-18
-9.5329464e-18
-8.95872569e-18
-5.78590116e-18
-9.10346519e-18
-9.75332784e-18
-1.05959362e-17
-1.08852943e-17
-1.28206964e-17
-1.11183305e-17
-1.13626347e-17
-1.34665032e-17
-1.13783657e-17
-1.16819302e-17
-8.26357496e-18
-1.20463011e-17
-1.14107586e-17
-1.21139226e-17
-1.16972013e-17
-1.02199213e-17
-1.10356528e-17
-9.76502483e-18
-8.85795869e-18
-9.39224998e-18
-8.96530764e-18
-8.79295549e-18
-6.27877695e-18
-9.72968107e-18
-7.78263553e-18
-5.68331093e-18
-6.18897329e-18
-2.76217875e-18
-1.32771809e-18
-1.09813981e-18
-1.73872432e-18
-1.26264953e-18
-1.47926416e-18
-2.21730811e-18
-4.26499136e-19
1.12504188e-18
8.87634537e-19
3.79921168e-19
3.71571531e-18
2.5980119e-18
7.74175646e-19
-4.01995141e-21
2.24812478e-18
5.50099179e-19
-5.50749836e-19
1.77126315e-18
-1.18305369e-18
3.3243257e-19
9.44326445e-19
2.47469877e-18
3.43176519e-18
3.4393491e-18
3.36226753e-18
3.09438196e-18
3.01295813e-18
5.83254664e-18
5.78630124e-18
2.8253304e-18
4.70517783e-18
8.84651992e-18
4.85029194e-18
7.66245292e-18
7.84253775e-18
5.14905874e-18
3.76455249e-18
7.65018081e-18
9.10065032e-18
8.61673324e-18
9.59391831e-18
1.42963478e-17
1.05428385e-17
6.71923448e-18
4.35555755e-18
3.70865682e-18
3.69746846e-19
8.53704932e-19
-6.03014754e-19
-1.32439103e-19
-2.34337472e-18
-3.44649685e-18
-3.24375664e-19
1.75921e-18
8.05416507e-19
5.72681379e-19
-1.69831874e-18
-8.53935588e-20
2.17274946e-18
1.35894125e-18
-7.74559192e-19
-3.20046738e-18
-3.38430209e-18
-5.07033912e-18
-8.30236495e-18
-9.43729101e-18
-6.89843034e-18
-8.06749507e-18
-7.35094817e-18
-5.26796724e-18
-3.68942283e-18
-6.62521008e-18
-4.25598454e-18
-3.31190729e-18
-1.9546414e-18
-1.00270029e-18
-1.47023291e-18
-3.35827642e-18
-4.10709881e-18
-2.37706707e-18
-2.68382916e-18
-3.911156e-18
-5.7902624e-18
-2.54880048e-18
-4.79761836e-18
-2.25335388e-18
-3.85505486e-18
-3.40512515e-18
-6.59246691e-18
-7.31854225e-18
-6.46560118e-18
-6.75256484e-18
-4.49662714e-18
-4.90438859e-18
-9.62859957e-18
-7.57757551e-18
-8.78437956e-18
-7.29887738e-18
-9.52797991e-18
-7.93137e-18
-1.24752878e-17
-1.08053836e-17
-1.12417553e-17
-1.12447636e-17
-9.41098274e-18
-1.23373229e-17
-1.16024643e-17
-1.23969306e-17
-9.69439317e-18
-1.1265273e-17
-1.28933943e-17
-1.43638972e-17
-1.62461132e-17
-1.42394418e-17
-1.04786826e-17
-1.03729054e-17
-1.02866617e-17
-9.8380946e-18
-8.1963908e-18
-7.66792141e-18
-9.72003382e-18
-1.02215512e-17
-1.25079858e-17
-1.03732084e-17
-1.01321099e-17
-9.25014114e-18
-8.75601067e-18
-6.73185422e-18
-1.0429832e-17
-1.247225e-17
-8.52327364e-18
-1.21235716e-17
-1.24242985e-17
-9.47471388e-18
-1.22507185e-17
-1.3436121e-17
-7.01756968e-18
-9.89688134e-18
-1.27297139e-17
-1.30187153e-17
-1.31770227e-17
-1.11766071e-17
-1.48219555e-17
-1.4153855e-17
-1.23311624e-17
-1.77005164e-17
-1.92672978e-17
-1.85466647e-17
-1.64590199e-17
-1.85128471e-17
-1.84638286e-17
-1.66474368e-17
-1.74470986e-17
-1.86068072e-17
-2.06365677e-17
-2.14846081e-17
-2.12544497e-17
-1.96723968e-17
-2.16655877e-17
-2.0840572e-17
-2.34977927e-17
-2.5292396e-17
-2.62153831e-17
-2.54085069e-17
-2.45603205e-17
-2.41533801e-17
-2.430245e-17
-2.26310191e-17
-2.22672697e-17
-2.60459709e-17
-2.52422133e-17
-2.43850194e-17
-2.13827593e-17
-2.11822778e-17
-1.93607598e-17
-1.80849754e-17
-1.89702699e-17
-2.60741328e-17
-2.33486634e-17
-2.16313902e-17
-2.23529658e-17
-2.43567266e-17
-2.48827304e-17
-2.56581287e-17
-2.20696446e-17
-2.49048543e-17
-2.7270126e-17
-2.44335448e-17
-2.92963483e-17
-2.6753082e-17
-2.62469654e-17
-2.72000528e-17
-2.55350634e-17
-2.08489851e-17
-2.14674266e-17
-1.96420055e-17
-1.71612621e-17
-1.79989057e-17
-1.79911986e-17
-1.75139634e-17
-1.95752842e-17
-1.86220378e-17
-1.91224844e-17
-1.80946899e-17
-1.6712797e-17
-1.76926286e-17
-1.53673306e-17
-1.54137669e-17
-1.24996898e-17
-1.19823196e-17
-1.27296152e-17
-1.4515972e-17
-1.54435686e-17
-1.31047511e-17
-1.61973613e-17
-1.82894453e-17
-1.91130854e-17
-1.44879419e-17
-1.65829784e-17
-1.6337395e-17
-1.83560995e-17
-1.49006778e-17
-1.26968807e-17
-1.56805773e-17
-1.54066637e-17
-1.82400586e-17
-1.7791773e-17
-1.88600347e-17
-2.07771174e-17
-2.04194675e-17
-1.83415671e-17
-2.01539134e-17
-2.03393617e-17
-2.12340963e-17
-1.92995057e-17
-1.77582761e-17
-1.8737726e-17
-2.03051704e-17
-1.8415291e-17
-1.21523212e-17
-1.694105e-17
-1.28456765e-17
-1.2663132e-17
-1.13172093e-17
-1.17351907e-17
-1.26081507e-17
-1.28393899e-17
-1.35834828e-17
-8.04493589e-18
-9.21119858e-18
-1.18754852e-17
-7.45213604e-18
-9.1616135e-18
-1.2394654e-17
-1.22173177e-17
-9.70081253e-18
-9.49311513e-18
-8.55041599e-18
-7.82430042e-18
-1.0773806e-17
-1.04098634e-17
-1.31763017e-17
-1.26422608e-17
-1.10072503e-17
-1.08608698e-17
-7.94273627e-18
-1.00910011e-17
-1.0815406e-17
-1.24829378e-17
-1.44462469e-17
-1.69581404e-17
-1.03922433e-17
-1.19437795e-17
-1.40859826e-17
-1.60457215e-17
-1.60433078e-17
-1.38933762e-17
-1.63737516e-17
-1.85494231e-17
-1.4993869e-17
-1.73224382e-17
-1.60905534e-17
-1.4758394e-17
-1.54699632e-17
-1.38626513e-17
-1.56789029e-17
-1.39225349e-17
-1.29635534e-17
-1.49467352e-17
-9.84306938e-18
-1.06151024e-17
-9.59027609e-18
-1.37289311e-17
-1.32540043e-17
-1.26085369e-17
-1.15425769e-17
-1.16994422e-17
-1.23019071e-17
-1.2709003e-17
-1.20202511e-17
-1.16720359e-17
-1.01116413e-17
-7.65217387e-18
-6.31894486e-18
-6.28246041e-18
-3.34531942e-18
-2.87646554e-18
-3.74323787e-18
-3.58035086e-18
-5.11138602e-18
-8.20441848e-18
-1.03161406e-17
-8.80491485e-18
-8.96596876e-18
-6.34893035e-18
-2.69305551e-18
-5.18351483e-18
-4.81579038e-18
-5.80609721e-18
-3.32268888e-18
-5.96240839e-18
-3.01562322e-18
-1.23247562e-18
-6.09422114e-19
-2.56764441e-18
-2.46204822e-18
-3.97734237e-18
-1.34460712e-18
2.06778432e-18
8.78241643e-19
-5.65774883e-19
-2.42230984e-18
-2.76312909e-18
-1.96125753e-18
1.2626291e-18
2.53754693e-18
3.60957329e-18
8.46489843e-20
-1.35724023e-18
-8.76909037e-19
-3.24144562e-18
-6.6226101e-18
-4.01165889e-18
-3.44022247e-18
-6.0318107e-18
-3.97910865e-18
-3.88804635e-18
-5.01370463e-18
-2.78720402e-18
-3.28071151e-18
-5.75958178e-18
-5.17261484e-18
-5.67764859e-18
-3.11908011e-18
-9.90363451e-19
-3.91400172e-18
-2.17992052e-18
3.61846424e-19
-3.7825561e-18
-9.07857953e-19
-2.72134955e-19
-7.89286604e-19
3.643387e-18
3.46388708e-18
5.57225556e-18
8.05383079e-18
7.24653934e-18
8.53548622e-18
7.36564304e-18
9.58097284e-18
1.04504236e-17
6.91892968e-18
1.00144534e-17
9.21452106e-18
5.91608555e-18
5.11231766e-18
1.81627054e-18
2.99084451e-18
2.88565367e-18
1.32578105e-18
4.19957033e-18
3.52561497e-18
4.41124574e-18
2.635398e-18
2.89557296e-19
2.84842383e-18
7.8158848e-18
5.02025281e-18
6.25083433e-18
7.48614855e-18
9.29403717e-18
8.55334228e-18
7.31610895e-18
5.60820677e-18
5.50996703e-18
4.95950043e-18
6.41671183e-18
3.76111111e-18
3.12617682e-18
2.60069544e-18
5.56273181e-19
3.15157171e-18
3.07692668e-18
3.3936159e-18
8.54824162e-18
1.0018237e-17
7.45916243e-18
6.9652729e-18
9.91297595e-18
1.03288307e-17
1.01743211e-17
1.04295171e-17
1.24921357e-17
1.18335821e-17
1.25935971e-17
1.3666325e-17
9.49613048e-18
1.344136e-17
1.4389688e-17
1.52559734e-17
1.56585502e-17
1.40748688e-17
1.36404184e-17
1.36318355e-17
1.36912537e-17
1.58647461e-17
1.62098507e-17
1.59214109e-17
1.31810777e-17
1.47068194e-17
1.37402702e-17
1.44167319e-17
1.80131523e-17
1.9128082e-17
2.05124926e-17
1.99215268e-17
2.33264219e-17
2.43684671e-17
2.62720614e-17
2.72875465e-17
2.6184457e-17
2.48225354e-17
2.27338714e-17
2.4168854e-17
2.4052669e-17
2.44820563e-17
2.50658826e-17
2.55408912e-17
2.77512272e-17
2.80330045e-17
2.85912711e-17
3.00743787e-17
2.75149024e-17
3.21135538e-17
2.94378187e-17
3.02365434e-17
3.26189951e-17
3.15182935e-17
3.42899954e-17
3.23961052e-17
3.43351974e-17
3.48209581e-17
3.6020002e-17
3.43254757e-17
3.37633538e-17
3.4882985e-17
3.33280548e-17
3.46021735e-17
3.68068896e-17
3.3823757e-17
3.48082939e-17
3.66045996e-17
3.57994971e-17
3.46537064e-17
3.50343403e-17
3.66126962e-17
3.6899489e-17
3.63135488e-17
3.88221099e-17
4.03726041e-17
4.03129023e-17
4.51535517e-17
4.41868396e-17
4.65430097e-17
4.57293723e-17
4.52360588e-17
4.26461424e-17
4.21986303e-17
4.6686566e-17
4.43523441e-17
4.38026399e-17
4.53223461e-17
4.4453944e-17
4.51833733e-17
4.47270018e-17
4.32329015e-17
4.58500455e-17
4.47478027e-17
4.19635905e-17
4.42190885e-17
4.50887722e-17
4.63828799e-17
4.62851904e-17
5.01843151e-17
4.98123048e-17
5.00379757e-17
4.84595012e-17
4.94925273e-17
4.62917099e-17
4.69721124e-17
4.64860368e-17
4.47309536e-17
4.38505368e-17
4.73366471e-17
4.33499945e-17
4.81663923e-17
4.83134876e-17
4.7999765e-17
4.82128313e-17
4.80279225e-17
4.67321848e-17
4.94451163e-17
4.85305499e-17
4.99676796e-17
5.30355508e-17
5.32852239e-17
5.30405494e-17
5.2455592e-17
5.28027622e-17
4.70335671e-17
5.34666767e-17
5.04837448e-17
4.85927393e-17
4.9589944e-17
5.07950783e-17
5.11572889e-17
5.56208299e-17
5.77390919e-17
5.56366834e-17
5.66279908e-17
5.66250423e-17
5.77952602e-17
5.80330118e-17
6.09641084e-17
6.12556815e-17
6.19050144e-17
5.96867216e-17
5.6520189e-17
5.59505574e-17
5.43242171e-17