/*--------------------------------*- C++ -*----------------------------------*\
| =========                 |                                                 |
| \\      /  F ield         | OpenFOAM: The Open Source CFD Toolbox           |
|  \\    /   O peration     | Version:  2206                                  |
|   \\  /    A nd           | Website:  www.openfoam.com                      |
|    \\/     M anipulation  |                                                 |
\*---------------------------------------------------------------------------*/
FoamFile
{
    version     2.0;
    format      ascii;
    arch        "LSB;label=32;scalar=64";
    class       volScalarField;
    location    "5e-06";
    object      PVsourcePV;
}
// * * * * * * * * * * * * * * * * * * * * * * * * * * * * * * * * * * * * * //

dimensions      [1 -3 -1 0 0 0 0];

internalField   nonuniform List<scalar> 
3183
(
0
0
0
0
0
0
0
0
0
0
0
0
0
0
0
0
0
0
0
0
0
0
0
0
0
0
0
0
0
0
0
0
0
0
0
0
0
0
0
0
0
0
0
0
0
0
0
0
0
0
0
0
0
0
0
0
0
0
0
0
0
0
0
0
0
0
0
0
0
0
0
0
0
0
0
0
0
0
0
0
0
0
0
0
0
0
0
0
0
0
0
0
0
0
0
0
0
0
0
0
0
0
0
0
0
0
0
0
0
0
0
0
0
0
0
0
0
0
0
0
0
0
0
0
0
0
0
0
0
0
0
0
0
0
0
0
0
0
0
0
0
0
0
0
0
0
0
0
0
0
0
0
0
0
0
0
0
0
0
0
0
0
0
0
0
0
0
0
0
0
0
0
0
0
0
0
0
0
0
0
0
0
0
0
0
0
0
0
0
0
0
0
0
0
0
0
0
0
0
0
0
0
0
0
0
0
0
0
0
0
0
0
0
0
0
0
0
0
0
0
0
0
0
0
0
0
0
0
0
0
0
0
0
0
0
0
0
0
0
0
0
0
0
0
0
0
0
0
0
0
0
0
0
0
0
0
0
0
0
0
0
0
0
0
0
0
0
0
0
0
0
0
0
0
0
0
0
0
0
0
0
0
0
0
0
0
0
0
0
0
0
0
0
0
0
0
0
0
0
0
0
0
0
0
0
0
0
0
0
0
0
0
0
0
0
0
0
0
0
0
0
0
0
0
0
0
0
0
0
0
0
0
0
0
0
0
0
0
0
0
0
0
0
0
0
0
0
0
0
0
0
0
0
0
0
0
0
0
0
0
0
0
0
0
0
0
0
0
0
0
0
0
0
0
0
0
0
0
0
0
0
0
0
0
0
0
0
0
0
0
0
0
0
0
0
0
0
0
0
0
0
0
0
0
0
0
0
0
0
0
0
0
0
0
0
0
0
0
0
0
0
0
0
0
0
0
0
0
0
0
0
0
0
0
0
0
0
0
0
0
0
0
0
0
0
0
0
0
0
0
0
0
0
0
0
0
0
0
0
0
0
0
0
0
0
0
0
0
0
0
0
0
0
0
0
0
0
0
0
0
0
0
0
0
0
0
0
0
0
0
0
0
0
0
0
0
0
0
0
0
0
0
0
0
0
0
0
0
0
0
0
0
0
0
0
0
0
0
0
0
0
0
0
0
0
0
0
0
0
0
0
0
0
0
0
0
0
0
0
0
0
0
0
0
0
0
0
0
0
0
0
0
0
0
0
0
0
0
0
0
0
0
0
0
0
0
0
0
0
0
0
0
0
0
0
0
0
0
0
0
0
0
0
0
0
0
0
0
0
0
0
0
0
0
0
0
0
0
0
0
0
0
0
0
0
0
0
0
0
0
0
0
0
0
0
0
0
0
0
0
0
0
0
0
0
0
0
0
0
0
0
0
0
0
0
0
0
0
0
0
0
0
0
0
0
0
0
0
0
0
0
0
0
0
0
0
0
0
0
0
0
0
0
0
0
0
0
0
0
0
0
0
0
0
0
0
0
0
0
0
0
0
0
0
0
0
0
0
0
0
0
0
0
0
0
0
0
0
0
0
0
0
0
0
0
0
0
0
0
0
0
0
0
0
0
0
0
0
0
0
0
0
0
0
0
0
0
0
0
0
0
0
0
0
0
0
0
0
0
0
0
0
0
0
0
0
0
0
0
0
0
0
0
0
0
0
0
0
0
0
0
0
0
0
0
0
0
0
0
0
0
0
0
0
0
0
0
0
0
0
0
0
0
0
0
0
0
0
0
0
0
0
0
0
0
0
0
0
0
0
0
0
0
0
0
0
0
0
0
0
0
0
0
0
0
0
0
0
0
0
0
0
0
0
0
0
0
0
0
0
0
0
0
0
0
0
0
0
0
0
0
0
0
0
0
0
0
0
0
0
0
0
0
0
0
0
0
0
0
0
0
0
0
0
0
0
0
0
0
0
0
0
0
0
0
0
0
0
0
0
0
0
0
0
0
0
0
0
0
0
0
0
0
0
0
0
0
0
0
0
0
0
0
0
0
0
0
0
0
0
0
0
0
0
0
0
0
0
0
0
0
0
0
0
0
0
0
0
0
0
0
0
0
0
0
0
0
0
0
0
0
0
0
0
0
0
0
0
0
0
0
0
0
0
0
0
0
0
0
0
0
0
0
0
0
0
0
0
0
0
0
0
0
0
0
0
0
0
0
0
0
0
0
0
0
0
0
0
0
0
0
0
0
0
0
0
0
0
0
0
0
0
0
0
0
0
0
0
0
0
0
0
0
0
0
0
0
0
0
0
0
0
0
0
0
0
0
0
0
0
0
0
0
0
0
0
0
0
0
0
0
0
0
0
0
0
0
0
0
0
0
0
0
0
0
0
0
0
0
0
0
0
0
0
0
0
0
0
0
0
0
0
0
0
0
0
0
0
0
0
0
0
0
0
0
0
0
0
0
0
0
0
0
0
0
0
0
0
0
0
0
0
0
0
0
0
0
0
0
0
0
0
0
0
0
0
0
0
0
0
0
0
0
0
0
0
0
0
0
0
0
0
0
0
0
0
0
0
0
0
0
0
0
0
0
0
0
0
0
0
0
0
0
0
0
0
0
0
0
0
0
0
0
0
0
0
0
0
0
0
0
0
0
0
0
0
0
0
0
0
0
0
0
0
0
0
0
0
0
0
0
0
0
0
0
0
0
0
0
0
0
0
0
0
0
0
0
0
0
0
0
0
0
0
0
0
0
0
0
0
0
0
0
0
0
0
0
0
0
0
0
0
0
0
0
0
0
0
0
0
0
0
0
0
0
0
0
0
0
0
0
0
0
0
0
0
0
0
0
0
0
0
0
0
0
0
0
0
0
0
0
0
0
0
0
0
0
0
0
0
0
0
0
0
0
0
0
0
0
0
0
0
0
0
0
0
0
0
0
0
0
0
0
0
0
0
0
0
0
0
0
0
0
0
0
0
0
0
0
0
0
0
0
0
0
0
0
0
0
0
0
0
0
0
0
0
0
0
0
0
0
0
0
0
0
0
0
0
0
0
0
0
0
0
0
0
0
0
0
0
0
0
0
0
0
0
0
0
0
0
0
0
0
0
0
0
0
0
0
0
0
0
0
0
0
0
0
0
0
0
0
0
0
0
0
0
0
0
0
0
0
0
0
0
0
0
0
0
0
0
0
0
0
0
0
0
0
0
0
0
0
0
0
0
0
0
0
0
0
0
0
0
0
0
0
0
0
0
0
0
0
0
0
0
0
0
0
0
0
0
0
0
0
0
0
0
0
0
0
0
0
0
0
0
0
0
0
0
0
0
0
0
0
0
0
0
0
0
0
0
0
0
0
0
0
0
0
0
0
0
0
0
0
0
0
0
0
0
0
0
0
0
0
0
0
0
0
0
0
0
0
0
0
0
0
0
0
0
0
0
0
0
0
0
0
0
0
0
0
0
0
0
0
0
0
0
0
0
0
0
0
0
0
0
0
0
0
0
0
0
0
0
0
0
0
0
0
0
0
0
0
0
0
0
0
0
0
0
0
0
0
0
0
0
0
0
0
0
0
0
0
0
0
0
0
0
0
0
0
0
0
0
0
0
0
0
0
0
0
0
0
0
0
0
0
0
0
0
0
0
0
0
0
0
0
0
0
0
0
0
0
0
0
0
0
0
0
0
0
0
0
0
0
0
0
0
0
0
0
0
0
0
0
0
0
0
0
0
0
0
0
0
0
0
0
0
0
0
0
0
0
0
0
0
0
0
0
0
0
0
0
0
0
0
0
0
0
0
0
0
0
0
0
0
0
0
0
0
0
0
0
0
0
0
0
0
0
0
0
0
0
0
0
0
0
0
0
0
0
0
0
0
0
0
0
0
0
0
0
0
0
0
0
0
0
0
0
0
0
0
0
0
0
0
0
0
0
0
0
0
0
0
0
0
0
0
0
0
0
0
0
0
0
0
0
0
0
0
0
0
0
0
0
0
0
0
0
0
0
0
0
0
0
0
0
0
0
0
0
0
0
0
0
0
0
0
0
0
0
0
0
0
0
0
0
0
0
0
0
0
0
0
0
0
0
0
0
0
0
0
0
0
0
0
0
0
0
0
0
0
0
0
0
0
0
0
0
0
0
0
0
0
0
0
0
0
0
0
0
0
0
0
0
0
0
0
0
0
0
0
0
0
0
0
0
0
0
0
0
0
0
0
0
0
0
0
0
0
0
0
0
0
0
0
0
0
0
0
0
0
0
0
0
0
0
0
0
0
0
0
0
0
0
0
0
0
0
0
0
0
0
0
0
0
0
0
0
0
0
0
0
0
0
0
0
0
0
0
0
0
0
0
0
0
0
0
0
0
0
0
0
0
0
0
0
0
0
0
0
0
0
0
0
0
0
0
0
0
0
0
0
0
0
0
0
0
0
0
0
0
0
0
0
0
0
0
0
0
0
0
0
0
0
0
0
0
0
0
0
0
0
0
0
0
0
0
0
0
0
0
0
0
0
0
0
0
0
0
0
0
0
0
0
0
0
0
0
0
0
0
0
0
0
0
0
0
0
0
0
0
0
0
0
0
0
0
0
0
0
0
0
0
0
0
0
0
0
0
0
0
0
0
0
0
0
0
0
0
0
0
0
0
0
0
0
0
0
0
0
0
0
0
0
0
0
0
0
0
0
0
0
0
0
0
0
0
0
0
0
0
0
0
0
0
0
0
0
0
0
0
0
0
0
0
0
0
0
0
0
0
0
0
0
0
0
0
0
0
0
0
0
0
0
0
0
0
0
0
0
0
0
0
0
0
0
0
0
0
0
0
0
0
0
0
0
0
0
0
0
0
0
0
0
0
0
0
0
0
0
0
0
0
0
0
0
0
0
0
0
0
0
0
0
0
0
0
0
0
0
0
0
0
0
0
0
0
0
0
0
0
0
0
0
0
0
0
0
0
0
0
0
0
0
0
0
0
0
0
0
0
0
0
0
0
0
0
0
0
0
0
0
0
0
0
0
0
0
0
0
0
0
0
0
0
0
0
0
0
0
0
0
0
0
0
0
0
0
0
0
0
0
0
0
0
0
0
0
0
0
0
0
0
0
0
0
0
0
0
0
0
0
0
0
0
0
0
0
0
0
0
0
0
0
0
0
0
0
0
0
0
0
0
0
0
0
0
0
0
0
0
0
0
0
0
0
0
0
0
0
0
0
0
0
0
0
0
0
0
0
0
0
0
0
0
0
0
0
0
0
0
0
0
0
0
0
0
0
0
0
0
0
0
0
0
0
0
0
0
0
0
0
0
0
0
0
0
0
0
0
0
0
0
0
0
0
0
0
0
0
0
0
0
0
0
0
0
0
0
0
0
0
0
0
0
0
0
0
0
0
0
0
0
0
0
0
0
0
0
0
0
0
0
0
0
0
0
0
0
0
0
0
0
0
0
0
0
0
0
0
0
0
0
0
0
0
0
0
0
0
0
0
0
0
0
0
0
0
0
0
0
0
0
0
2.05601705e-295
0
5.34872981e-287
0
7.16769996e-279
0
4.94778964e-271
0
1.75934574e-263
0
3.2227295e-256
0
3.04149891e-249
0
1.47933692e-242
0
3.71034e-236
0
4.80422552e-230
0
3.21854559e-224
0
1.12039812e-218
0
1.50572321e-214
0
1.06704375e-210
0
5.25847323e-207
0
2.01799316e-203
0
6.40924209e-200
0
1.74932182e-196
0
4.20847449e-193
0
9.08750921e-190
0
1.78527445e-186
0
3.22429709e-183
0
5.39783245e-180
0
8.4324473e-177
0
1.23599577e-173
0
1.70762322e-170
0
2.23228912e-167
0
2.7702281e-164
0
3.27272448e-161
0
3.68968174e-158
0
3.97807534e-155
0
4.10927321e-152
0
4.07351956e-149
0
3.88067961e-146
0
3.5573476e-143
0
3.14129634e-140
0
2.67474915e-137
4.23176658e-139
2.19799378e-134
1.04779358e-135
1.74450558e-131
1.35029012e-132
1.33817832e-128
1.40928179e-129
9.92677586e-126
1.30700323e-126
7.12489819e-123
1.11637216e-123
4.95014889e-120
8.9391181e-121
3.3303615e-117
6.77849595e-118
2.17037889e-114
4.89872325e-115
1.3704492e-111
3.38832915e-112
8.386126e-109
2.24971615e-109
4.97387984e-106
1.43692751e-106
2.85960631e-103
8.84270594e-104
1.59372505e-100
5.24903028e-101
8.61020775e-98
3.00804045e-98
4.50901344e-95
1.66518449e-95
2.28859613e-92
8.90830058e-93
1.1256558e-89
4.60671301e-90
5.36409363e-87
2.30303836e-87
2.47583846e-84
1.11306767e-84
1.10646767e-81
5.19996431e-82
4.78601163e-79
2.34768537e-79
2.00274942e-76
1.02399658e-76
8.10336756e-74
4.31311564e-74
3.16829154e-71
1.75343119e-71
1.19619873e-68
6.87570452e-69
4.35770352e-66
2.59869214e-66
1.53038568e-63
9.45864852e-64
5.17601564e-61
3.31216687e-61
1.68402228e-58
1.11459098e-58
5.26380139e-56
3.59983229e-56
1.57840619e-53
1.11423954e-53
4.53303161e-51
3.29975872e-51
1.24449502e-48
9.33186519e-49
3.25910823e-46
2.51473692e-46
8.12144166e-44
6.44120513e-44
1.92024274e-41
1.56362884e-41
4.29361861e-39
3.58530083e-39
9.0435384e-37
7.73427916e-37
1.78602392e-34
1.56232816e-34
3.28890603e-32
2.93852659e-32
5.608978e-30
5.11100334e-30
8.78476089e-28
8.15086865e-28
1.25015108e-25
1.17907943e-25
1.59427994e-23
1.52555945e-23
1.78832331e-21
1.73234402e-21
1.7188484e-19
1.68145911e-19
1.36131224e-17
1.34102661e-17
8.33371329e-16
8.28679779e-16
1.87045316e-12
2.01546929e-12
0.16464661
0.34777059
0.597020031
0.511456681
0.0619106587
0.0513554617
0.00592507244
0.00562193188
0.000588869344
0.000584075238
5.27704234e-05
5.31051769e-05
4.82899211e-06
4.85987206e-06
9.85978741e-07
9.86216292e-07
7.06247702e-07
7.0624726e-07
6.87791489e-07
6.87796179e-07
6.86675188e-07
6.86676116e-07
6.86612894e-07
6.86612962e-07
6.86609797e-07
6.86610188e-07
6.86609961e-07
6.86610031e-07
6.86609163e-07
6.8661064e-07
6.86608973e-07
6.86609403e-07
6.86608911e-07
6.86610678e-07
6.86608686e-07
6.86609734e-07
6.86610022e-07
6.86609378e-07
6.86609269e-07
6.86609231e-07
6.86610242e-07
6.86609612e-07
6.86610105e-07
6.86608717e-07
6.86609853e-07
6.86609334e-07
6.86610236e-07
6.8660973e-07
6.86609568e-07
6.86609131e-07
6.8661009e-07
6.86609558e-07
6.86609707e-07
6.86609734e-07
6.86609847e-07
6.86609282e-07
6.86609472e-07
6.86609833e-07
6.86610139e-07
6.86609039e-07
6.86609951e-07
6.8660956e-07
6.86609746e-07
6.86609647e-07
6.86609489e-07
6.86609451e-07
6.86610317e-07
6.86609038e-07
6.86609944e-07
6.86608505e-07
6.86610753e-07
6.86608159e-07
6.86610398e-07
6.8660912e-07
6.8660945e-07
6.86609805e-07
6.86609731e-07
6.8660991e-07
6.8660995e-07
6.86610398e-07
6.86609849e-07
6.86609848e-07
6.86609969e-07
6.86609941e-07
6.86610151e-07
6.86609616e-07
6.86609815e-07
6.86609848e-07
6.86609985e-07
6.86609214e-07
6.86610348e-07
6.86610066e-07
6.86609458e-07
6.86611086e-07
6.86609523e-07
6.86610324e-07
6.86609656e-07
6.86610695e-07
6.86610421e-07
6.86609533e-07
6.86610483e-07
6.86610108e-07
6.86610224e-07
6.8661011e-07
6.86609898e-07
6.86609493e-07
6.86610197e-07
6.86610729e-07
6.86609588e-07
6.86609535e-07
6.86610439e-07
6.86608869e-07
6.86610435e-07
6.86609377e-07
6.86610201e-07
6.8660968e-07
6.86610116e-07
6.86610006e-07
6.866097e-07
6.86610222e-07
6.86609997e-07
6.86610166e-07
6.86610084e-07
6.86610097e-07
6.86610302e-07
6.8660966e-07
6.86610012e-07
6.86609764e-07
6.86610489e-07
6.86610283e-07
6.8661032e-07
6.86609462e-07
6.86610781e-07
6.86611132e-07
6.86609313e-07
6.86611077e-07
6.86610056e-07
6.86609747e-07
6.8661099e-07
6.86609284e-07
6.86610578e-07
6.86610027e-07
6.86610395e-07
6.8660995e-07
6.86609747e-07
6.86610531e-07
6.86609859e-07
6.86610604e-07
6.86609997e-07
6.86610802e-07
6.86609894e-07
6.86610636e-07
6.86610627e-07
6.86610569e-07
6.86610566e-07
6.86610813e-07
6.86610104e-07
6.86610845e-07
6.86610168e-07
6.86610517e-07
6.86610214e-07
6.86610377e-07
6.86610581e-07
6.86610213e-07
6.86610746e-07
6.86610707e-07
6.86611129e-07
6.86610064e-07
6.86610664e-07
6.86610132e-07
6.8661042e-07
6.86609975e-07
6.86610305e-07
6.86610256e-07
6.86609724e-07
6.86610321e-07
6.86611333e-07
6.86610082e-07
6.86610332e-07
6.86611726e-07
6.86611173e-07
6.86611584e-07
6.86610838e-07
6.86610838e-07
6.86610407e-07
6.86610774e-07
6.86611062e-07
6.86610809e-07
6.86611088e-07
6.86610554e-07
6.86611264e-07
6.86610705e-07
6.86610884e-07
6.86611164e-07
6.86611605e-07
6.86610242e-07
6.86611319e-07
6.86610398e-07
6.86611493e-07
6.86609636e-07
6.86611466e-07
6.86610395e-07
6.86610754e-07
6.86611374e-07
6.86610664e-07
6.86610518e-07
6.86611197e-07
6.86610989e-07
6.86611482e-07
6.86610541e-07
6.86611847e-07
6.8660971e-07
6.86611946e-07
6.86610985e-07
6.86611352e-07
6.86611005e-07
6.86611157e-07
6.86611034e-07
6.86611482e-07
6.86611915e-07
6.86610462e-07
6.86611842e-07
6.86610775e-07
6.86611192e-07
6.86611136e-07
6.86610528e-07
6.86611459e-07
6.86610994e-07
6.86611468e-07
6.86611592e-07
6.86611025e-07
6.86610998e-07
6.86611942e-07
6.86611083e-07
6.8661178e-07
6.86611342e-07
6.86611766e-07
6.86611738e-07
6.86610976e-07
6.86612158e-07
6.86611842e-07
6.866115e-07
6.8661093e-07
6.86611665e-07
6.86612077e-07
6.86611345e-07
6.86611049e-07
6.86611609e-07
6.86611013e-07
6.86611469e-07
6.86611398e-07
6.86612113e-07
6.86611866e-07
6.8661188e-07
6.86611032e-07
6.86611775e-07
6.86611802e-07
6.86611636e-07
6.86612326e-07
6.86611296e-07
6.86612409e-07
6.86612303e-07
6.86612581e-07
6.86611135e-07
6.86613121e-07
6.86611576e-07
6.86611395e-07
6.86611691e-07
6.86611167e-07
6.86611334e-07
6.86612148e-07
6.86612386e-07
6.86611519e-07
6.86613438e-07
6.86611073e-07
6.86612834e-07
6.86611412e-07
6.86612454e-07
6.8661212e-07
6.86611935e-07
6.86612683e-07
6.86610799e-07
6.86612068e-07
6.8661254e-07
6.86612501e-07
6.86612022e-07
6.86611339e-07
6.86612191e-07
6.86611859e-07
6.86612591e-07
6.86611238e-07
6.86612189e-07
6.8661205e-07
6.86611372e-07
6.86612537e-07
6.86611475e-07
6.86611894e-07
6.8661242e-07
6.86612963e-07
6.86612252e-07
6.86612692e-07
6.86612297e-07
6.86612088e-07
6.86612318e-07
6.8661247e-07
6.86612282e-07
6.86613445e-07
6.8661192e-07
6.86612962e-07
6.86612461e-07
6.86612811e-07
6.86612273e-07
6.8661164e-07
6.86613193e-07
6.86612165e-07
6.8661275e-07
6.86613283e-07
6.86611435e-07
6.86612833e-07
6.86612161e-07
6.86612802e-07
6.86612939e-07
6.86611985e-07
6.86612624e-07
6.86612141e-07
6.86612885e-07
6.86612136e-07
6.86612883e-07
6.86612202e-07
6.86612614e-07
6.8661272e-07
6.86612885e-07
6.86611702e-07
6.86612079e-07
6.86612378e-07
6.86612154e-07
6.86612917e-07
6.86611748e-07
6.86612903e-07
6.86612013e-07
6.86613055e-07
6.86612528e-07
6.86612554e-07
6.86613525e-07
6.86612151e-07
6.86613357e-07
6.8661207e-07
6.86613391e-07
6.8661262e-07
6.86612693e-07
6.86612237e-07
6.86612647e-07
6.86613005e-07
6.86612139e-07
6.86613527e-07
6.86612141e-07
6.86613353e-07
6.86612533e-07
6.86613123e-07
6.86612831e-07
6.86612676e-07
6.86612188e-07
6.86613176e-07
6.86612732e-07
6.86612448e-07
6.86613296e-07
6.86613431e-07
6.86613032e-07
6.86613243e-07
6.86613081e-07
6.86613318e-07
6.86613713e-07
6.86612247e-07
6.86613781e-07
6.86612334e-07
6.86613313e-07
6.86612916e-07
6.86612234e-07
6.86613004e-07
6.86612214e-07
6.86613412e-07
6.86612619e-07
6.86612731e-07
6.86612438e-07
6.86612663e-07
6.86612577e-07
6.86612709e-07
6.86612473e-07
6.86612709e-07
6.86612853e-07
6.86612707e-07
6.86612959e-07
6.86612547e-07
6.86612961e-07
6.86612261e-07
6.86613876e-07
6.86612737e-07
6.86613096e-07
6.86612479e-07
6.86613216e-07
6.86612105e-07
6.86612867e-07
6.86612722e-07
6.86613805e-07
6.86612399e-07
6.86613361e-07
6.86611912e-07
6.86613192e-07
6.86612814e-07
6.86613652e-07
6.86613208e-07
6.86613111e-07
6.86612811e-07
6.86612582e-07
6.8661329e-07
6.86612216e-07
6.8661339e-07
6.86612633e-07
6.86612634e-07
6.86612874e-07
6.86613281e-07
6.86612314e-07
6.86612958e-07
6.86612745e-07
6.86613346e-07
6.86612707e-07
6.86612746e-07
6.86613729e-07
6.8661255e-07
6.86613835e-07
6.86613399e-07
6.86613513e-07
6.86612726e-07
6.86613229e-07
6.86613371e-07
6.86613364e-07
6.8661292e-07
6.86613496e-07
6.86612916e-07
6.86613168e-07
6.86612982e-07
6.86612766e-07
6.86612931e-07
6.86612619e-07
6.86613402e-07
6.86612715e-07
6.86613579e-07
6.86612736e-07
6.86613308e-07
6.86613807e-07
6.86612169e-07
6.86612696e-07
6.86613243e-07
6.86612222e-07
6.86613538e-07
6.86613248e-07
6.86612904e-07
6.86612605e-07
6.86613077e-07
6.86613203e-07
6.86612111e-07
6.86613193e-07
6.86612989e-07
6.86612689e-07
6.86612709e-07
6.86612444e-07
6.86613839e-07
6.86612193e-07
6.86613953e-07
6.86612793e-07
6.86613277e-07
6.86612904e-07
6.86612579e-07
6.86613175e-07
6.86612742e-07
6.86613586e-07
6.86613e-07
6.86612872e-07
6.86612415e-07
6.86612847e-07
6.86612009e-07
6.86612912e-07
6.86613013e-07
6.86613078e-07
6.86613209e-07
6.86612388e-07
6.86613404e-07
6.86612704e-07
6.8661332e-07
6.86612605e-07
6.8661294e-07
6.86613148e-07
6.86613032e-07
6.86613255e-07
6.86613155e-07
6.86612562e-07
6.86613105e-07
6.86612372e-07
6.86613842e-07
6.8661226e-07
6.86613627e-07
6.8661202e-07
6.86612887e-07
6.86613215e-07
6.86613018e-07
6.86613241e-07
6.86612854e-07
6.8661302e-07
6.86612757e-07
6.86612787e-07
6.8661317e-07
6.86612531e-07
6.86613015e-07
6.86612736e-07
6.86613073e-07
6.86613074e-07
6.86612769e-07
6.8661283e-07
6.86612958e-07
6.86612811e-07
6.86612873e-07
6.86612971e-07
6.86612894e-07
6.86612877e-07
6.86612854e-07
6.86612822e-07
6.86612882e-07
6.86612891e-07
6.86612885e-07
6.86612919e-07
6.86612874e-07
6.86612879e-07
6.86612883e-07
6.86612879e-07
6.86612916e-07
6.86612891e-07
6.86612861e-07
6.86612872e-07
6.86612894e-07
6.86612886e-07
6.86612886e-07
6.8661289e-07
6.86612885e-07
6.86612883e-07
6.8661289e-07
6.86612885e-07
6.86612894e-07
6.86612867e-07
6.86612891e-07
6.86612879e-07
6.86612879e-07
6.86612885e-07
6.86612884e-07
6.86612885e-07
6.86612894e-07
6.86612878e-07
6.86612885e-07
6.86612874e-07
6.86612876e-07
6.86612886e-07
6.86612887e-07
6.86612886e-07
6.86612885e-07
6.86612871e-07
6.86612889e-07
6.86612881e-07
6.86612882e-07
6.86612888e-07
6.8661288e-07
6.86612896e-07
6.86612885e-07
6.86612891e-07
6.86612879e-07
6.86612879e-07
6.86612891e-07
6.86612879e-07
6.86612878e-07
6.86612889e-07
)
;

boundaryField
{
    closed
    {
        type            calculated;
        value           uniform 0;
    }
    open
    {
        type            calculated;
        value           uniform 0;
    }
    sides
    {
        type            empty;
    }
}


// ************************************************************************* //
