/*--------------------------------*- C++ -*----------------------------------*\
| =========                 |                                                 |
| \\      /  F ield         | OpenFOAM: The Open Source CFD Toolbox           |
|  \\    /   O peration     | Version:  2206                                  |
|   \\  /    A nd           | Website:  www.openfoam.com                      |
|    \\/     M anipulation  |                                                 |
\*---------------------------------------------------------------------------*/
FoamFile
{
    version     2.0;
    format      ascii;
    arch        "LSB;label=32;scalar=64";
    class       volScalarField;
    location    "5e-06";
    object      sourcePV;
}
// * * * * * * * * * * * * * * * * * * * * * * * * * * * * * * * * * * * * * //

dimensions      [1 -3 -1 0 0 0 0];

internalField   nonuniform List<scalar> 
3183
(
0
0
0
0
0
0
0
0
0
0
0
0
0
0
0
0
0
0
0
0
0
0
0
0
0
0
0
0
0
0
0
0
0
0
0
0
0
0
0
0
0
0
0
0
0
0
0
0
0
0
0
0
0
0
0
0
0
0
0
0
0
0
0
0
0
0
0
0
0
0
0
0
0
0
0
0
0
0
0
0
0
0
0
0
0
0
0
0
0
0
0
0
0
0
0
0
0
0
0
0
0
0
0
0
0
0
0
0
0
0
0
0
0
0
0
0
0
0
0
0
0
0
0
0
0
0
0
0
0
0
0
0
0
0
0
0
0
0
0
0
0
0
0
0
0
0
0
0
0
0
0
0
0
0
0
0
0
0
0
0
0
0
0
0
0
0
0
0
0
0
0
0
0
0
0
0
0
0
0
0
0
0
0
0
0
0
0
0
0
0
0
0
0
0
0
0
0
0
0
0
0
0
0
0
0
0
0
0
0
0
0
0
0
0
0
0
0
0
0
0
0
0
0
0
0
0
0
0
0
0
0
0
0
0
0
0
0
0
0
0
0
0
0
0
0
0
0
0
0
0
0
0
0
0
0
0
0
0
0
0
0
0
0
0
0
0
0
0
0
0
0
0
0
0
0
0
0
0
0
0
0
0
0
0
0
0
0
0
0
0
0
0
0
0
0
0
0
0
0
0
0
0
0
0
0
0
0
0
0
0
0
0
0
0
0
0
0
0
0
0
0
0
0
0
0
0
0
0
0
0
0
0
0
0
0
0
0
0
0
0
0
0
0
0
0
0
0
0
0
0
0
0
0
0
0
0
0
0
0
0
0
0
0
0
0
0
0
0
0
0
0
0
0
0
0
0
0
0
0
0
0
0
0
0
0
0
0
0
0
0
0
0
0
0
0
0
0
0
0
0
0
0
0
0
0
0
0
0
0
0
0
0
0
0
0
0
0
0
0
0
0
0
0
0
0
0
0
0
0
0
0
0
0
0
0
0
0
0
0
0
0
0
0
0
0
0
0
0
0
0
0
0
0
0
0
0
0
0
0
0
0
0
0
0
0
0
0
0
0
0
0
0
0
0
0
0
0
0
0
0
0
0
0
0
0
0
0
0
0
0
0
0
0
0
0
0
0
0
0
0
0
0
0
0
0
0
0
0
0
0
0
0
0
0
0
0
0
0
0
0
0
0
0
0
0
0
0
0
0
0
0
0
0
0
0
0
0
0
0
0
0
0
0
0
0
0
0
0
0
0
0
0
0
0
0
0
0
0
0
0
0
0
0
0
0
0
0
0
0
0
0
0
0
0
0
0
0
0
0
0
0
0
0
0
0
0
0
0
0
0
0
0
0
0
0
0
0
0
0
0
0
0
0
0
0
0
0
0
0
0
0
0
0
0
0
0
0
0
0
0
0
0
0
0
0
0
0
0
0
0
0
0
0
0
0
0
0
0
0
0
0
0
0
0
0
0
0
0
0
0
0
0
0
0
0
0
0
0
0
0
0
0
0
0
0
0
0
0
0
0
0
0
0
0
0
0
0
0
0
0
0
0
0
0
0
0
0
0
0
0
0
0
0
0
0
0
0
0
0
0
0
0
0
0
0
0
0
0
0
0
0
0
0
0
0
0
0
0
0
0
0
0
0
0
0
0
0
0
0
0
0
0
0
0
0
0
0
0
0
0
0
0
0
0
0
0
0
0
0
0
0
0
0
0
0
0
0
0
0
0
0
0
0
0
0
0
0
0
0
0
0
0
0
0
0
0
0
0
0
0
0
0
0
0
0
0
0
0
0
0
0
0
0
0
0
0
0
0
0
0
0
0
0
0
0
0
0
0
0
0
0
0
0
0
0
0
0
0
0
0
0
0
0
0
0
0
0
0
0
0
0
0
0
0
0
0
0
0
0
0
0
0
0
0
0
0
0
0
0
0
0
0
0
0
0
0
0
0
0
0
0
0
0
0
0
0
0
0
0
0
0
0
0
0
0
0
0
0
0
0
0
0
0
0
0
0
0
0
0
0
0
0
0
0
0
0
0
0
0
0
0
0
0
0
0
0
0
0
0
0
0
0
0
0
0
0
0
0
0
0
0
0
0
0
0
0
0
0
0
0
0
0
0
0
0
0
0
0
0
0
0
0
0
0
0
0
0
0
0
0
0
0
0
0
0
0
0
0
0
0
0
0
0
0
0
0
0
0
0
0
0
0
0
0
0
0
0
0
0
0
0
0
0
0
0
0
0
0
0
0
0
0
0
0
0
0
0
0
0
0
0
0
0
0
0
0
0
0
0
0
0
0
0
0
0
0
0
0
0
0
0
0
0
0
0
0
0
0
0
0
0
0
0
0
0
0
0
0
0
0
0
0
0
0
0
0
0
0
0
0
0
0
0
0
0
0
0
0
0
0
0
0
0
0
0
0
0
0
0
0
0
0
0
0
0
0
0
0
0
0
0
0
0
0
0
0
0
0
0
0
0
0
0
0
0
0
0
0
0
0
0
0
0
0
0
0
0
0
0
0
0
0
0
0
0
0
0
0
0
0
0
0
0
0
0
0
0
0
0
0
0
0
0
0
0
0
0
0
0
0
0
0
0
0
0
0
0
0
0
0
0
0
0
0
0
0
0
0
0
0
0
0
0
0
0
0
0
0
0
0
0
0
0
0
0
0
0
0
0
0
0
0
0
0
0
0
0
0
0
0
0
0
0
0
0
0
0
0
0
0
0
0
0
0
0
0
0
0
0
0
0
0
0
0
0
0
0
0
0
0
0
0
0
0
0
0
0
0
0
0
0
0
0
0
0
0
0
0
0
0
0
0
0
0
0
0
0
0
0
0
0
0
0
0
0
0
0
0
0
0
0
0
0
0
0
0
0
0
0
0
0
0
0
0
0
0
0
0
0
0
0
0
0
0
0
0
0
0
0
0
0
0
0
0
0
0
0
0
0
0
0
0
0
0
0
0
0
0
0
0
0
0
0
0
0
0
0
0
0
0
0
0
0
0
0
0
0
0
0
0
0
0
0
0
0
0
0
0
0
0
0
0
0
0
0
0
0
0
0
0
0
0
0
0
0
0
0
0
0
0
0
0
0
0
0
0
0
0
0
0
0
0
0
0
0
0
0
0
0
0
0
0
0
0
0
0
0
0
0
0
0
0
0
0
0
0
0
0
0
0
0
0
0
0
0
0
0
0
0
0
0
0
0
0
0
0
0
0
0
0
0
0
0
0
0
0
0
0
0
0
0
0
0
0
0
0
0
0
0
0
0
0
0
0
0
0
0
0
0
0
0
0
0
0
0
0
0
0
0
0
0
0
0
0
0
0
0
0
0
0
0
0
0
0
0
0
0
0
0
0
0
0
0
0
0
0
0
0
0
0
0
0
0
0
0
0
0
0
0
0
0
0
0
0
0
0
0
0
0
0
0
0
0
0
0
0
0
0
0
0
0
0
0
0
0
0
0
0
0
0
0
0
0
0
0
0
0
0
0
0
0
0
0
0
0
0
0
0
0
0
0
0
0
0
0
0
0
0
0
0
0
0
0
0
0
0
0
0
0
0
0
0
0
0
0
0
0
0
0
0
0
0
0
0
0
0
0
0
0
0
0
0
0
0
0
0
0
0
0
0
0
0
0
0
0
0
0
0
0
0
0
0
0
0
0
0
0
0
0
0
0
0
0
0
0
0
0
0
0
0
0
0
0
0
0
0
0
0
0
0
0
0
0
0
0
0
0
0
0
0
0
0
0
0
0
0
0
0
0
0
0
0
0
0
0
0
0
0
0
0
0
0
0
0
0
0
0
0
0
0
0
0
0
0
0
0
0
0
0
0
0
0
0
0
0
0
0
0
0
0
0
0
0
0
0
0
0
0
0
0
0
0
0
0
0
0
0
0
0
0
0
0
0
0
0
0
0
0
0
0
0
0
0
0
0
0
0
0
0
0
0
0
0
0
0
0
0
0
0
0
0
0
0
0
0
0
0
0
0
0
0
0
0
0
0
0
0
0
0
0
0
0
0
0
0
0
0
0
0
0
0
0
0
0
0
0
0
0
0
0
0
0
0
0
0
0
0
0
0
0
0
0
0
0
0
0
0
0
0
0
0
0
0
0
0
0
0
0
0
0
0
0
0
0
0
0
0
0
0
0
0
0
0
0
0
0
0
0
0
0
0
0
0
0
0
0
0
0
0
0
0
0
0
0
0
0
0
0
0
0
0
0
0
0
0
0
0
0
0
0
0
0
0
0
0
0
0
0
0
0
0
0
0
0
0
0
0
0
0
0
0
0
0
0
0
0
0
0
0
0
0
0
0
0
0
0
0
0
0
0
0
0
0
0
0
0
0
0
0
0
0
0
0
0
0
0
0
0
0
0
0
0
0
0
0
0
0
0
0
0
0
0
0
0
0
0
0
0
0
0
0
0
0
0
0
0
0
0
0
0
0
0
0
0
0
0
0
0
0
0
0
0
0
0
0
0
0
0
0
0
0
0
0
0
0
0
0
0
0
0
0
0
0
0
0
0
0
0
0
0
0
0
0
0
0
0
0
0
0
0
0
0
0
0
0
0
0
0
0
0
0
0
0
0
0
0
0
0
0
0
0
0
0
0
0
0
0
0
0
0
0
0
0
0
0
0
0
0
0
0
0
0
0
0
0
0
0
0
0
0
0
0
0
0
0
0
0
0
0
0
0
0
0
0
0
0
0
0
0
0
0
0
0
0
0
0
0
0
0
0
0
0
0
0
0
0
0
0
0
0
0
0
0
0
0
0
0
0
0
0
0
0
0
0
0
0
0
0
0
0
0
0
0
0
0
0
0
0
0
0
0
0
0
0
0
0
0
0
0
0
0
0
0
0
0
0
0
0
0
0
0
0
0
0
0
0
0
0
0
0
0
0
0
0
0
0
0
0
0
0
0
0
0
0
0
0
0
0
0
0
0
0
0
0
0
0
0
0
0
0
0
0
0
0
0
0
0
0
0
0
0
0
0
0
0
0
0
0
0
0
0
0
0
0
0
0
0
0
0
0
0
0
0
0
0
0
0
0
0
0
0
0
0
0
0
0
0
0
0
0
0
0
0
0
0
0
0
0
0
0
0
0
0
0
0
0
0
0
0
0
0
0
0
0
0
0
0
0
0
0
0
0
0
0
0
0
0
0
0
0
0
0
0
0
0
0
0
0
0
0
0
0
0
0
0
0
0
0
0
0
0
0
0
0
0
0
0
0
0
0
0
0
0
0
0
0
0
0
0
0
0
0
0
0
0
0
0
0
0
0
0
0
0
0
0
0
0
0
0
0
0
0
0
0
0
0
0
0
0
0
0
0
0
0
0
0
0
0
0
0
0
0
0
0
0
0
0
0
0
0
0
0
0
0
0
0
0
0
0
0
0
0
0
0
0
0
0
0
0
0
0
0
0
0
0
0
0
0
0
0
0
0
0
0
0
0
0
0
0
0
0
0
0
0
0
0
0
0
0
0
0
0
0
0
0
0
0
0
0
0
0
0
0
3.58959918e-292
0
9.3383448e-284
0
1.25140839e-275
0
8.63834356e-268
0
3.07164087e-260
0
5.62656189e-253
0
5.31015148e-246
0
2.58277361e-239
0
6.47788083e-233
0
8.38769502e-227
0
5.6192572e-221
0
1.95610254e-215
0
2.62884143e-211
0
1.86295118e-207
0
9.18076588e-204
0
3.52321329e-200
0
1.11898927e-196
0
3.05414012e-193
0
7.34757359e-190
0
1.58658779e-186
0
3.1169098e-183
0
5.62929873e-180
0
9.42407308e-177
0
1.47222057e-173
0
2.15792443e-170
0
2.98133857e-167
0
3.8973525e-164
0
4.8365399e-161
0
5.71384809e-158
0
6.44181358e-155
0
6.94531982e-152
0
7.17437812e-149
0
7.11195584e-146
0
6.77527666e-143
0
6.21077145e-140
0
5.48438777e-137
0
4.66984326e-134
7.38823924e-136
3.83747628e-131
1.8293423e-132
3.04573145e-128
2.35747087e-129
2.33632488e-125
2.4604644e-126
1.73311532e-122
2.2818963e-123
1.24393563e-119
1.94907362e-120
8.64246256e-117
1.5606802e-117
5.81447654e-114
1.18345728e-114
3.78926347e-111
8.55267856e-112
2.39266661e-108
5.91568224e-109
1.46413333e-105
3.92777834e-106
8.68389443e-103
2.50873105e-103
4.99258528e-100
1.5438476e-100
2.7824838e-97
9.16427943e-98
1.50325576e-94
5.25173638e-95
7.87228439e-92
2.9072448e-92
3.99565888e-89
1.55529977e-89
1.96528192e-86
8.04285802e-87
9.36516849e-84
4.02087357e-84
4.32256517e-81
1.94330432e-81
1.93178137e-78
9.07861518e-79
8.35589541e-76
4.09882276e-76
3.49659925e-73
1.78779513e-73
1.41476655e-70
7.53026652e-71
5.53151867e-68
3.06131467e-68
2.08844279e-65
1.20042892e-65
7.60811248e-63
4.53705536e-63
2.67189962e-60
1.65138499e-60
9.03680322e-58
5.78271054e-58
2.94013368e-55
1.94596386e-55
9.19006831e-53
6.28494546e-53
2.7557386e-50
1.94535027e-50
7.9142177e-48
5.76104717e-48
2.17276326e-45
1.62924989e-45
5.69007548e-43
4.39047798e-43
1.41792211e-40
1.12456969e-40
3.35255087e-38
2.72993884e-38
7.49622666e-36
6.25957499e-36
1.57891093e-33
1.35032743e-33
3.11821831e-31
2.72766799e-31
5.74209946e-29
5.13037216e-29
9.79271199e-27
8.92329827e-27
1.53373098e-24
1.42305976e-24
2.18263816e-22
2.0585542e-22
2.78345258e-20
2.66347351e-20
3.12223281e-18
3.0244986e-18
3.0009366e-16
2.93565865e-16
2.37671438e-14
2.34129772e-14
1.4549826e-12
1.44679163e-12
5.91314276e-10
6.25595056e-10
2.85596641
5.5028122
7.44236394
6.29907716
0.730249964
0.604956814
0.0695907474
0.0660303218
0.00691634362
0.00686003622
0.000619791627
0.000623723351
5.6713242e-05
5.70759311e-05
1.1576547e-05
1.1579337e-05
8.29106931e-06
8.29106412e-06
8.07429867e-06
8.07435375e-06
8.06118757e-06
8.06119847e-06
8.06045591e-06
8.06045672e-06
8.06041954e-06
8.06042414e-06
8.06042147e-06
8.0604223e-06
8.0604121e-06
8.06042945e-06
8.06040986e-06
8.06041492e-06
8.06040913e-06
8.06042989e-06
8.0604065e-06
8.0604188e-06
8.06042219e-06
8.06041462e-06
8.06041334e-06
8.06041289e-06
8.06042478e-06
8.06041737e-06
8.06042317e-06
8.06040686e-06
8.0604202e-06
8.06041411e-06
8.0604247e-06
8.06041876e-06
8.06041685e-06
8.06041172e-06
8.06042299e-06
8.06041674e-06
8.06041849e-06
8.0604188e-06
8.06042013e-06
8.0604135e-06
8.06041573e-06
8.06041997e-06
8.06042356e-06
8.06041064e-06
8.06042136e-06
8.06041676e-06
8.06041894e-06
8.06041779e-06
8.06041592e-06
8.06041548e-06
8.06042566e-06
8.06041063e-06
8.06042127e-06
8.06040437e-06
8.06043077e-06
8.06040031e-06
8.0604266e-06
8.06041159e-06
8.06041547e-06
8.06041964e-06
8.06041877e-06
8.06042087e-06
8.06042135e-06
8.0604266e-06
8.06042016e-06
8.06042015e-06
8.06042157e-06
8.06042124e-06
8.06042371e-06
8.06041742e-06
8.06041976e-06
8.06042015e-06
8.06042176e-06
8.0604127e-06
8.06042602e-06
8.0604227e-06
8.06041556e-06
8.06043469e-06
8.06041633e-06
8.06042574e-06
8.06041789e-06
8.06043009e-06
8.06042687e-06
8.06041644e-06
8.0604276e-06
8.0604232e-06
8.06042456e-06
8.06042322e-06
8.06042073e-06
8.06041598e-06
8.06042425e-06
8.0604305e-06
8.06041709e-06
8.06041646e-06
8.06042709e-06
8.06040865e-06
8.06042704e-06
8.06041461e-06
8.06042429e-06
8.06041817e-06
8.06042329e-06
8.060422e-06
8.0604184e-06
8.06042453e-06
8.0604219e-06
8.06042388e-06
8.06042291e-06
8.06042307e-06
8.06042548e-06
8.06041793e-06
8.06042207e-06
8.06041916e-06
8.06042768e-06
8.06042525e-06
8.06042569e-06
8.0604156e-06
8.0604311e-06
8.06043522e-06
8.06041386e-06
8.06043458e-06
8.06042258e-06
8.06041896e-06
8.06043356e-06
8.06041352e-06
8.06042872e-06
8.06042225e-06
8.06042657e-06
8.06042135e-06
8.06041896e-06
8.06042817e-06
8.06042028e-06
8.06042902e-06
8.0604219e-06
8.06043135e-06
8.06042069e-06
8.06042939e-06
8.06042929e-06
8.06042861e-06
8.06042858e-06
8.06043148e-06
8.06042316e-06
8.06043185e-06
8.06042391e-06
8.06042801e-06
8.06042445e-06
8.06042635e-06
8.06042876e-06
8.06042443e-06
8.0604307e-06
8.06043023e-06
8.06043519e-06
8.06042268e-06
8.06042972e-06
8.06042348e-06
8.06042686e-06
8.06042164e-06
8.06042551e-06
8.06042494e-06
8.06041869e-06
8.0604257e-06
8.06043758e-06
8.06042289e-06
8.06042583e-06
8.0604422e-06
8.06043571e-06
8.06044054e-06
8.06043178e-06
8.06043178e-06
8.06042671e-06
8.06043102e-06
8.0604344e-06
8.06043143e-06
8.06043471e-06
8.06042844e-06
8.06043678e-06
8.06043021e-06
8.06043231e-06
8.0604356e-06
8.06044078e-06
8.06042477e-06
8.06043742e-06
8.06042661e-06
8.06043947e-06
8.06041765e-06
8.06043915e-06
8.06042657e-06
8.06043078e-06
8.06043807e-06
8.06042972e-06
8.06042802e-06
8.06043599e-06
8.06043355e-06
8.06043934e-06
8.06042828e-06
8.06044362e-06
8.06041853e-06
8.06044478e-06
8.06043349e-06
8.06043781e-06
8.06043374e-06
8.06043552e-06
8.06043408e-06
8.06043934e-06
8.06044442e-06
8.06042735e-06
8.06044357e-06
8.06043104e-06
8.06043593e-06
8.06043527e-06
8.06042813e-06
8.06043906e-06
8.06043361e-06
8.06043917e-06
8.06044063e-06
8.06043397e-06
8.06043365e-06
8.06044474e-06
8.06043465e-06
8.06044283e-06
8.06043769e-06
8.06044268e-06
8.06044235e-06
8.0604334e-06
8.06044727e-06
8.06044357e-06
8.06043955e-06
8.06043285e-06
8.06044149e-06
8.06044633e-06
8.06043773e-06
8.06043426e-06
8.06044083e-06
8.06043382e-06
8.06043918e-06
8.06043835e-06
8.06044674e-06
8.06044384e-06
8.06044401e-06
8.06043405e-06
8.06044278e-06
8.0604431e-06
8.06044114e-06
8.06044925e-06
8.06043715e-06
8.06045023e-06
8.06044898e-06
8.06045224e-06
8.06043526e-06
8.06045858e-06
8.06044044e-06
8.06043831e-06
8.06044179e-06
8.06043563e-06
8.0604376e-06
8.06044716e-06
8.06044995e-06
8.06043977e-06
8.06046231e-06
8.06043453e-06
8.06045522e-06
8.06043851e-06
8.06045076e-06
8.06044683e-06
8.06044466e-06
8.06045345e-06
8.06043131e-06
8.06044621e-06
8.06045176e-06
8.06045131e-06
8.06044568e-06
8.06043766e-06
8.06044766e-06
8.06044377e-06
8.06045237e-06
8.06043647e-06
8.06044764e-06
8.060446e-06
8.06043805e-06
8.06045173e-06
8.06043925e-06
8.06044418e-06
8.06045035e-06
8.06045673e-06
8.06044837e-06
8.06045354e-06
8.0604489e-06
8.06044646e-06
8.06044916e-06
8.06045094e-06
8.06044873e-06
8.0604624e-06
8.06044448e-06
8.06045672e-06
8.06045083e-06
8.06045494e-06
8.06044863e-06
8.06044119e-06
8.06045943e-06
8.06044736e-06
8.06045423e-06
8.06046049e-06
8.06043879e-06
8.06045521e-06
8.06044731e-06
8.06045483e-06
8.06045644e-06
8.06044525e-06
8.06045275e-06
8.06044708e-06
8.06045581e-06
8.06044702e-06
8.06045579e-06
8.06044779e-06
8.06045263e-06
8.06045387e-06
8.06045581e-06
8.06044192e-06
8.06044635e-06
8.06044986e-06
8.06044723e-06
8.06045619e-06
8.06044246e-06
8.06045602e-06
8.06044558e-06
8.06045781e-06
8.06045163e-06
8.06045192e-06
8.06046333e-06
8.0604472e-06
8.06046136e-06
8.06044625e-06
8.06046176e-06
8.06045271e-06
8.06045356e-06
8.0604482e-06
8.06045302e-06
8.06045723e-06
8.06044705e-06
8.06046335e-06
8.06044708e-06
8.06046131e-06
8.06045168e-06
8.0604586e-06
8.06045518e-06
8.06045336e-06
8.06044763e-06
8.06045923e-06
8.06045402e-06
8.06045068e-06
8.06046064e-06
8.06046223e-06
8.06045755e-06
8.06046002e-06
8.06045812e-06
8.0604609e-06
8.06046554e-06
8.06044832e-06
8.06046634e-06
8.06044935e-06
8.06046084e-06
8.06045618e-06
8.06044817e-06
8.06045721e-06
8.06044793e-06
8.060462e-06
8.0604527e-06
8.06045401e-06
8.06045057e-06
8.0604532e-06
8.0604522e-06
8.06045374e-06
8.06045098e-06
8.06045374e-06
8.06045544e-06
8.06045372e-06
8.06045669e-06
8.06045185e-06
8.06045671e-06
8.06044849e-06
8.06046745e-06
8.06045407e-06
8.0604583e-06
8.06045104e-06
8.06045971e-06
8.06044665e-06
8.0604556e-06
8.0604539e-06
8.06046662e-06
8.06045011e-06
8.0604614e-06
8.06044439e-06
8.06045942e-06
8.06045498e-06
8.06046482e-06
8.06045961e-06
8.06045847e-06
8.06045494e-06
8.06045226e-06
8.06046057e-06
8.06044796e-06
8.06046175e-06
8.06045285e-06
8.06045286e-06
8.06045568e-06
8.06046047e-06
8.0604491e-06
8.06045667e-06
8.06045417e-06
8.06046123e-06
8.06045372e-06
8.06045418e-06
8.06046572e-06
8.06045188e-06
8.06046697e-06
8.06046186e-06
8.06046319e-06
8.06045394e-06
8.06045985e-06
8.06046153e-06
8.06046144e-06
8.06045622e-06
8.06046299e-06
8.06045618e-06
8.06045913e-06
8.06045695e-06
8.06045442e-06
8.06045636e-06
8.06045268e-06
8.06046189e-06
8.06045382e-06
8.06046396e-06
8.06045406e-06
8.06046079e-06
8.06046664e-06
8.06044741e-06
8.0604536e-06
8.06046002e-06
8.06044802e-06
8.06046349e-06
8.06046008e-06
8.06045604e-06
8.06045253e-06
8.06045806e-06
8.06045955e-06
8.06044672e-06
8.06045943e-06
8.06045704e-06
8.06045351e-06
8.06045374e-06
8.06045064e-06
8.06046702e-06
8.06044769e-06
8.06046836e-06
8.06045474e-06
8.06046042e-06
8.06045604e-06
8.06045222e-06
8.06045922e-06
8.06045414e-06
8.06046405e-06
8.06045716e-06
8.06045566e-06
8.06045029e-06
8.06045536e-06
8.06044552e-06
8.06045614e-06
8.06045732e-06
8.06045809e-06
8.06045962e-06
8.06044997e-06
8.06046191e-06
8.06045369e-06
8.06046092e-06
8.06045253e-06
8.06045647e-06
8.0604589e-06
8.06045755e-06
8.06046016e-06
8.06045899e-06
8.06045202e-06
8.06045839e-06
8.06044979e-06
8.06046706e-06
8.06044847e-06
8.06046453e-06
8.06044565e-06
8.06045584e-06
8.06045969e-06
8.06045738e-06
8.06045999e-06
8.06045545e-06
8.0604574e-06
8.06045432e-06
8.06045466e-06
8.06045917e-06
8.06045166e-06
8.06045734e-06
8.06045406e-06
8.06045802e-06
8.06045803e-06
8.06045445e-06
8.06045516e-06
8.06045668e-06
8.06045494e-06
8.06045567e-06
8.06045683e-06
8.06045593e-06
8.06045572e-06
8.06045545e-06
8.06045508e-06
8.06045578e-06
8.06045588e-06
8.06045582e-06
8.06045621e-06
8.06045568e-06
8.06045575e-06
8.06045579e-06
8.06045575e-06
8.06045618e-06
8.06045588e-06
8.06045553e-06
8.06045566e-06
8.06045591e-06
8.06045583e-06
8.06045583e-06
8.06045587e-06
8.06045581e-06
8.06045579e-06
8.06045587e-06
8.06045582e-06
8.06045593e-06
8.06045561e-06
8.06045588e-06
8.06045575e-06
8.06045575e-06
8.06045582e-06
8.0604558e-06
8.06045582e-06
8.06045591e-06
8.06045573e-06
8.06045581e-06
8.06045568e-06
8.06045571e-06
8.06045583e-06
8.06045584e-06
8.06045583e-06
8.06045582e-06
8.06045565e-06
8.06045586e-06
8.06045577e-06
8.06045578e-06
8.06045585e-06
8.06045576e-06
8.06045595e-06
8.06045581e-06
8.06045588e-06
8.06045575e-06
8.06045575e-06
8.06045588e-06
8.06045575e-06
8.06045573e-06
8.06045586e-06
)
;

boundaryField
{
    closed
    {
        type            calculated;
        value           uniform 0;
    }
    open
    {
        type            calculated;
        value           uniform 0;
    }
    sides
    {
        type            empty;
    }
}


// ************************************************************************* //
