/*--------------------------------*- C++ -*----------------------------------*\
| =========                 |                                                 |
| \\      /  F ield         | OpenFOAM: The Open Source CFD Toolbox           |
|  \\    /   O peration     | Version:  2206                                  |
|   \\  /    A nd           | Website:  www.openfoam.com                      |
|    \\/     M anipulation  |                                                 |
\*---------------------------------------------------------------------------*/
FoamFile
{
    version     2.0;
    format      ascii;
    arch        "LSB;label=32;scalar=64";
    class       volVectorField;
    location    "5e-06";
    object      U;
}
// * * * * * * * * * * * * * * * * * * * * * * * * * * * * * * * * * * * * * //

dimensions      [0 1 -1 0 0 0 0];

internalField   nonuniform List<vector> 
3183
(
(1.06167399e-13 0 0)
(-5.40513306e-15 0 0)
(-6.44677831e-14 0 0)
(-4.9880494e-14 0 0)
(-5.24866219e-14 0 0)
(-1.09249256e-18 0 0)
(-8.62575365e-20 0 0)
(-2.7825672e-24 0 0)
(9.32091577e-25 0 0)
(2.72473117e-23 0 0)
(6.30792461e-19 0 0)
(8.00173036e-18 0 0)
(2.11428709e-13 0 0)
(9.6296337e-14 0 0)
(-1.57233048e-13 0 0)
(-1.54412702e-13 0 0)
(1.62468168e-13 0 0)
(-2.44487198e-14 0 0)
(-4.92601474e-13 0 0)
(2.70300027e-14 0 0)
(3.03535838e-13 0 0)
(3.21972169e-17 0 0)
(3.55572006e-18 0 0)
(3.97360225e-18 0 0)
(6.98114299e-14 0 0)
(1.95877345e-13 0 0)
(4.44194535e-13 0 0)
(1.69387764e-13 0 0)
(-2.70800105e-13 0 0)
(-2.55184604e-13 0 0)
(-3.39350986e-13 0 0)
(-2.50305154e-14 0 0)
(8.60094877e-15 0 0)
(-1.83788197e-13 0 0)
(-9.69108839e-15 0 0)
(9.14577362e-14 0 0)
(-9.63154148e-14 0 0)
(-1.35146249e-13 0 0)
(4.71135734e-14 0 0)
(-8.75174562e-14 0 0)
(-3.54497322e-13 0 0)
(-3.86743607e-13 0 0)
(-2.95253411e-14 0 0)
(-1.22365489e-13 0 0)
(1.28616862e-13 0 0)
(2.20527386e-13 0 0)
(3.38595387e-13 0 0)
(7.49704737e-14 0 0)
(-5.87725503e-14 0 0)
(-8.2917524e-14 0 0)
(-5.66500729e-16 0 0)
(2.30810084e-14 0 0)
(-1.44472816e-13 0 0)
(-1.01896263e-13 0 0)
(5.20451538e-14 0 0)
(-1.67516266e-13 0 0)
(5.85728908e-14 0 0)
(6.2333801e-14 0 0)
(9.82264963e-14 0 0)
(1.72063496e-13 0 0)
(1.47630139e-13 0 0)
(3.44607132e-13 0 0)
(3.22328175e-13 0 0)
(3.82929207e-13 0 0)
(4.91444288e-13 0 0)
(5.15962214e-13 0 0)
(5.44343556e-13 0 0)
(5.2093952e-13 0 0)
(9.21124676e-13 0 0)
(4.14863308e-13 0 0)
(5.97524933e-13 0 0)
(8.90721096e-13 0 0)
(4.13906977e-13 0 0)
(8.98850926e-13 0 0)
(5.97946792e-13 0 0)
(4.85166077e-13 0 0)
(5.05706648e-13 0 0)
(1.18882043e-12 0 0)
(1.01947758e-12 0 0)
(1.14064363e-12 0 0)
(1.00002482e-12 0 0)
(1.27062699e-12 0 0)
(1.37502129e-12 0 0)
(4.43058236e-13 0 0)
(1.12941002e-12 0 0)
(1.23939076e-12 0 0)
(1.26158867e-12 0 0)
(9.40872531e-13 0 0)
(1.12577797e-12 0 0)
(1.34020215e-12 0 0)
(9.50704727e-13 0 0)
(1.04194583e-12 0 0)
(9.84767717e-13 0 0)
(3.85822127e-13 0 0)
(8.50603871e-13 0 0)
(1.36800741e-12 0 0)
(1.45489627e-13 0 0)
(1.6412382e-12 0 0)
(2.25638017e-12 0 0)
(1.09843691e-12 0 0)
(2.6920205e-12 0 0)
(1.31269035e-12 0 0)
(1.89831681e-12 0 0)
(1.57434842e-12 0 0)
(9.7611438e-13 0 0)
(1.79491487e-12 0 0)
(1.08215408e-12 0 0)
(2.32691526e-12 0 0)
(2.24620064e-12 0 0)
(2.73059505e-12 0 0)
(2.14631438e-12 0 0)
(3.14574688e-12 0 0)
(1.97087225e-12 0 0)
(3.74576676e-12 0 0)
(1.69670456e-12 0 0)
(2.71675543e-12 0 0)
(2.13097922e-12 0 0)
(2.07030642e-12 0 0)
(2.6579974e-12 0 0)
(2.79252589e-12 0 0)
(2.00982489e-12 0 0)
(1.27268162e-12 0 0)
(1.90706046e-12 0 0)
(2.42782524e-12 0 0)
(1.13595496e-12 0 0)
(1.21983326e-12 0 0)
(2.93537111e-12 0 0)
(1.7697975e-12 0 0)
(1.40794548e-12 0 0)
(9.44435751e-13 0 0)
(1.18963181e-12 0 0)
(2.00424195e-12 0 0)
(8.0937104e-13 0 0)
(1.1305071e-12 0 0)
(1.29751941e-12 0 0)
(1.84071492e-12 0 0)
(2.14042958e-12 0 0)
(6.77296845e-13 0 0)
(7.43427277e-13 0 0)
(1.22246644e-12 0 0)
(7.90209031e-13 0 0)
(1.61804913e-12 0 0)
(6.55754032e-13 0 0)
(5.6721913e-13 0 0)
(8.6934473e-13 0 0)
(1.02274291e-12 0 0)
(2.45231192e-13 0 0)
(1.37697111e-12 0 0)
(9.50673822e-13 0 0)
(1.09588258e-12 0 0)
(1.63566053e-12 0 0)
(4.81005301e-13 0 0)
(1.91072473e-12 0 0)
(1.38746554e-12 0 0)
(1.48643401e-12 0 0)
(8.93783909e-13 0 0)
(1.0686431e-12 0 0)
(9.13135848e-13 0 0)
(1.09175975e-12 0 0)
(2.12859537e-13 0 0)
(1.7180049e-13 0 0)
(7.4593007e-13 0 0)
(3.30828962e-15 0 0)
(-3.77095724e-13 0 0)
(1.14192694e-12 0 0)
(1.07739314e-12 0 0)
(1.03899606e-13 0 0)
(4.13183351e-13 0 0)
(8.32414491e-13 0 0)
(-7.9162451e-13 0 0)
(-2.80563008e-13 0 0)
(6.69193475e-13 0 0)
(1.28614121e-13 0 0)
(-1.19482931e-13 0 0)
(-3.75422251e-13 0 0)
(-2.19693121e-14 0 0)
(-5.80205756e-14 0 0)
(-7.44094231e-13 0 0)
(-3.67178908e-13 0 0)
(-1.0520624e-12 0 0)
(-1.53298189e-13 0 0)
(-1.97365115e-12 0 0)
(3.37005365e-13 0 0)
(-3.19437491e-13 0 0)
(-5.33778535e-13 0 0)
(-1.0920577e-12 0 0)
(1.26094254e-13 0 0)
(-1.32833009e-12 0 0)
(-1.33926029e-12 0 0)
(-8.53107236e-13 0 0)
(-9.72224046e-13 0 0)
(-6.67460631e-13 0 0)
(-1.73491301e-12 0 0)
(-1.74803761e-12 0 0)
(-2.173287e-12 0 0)
(-5.40802592e-13 0 0)
(-1.96234967e-12 0 0)
(-1.36533298e-12 0 0)
(-1.51321799e-12 0 0)
(-2.69097693e-12 0 0)
(-1.8397941e-12 0 0)
(-1.69782221e-12 0 0)
(-1.43648472e-12 0 0)
(-1.1982706e-12 0 0)
(-1.488282e-12 0 0)
(-1.91289337e-12 0 0)
(-2.37756641e-12 0 0)
(-6.36086925e-13 0 0)
(-1.33995427e-12 0 0)
(-9.40949974e-13 0 0)
(-1.32512269e-12 0 0)
(-1.2022037e-12 0 0)
(-1.45606841e-12 0 0)
(-2.4208774e-12 0 0)
(-1.72603972e-12 0 0)
(-2.63855325e-12 0 0)
(-2.15636005e-12 0 0)
(-4.31876382e-12 0 0)
(-1.82528215e-12 0 0)
(-2.65144089e-12 0 0)
(-4.29457373e-12 0 0)
(-2.98208232e-12 0 0)
(-2.30695987e-12 0 0)
(-2.65398837e-12 0 0)
(-3.15415408e-12 0 0)
(-2.72959803e-12 0 0)
(-2.95332837e-12 0 0)
(-3.16282458e-12 0 0)
(-4.27182051e-12 0 0)
(-2.56860053e-12 0 0)
(-4.08163642e-12 0 0)
(-2.76635113e-12 0 0)
(-3.21647342e-12 0 0)
(-3.65102148e-12 0 0)
(-3.36890203e-12 0 0)
(-3.1644995e-12 0 0)
(-3.92579327e-12 0 0)
(-3.78833625e-12 0 0)
(-3.17113977e-12 0 0)
(-3.96030584e-12 0 0)
(-4.57780285e-12 0 0)
(-4.1822817e-12 0 0)
(-4.23397449e-12 0 0)
(-3.45063951e-12 0 0)
(-4.27312936e-12 0 0)
(-5.3273419e-12 0 0)
(-4.63297693e-12 0 0)
(-4.29566374e-12 0 0)
(-4.60321305e-12 0 0)
(-4.18671898e-12 0 0)
(-3.39217713e-12 0 0)
(-4.32443636e-12 0 0)
(-3.96501869e-12 0 0)
(-4.50482918e-12 0 0)
(-4.28257438e-12 0 0)
(-4.1147654e-12 0 0)
(-4.36524374e-12 0 0)
(-3.24343342e-12 0 0)
(-3.45436962e-12 0 0)
(-4.02270748e-12 0 0)
(-3.76204524e-12 0 0)
(-4.64065835e-12 0 0)
(-4.93371383e-12 0 0)
(-3.73521637e-12 0 0)
(-4.65338346e-12 0 0)
(-4.28801311e-12 0 0)
(-4.3613632e-12 0 0)
(-4.77782036e-12 0 0)
(-4.5862981e-12 0 0)
(-4.4760135e-12 0 0)
(-3.52585515e-12 0 0)
(-4.1076776e-12 0 0)
(-4.3133726e-12 0 0)
(-4.08093785e-12 0 0)
(-4.88437806e-12 0 0)
(-4.62345829e-12 0 0)
(-5.55886537e-12 0 0)
(-5.65962e-12 0 0)
(-5.95808138e-12 0 0)
(-4.46144023e-12 0 0)
(-4.90136345e-12 0 0)
(-5.8736575e-12 0 0)
(-5.86574482e-12 0 0)
(-5.77344837e-12 0 0)
(-6.15091504e-12 0 0)
(-7.2219003e-12 0 0)
(-6.61462436e-12 0 0)
(-7.57163999e-12 0 0)
(-6.73707937e-12 0 0)
(-7.27791537e-12 0 0)
(-6.46795206e-12 0 0)
(-6.51700893e-12 0 0)
(-6.09576676e-12 0 0)
(-6.97319111e-12 0 0)
(-6.77434614e-12 0 0)
(-6.66972987e-12 0 0)
(-7.24552816e-12 0 0)
(-7.5126919e-12 0 0)
(-7.20032486e-12 0 0)
(-8.85316743e-12 0 0)
(-7.31695917e-12 0 0)
(-8.01669517e-12 0 0)
(-7.25234415e-12 0 0)
(-7.87377246e-12 0 0)
(-7.65998133e-12 0 0)
(-8.29807669e-12 0 0)
(-6.1311537e-12 0 0)
(-7.21979877e-12 0 0)
(-7.57467675e-12 0 0)
(-6.51701881e-12 0 0)
(-8.0433707e-12 0 0)
(-7.77747557e-12 0 0)
(-7.14719824e-12 0 0)
(-7.74892466e-12 0 0)
(-7.4430858e-12 0 0)
(-8.64662308e-12 0 0)
(-9.65161442e-12 0 0)
(-8.45992327e-12 0 0)
(-8.32987753e-12 0 0)
(-9.28589322e-12 0 0)
(-7.65740211e-12 0 0)
(-9.25468847e-12 0 0)
(-8.67902346e-12 0 0)
(-7.51411157e-12 0 0)
(-8.36075838e-12 0 0)
(-7.1624387e-12 0 0)
(-8.43475347e-12 0 0)
(-7.70783508e-12 0 0)
(-7.95473556e-12 0 0)
(-7.83603343e-12 0 0)
(-7.28513042e-12 0 0)
(-7.11394738e-12 0 0)
(-6.78509469e-12 0 0)
(-6.61693459e-12 0 0)
(-6.39763237e-12 0 0)
(-7.47870261e-12 0 0)
(-5.80292238e-12 0 0)
(-8.32560818e-12 0 0)
(-7.0791692e-12 0 0)
(-7.0475411e-12 0 0)
(-6.91660344e-12 0 0)
(-7.68282385e-12 0 0)
(-7.00477021e-12 0 0)
(-7.1078934e-12 0 0)
(-7.43190622e-12 0 0)
(-7.79943567e-12 0 0)
(-8.34709842e-12 0 0)
(-6.68716952e-12 0 0)
(-7.45449959e-12 0 0)
(-8.10240031e-12 0 0)
(-6.94250141e-12 0 0)
(-7.08976018e-12 0 0)
(-8.97300366e-12 0 0)
(-7.30298156e-12 0 0)
(-6.45430596e-12 0 0)
(-6.50626051e-12 0 0)
(-7.50206887e-12 0 0)
(-7.93743969e-12 0 0)
(-7.80052451e-12 0 0)
(-6.22817022e-12 0 0)
(-6.28825194e-12 0 0)
(-6.78305742e-12 0 0)
(-6.97740388e-12 0 0)
(-7.10823905e-12 0 0)
(-6.80618602e-12 0 0)
(-7.4813973e-12 0 0)
(-6.91547358e-12 0 0)
(-6.93668812e-12 0 0)
(-6.71910703e-12 0 0)
(-6.91864872e-12 0 0)
(-6.43524149e-12 0 0)
(-7.17308831e-12 0 0)
(-5.82870037e-12 0 0)
(-6.7494435e-12 0 0)
(-5.82720938e-12 0 0)
(-5.49538908e-12 0 0)
(-5.54161995e-12 0 0)
(-5.70133143e-12 0 0)
(-5.03888721e-12 0 0)
(-6.26727227e-12 0 0)
(-4.95202596e-12 0 0)
(-4.61461685e-12 0 0)
(-4.74852018e-12 0 0)
(-5.47099839e-12 0 0)
(-4.16204561e-12 0 0)
(-5.32756712e-12 0 0)
(-5.56213831e-12 0 0)
(-5.46384023e-12 0 0)
(-5.59076674e-12 0 0)
(-3.87744182e-12 0 0)
(-4.69669471e-12 0 0)
(-4.62218465e-12 0 0)
(-3.70298952e-12 0 0)
(-4.83213998e-12 0 0)
(-3.70131596e-12 0 0)
(-3.94593614e-12 0 0)
(-4.19705792e-12 0 0)
(-4.2761493e-12 0 0)
(-3.80871731e-12 0 0)
(-3.54339734e-12 0 0)
(-3.70291745e-12 0 0)
(-4.71074381e-12 0 0)
(-3.54339628e-12 0 0)
(-4.48510769e-12 0 0)
(-3.6420541e-12 0 0)
(-3.51207835e-12 0 0)
(-3.09714391e-12 0 0)
(-3.79360697e-12 0 0)
(-3.83716472e-12 0 0)
(-3.14392146e-12 0 0)
(-2.9529258e-12 0 0)
(-2.81353275e-12 0 0)
(-2.6973984e-12 0 0)
(-3.79099924e-12 0 0)
(-3.59540708e-12 0 0)
(-3.18489283e-12 0 0)
(-3.35144702e-12 0 0)
(-2.33252803e-12 0 0)
(-2.31472115e-12 0 0)
(-3.40389908e-12 0 0)
(-3.12933545e-12 0 0)
(-1.96006964e-12 0 0)
(-3.43038709e-12 0 0)
(-2.5086604e-12 0 0)
(-4.01834277e-12 0 0)
(-3.63285198e-12 0 0)
(-2.86689343e-12 0 0)
(-3.63940071e-12 0 0)
(-4.23059697e-12 0 0)
(-3.40918105e-12 0 0)
(-2.591072e-12 0 0)
(-5.03533582e-12 0 0)
(-3.70590084e-12 0 0)
(-3.53950936e-12 0 0)
(-2.95282329e-12 0 0)
(-3.08143478e-12 0 0)
(-3.3511609e-12 0 0)
(-2.99501303e-12 0 0)
(-2.78982162e-12 0 0)
(-3.15480986e-12 0 0)
(-1.09559306e-12 0 0)
(-3.10213017e-12 0 0)
(-2.35269526e-12 0 0)
(-1.64303398e-12 0 0)
(-1.29723941e-12 0 0)
(-1.36274077e-12 0 0)
(-2.57304833e-12 0 0)
(-1.61721611e-12 0 0)
(-2.09860881e-12 0 0)
(-1.15059311e-12 0 0)
(-1.4213263e-12 0 0)
(-1.16068482e-12 0 0)
(-1.41974365e-12 0 0)
(-1.09692965e-12 0 0)
(-1.28740856e-12 0 0)
(-3.77827405e-13 0 0)
(-3.65093787e-13 0 0)
(-1.54489697e-12 0 0)
(-9.36972083e-13 0 0)
(-5.86099772e-13 0 0)
(-6.56871843e-13 0 0)
(-7.23197642e-13 0 0)
(3.13299187e-13 0 0)
(3.54494677e-13 0 0)
(4.44857603e-13 0 0)
(8.84388948e-13 0 0)
(7.62132464e-13 0 0)
(1.72680588e-12 0 0)
(4.53830786e-13 0 0)
(2.56892684e-13 0 0)
(8.01711838e-13 0 0)
(8.35663014e-13 0 0)
(9.43832219e-14 0 0)
(-4.04270778e-13 0 0)
(1.62762198e-13 0 0)
(1.06608959e-13 0 0)
(-2.34558347e-13 0 0)
(-1.32261585e-13 0 0)
(6.37082929e-13 0 0)
(3.07479082e-16 0 0)
(7.57557082e-13 0 0)
(3.1168119e-13 0 0)
(6.48806697e-13 0 0)
(6.33324724e-13 0 0)
(1.76670968e-12 0 0)
(1.18067957e-12 0 0)
(1.44075249e-12 0 0)
(1.85235194e-12 0 0)
(1.47286453e-12 0 0)
(5.68374322e-14 0 0)
(5.16342351e-13 0 0)
(3.93034843e-13 0 0)
(2.05447883e-13 0 0)
(-1.34538296e-13 0 0)
(7.34103074e-13 0 0)
(-9.58054184e-13 0 0)
(-4.0346952e-13 0 0)
(-4.12776407e-13 0 0)
(-1.25840032e-12 0 0)
(-6.23293509e-13 0 0)
(-9.36649897e-13 0 0)
(2.17228364e-13 0 0)
(-7.15205788e-13 0 0)
(-1.32624417e-12 0 0)
(-5.85424136e-13 0 0)
(-9.11581457e-15 0 0)
(1.68267482e-13 0 0)
(2.31072312e-13 0 0)
(2.43671173e-13 0 0)
(-1.31191261e-13 0 0)
(-4.13697536e-13 0 0)
(-6.01678802e-13 0 0)
(-8.78033375e-13 0 0)
(-1.63934773e-13 0 0)
(-8.03567079e-13 0 0)
(4.85512505e-13 0 0)
(-4.32377656e-13 0 0)
(-3.76953454e-14 0 0)
(1.88618892e-13 0 0)
(2.98436684e-14 0 0)
(4.1765626e-13 0 0)
(-7.03084711e-13 0 0)
(-3.78476846e-13 0 0)
(-9.90788835e-13 0 0)
(-4.32433503e-13 0 0)
(-3.96544323e-13 0 0)
(-6.067584e-13 0 0)
(4.69120285e-13 0 0)
(4.03273923e-13 0 0)
(-5.63097874e-13 0 0)
(1.00451317e-12 0 0)
(1.35935001e-13 0 0)
(1.14264979e-12 0 0)
(4.50171839e-13 0 0)
(8.16460538e-13 0 0)
(5.16249891e-13 0 0)
(1.03068602e-12 0 0)
(1.35766373e-12 0 0)
(8.39261694e-13 0 0)
(-1.29598348e-13 0 0)
(6.33357327e-14 0 0)
(1.04896751e-13 0 0)
(7.6589357e-13 0 0)
(1.20338974e-13 0 0)
(7.07423176e-13 0 0)
(6.30804627e-13 0 0)
(-4.31299405e-13 0 0)
(6.31549619e-13 0 0)
(1.51048349e-12 0 0)
(9.9650102e-13 0 0)
(1.13847052e-12 0 0)
(7.42781121e-13 0 0)
(6.40782549e-13 0 0)
(1.93624631e-12 0 0)
(1.93580568e-13 0 0)
(1.20130939e-12 0 0)
(1.79338787e-12 0 0)
(9.49092657e-13 0 0)
(1.04004002e-12 0 0)
(1.11625855e-12 0 0)
(1.4538423e-12 0 0)
(4.37259905e-13 0 0)
(1.29727169e-12 0 0)
(1.01610375e-12 0 0)
(2.20070601e-12 0 0)
(1.11650306e-12 0 0)
(1.24409441e-12 0 0)
(1.71960734e-12 0 0)
(1.30448242e-12 0 0)
(1.65876175e-12 0 0)
(2.18098997e-12 0 0)
(2.46149519e-12 0 0)
(1.8438026e-12 0 0)
(2.7131133e-12 0 0)
(2.03968996e-12 0 0)
(2.43028639e-12 0 0)
(1.79830221e-12 0 0)
(1.73383736e-12 0 0)
(2.48930637e-12 0 0)
(1.71810417e-12 0 0)
(7.46141738e-13 0 0)
(1.87086976e-12 0 0)
(1.85398462e-12 0 0)
(1.88513185e-12 0 0)
(2.0283475e-12 0 0)
(1.63769235e-12 0 0)
(1.78874598e-12 0 0)
(2.46708049e-12 0 0)
(1.39539051e-12 0 0)
(2.25295481e-12 0 0)
(1.86998261e-12 0 0)
(2.25146478e-12 0 0)
(1.98190944e-12 0 0)
(1.86936361e-12 0 0)
(2.4552373e-12 0 0)
(1.83479175e-12 0 0)
(2.11989662e-12 0 0)
(3.04589698e-12 0 0)
(3.0653292e-12 0 0)
(2.74570802e-12 0 0)
(3.32419682e-12 0 0)
(2.71353715e-12 0 0)
(2.91901189e-12 0 0)
(1.20425857e-12 0 0)
(2.13935484e-12 0 0)
(1.37032158e-12 0 0)
(2.02453735e-12 0 0)
(1.99387405e-12 0 0)
(2.24554179e-12 0 0)
(1.85709671e-12 0 0)
(1.30474754e-12 0 0)
(1.45725902e-12 0 0)
(2.8586703e-12 0 0)
(1.95293756e-12 0 0)
(2.34994094e-12 0 0)
(2.10692888e-12 0 0)
(2.73310325e-12 0 0)
(2.12826712e-12 0 0)
(2.06609522e-12 0 0)
(1.85073289e-12 0 0)
(2.01253266e-12 0 0)
(2.0528331e-12 0 0)
(5.98119473e-13 0 0)
(1.61106199e-12 0 0)
(1.04096394e-12 0 0)
(1.12154668e-12 0 0)
(9.72074005e-13 0 0)
(1.4826889e-12 0 0)
(1.86173475e-12 0 0)
(1.12077995e-12 0 0)
(1.48357203e-12 0 0)
(1.15710034e-12 0 0)
(2.19035077e-12 0 0)
(8.96873202e-13 0 0)
(1.32070454e-12 0 0)
(2.43468219e-13 0 0)
(7.53966532e-13 0 0)
(6.77018374e-13 0 0)
(1.2184061e-12 0 0)
(4.63088008e-13 0 0)
(1.32821034e-13 0 0)
(1.04254949e-12 0 0)
(1.32483677e-12 0 0)
(7.33978472e-13 0 0)
(1.10372665e-12 0 0)
(1.42006557e-12 0 0)
(1.25709668e-12 0 0)
(8.08760439e-13 0 0)
(1.30555835e-12 0 0)
(2.55424252e-12 0 0)
(1.93401993e-12 0 0)
(1.31346138e-12 0 0)
(1.95692876e-12 0 0)
(1.53867871e-12 0 0)
(1.43137079e-12 0 0)
(2.33552116e-12 0 0)
(1.44973024e-12 0 0)
(1.79659192e-12 0 0)
(1.17981142e-12 0 0)
(1.60452078e-12 0 0)
(1.2084702e-12 0 0)
(1.49487188e-12 0 0)
(1.73612737e-12 0 0)
(8.5578911e-13 0 0)
(1.36277203e-12 0 0)
(2.29610938e-12 0 0)
(2.23728026e-12 0 0)
(2.4292032e-12 0 0)
(1.792304e-12 0 0)
(2.7959102e-12 0 0)
(1.72527875e-12 0 0)
(2.79813246e-12 0 0)
(2.47528609e-12 0 0)
(2.24179878e-12 0 0)
(2.00470835e-12 0 0)
(1.49836401e-12 0 0)
(2.30640727e-12 0 0)
(1.72078151e-12 0 0)
(2.51665279e-12 0 0)
(1.5227559e-12 0 0)
(3.26227186e-12 0 0)
(2.15851227e-12 0 0)
(2.44522977e-12 0 0)
(2.83320878e-12 0 0)
(3.29724113e-12 0 0)
(3.09315318e-12 0 0)
(2.17769295e-12 0 0)
(1.25023644e-12 0 0)
(1.72988814e-12 0 0)
(1.79761255e-12 0 0)
(2.25500593e-12 0 0)
(2.39069329e-12 0 0)
(2.17851066e-12 0 0)
(1.42974703e-12 0 0)
(2.35908834e-12 0 0)
(2.7100787e-12 0 0)
(1.98963271e-12 0 0)
(1.97156742e-12 0 0)
(1.36660029e-12 0 0)
(1.40614778e-12 0 0)
(2.35616568e-12 0 0)
(2.623991e-12 0 0)
(1.46255171e-12 0 0)
(2.77004237e-12 0 0)
(2.20877655e-12 0 0)
(1.51347263e-12 0 0)
(2.31107469e-12 0 0)
(2.5824564e-12 0 0)
(2.16324495e-12 0 0)
(2.05022222e-12 0 0)
(1.61026931e-12 0 0)
(2.81376928e-12 0 0)
(2.31995337e-12 0 0)
(2.14518994e-12 0 0)
(1.61621962e-12 0 0)
(2.67978389e-12 0 0)
(1.79083184e-12 0 0)
(1.22453156e-12 0 0)
(1.29780637e-12 0 0)
(1.53566895e-12 0 0)
(1.4603919e-12 0 0)
(1.03404747e-12 0 0)
(2.58245203e-12 0 0)
(1.07751613e-12 0 0)
(1.62664913e-12 0 0)
(2.45506336e-12 0 0)
(1.35801785e-12 0 0)
(8.3697304e-13 0 0)
(2.03493154e-12 0 0)
(1.60197002e-12 0 0)
(8.03593546e-13 0 0)
(1.16482731e-12 0 0)
(9.53817394e-13 0 0)
(2.0092358e-12 0 0)
(2.42054091e-12 0 0)
(1.27464526e-12 0 0)
(2.48093604e-12 0 0)
(1.85461008e-12 0 0)
(2.01236798e-12 0 0)
(2.18056406e-12 0 0)
(1.788887e-12 0 0)
(8.62504208e-13 0 0)
(1.92467113e-12 0 0)
(1.37400294e-12 0 0)
(2.04916925e-12 0 0)
(1.28464135e-12 0 0)
(1.1086915e-12 0 0)
(9.01266634e-13 0 0)
(1.05138746e-12 0 0)
(1.56009471e-12 0 0)
(6.15229313e-13 0 0)
(1.93165804e-12 0 0)
(2.17391482e-12 0 0)
(1.08985258e-12 0 0)
(1.19820812e-12 0 0)
(1.40753898e-12 0 0)
(2.67168482e-12 0 0)
(1.11722618e-12 0 0)
(1.38808617e-12 0 0)
(7.88445786e-13 0 0)
(1.203103e-12 0 0)
(1.52153965e-12 0 0)
(1.11615645e-12 0 0)
(1.17647451e-12 0 0)
(9.55003874e-13 0 0)
(5.80180004e-13 0 0)
(1.66231888e-12 0 0)
(6.4871179e-13 0 0)
(1.58259758e-12 0 0)
(1.12863284e-12 0 0)
(2.3782848e-12 0 0)
(1.44571285e-12 0 0)
(2.26843645e-12 0 0)
(2.05657774e-12 0 0)
(2.08507368e-12 0 0)
(1.989077e-12 0 0)
(1.39526386e-12 0 0)
(2.48560033e-12 0 0)
(1.77446821e-12 0 0)
(1.45881331e-12 0 0)
(1.81564295e-12 0 0)
(1.96589109e-12 0 0)
(2.31167667e-12 0 0)
(2.72015769e-12 0 0)
(3.0049667e-12 0 0)
(1.50078723e-12 0 0)
(2.03946676e-12 0 0)
(3.09686624e-12 0 0)
(3.11649237e-12 0 0)
(2.96484745e-12 0 0)
(2.79324672e-12 0 0)
(2.88208087e-12 0 0)
(3.59821613e-12 0 0)
(2.98712468e-12 0 0)
(2.22388472e-12 0 0)
(2.40235501e-12 0 0)
(2.70840501e-12 0 0)
(3.1257119e-12 0 0)
(3.90711532e-12 0 0)
(3.06213885e-12 0 0)
(2.37792699e-12 0 0)
(3.47386195e-12 0 0)
(2.49993058e-12 0 0)
(2.59132656e-12 0 0)
(3.30309019e-12 0 0)
(2.56949693e-12 0 0)
(3.13001956e-12 0 0)
(2.39729758e-12 0 0)
(2.06374757e-12 0 0)
(2.42169222e-12 0 0)
(1.80471613e-12 0 0)
(2.35846387e-12 0 0)
(1.85202379e-12 0 0)
(2.10237669e-12 0 0)
(2.01020368e-12 0 0)
(2.15894364e-12 0 0)
(2.63962507e-12 0 0)
(2.7100677e-12 0 0)
(1.95566936e-12 0 0)
(1.70300276e-12 0 0)
(2.09626349e-12 0 0)
(1.88145034e-12 0 0)
(1.45561821e-12 0 0)
(1.77043365e-12 0 0)
(8.68946341e-13 0 0)
(2.0702482e-12 0 0)
(7.06301622e-13 0 0)
(1.39926766e-12 0 0)
(1.23329904e-12 0 0)
(8.29252045e-13 0 0)
(1.45171465e-12 0 0)
(3.06776474e-13 0 0)
(2.33257058e-13 0 0)
(7.60709843e-13 0 0)
(3.86561648e-13 0 0)
(4.71469118e-14 0 0)
(-3.37523764e-13 0 0)
(6.19038899e-13 0 0)
(3.42620637e-13 0 0)
(9.79386024e-13 0 0)
(-8.78689524e-13 0 0)
(9.42759856e-14 0 0)
(7.13255883e-13 0 0)
(2.80947041e-13 0 0)
(2.04759845e-13 0 0)
(6.77738152e-13 0 0)
(1.50320049e-12 0 0)
(-3.77332246e-13 0 0)
(8.1444347e-14 0 0)
(1.53205894e-13 0 0)
(7.23807988e-13 0 0)
(-2.06867347e-14 0 0)
(-1.58937342e-13 0 0)
(3.19771054e-13 0 0)
(8.00959693e-13 0 0)
(-4.93841085e-13 0 0)
(-5.80269178e-13 0 0)
(1.51885738e-13 0 0)
(2.75950157e-13 0 0)
(1.19376678e-12 0 0)
(6.81879092e-13 0 0)
(6.86403401e-14 0 0)
(8.21574922e-14 0 0)
(1.60978509e-13 0 0)
(6.84455975e-13 0 0)
(-6.54592598e-13 0 0)
(1.09694912e-12 0 0)
(-2.16450294e-14 0 0)
(2.94721838e-13 0 0)
(-2.98352469e-13 0 0)
(2.22637527e-13 0 0)
(-2.60647663e-13 0 0)
(-3.45363636e-13 0 0)
(2.30084565e-13 0 0)
(5.08715706e-13 0 0)
(2.72176875e-14 0 0)
(7.4404429e-13 0 0)
(2.35628149e-13 0 0)
(7.84631531e-13 0 0)
(1.54641256e-12 0 0)
(9.58493244e-13 0 0)
(5.43734072e-13 0 0)
(1.07960576e-12 0 0)
(1.78642665e-12 0 0)
(1.35508485e-12 0 0)
(6.38363885e-13 0 0)
(5.17808719e-13 0 0)
(1.64315021e-13 0 0)
(8.8799787e-13 0 0)
(5.77933094e-13 0 0)
(9.32599119e-13 0 0)
(1.85889467e-12 0 0)
(1.01324712e-12 0 0)
(2.01930557e-12 0 0)
(2.36164953e-12 0 0)
(1.70472213e-12 0 0)
(2.1065781e-12 0 0)
(1.89422506e-12 0 0)
(1.27892085e-12 0 0)
(1.22272404e-12 0 0)
(1.95891458e-12 0 0)
(1.62209575e-12 0 0)
(2.16548004e-12 0 0)
(1.10545697e-12 0 0)
(2.08733488e-12 0 0)
(1.02682686e-12 0 0)
(2.01092581e-12 0 0)
(2.43511853e-12 0 0)
(2.0977754e-12 0 0)
(2.80197218e-12 0 0)
(1.69358438e-12 0 0)
(2.18122371e-12 0 0)
(2.96705989e-12 0 0)
(2.61942727e-12 0 0)
(1.75625656e-12 0 0)
(2.20975613e-12 0 0)
(2.99278489e-12 0 0)
(1.41852603e-12 0 0)
(2.47956907e-12 0 0)
(2.63240198e-12 0 0)
(2.37233293e-12 0 0)
(2.777792e-12 0 0)
(3.32433792e-12 0 0)
(2.84599644e-12 0 0)
(3.34458365e-12 0 0)
(3.72173737e-12 0 0)
(3.01721713e-12 0 0)
(2.32651168e-12 0 0)
(3.26614822e-12 0 0)
(2.7625933e-12 0 0)
(2.55844252e-12 0 0)
(2.97359205e-12 0 0)
(3.33467251e-12 0 0)
(3.09383318e-12 0 0)
(2.83072311e-12 0 0)
(2.76100006e-12 0 0)
(2.5103166e-12 0 0)
(3.06885727e-12 0 0)
(2.1689839e-12 0 0)
(2.63453428e-12 0 0)
(3.76157802e-12 0 0)
(3.63428672e-12 0 0)
(3.11864907e-12 0 0)
(2.7965157e-12 0 0)
(3.15957589e-12 0 0)
(1.33478313e-12 0 0)
(2.72891132e-12 0 0)
(2.25985739e-12 0 0)
(2.38071688e-12 0 0)
(2.32867682e-12 0 0)
(2.63992331e-12 0 0)
(3.8246172e-12 0 0)
(2.82821809e-12 0 0)
(2.29836824e-12 0 0)
(2.96908218e-12 0 0)
(2.53105165e-12 0 0)
(3.97863562e-12 0 0)
(3.27122035e-12 0 0)
(2.94564502e-12 0 0)
(2.34366511e-12 0 0)
(2.72493632e-12 0 0)
(4.29640176e-12 0 0)
(3.89841065e-12 0 0)
(3.47169196e-12 0 0)
(2.55951294e-12 0 0)
(3.0844845e-12 0 0)
(3.62442526e-12 0 0)
(3.73063649e-12 0 0)
(3.85887751e-12 0 0)
(4.81504839e-12 0 0)
(4.30332208e-12 0 0)
(4.57708619e-12 0 0)
(5.22894475e-12 0 0)
(4.57155863e-12 0 0)
(4.45442535e-12 0 0)
(4.85436839e-12 0 0)
(4.39190994e-12 0 0)
(4.571253e-12 0 0)
(4.39128694e-12 0 0)
(4.68547912e-12 0 0)
(3.97085045e-12 0 0)
(4.57608257e-12 0 0)
(4.5632126e-12 0 0)
(5.82919536e-12 0 0)
(4.13693297e-12 0 0)
(3.81940157e-12 0 0)
(4.54787055e-12 0 0)
(5.25981296e-12 0 0)
(4.7326496e-12 0 0)
(4.27696078e-12 0 0)
(4.20308108e-12 0 0)
(4.69429435e-12 0 0)
(5.54557014e-12 0 0)
(4.19099098e-12 0 0)
(4.45966821e-12 0 0)
(4.52098787e-12 0 0)
(5.15099541e-12 0 0)
(4.66610571e-12 0 0)
(4.70847635e-12 0 0)
(5.22231968e-12 0 0)
(4.50941179e-12 0 0)
(4.84459066e-12 0 0)
(5.80901267e-12 0 0)
(4.9193444e-12 0 0)
(5.21957323e-12 0 0)
(5.93330012e-12 0 0)
(4.88253779e-12 0 0)
(5.61852191e-12 0 0)
(4.70540522e-12 0 0)
(5.09921306e-12 0 0)
(6.05203068e-12 0 0)
(4.84590599e-12 0 0)
(4.81710357e-12 0 0)
(4.52382106e-12 0 0)
(3.59633818e-12 0 0)
(4.41605336e-12 0 0)
(4.90145656e-12 0 0)
(3.79615404e-12 0 0)
(3.96251413e-12 0 0)
(4.08203564e-12 0 0)
(3.68636532e-12 0 0)
(2.79902232e-12 0 0)
(3.96182028e-12 0 0)
(3.73815927e-12 0 0)
(3.73102808e-12 0 0)
(3.0567897e-12 0 0)
(3.27715815e-12 0 0)
(3.10614135e-12 0 0)
(3.03286521e-12 0 0)
(3.53944864e-12 0 0)
(2.66365696e-12 0 0)
(2.88375825e-12 0 0)
(3.16360674e-12 0 0)
(2.83878929e-12 0 0)
(2.55274462e-12 0 0)
(3.16497268e-12 0 0)
(2.79435066e-12 0 0)
(3.04702416e-12 0 0)
(2.12136616e-12 0 0)
(1.69230552e-12 0 0)
(1.88098011e-12 0 0)
(2.14582402e-12 0 0)
(2.21298185e-12 0 0)
(1.90055905e-12 0 0)
(2.32862046e-12 0 0)
(2.65619791e-12 0 0)
(2.50584575e-12 0 0)
(2.02819967e-12 0 0)
(1.63547928e-12 0 0)
(1.69745562e-12 0 0)
(1.69670293e-12 0 0)
(1.84300356e-12 0 0)
(1.17139461e-12 0 0)
(2.53085578e-12 0 0)
(1.02023451e-12 0 0)
(1.61700847e-12 0 0)
(1.8793552e-12 0 0)
(2.59411216e-12 0 0)
(1.83346119e-12 0 0)
(1.93122812e-12 0 0)
(2.1201626e-12 0 0)
(1.8314169e-12 0 0)
(2.13788207e-12 0 0)
(2.93595629e-12 0 0)
(1.71338292e-12 0 0)
(2.16066806e-12 0 0)
(1.75884406e-12 0 0)
(2.04236747e-12 0 0)
(2.16386866e-12 0 0)
(1.59900268e-12 0 0)
(2.732715e-12 0 0)
(2.10745875e-12 0 0)
(2.11672987e-12 0 0)
(2.54228078e-12 0 0)
(2.60158576e-12 0 0)
(2.77278469e-12 0 0)
(2.5415437e-12 0 0)
(2.72830279e-12 0 0)
(2.59870826e-12 0 0)
(1.75383381e-12 0 0)
(2.77334141e-12 0 0)
(2.88467765e-12 0 0)
(3.10031188e-12 0 0)
(2.79466247e-12 0 0)
(3.96551434e-12 0 0)
(4.23904854e-12 0 0)
(3.8290199e-12 0 0)
(3.13343374e-12 0 0)
(3.08235728e-12 0 0)
(2.6286113e-12 0 0)
(1.80517573e-12 0 0)
(3.48261504e-12 0 0)
(2.1822638e-12 0 0)
(2.49264613e-12 0 0)
(2.57722037e-12 0 0)
(2.17852976e-12 0 0)
(2.65888457e-12 0 0)
(2.23714648e-12 0 0)
(2.34181522e-12 0 0)
(2.52970474e-12 0 0)
(2.2274404e-12 0 0)
(1.5519888e-12 0 0)
(1.89505171e-12 0 0)
(7.71783264e-13 0 0)
(1.78194693e-13 0 0)
(1.19127747e-12 0 0)
(4.70797788e-13 0 0)
(5.38203459e-13 0 0)
(4.32530233e-13 0 0)
(4.43501745e-13 0 0)
(-2.0899971e-13 0 0)
(-2.28316665e-13 0 0)
(7.19657315e-13 0 0)
(-2.79043494e-13 0 0)
(-8.65926784e-13 0 0)
(-1.09871454e-12 0 0)
(-1.12726851e-12 0 0)
(-8.78962579e-13 0 0)
(-9.1754532e-13 0 0)
(-1.37591117e-12 0 0)
(-1.06619936e-12 0 0)
(-1.00378563e-12 0 0)
(-9.91349083e-13 0 0)
(-5.1667587e-13 0 0)
(-1.46400295e-12 0 0)
(-2.49411059e-12 0 0)
(-2.29571416e-12 0 0)
(-2.19150708e-12 0 0)
(-3.08796687e-12 0 0)
(-4.152198e-12 0 0)
(-2.77002503e-12 0 0)
(-3.28334156e-12 0 0)
(-3.64247893e-12 0 0)
(-3.76436321e-12 0 0)
(-3.60914568e-12 0 0)
(-3.74373312e-12 0 0)
(-3.68767636e-12 0 0)
(-3.27645376e-12 0 0)
(-3.71707376e-12 0 0)
(-4.09537403e-12 0 0)
(-4.66437693e-12 0 0)
(-3.88091899e-12 0 0)
(-3.76106331e-12 0 0)
(-4.31728163e-12 0 0)
(-2.6301746e-12 0 0)
(-3.86781603e-12 0 0)
(-4.46792319e-12 0 0)
(-4.82522121e-12 0 0)
(-3.37296545e-12 0 0)
(-2.25486516e-12 0 0)
(-2.93430228e-12 0 0)
(-3.78614367e-12 0 0)
(-3.17612961e-12 0 0)
(-3.26036567e-12 0 0)
(-4.18843276e-12 0 0)
(-3.2680373e-12 0 0)
(-3.25552305e-12 0 0)
(-3.90848572e-12 0 0)
(-2.70835025e-12 0 0)
(-4.51399127e-12 0 0)
(-4.27489716e-12 0 0)
(-3.21584645e-12 0 0)
(-3.6143164e-12 0 0)
(-4.18080095e-12 0 0)
(-4.20865166e-12 0 0)
(-4.14517352e-12 0 0)
(-3.46112831e-12 0 0)
(-2.12114386e-12 0 0)
(-4.07682136e-12 0 0)
(-2.86834636e-12 0 0)
(-2.23849809e-12 0 0)
(-4.01799065e-12 0 0)
(-3.21245435e-12 0 0)
(-4.57431252e-12 0 0)
(-3.38676291e-12 0 0)
(-4.48661899e-12 0 0)
(-4.24677052e-12 0 0)
(-4.58851165e-12 0 0)
(-3.45838326e-12 0 0)
(-3.81930046e-12 0 0)
(-4.14258228e-12 0 0)
(-3.45574007e-12 0 0)
(-3.99350036e-12 0 0)
(-3.53448745e-12 0 0)
(-3.12481661e-12 0 0)
(-4.72915372e-12 0 0)
(-2.52002579e-12 0 0)
(-4.15787863e-12 0 0)
(-5.0377975e-12 0 0)
(-5.10740055e-12 0 0)
(-4.25379757e-12 0 0)
(-4.32983961e-12 0 0)
(-5.37010718e-12 0 0)
(-3.70612255e-12 0 0)
(-2.98888315e-12 0 0)
(-4.35566921e-12 0 0)
(-5.76367039e-12 0 0)
(-4.81580138e-12 0 0)
(-4.63041767e-12 0 0)
(-5.56674929e-12 0 0)
(-4.2876745e-12 0 0)
(-4.97227576e-12 0 0)
(-6.10743226e-12 0 0)
(-5.35192879e-12 0 0)
(-5.39635262e-12 0 0)
(-4.76461897e-12 0 0)
(-4.71962321e-12 0 0)
(-4.7447813e-12 0 0)
(-4.68285396e-12 0 0)
(-3.86576044e-12 0 0)
(-4.26541541e-12 0 0)
(-5.62993055e-12 0 0)
(-4.5042044e-12 0 0)
(-4.24292292e-12 0 0)
(-3.20803427e-12 0 0)
(-3.81963082e-12 0 0)
(-4.11786198e-12 0 0)
(-5.24432758e-12 0 0)
(-4.51629001e-12 0 0)
(-4.08620702e-12 0 0)
(-3.92683538e-12 0 0)
(-3.98273159e-12 0 0)
(-4.55097012e-12 0 0)
(-4.22399298e-12 0 0)
(-3.78009818e-12 0 0)
(-4.14671217e-12 0 0)
(-3.91809193e-12 0 0)
(-3.86097818e-12 0 0)
(-4.31099474e-12 0 0)
(-3.02591884e-12 0 0)
(-3.30964736e-12 0 0)
(-3.65199938e-12 0 0)
(-2.9874352e-12 0 0)
(-3.58490787e-12 0 0)
(-4.51528606e-12 0 0)
(-4.45945558e-12 0 0)
(-3.97963141e-12 0 0)
(-3.46364795e-12 0 0)
(-4.45941638e-12 0 0)
(-4.25966468e-12 0 0)
(-5.06326126e-12 0 0)
(-4.37510852e-12 0 0)
(-4.56172588e-12 0 0)
(-5.17215484e-12 0 0)
(-3.40166971e-12 0 0)
(-4.37939798e-12 0 0)
(-4.69318413e-12 0 0)
(-5.00404466e-12 0 0)
(-4.47882829e-12 0 0)
(-4.22080744e-12 0 0)
(-2.727381e-12 0 0)
(-4.14854213e-12 0 0)
(-3.80445152e-12 0 0)
(-4.27806739e-12 0 0)
(-3.04724557e-12 0 0)
(-2.7438081e-12 0 0)
(-2.65326348e-12 0 0)
(-3.05184316e-12 0 0)
(-2.35011282e-12 0 0)
(-2.88762232e-12 0 0)
(-3.19475709e-12 0 0)
(-2.48087449e-12 0 0)
(-3.49864625e-12 0 0)
(-2.98042436e-12 0 0)
(-3.41315245e-12 0 0)
(-2.96947847e-12 0 0)
(-2.38449446e-12 0 0)
(-3.53331317e-12 0 0)
(-2.24534832e-12 0 0)
(-2.10303712e-12 0 0)
(-3.00771718e-12 0 0)
(-3.46359754e-12 0 0)
(-2.21890566e-12 0 0)
(-2.76611319e-12 0 0)
(-3.24592487e-12 0 0)
(-3.1095915e-12 0 0)
(-2.95310402e-12 0 0)
(-3.26352488e-12 0 0)
(-2.24840557e-12 0 0)
(-2.92726047e-12 0 0)
(-3.14411555e-12 0 0)
(-3.79761021e-12 0 0)
(-2.59360952e-12 0 0)
(-2.88798564e-12 0 0)
(-2.03903238e-12 0 0)
(-2.32178477e-12 0 0)
(-1.86188162e-12 0 0)
(-2.05204698e-12 0 0)
(-1.87463728e-12 0 0)
(-2.93569245e-12 0 0)
(-3.00868063e-12 0 0)
(-2.53647982e-12 0 0)
(-2.12992721e-12 0 0)
(-1.90356813e-12 0 0)
(-2.41853686e-12 0 0)
(-2.14937155e-12 0 0)
(-2.17572848e-12 0 0)
(-1.42473032e-12 0 0)
(-1.94821209e-12 0 0)
(-1.69110703e-12 0 0)
(-2.3885132e-12 0 0)
(-2.21837325e-12 0 0)
(-3.01847883e-12 0 0)
(-1.5943457e-12 0 0)
(-2.55317209e-12 0 0)
(-1.82783914e-12 0 0)
(-1.21653686e-12 0 0)
(-2.00850496e-12 0 0)
(-1.36805195e-12 0 0)
(-5.64516893e-13 0 0)
(-1.36861981e-12 0 0)
(-1.22723261e-12 0 0)
(-1.36624792e-12 0 0)
(-1.87723326e-12 0 0)
(-8.53744344e-13 0 0)
(-1.74775857e-12 0 0)
(-1.62338032e-12 0 0)
(-2.35622774e-12 0 0)
(-1.26600315e-12 0 0)
(-1.74945541e-12 0 0)
(-2.36333585e-12 0 0)
(-1.91124928e-12 0 0)
(-1.43525786e-12 0 0)
(-2.08566142e-12 0 0)
(-1.26216375e-12 0 0)
(-2.1991469e-12 0 0)
(-1.68145731e-12 0 0)
(-1.88868081e-12 0 0)
(-1.70950932e-12 0 0)
(-1.31224054e-12 0 0)
(-9.9169538e-13 0 0)
(-2.35480669e-12 0 0)
(-1.63281912e-12 0 0)
(-1.35936719e-12 0 0)
(-1.1842637e-12 0 0)
(-1.18637811e-12 0 0)
(-1.10584234e-12 0 0)
(-6.03459542e-13 0 0)
(-1.5126468e-12 0 0)
(-3.49920819e-13 0 0)
(-6.75559993e-13 0 0)
(3.34330342e-13 0 0)
(-1.74081185e-13 0 0)
(-3.93786775e-14 0 0)
(-7.17415379e-13 0 0)
(-1.26646546e-13 0 0)
(-1.77746902e-13 0 0)
(-2.48327268e-13 0 0)
(8.79550807e-14 0 0)
(1.66297239e-13 0 0)
(5.38747211e-13 0 0)
(1.83308875e-13 0 0)
(-1.52484935e-13 0 0)
(5.22699016e-13 0 0)
(9.91476965e-14 0 0)
(3.61922637e-13 0 0)
(-9.2847598e-15 0 0)
(-2.04251084e-13 0 0)
(4.60314104e-13 0 0)
(-5.6939223e-13 0 0)
(4.45716237e-13 0 0)
(-3.78923014e-14 0 0)
(1.22116871e-12 0 0)
(1.12229739e-13 0 0)