/*--------------------------------*- C++ -*----------------------------------*\
| =========                 |                                                 |
| \\      /  F ield         | OpenFOAM: The Open Source CFD Toolbox           |
|  \\    /   O peration     | Version:  2206                                  |
|   \\  /    A nd           | Website:  www.openfoam.com                      |
|    \\/     M anipulation  |                                                 |
\*---------------------------------------------------------------------------*/
FoamFile
{
    version     2.0;
    format      ascii;
    arch        "LSB;label=32;scalar=64";
    class       volVectorField;
    location    "1.6e-06";
    object      U;
}
// * * * * * * * * * * * * * * * * * * * * * * * * * * * * * * * * * * * * * //

dimensions      [0 1 -1 0 0 0 0];

internalField   nonuniform List<vector> 
3183
(
(1.88366726e-14 0 0)
(-5.40572932e-15 0 0)
(-1.61842178e-19 0 0)
(-1.5961692e-14 0 0)
(-1.67959447e-14 0 0)
(-1.12791849e-19 0 0)
(-8.83924341e-21 0 0)
(-9.81851959e-26 0 0)
(3.23364906e-26 0 0)
(8.43901216e-25 0 0)
(5.49095343e-20 0 0)
(7.0475374e-19 0 0)
(5.99604471e-14 0 0)
(2.98864624e-14 0 0)
(-4.5425657e-14 0 0)
(-5.51529791e-14 0 0)
(5.4164966e-14 0 0)
(-8.14377333e-15 0 0)
(-1.41372815e-13 0 0)
(1.35221675e-14 0 0)
(8.53834335e-14 0 0)
(2.18767176e-18 0 0)
(1.82317647e-19 0 0)
(4.30036791e-23 0 0)
(5.67535381e-19 0 0)
(6.92479951e-18 0 0)
(1.54538857e-13 0 0)
(-8.94710426e-19 0 0)
(-1.6397794e-13 0 0)
(2.99845458e-14 0 0)
(-1.0261152e-13 0 0)
(4.15326225e-14 0 0)
(9.61351504e-14 0 0)
(-7.35612814e-14 0 0)
(1.65493193e-18 0 0)
(8.1447019e-14 0 0)
(-8.5716567e-14 0 0)
(-9.01903329e-14 0 0)
(9.48828855e-14 0 0)
(-7.10694523e-18 0 0)
(-1.05101559e-13 0 0)
(-1.65846151e-13 0 0)
(5.81267418e-14 0 0)
(1.37786868e-13 0 0)
(1.44956294e-13 0 0)
(1.6992555e-14 0 0)
(7.13679527e-14 0 0)
(-8.71595075e-17 0 0)
(-1.38127269e-13 0 0)
(-6.23873924e-14 0 0)
(-2.20404872e-14 0 0)
(-9.18788616e-14 0 0)
(-1.20837125e-13 0 0)
(-1.97517479e-16 0 0)
(2.14079123e-13 0 0)
(5.69117777e-14 0 0)
(5.94408482e-14 0 0)
(1.24653112e-13 0 0)
(3.26611474e-14 0 0)
(-6.89836611e-14 0 0)
(-1.45418249e-13 0 0)
(-1.91559383e-13 0 0)
(-8.06779123e-14 0 0)
(-1.27002568e-13 0 0)
(-8.84320861e-14 0 0)
(4.64865123e-14 0 0)
(4.94954972e-14 0 0)
(2.06893661e-13 0 0)
(1.63687641e-13 0 0)
(1.56515034e-15 0 0)
(1.78610692e-13 0 0)
(6.59035144e-14 0 0)
(1.76138157e-17 0 0)
(2.0810575e-13 0 0)
(1.49479585e-13 0 0)
(-7.08889552e-14 0 0)
(2.45329638e-13 0 0)
(3.47850552e-13 0 0)
(2.74092474e-13 0 0)
(5.75008766e-13 0 0)
(7.05214924e-13 0 0)
(5.2418263e-13 0 0)
(6.64959482e-13 0 0)
(3.58653568e-13 0 0)
(3.87660893e-13 0 0)
(7.5909706e-13 0 0)
(3.98603159e-13 0 0)
(3.17875375e-13 0 0)
(5.70699836e-13 0 0)
(-2.89558684e-13 0 0)
(1.7796038e-13 0 0)
(-4.8658448e-15 0 0)
(-5.07746738e-13 0 0)
(-5.5662009e-13 0 0)
(-5.39719903e-14 0 0)
(-2.21534775e-13 0 0)
(-5.30989903e-13 0 0)
(1.94420709e-13 0 0)
(4.85879182e-13 0 0)
(3.35519929e-13 0 0)
(4.9355904e-13 0 0)
(7.95521269e-13 0 0)
(4.29952794e-13 0 0)
(1.28066282e-12 0 0)
(1.93365869e-13 0 0)
(6.78803394e-13 0 0)
(3.25722159e-13 0 0)
(7.7105074e-13 0 0)
(1.44785384e-13 0 0)
(-6.28975858e-14 0 0)
(1.39586677e-13 0 0)
(4.84700293e-13 0 0)
(-4.62100432e-13 0 0)
(-8.9302696e-13 0 0)
(1.21005507e-13 0 0)
(-9.337504e-14 0 0)
(-1.6431429e-13 0 0)
(-1.82992718e-13 0 0)
(5.86335259e-13 0 0)
(1.53393838e-13 0 0)
(-1.42457385e-14 0 0)
(2.33902317e-13 0 0)
(2.41880001e-13 0 0)
(-6.51821564e-13 0 0)
(-3.11196067e-13 0 0)
(1.39199641e-13 0 0)
(-2.49767919e-13 0 0)
(-1.26816756e-12 0 0)
(-4.53421295e-13 0 0)
(-1.30169123e-12 0 0)
(3.87132692e-13 0 0)
(-6.59477003e-13 0 0)
(-6.12481452e-13 0 0)
(-1.019494e-12 0 0)
(-5.36595406e-13 0 0)
(-3.75298946e-13 0 0)
(-6.95536668e-13 0 0)
(-9.14110602e-13 0 0)
(-3.36131519e-13 0 0)
(7.78560329e-14 0 0)
(-2.65136908e-13 0 0)
(-7.02290925e-13 0 0)
(6.31923567e-13 0 0)
(-1.0858566e-13 0 0)
(5.8896953e-13 0 0)
(5.04684861e-13 0 0)
(1.38570008e-13 0 0)
(6.40782949e-13 0 0)
(-2.59190977e-13 0 0)
(-3.5817711e-13 0 0)
(5.03271993e-13 0 0)
(6.85411553e-14 0 0)
(-1.73454679e-13 0 0)
(-1.94388516e-13 0 0)
(2.88680411e-13 0 0)
(-5.13822577e-13 0 0)
(-2.16405478e-13 0 0)
(5.86563454e-13 0 0)
(4.12648359e-13 0 0)
(4.36573714e-13 0 0)
(3.06345318e-13 0 0)
(1.05349324e-12 0 0)
(6.17996403e-13 0 0)
(6.03580927e-13 0 0)
(5.25503221e-13 0 0)
(7.04414998e-13 0 0)
(-5.57578687e-13 0 0)
(-3.36418778e-14 0 0)
(1.49937438e-13 0 0)
(-3.44685436e-13 0 0)
(-1.46873534e-12 0 0)
(-2.97324414e-13 0 0)
(-6.18928495e-13 0 0)
(-2.3612818e-13 0 0)
(-8.18202413e-13 0 0)
(-1.08256274e-12 0 0)
(-1.01583591e-12 0 0)
(-1.14924498e-12 0 0)
(-1.0370381e-12 0 0)
(-1.24377231e-12 0 0)
(-3.51719187e-13 0 0)
(-5.75909886e-13 0 0)
(-2.04215417e-13 0 0)
(4.72422199e-13 0 0)
(2.48988663e-13 0 0)
(1.44447859e-13 0 0)
(-5.12640028e-13 0 0)
(-6.76001986e-13 0 0)
(-1.17490531e-12 0 0)
(-2.03125157e-13 0 0)
(-2.29953622e-13 0 0)
(-4.50911231e-13 0 0)
(-8.23773369e-13 0 0)
(1.03838e-13 0 0)
(-2.10833617e-13 0 0)
(-4.29739869e-13 0 0)
(-4.78297457e-13 0 0)
(-6.32596374e-13 0 0)
(-2.0651908e-13 0 0)
(-4.46640719e-13 0 0)
(6.7569846e-13 0 0)
(-2.26006378e-13 0 0)
(1.22408663e-12 0 0)
(1.15006693e-12 0 0)
(9.33474958e-13 0 0)
(6.14082298e-13 0 0)
(6.74629533e-13 0 0)
(1.18704398e-12 0 0)
(5.31249383e-13 0 0)
(7.70907659e-13 0 0)
(2.52100467e-13 0 0)
(2.25234596e-13 0 0)
(-6.03445881e-13 0 0)
(8.72222705e-13 0 0)
(-3.76210431e-13 0 0)
(4.39339627e-13 0 0)
(8.99190441e-13 0 0)
(6.55468503e-13 0 0)
(1.06055418e-12 0 0)
(4.02795892e-13 0 0)
(2.49136808e-13 0 0)
(1.17483964e-12 0 0)
(1.10652889e-12 0 0)
(5.46788162e-13 0 0)
(1.15582885e-13 0 0)
(-6.97215316e-13 0 0)
(9.2828076e-13 0 0)
(7.93747056e-13 0 0)
(6.19586936e-13 0 0)
(4.67303318e-13 0 0)
(9.04365884e-13 0 0)
(-3.92800671e-13 0 0)
(4.09913403e-13 0 0)
(8.62317758e-13 0 0)
(8.15656785e-13 0 0)
(2.2492952e-13 0 0)
(1.0290171e-12 0 0)
(1.12705142e-12 0 0)
(2.13512388e-13 0 0)
(8.03282402e-13 0 0)
(4.86612295e-13 0 0)
(1.64200846e-13 0 0)
(5.68239716e-13 0 0)
(7.47745933e-13 0 0)
(5.40773956e-13 0 0)
(-2.5687413e-13 0 0)
(1.06939351e-14 0 0)
(1.25432646e-13 0 0)
(8.26962697e-13 0 0)
(-9.23488525e-14 0 0)
(5.1772164e-13 0 0)
(-3.79139771e-13 0 0)
(-3.47615435e-13 0 0)
(5.1033065e-13 0 0)
(2.87826242e-13 0 0)
(3.68769922e-13 0 0)
(2.95907847e-13 0 0)
(3.96829131e-13 0 0)
(3.22826654e-13 0 0)
(-5.95160597e-13 0 0)
(2.33972896e-14 0 0)
(1.18229592e-12 0 0)
(1.49657867e-13 0 0)
(3.50184387e-14 0 0)
(2.33762374e-13 0 0)
(2.4426425e-13 0 0)
(5.36410441e-15 0 0)
(2.48650295e-13 0 0)
(2.25848437e-13 0 0)
(-5.88725865e-13 0 0)
(3.76941709e-13 0 0)
(-5.48595092e-13 0 0)
(-4.47394574e-13 0 0)
(3.3038916e-14 0 0)
(1.767789e-13 0 0)
(-6.72973732e-14 0 0)
(-7.34164001e-13 0 0)
(-7.01433258e-13 0 0)
(-1.00545943e-12 0 0)
(-7.01234934e-13 0 0)
(-1.34414741e-12 0 0)
(-1.2186727e-12 0 0)
(-8.00475967e-13 0 0)
(-6.95590881e-13 0 0)
(-9.1013141e-13 0 0)
(-6.73293121e-13 0 0)
(-7.34842405e-13 0 0)
(-6.66763584e-13 0 0)
(-9.57700027e-13 0 0)
(2.69706084e-14 0 0)
(-3.95139303e-13 0 0)
(-1.20772423e-12 0 0)
(-4.65330783e-13 0 0)
(-1.19942353e-12 0 0)
(-1.88408042e-12 0 0)
(-1.31718734e-12 0 0)
(-1.43855089e-12 0 0)
(-1.65086982e-12 0 0)
(-2.09458227e-12 0 0)
(-2.74100049e-12 0 0)
(-6.29028863e-13 0 0)
(-2.40874517e-12 0 0)
(-1.49774821e-12 0 0)
(-2.26309412e-12 0 0)
(-2.25380068e-12 0 0)
(-2.66614886e-12 0 0)
(-2.04862356e-12 0 0)
(-1.69118492e-12 0 0)
(-1.80818663e-12 0 0)
(-1.78532805e-12 0 0)
(-2.30025706e-12 0 0)
(-2.22067954e-12 0 0)
(-1.77002206e-12 0 0)
(-1.68360548e-12 0 0)
(-2.1337362e-12 0 0)
(-2.47255514e-12 0 0)
(-2.16924863e-12 0 0)
(-1.98330871e-12 0 0)
(-2.20366841e-12 0 0)
(-2.57328599e-12 0 0)
(-2.11344944e-12 0 0)
(-2.28290366e-12 0 0)
(-3.04666257e-12 0 0)
(-1.9887416e-12 0 0)
(-2.83493014e-12 0 0)
(-2.30668202e-12 0 0)
(-2.13095976e-12 0 0)
(-2.13648796e-12 0 0)
(-1.52114533e-12 0 0)
(-1.60360276e-12 0 0)
(-1.15544214e-12 0 0)
(-1.05112988e-12 0 0)
(-1.00693093e-12 0 0)
(-3.59281451e-13 0 0)
(-7.8954224e-13 0 0)
(-3.14537385e-13 0 0)
(-3.49404202e-13 0 0)
(-7.30082363e-13 0 0)
(-7.68679214e-13 0 0)
(-4.03735694e-13 0 0)
(-7.8619951e-13 0 0)
(-6.36121596e-13 0 0)
(-1.09111121e-12 0 0)
(-8.14740202e-13 0 0)
(-4.199226e-13 0 0)
(-1.00798775e-12 0 0)
(-9.27058131e-13 0 0)
(-5.44684839e-13 0 0)
(-1.15632166e-12 0 0)
(-7.64446375e-13 0 0)
(-2.70330445e-13 0 0)
(-5.46193072e-14 0 0)
(-8.92105684e-13 0 0)
(-4.07103164e-13 0 0)
(-3.62488827e-13 0 0)
(-8.58454177e-14 0 0)
(-2.24595066e-13 0 0)
(-6.63387818e-13 0 0)
(-5.55870944e-13 0 0)
(-4.95850512e-13 0 0)
(-3.89832936e-13 0 0)
(-1.05770153e-12 0 0)
(-1.53285497e-12 0 0)
(-1.70901681e-12 0 0)
(-8.54881698e-13 0 0)
(-2.1989899e-12 0 0)
(-2.23499131e-12 0 0)
(-1.1538197e-12 0 0)
(-1.37202492e-12 0 0)
(-1.35847742e-12 0 0)
(-1.33872104e-12 0 0)
(-1.88805465e-12 0 0)
(-8.77076145e-13 0 0)
(-2.11683685e-12 0 0)
(-1.25040753e-12 0 0)
(-1.73346618e-12 0 0)
(-1.47939982e-12 0 0)
(-1.33084766e-12 0 0)
(-1.28841146e-12 0 0)
(-1.91050966e-12 0 0)
(-1.33342746e-12 0 0)
(-1.23656471e-12 0 0)
(-1.09476243e-12 0 0)
(-1.18060794e-12 0 0)
(-1.03365577e-12 0 0)
(-6.99120036e-13 0 0)
(-6.33090228e-13 0 0)
(1.37779869e-13 0 0)
(-3.87679805e-13 0 0)
(-6.35727222e-13 0 0)
(-2.46023802e-13 0 0)
(-6.66083828e-14 0 0)
(-6.69541153e-13 0 0)
(-5.55246169e-13 0 0)
(-5.93566699e-13 0 0)
(-3.3356139e-13 0 0)
(-1.04460862e-12 0 0)
(-1.1996365e-12 0 0)
(-1.36815311e-12 0 0)
(-1.21073032e-12 0 0)
(-3.63034543e-13 0 0)
(-4.78856054e-13 0 0)
(-1.35354118e-12 0 0)
(-4.60924171e-13 0 0)
(-7.95289889e-13 0 0)
(2.63625485e-13 0 0)
(-8.60109746e-13 0 0)
(-9.44509273e-13 0 0)
(-1.48283174e-12 0 0)
(-1.36123553e-12 0 0)
(-4.02093016e-13 0 0)
(-8.83375233e-14 0 0)
(-1.36903082e-12 0 0)
(-5.2348989e-13 0 0)
(7.58403269e-14 0 0)
(-3.12410695e-13 0 0)
(1.72544694e-13 0 0)
(-3.65120428e-13 0 0)
(-2.29035364e-13 0 0)
(-4.30251976e-16 0 0)
(-2.15111176e-13 0 0)
(-1.48377563e-13 0 0)
(6.18803361e-13 0 0)
(1.02153698e-12 0 0)
(-2.84208803e-13 0 0)
(3.75930113e-13 0 0)
(2.8944277e-13 0 0)
(-1.52378969e-14 0 0)
(5.26899368e-15 0 0)
(5.92443171e-13 0 0)
(1.13002087e-12 0 0)
(3.66675193e-13 0 0)
(1.75700756e-13 0 0)
(9.70752435e-13 0 0)
(-3.46627901e-13 0 0)
(-1.37998591e-12 0 0)
(-2.02493353e-13 0 0)
(-8.07994541e-14 0 0)
(-7.51723841e-13 0 0)
(8.30932419e-13 0 0)
(5.33347006e-13 0 0)
(1.10988352e-12 0 0)
(-3.87519259e-13 0 0)
(3.96544013e-13 0 0)
(5.18025014e-14 0 0)
(-8.65414714e-14 0 0)
(8.57043297e-13 0 0)
(1.13250062e-12 0 0)
(-3.59076653e-13 0 0)
(5.66800386e-13 0 0)
(-1.25904598e-13 0 0)
(-9.5181485e-14 0 0)
(3.37368213e-13 0 0)
(-2.07459329e-13 0 0)
(3.75799025e-14 0 0)
(-5.03047121e-13 0 0)
(7.85444369e-13 0 0)
(3.27010403e-13 0 0)
(-7.23138285e-13 0 0)
(1.41416031e-13 0 0)
(-5.54793466e-13 0 0)
(-3.91362169e-14 0 0)
(-1.0130764e-13 0 0)
(2.09473407e-15 0 0)
(1.99002961e-13 0 0)
(8.35880985e-13 0 0)
(8.1101853e-13 0 0)
(3.9665595e-13 0 0)
(1.18417074e-12 0 0)
(1.40961234e-12 0 0)
(6.13736224e-13 0 0)
(1.41472135e-12 0 0)
(2.58559553e-13 0 0)
(1.07976582e-12 0 0)
(1.15081179e-12 0 0)
(4.68254983e-13 0 0)
(2.17870963e-13 0 0)
(2.83954315e-13 0 0)
(8.06433038e-13 0 0)
(2.66259919e-13 0 0)
(1.0102341e-12 0 0)
(6.70357968e-13 0 0)
(1.25186774e-12 0 0)
(7.05928722e-13 0 0)
(1.22932551e-12 0 0)
(2.45917157e-13 0 0)
(6.55899437e-13 0 0)
(7.89950781e-13 0 0)
(1.91542304e-13 0 0)
(5.08602349e-13 0 0)
(1.43067914e-13 0 0)
(1.44531379e-12 0 0)
(1.46313363e-13 0 0)
(2.26079638e-13 0 0)
(1.08994306e-12 0 0)
(-7.27857119e-13 0 0)
(-2.88149871e-13 0 0)
(1.53249055e-13 0 0)
(-9.88315604e-13 0 0)
(-2.12239142e-13 0 0)
(-6.18534681e-13 0 0)
(-5.73221973e-13 0 0)
(-5.6819731e-13 0 0)
(1.44403021e-13 0 0)
(-1.05049746e-12 0 0)
(6.50017106e-14 0 0)
(-1.37261291e-12 0 0)
(-3.01439036e-13 0 0)
(-5.72054559e-13 0 0)
(-1.28891516e-13 0 0)
(-8.85126015e-13 0 0)
(-3.6524628e-13 0 0)
(-1.14994952e-12 0 0)
(-5.15337503e-13 0 0)
(-3.62454238e-13 0 0)
(-1.07636081e-12 0 0)
(-9.38947049e-13 0 0)
(-5.48065173e-13 0 0)
(-1.70066317e-12 0 0)
(-5.71788603e-13 0 0)
(-1.16282274e-12 0 0)
(-2.19525137e-13 0 0)
(-8.08401547e-13 0 0)
(-1.19321519e-12 0 0)
(-3.83495319e-13 0 0)
(-6.11530742e-13 0 0)
(-5.69975222e-13 0 0)
(3.2284013e-13 0 0)
(-1.42409356e-13 0 0)
(-5.22490095e-13 0 0)
(-1.0643191e-12 0 0)
(-2.64197464e-13 0 0)
(-1.33509628e-12 0 0)
(-9.52236895e-13 0 0)
(-4.12809116e-13 0 0)
(-4.10385048e-13 0 0)
(-1.08542829e-12 0 0)
(-1.31345747e-12 0 0)
(-9.68950105e-13 0 0)
(-7.85223444e-13 0 0)
(-1.74068038e-12 0 0)
(-1.26326463e-12 0 0)
(-1.48815695e-12 0 0)
(-1.76139267e-12 0 0)
(-6.74704628e-13 0 0)
(-1.45376171e-13 0 0)
(-1.30382602e-12 0 0)
(-1.20309914e-12 0 0)
(-1.2528161e-12 0 0)
(-8.62582908e-13 0 0)
(-1.9669509e-12 0 0)
(-1.17145096e-12 0 0)
(-1.83826042e-12 0 0)
(-5.02715799e-13 0 0)
(-1.11712152e-12 0 0)
(-4.81686896e-13 0 0)
(-3.67299801e-13 0 0)
(-5.21686426e-13 0 0)
(-3.90515356e-13 0 0)
(-7.46602805e-13 0 0)
(-9.04113398e-13 0 0)
(-8.29771896e-13 0 0)
(-9.55634483e-13 0 0)
(1.60940353e-13 0 0)
(9.25616009e-13 0 0)
(1.2197873e-13 0 0)
(7.95451326e-13 0 0)
(7.90737781e-14 0 0)
(4.61235014e-13 0 0)
(9.98895035e-13 0 0)
(1.3380023e-12 0 0)
(1.76542457e-12 0 0)
(1.64304101e-12 0 0)
(2.52385562e-12 0 0)
(1.53316788e-12 0 0)
(2.25519441e-12 0 0)
(1.700126e-12 0 0)
(7.49032539e-13 0 0)
(1.57184576e-12 0 0)
(1.14166882e-12 0 0)
(9.6082898e-13 0 0)
(1.11206835e-12 0 0)
(1.66346166e-12 0 0)
(9.67301323e-13 0 0)
(2.36332985e-12 0 0)
(1.92776403e-12 0 0)
(1.70214666e-12 0 0)
(1.75783854e-12 0 0)
(5.96819541e-13 0 0)
(1.27891959e-12 0 0)
(5.92015061e-13 0 0)
(1.33464388e-12 0 0)
(1.21947005e-12 0 0)
(1.06192515e-12 0 0)
(6.37214817e-13 0 0)
(1.5728656e-12 0 0)
(9.1179808e-13 0 0)
(3.45109608e-13 0 0)
(3.97825262e-13 0 0)
(8.97176454e-13 0 0)
(2.97940175e-13 0 0)
(9.99324466e-13 0 0)
(1.05692092e-12 0 0)
(7.92325442e-13 0 0)
(7.8184012e-13 0 0)
(1.58183445e-13 0 0)
(7.85939866e-13 0 0)
(7.64179938e-13 0 0)
(2.74145871e-13 0 0)
(1.31206793e-12 0 0)
(-4.04281922e-13 0 0)
(5.85231392e-13 0 0)
(1.1998781e-12 0 0)
(1.66510881e-14 0 0)
(3.26063655e-13 0 0)
(8.02650541e-13 0 0)
(1.36951104e-12 0 0)
(1.36831467e-13 0 0)
(1.01289358e-12 0 0)
(1.02262089e-12 0 0)
(1.05054894e-12 0 0)
(8.71719269e-13 0 0)
(6.50367297e-13 0 0)
(5.22426138e-13 0 0)
(7.92832187e-13 0 0)
(1.3629425e-12 0 0)
(4.71159478e-13 0 0)
(1.7253913e-13 0 0)
(9.41086236e-13 0 0)
(6.53523585e-13 0 0)
(-4.43939771e-13 0 0)
(3.08404994e-13 0 0)
(6.79950862e-13 0 0)
(1.76527026e-13 0 0)
(1.70710923e-13 0 0)
(3.25081587e-13 0 0)
(-2.87157033e-13 0 0)
(1.96829782e-13 0 0)
(-4.57740916e-13 0 0)
(-8.55626703e-13 0 0)
(-3.91639075e-13 0 0)
(-2.68382787e-13 0 0)
(-1.6146303e-12 0 0)
(-7.50752464e-13 0 0)
(-1.93172598e-12 0 0)
(-5.87292183e-13 0 0)
(-1.75442421e-12 0 0)
(-9.275683e-13 0 0)
(-1.78086025e-12 0 0)
(-2.04760577e-13 0 0)
(-1.46060227e-12 0 0)
(-1.0796864e-12 0 0)
(-2.67095267e-13 0 0)
(-7.06886335e-13 0 0)
(-1.35423975e-12 0 0)
(-3.71252231e-13 0 0)
(-5.17925396e-13 0 0)
(-8.54288349e-13 0 0)
(-1.5171658e-12 0 0)
(-1.25210189e-12 0 0)
(-1.40318752e-12 0 0)
(-1.66242583e-12 0 0)
(-1.00601334e-12 0 0)
(-1.68728515e-12 0 0)
(-1.58012207e-12 0 0)
(-3.72564131e-13 0 0)
(-1.44261739e-12 0 0)
(-1.85157024e-13 0 0)
(-8.4881855e-13 0 0)
(-1.17782161e-13 0 0)
(-5.98369459e-13 0 0)
(3.71344713e-14 0 0)
(5.237154e-13 0 0)
(6.87926656e-13 0 0)
(-1.85193772e-13 0 0)
(1.7356201e-13 0 0)
(-2.73226164e-14 0 0)
(4.45723419e-13 0 0)
(1.39246122e-13 0 0)
(-7.50419609e-14 0 0)
(-4.47453685e-13 0 0)
(-1.57445458e-13 0 0)
(-3.56729361e-13 0 0)
(3.31511269e-13 0 0)
(-3.2105901e-13 0 0)
(2.64379929e-13 0 0)
(4.37058968e-14 0 0)
(3.66052289e-13 0 0)
(4.28612664e-13 0 0)
(2.55340121e-14 0 0)
(3.56259163e-13 0 0)
(3.71956085e-13 0 0)
(3.87348109e-13 0 0)
(7.48870873e-14 0 0)
(4.85095463e-13 0 0)
(1.61758733e-12 0 0)
(1.68923402e-12 0 0)
(1.73989434e-12 0 0)
(1.17533272e-12 0 0)
(2.56235635e-12 0 0)
(2.01609185e-12 0 0)
(2.0609108e-12 0 0)
(2.30037705e-12 0 0)
(2.74893016e-12 0 0)
(1.0519695e-12 0 0)
(1.48063195e-12 0 0)
(1.8189871e-12 0 0)
(9.21124031e-13 0 0)
(1.49730564e-12 0 0)
(1.19372685e-12 0 0)
(8.23595918e-13 0 0)
(1.3098737e-12 0 0)
(1.56285574e-12 0 0)
(1.30729024e-12 0 0)
(1.63402851e-12 0 0)
(9.26078274e-13 0 0)
(8.14553277e-13 0 0)
(9.70569046e-13 0 0)
(5.85668125e-13 0 0)
(1.13005942e-12 0 0)
(1.03181945e-12 0 0)
(1.34940801e-12 0 0)
(2.03928413e-12 0 0)
(1.17044321e-12 0 0)
(1.08185439e-12 0 0)
(1.75821784e-12 0 0)
(1.15387358e-12 0 0)
(8.83172558e-13 0 0)
(1.79657767e-12 0 0)
(1.91974295e-12 0 0)
(1.11236139e-12 0 0)
(1.35422442e-12 0 0)
(1.58000655e-12 0 0)
(1.51806258e-12 0 0)
(1.23778646e-12 0 0)
(1.37442393e-12 0 0)
(2.09665477e-12 0 0)
(1.84615302e-12 0 0)
(2.09720533e-12 0 0)
(1.09842239e-12 0 0)
(1.47975229e-12 0 0)
(2.95024826e-13 0 0)
(3.22474435e-13 0 0)
(4.830313e-13 0 0)
(8.53726443e-13 0 0)
(3.75311617e-13 0 0)
(1.08788013e-12 0 0)
(8.18890298e-13 0 0)
(7.51990525e-13 0 0)
(8.09831197e-13 0 0)
(-6.84235644e-14 0 0)
(3.71326651e-13 0 0)
(6.23065452e-13 0 0)
(2.7651819e-13 0 0)
(1.15630375e-12 0 0)
(1.98911183e-13 0 0)
(5.3376296e-13 0 0)
(1.9380852e-13 0 0)
(2.07223126e-13 0 0)
(2.44789409e-13 0 0)
(-4.99172111e-13 0 0)
(2.94891289e-13 0 0)
(-7.04059546e-13 0 0)
(2.08857502e-13 0 0)
(2.08072287e-14 0 0)
(-3.16849329e-13 0 0)
(-1.88623797e-13 0 0)
(2.02327464e-13 0 0)
(6.37232887e-13 0 0)
(6.00901001e-14 0 0)
(1.93066207e-13 0 0)
(-3.79385497e-13 0 0)
(4.44268954e-14 0 0)
(3.61251846e-13 0 0)
(3.51606703e-13 0 0)
(4.38721859e-13 0 0)
(-3.41557491e-13 0 0)
(-6.86399402e-13 0 0)
(4.1774588e-13 0 0)
(5.20736872e-13 0 0)
(-4.90373436e-13 0 0)
(8.38064571e-14 0 0)
(-2.7925369e-13 0 0)
(-1.05933573e-12 0 0)
(-5.44013972e-13 0 0)
(-4.64129376e-13 0 0)
(-3.48652589e-13 0 0)
(-3.52371458e-13 0 0)
(3.55414548e-13 0 0)
(-5.53842319e-13 0 0)
(-2.78033053e-13 0 0)
(1.09409018e-13 0 0)
(-1.95709419e-13 0 0)
(-3.58856315e-13 0 0)
(-6.62037789e-13 0 0)
(1.45034853e-13 0 0)
(-2.29472956e-13 0 0)
(8.45526473e-13 0 0)
(2.35108417e-13 0 0)
(3.41619733e-14 0 0)
(-7.15287467e-13 0 0)
(3.3289862e-13 0 0)
(-3.77106674e-13 0 0)
(2.35448603e-13 0 0)
(1.13979161e-13 0 0)
(-3.77505275e-13 0 0)
(-6.78825133e-13 0 0)
(-1.5314613e-12 0 0)
(-9.32073553e-13 0 0)
(-1.07580874e-12 0 0)
(-6.52456705e-13 0 0)
(-8.93736619e-13 0 0)
(-1.03030897e-12 0 0)
(-3.85838302e-13 0 0)
(-1.26213829e-12 0 0)
(-1.48649169e-13 0 0)
(2.25228589e-13 0 0)
(-7.33878043e-14 0 0)
(-1.04429125e-13 0 0)
(4.51988182e-13 0 0)
(-3.95297502e-13 0 0)
(6.19496916e-13 0 0)
(-7.97851095e-13 0 0)
(-3.57348316e-14 0 0)
(3.11391347e-13 0 0)
(6.12480422e-13 0 0)
(-3.13731872e-13 0 0)
(-7.64847302e-14 0 0)
(-7.95049527e-13 0 0)
(-6.15182258e-13 0 0)
(-2.03802333e-13 0 0)
(-4.90170246e-13 0 0)
(-1.33822894e-12 0 0)
(-6.94810995e-13 0 0)
(-1.06214447e-12 0 0)
(-4.32916004e-13 0 0)
(-9.19345491e-13 0 0)
(-5.88127993e-13 0 0)
(-8.43461677e-14 0 0)
(-2.15134729e-13 0 0)
(-9.60497184e-13 0 0)
(-1.29328693e-12 0 0)
(-8.25097311e-13 0 0)
(-4.64895218e-13 0 0)
(-5.9369464e-13 0 0)
(-1.03559388e-12 0 0)
(-2.19621173e-13 0 0)
(5.03333306e-13 0 0)
(-4.76709067e-13 0 0)
(-6.74715891e-14 0 0)
(-1.95968221e-13 0 0)
(-2.25757198e-13 0 0)
(-5.08189997e-13 0 0)
(6.2638255e-13 0 0)
(4.05916475e-13 0 0)
(-9.94315276e-13 0 0)
(-3.34864353e-13 0 0)
(1.31663625e-13 0 0)
(-8.34035902e-15 0 0)
(-1.6747875e-13 0 0)
(5.80781632e-16 0 0)
(2.52831486e-14 0 0)
(-2.02299412e-13 0 0)
(7.76068411e-13 0 0)
(-2.39792523e-13 0 0)
(4.77692862e-13 0 0)
(-7.02217133e-13 0 0)
(-5.40218898e-13 0 0)
(-1.40971366e-13 0 0)
(-4.18254949e-13 0 0)
(2.23925779e-13 0 0)
(1.56019645e-13 0 0)
(-3.13282567e-14 0 0)
(1.46372399e-12 0 0)
(1.41433443e-12 0 0)
(2.63344964e-13 0 0)
(-1.87219523e-13 0 0)
(2.37674784e-13 0 0)
(1.34365855e-14 0 0)
(9.95995246e-13 0 0)
(1.33947481e-13 0 0)
(9.30247754e-14 0 0)
(-5.11562304e-14 0 0)
(-4.27491769e-13 0 0)
(5.13685769e-13 0 0)
(-6.41744715e-13 0 0)
(-3.45688616e-14 0 0)
(-5.56747766e-13 0 0)
(-8.97699169e-13 0 0)
(6.85925109e-13 0 0)
(3.97328143e-13 0 0)
(5.03342144e-13 0 0)
(9.59239569e-14 0 0)
(5.6771979e-13 0 0)
(3.02502562e-13 0 0)
(3.71919172e-13 0 0)
(1.64039915e-13 0 0)
(-1.65584668e-14 0 0)
(-3.67423057e-13 0 0)
(3.15623143e-13 0 0)
(-7.57225421e-14 0 0)
(4.28165048e-13 0 0)
(6.22984519e-14 0 0)
(2.19881416e-15 0 0)
(-1.60696805e-13 0 0)
(-6.39668199e-14 0 0)
(-2.69108294e-13 0 0)
(5.3781386e-13 0 0)
(-2.44792644e-13 0 0)
(3.63603739e-13 0 0)
(-4.23672063e-13 0 0)
(-6.62780128e-13 0 0)
(-2.62824911e-13 0 0)
(-2.85207637e-13 0 0)
(-7.03746737e-13 0 0)
(7.87861198e-13 0 0)
(-2.03610342e-13 0 0)
(8.54583663e-13 0 0)
(-7.28977458e-15 0 0)
(1.07631999e-13 0 0)
(-9.71754823e-13 0 0)
(-5.52341596e-14 0 0)
(7.57336654e-13 0 0)
(-1.50542237e-13 0 0)
(5.26939589e-13 0 0)
(4.34814673e-13 0 0)
(5.51644649e-13 0 0)
(1.8255904e-13 0 0)
(-4.72792121e-13 0 0)
(-5.45678615e-13 0 0)
(1.50645068e-13 0 0)
(4.90351806e-13 0 0)
(4.01848145e-13 0 0)
(5.84600683e-13 0 0)
(6.77273897e-13 0 0)
(8.62220461e-13 0 0)
(4.39297686e-13 0 0)
(-2.72479096e-13 0 0)
(-2.75151445e-13 0 0)
(1.41520602e-13 0 0)
(-1.76942185e-13 0 0)
(-8.1396916e-13 0 0)
(-1.83470832e-13 0 0)
(2.21985502e-13 0 0)
(-3.29084673e-13 0 0)
(2.28496217e-13 0 0)
(-3.18176243e-13 0 0)
(6.14646517e-13 0 0)
(-1.09297393e-13 0 0)
(8.18444885e-13 0 0)
(3.16651633e-13 0 0)
(7.93423302e-14 0 0)
(-1.98498719e-13 0 0)
(2.5510553e-13 0 0)
(8.45995173e-14 0 0)
(-4.98932177e-13 0 0)
(-1.30053986e-13 0 0)
(-4.66025797e-13 0 0)
(-2.76306451e-13 0 0)
(-2.47830454e-13 0 0)
(-1.77940534e-13 0 0)
(-1.78510607e-13 0 0)
(-4.51572961e-13 0 0)
(-4.05610995e-13 0 0)
(-3.01886235e-13 0 0)
(5.86638825e-14 0 0)
(-1.21463431e-13 0 0)
(-2.70535735e-13 0 0)
(3.48414816e-13 0 0)
(4.83939624e-13 0 0)
(6.64671536e-13 0 0)
(1.31439026e-12 0 0)
(3.25235533e-13 0 0)
(1.41293107e-12 0 0)
(1.30752993e-12 0 0)
(1.0062329e-12 0 0)
(1.59931008e-12 0 0)
(2.11158494e-12 0 0)
(1.26619058e-12 0 0)
(1.94265318e-12 0 0)
(1.69245886e-12 0 0)
(2.19379344e-12 0 0)
(2.62696242e-12 0 0)
(2.1376226e-12 0 0)
(1.88358847e-12 0 0)
(1.61004962e-12 0 0)
(2.12475317e-12 0 0)
(2.02413397e-12 0 0)
(1.91353198e-12 0 0)
(1.73142545e-12 0 0)
(1.56557418e-12 0 0)
(2.35879166e-12 0 0)
(3.02976867e-12 0 0)
(1.40675311e-12 0 0)
(1.63264847e-12 0 0)
(1.15526042e-12 0 0)
(1.85446716e-12 0 0)
(1.46101148e-12 0 0)
(2.15639325e-12 0 0)
(1.65016355e-12 0 0)
(1.64004517e-12 0 0)
(1.71365263e-12 0 0)
(1.27624546e-12 0 0)
(1.41794075e-12 0 0)
(2.09742825e-12 0 0)
(1.90935026e-12 0 0)
(2.97756502e-12 0 0)
(2.07955051e-12 0 0)
(2.38944652e-12 0 0)
(2.15651282e-12 0 0)
(2.48602321e-12 0 0)
(2.55719339e-12 0 0)
(2.07078728e-12 0 0)
(2.43536151e-12 0 0)
(1.3101101e-12 0 0)
(1.83416918e-12 0 0)
(1.44689189e-12 0 0)
(1.45031448e-12 0 0)
(1.27696445e-12 0 0)
(1.67343449e-12 0 0)
(8.714429e-13 0 0)
(8.331977e-13 0 0)
(5.19106047e-13 0 0)
(5.02066863e-13 0 0)
(2.64423537e-13 0 0)
(6.7152042e-13 0 0)
(4.28190258e-13 0 0)
(-7.31481119e-14 0 0)
(-1.0338786e-12 0 0)
(-1.28152632e-13 0 0)
(-6.05633179e-13 0 0)
(-4.10417765e-13 0 0)
(-3.13221105e-13 0 0)
(-7.6072904e-13 0 0)
(-5.99078294e-14 0 0)
(-1.25880957e-12 0 0)
(1.47128496e-13 0 0)
(-1.09963511e-13 0 0)
(-1.80343037e-12 0 0)
(-7.01767234e-13 0 0)
(-1.82225575e-12 0 0)
(-7.64821656e-13 0 0)
(-1.42017354e-12 0 0)
(-4.56190813e-13 0 0)
(-8.62731873e-13 0 0)
(-1.68333692e-12 0 0)
(-1.25190181e-12 0 0)
(-9.52228024e-13 0 0)
(-5.30795112e-13 0 0)
(-9.8194728e-13 0 0)
(-6.98227759e-13 0 0)
(-1.19139579e-12 0 0)
(-5.44294605e-13 0 0)
(2.33506984e-13 0 0)
(1.10892386e-14 0 0)
(-2.69038954e-13 0 0)
(7.28392327e-13 0 0)
(8.40260716e-13 0 0)
(-3.12643357e-13 0 0)
(9.20816303e-13 0 0)
(-1.11653532e-14 0 0)
(-2.23779571e-13 0 0)
(1.39681227e-13 0 0)
(5.94472194e-13 0 0)
(4.61381604e-13 0 0)
(1.42990748e-13 0 0)
(9.32536418e-13 0 0)
(7.62428241e-13 0 0)
(7.38220563e-13 0 0)
(8.08858216e-13 0 0)
(1.07259069e-12 0 0)
(1.17994641e-12 0 0)
(6.85341267e-13 0 0)
(8.6498801e-13 0 0)
(1.45043835e-12 0 0)
(1.08958602e-12 0 0)
(5.36599771e-13 0 0)
(2.88020657e-13 0 0)
(1.05154648e-12 0 0)
(8.40186356e-13 0 0)
(1.23297664e-12 0 0)
(5.78331213e-13 0 0)
(1.52397526e-12 0 0)
(7.84596328e-13 0 0)
(1.30899204e-12 0 0)
(1.7198684e-12 0 0)
(1.47417155e-12 0 0)
(1.56912247e-12 0 0)
(9.54692111e-13 0 0)
(4.26739763e-13 0 0)
(1.04586649e-12 0 0)
(1.35381883e-12 0 0)
(1.37101987e-12 0 0)
(8.07318051e-13 0 0)
(1.59664913e-12 0 0)
(1.29170356e-12 0 0)
(8.99084409e-13 0 0)
(1.57934049e-12 0 0)
(1.22957482e-12 0 0)
(5.45772548e-13 0 0)
(5.80855116e-13 0 0)
(1.21740463e-12 0 0)
(1.00183169e-12 0 0)
(9.07564261e-13 0 0)
(1.06202005e-12 0 0)
(9.42970759e-13 0 0)
(6.33968488e-14 0 0)
(7.42347592e-13 0 0)
(-2.17910326e-13 0 0)
(4.60904893e-13 0 0)
(-4.35306327e-13 0 0)
(-4.76833356e-14 0 0)
(-7.63636445e-13 0 0)
(-3.86186252e-13 0 0)
(-4.65265951e-13 0 0)
(-7.94782687e-13 0 0)
(-5.25306738e-14 0 0)
(-4.80099083e-13 0 0)
(-8.0725804e-13 0 0)
(-1.82445412e-13 0 0)
(-1.81725355e-13 0 0)
(-2.91091988e-13 0 0)
(-9.67850419e-13 0 0)
(-1.25369051e-12 0 0)
(-1.19995942e-12 0 0)
(-1.08774289e-12 0 0)
(-1.04289896e-12 0 0)
(-5.98926206e-13 0 0)
(-1.52143199e-12 0 0)
(-1.17000055e-12 0 0)
(-1.11922645e-12 0 0)
(-6.84306201e-13 0 0)
(-2.30877331e-12 0 0)
(-1.12447478e-12 0 0)
(-1.72664283e-13 0 0)
(-1.34674162e-12 0 0)
(-1.87241685e-12 0 0)
(-5.97086199e-13 0 0)
(-8.42502126e-13 0 0)
(-3.31270931e-13 0 0)
(-5.04655034e-14 0 0)
(-5.04465444e-13 0 0)
(-4.47272711e-13 0 0)
(-3.74892387e-13 0 0)
(-6.18917035e-13 0 0)
(-9.30412737e-14 0 0)
(-1.65743774e-12 0 0)
(-7.98439115e-13 0 0)
(-7.96581784e-13 0 0)
(-1.01321842e-13 0 0)
(-1.8034632e-14 0 0)
(-5.74118133e-14 0 0)
(-1.29198786e-12 0 0)
(-9.4148021e-14 0 0)
(3.92006272e-13 0 0)
(-1.03287474e-13 0 0)
(2.09451988e-13 0 0)
(4.17291262e-15 0 0)
(-3.84090645e-13 0 0)
(-1.79356724e-13 0 0)
(-2.56510441e-14 0 0)
(5.92235584e-14 0 0)
(-4.30103669e-13 0 0)
(-8.91191386e-14 0 0)
(2.43627478e-13 0 0)
(4.15548542e-14 0 0)
(-1.43407168e-13 0 0)
(6.14032319e-13 0 0)
(1.64935318e-13 0 0)
(-1.90346009e-13 0 0)
(6.36303073e-13 0 0)
(-3.72177281e-15 0 0)
(-3.45159208e-13 0 0)
(-6.99742436e-13 0 0)
(1.42447839e-13 0 0)
(-5.53174835e-13 0 0)
(-1.17953025e-12 0 0)
(-7.29850192e-13 0 0)
(-9.32264866e-13 0 0)
(-9.85183706e-13 0 0)
(-6.32416849e-13 0 0)
(-7.89033086e-13 0 0)
(-6.17257604e-13 0 0)
(-6.004306e-13 0 0)
(-8.40703534e-13 0 0)
(-5.48792809e-13 0 0)
(2.26526481e-13 0 0)
(-1.08057866e-12 0 0)
(-8.8148105e-13 0 0)
(-1.1571659e-12 0 0)
(2.60631812e-13 0 0)
(-7.91632249e-13 0 0)
(-7.49396546e-13 0 0)
(-5.91314432e-13 0 0)
(-6.8541365e-13 0 0)
(-5.05463926e-13 0 0)
(-2.95116907e-13 0 0)
(-8.06763073e-13 0 0)
(-9.47723628e-13 0 0)
(-1.67098403e-12 0 0)
(-1.41975652e-12 0 0)
(-1.76283317e-12 0 0)
(-1.34269662e-12 0 0)
(-1.24734411e-12 0 0)
(-1.42418003e-12 0 0)
(-1.45021247e-12 0 0)
(-1.38627417e-12 0 0)
(-1.73818816e-12 0 0)
(-1.83214271e-12 0 0)
(-1.98033327e-12 0 0)
(-1.4407253e-12 0 0)
(-1.61832432e-12 0 0)
(-1.22640288e-12 0 0)
(-7.96730204e-13 0 0)
(-6.03939444e-13 0 0)
(-1.55823994e-12 0 0)
(-1.23096915e-12 0 0)
(-1.76895234e-12 0 0)
(-2.3236791e-12 0 0)
(-1.04358848e-12 0 0)
(-1.52172331e-12 0 0)
(-1.28264322e-12 0 0)
(-1.55325791e-12 0 0)
(-1.43219793e-12 0 0)
(-1.74152465e-13 0 0)
(-8.69479099e-13 0 0)
(-7.59089575e-13 0 0)
(-1.25249876e-12 0 0)
(-1.14233666e-12 0 0)
(-8.96500318e-13 0 0)
(-1.50395096e-12 0 0)
(-5.83951309e-13 0 0)
(-1.97672183e-12 0 0)
(-5.33721472e-13 0 0)
(-1.59124536e-12 0 0)
(-1.01401158e-12 0 0)
(-7.28075435e-13 0 0)
(1.51533403e-13 0 0)
(-6.35353391e-13 0 0)
(1.1425316e-13 0 0)
(2.33464955e-13 0 0)
(3.84337828e-13 0 0)
(-6.29365477e-13 0 0)
(-1.60221717e-12 0 0)
(1.0961075e-13 0 0)
(-8.24446782e-13 0 0)
(-5.50410403e-13 0 0)
(-7.46724493e-13 0 0)
(-7.45608008e-13 0 0)
(-7.78625997e-13 0 0)
(-5.46819143e-13 0 0)
(-4.820296e-13 0 0)
(8.60427161e-14 0 0)
(-8.17464805e-14 0 0)
(1.0765755e-13 0 0)
(2.4163872e-13 0 0)
(-5.93308726e-13 0 0)
(-9.67891881e-14 0 0)
(5.79474119e-13 0 0)
(3.25166421e-13 0 0)
(4.10790186e-14 0 0)
(-2.0662262e-13 0 0)
(-1.66294157e-13 0 0)
(-1.10692352e-13 0 0)
(-7.57775861e-13 0 0)
(-3.71661756e-14 0 0)
(-6.33071019e-14 0 0)
(-7.94731435e-13 0 0)
(3.22034798e-13 0 0)
(-4.62459418e-13 0 0)
(-1.13781992e-12 0 0)
(-1.42206898e-12 0 0)
(-4.80428332e-13 0 0)
(1.85060275e-13 0 0)
(-4.9037823e-13 0 0)
(-5.8467581e-13 0 0)
(-5.89589152e-13 0 0)
(-7.30370087e-13 0 0)
(-1.32689831e-12 0 0)
(-2.68221529e-13 0 0)
(-9.17495853e-13 0 0)
(-1.30250775e-12 0 0)
(-5.85809361e-13 0 0)
(-7.22912656e-13 0 0)
(-1.03448027e-12 0 0)
(-1.24906945e-12 0 0)
(-7.90657149e-13 0 0)
(-1.64603131e-12 0 0)
(-1.21366366e-12 0 0)
(-1.53447334e-12 0 0)
(-1.3591656e-12 0 0)
(-1.16769115e-12 0 0)
(-7.72921521e-13 0 0)
(-6.13648975e-13 0 0)
(-1.54517204e-12 0 0)
(-6.10532838e-13 0 0)
(-8.42828422e-13 0 0)
(-9.78758983e-13 0 0)
(-1.23673706e-12 0 0)
(-3.97821366e-13 0 0)
(-9.99448269e-13 0 0)
(-1.43138041e-12 0 0)
(-1.40877206e-12 0 0)
(-1.17622696e-12 0 0)
(-2.13838159e-12 0 0)
(-1.64235561e-12 0 0)
(-6.00303192e-13 0 0)
(-1.48164556e-12 0 0)
(-1.55050157e-12 0 0)
(-3.77594655e-13 0 0)
(-8.7317899e-13 0 0)
(-1.1646418e-12 0 0)
(-1.24274443e-12 0 0)
(-1.60362231e-12 0 0)
(-5.27678287e-13 0 0)
(-3.04972221e-13 0 0)
(-1.097851e-12 0 0)
(-1.85838985e-13 0 0)
(-1.46767784e-12 0 0)
(-1.40670886e-12 0 0)
(-1.13179316e-12 0 0)
(-1.14657541e-12 0 0)
(1.07531916e-13 0 0)
(-6.18544776e-13 0 0)
(-2.66549663e-13 0 0)
(2.40606155e-13 0 0)
(4.86806809e-14 0 0)
(2.98023037e-13 0 0)
(8.19940261e-13 0 0)
(1.03882173e-12 0 0)
(1.00242116e-12 0 0)
(9.43850352e-13 0 0)
(1.32105059e-12 0 0)
(1.37911654e-12 0 0)
(2.12632919e-12 0 0)
(1.84998421e-12 0 0)
(1.71950231e-12 0 0)
(1.82388042e-12 0 0)
(1.97158187e-12 0 0)
(7.56029531e-13 0 0)
(6.47346057e-13 0 0)
(5.43166248e-13 0 0)
(7.62912449e-13 0 0)
(1.16917413e-12 0 0)
(1.76304965e-13 0 0)
(1.14558265e-12 0 0)
(1.56249238e-12 0 0)
(1.94902854e-12 0 0)
(1.04872862e-12 0 0)
(1.08544534e-12 0 0)
(9.63622099e-13 0 0)
(5.56545319e-13 0 0)
(9.02858532e-13 0 0)
(6.50929713e-13 0 0)
(5.82054604e-13 0 0)
(9.49947862e-13 0 0)
(1.53247873e-12 0 0)
(2.07585317e-13 0 0)