/*--------------------------------*- C++ -*----------------------------------*\
| =========                 |                                                 |
| \\      /  F ield         | OpenFOAM: The Open Source CFD Toolbox           |
|  \\    /   O peration     | Version:  2206                                  |
|   \\  /    A nd           | Website:  www.openfoam.com                      |
|    \\/     M anipulation  |                                                 |
\*---------------------------------------------------------------------------*/
FoamFile
{
    version     2.0;
    format      ascii;
    arch        "LSB;label=32;scalar=64";
    class       volScalarField;
    location    "8e-06";
    object      p;
}
// * * * * * * * * * * * * * * * * * * * * * * * * * * * * * * * * * * * * * //

dimensions      [1 -1 -2 0 0 0 0];

internalField   nonuniform List<scalar> 
3183
(
101325
101325
101325
101325
101325
101325
101325
101325
101325
101325
101325
101325
101325
101325
101325
101325
101325
101325
101325
101325
101325
101325
101325
101325
101325
101325
101325
101325
101325
101325
101325
101325
101325
101325
101325
101325
101325
101325
101325
101325
101325
101325
101325
101325
101325
101325
101325
101325
101325
101325
101325
101325
101325
101325
101325
101325
101325
101325
101325
101325
101325
101325
101325
101325
101325
101325
101325
101325
101325
101325
101325
101325
101325
101325
101325
101325
101325
101325
101325
101325
101325
101325
101325
101325
101325
101325
101325
101325
101325
101325
101325
101325
101325
101325
101325
101325
101325
101325
101325
101325
101325
101325
101325
101325
101325
101325
101325
101325
101325
101325
101325
101325
101325
101325
101325
101325
101325
101325
101325
101325
101325
101325
101325
101325
101325
101325
101325
101325
101325
101325
101325
101325
101325
101325
101325
101325
101325
101325
101325
101325
101325
101325
101325
101325
101325
101325
101325
101325
101325
101325
101325
101325
101325
101325
101325
101325
101325
101325
101325
101325
101325
101325
101325
101325
101325
101325
101325
101325
101325
101325
101325
101325
101325
101325
101325
101325
101325
101325
101325
101325
101325
101325
101325
101325
101325
101325
101325
101325
101325
101325
101325
101325
101325
101325
101325
101325
101325
101325
101325
101325
101325
101325
101325
101325
101325
101325
101325
101325
101325
101325
101325
101325
101325
101325
101325
101325
101325
101325
101325
101325
101325
101325
101325
101325
101325
101325
101325
101325
101325
101325
101325
101325
101325
101325
101325
101325
101325
101325
101325
101325
101325
101325
101325
101325
101325
101325
101325
101325
101325
101325
101325
101325
101325
101325
101325
101325
101325
101325
101325
101325
101325
101325
101325
101325
101325
101325
101325
101325
101325
101325
101325
101325
101325
101325
101325
101325
101325
101325
101325
101325
101325
101325
101325
101325
101325
101325
101325
101325
101325
101325
101325
101325
101325
101325
101325
101325
101325
101325
101325
101325
101325
101325
101325
101325
101325
101325
101325
101325
101325
101325
101325
101325
101325
101325
101325
101325
101325
101325
101325
101325
101325
101325
101325
101325
101325
101325
101325
101325
101325
101325
101325
101325
101325
101325
101325
101325
101325
101325
101325
101325
101325
101325
101325
101325
101325
101325
101325
101325
101325
101325
101325
101325
101325
101325
101325
101325
101325
101325
101325
101325
101325
101325
101325
101325
101325
101325
101325
101325
101325
101325
101325
101325
101325
101325
101325
101325
101325
101325
101325
101325
101325
101325
101325
101325
101325
101325
101325
101325
101325
101325
101325
101325
101325
101325
101325
101325
101325
101325
101325
101325
101325
101325
101325
101325
101325
101325
101325
101325
101325
101325
101325
101325
101325
101325
101325
101325
101325
101325
101325
101325
101325
101325
101325
101325
101325
101325
101325
101325
101325
101325
101325
101325
101325
101325
101325
101325
101325
101325
101325
101325
101325
101325
101325
101325
101325
101325
101325
101325
101325
101325
101325
101325
101325
101325
101325
101325
101325
101325
101325
101325
101325
101325
101325
101325
101325
101325
101325
101325
101325
101325
101325
101325
101325
101325
101325
101325
101325
101325
101325
101325
101325
101325
101325
101325
101325
101325
101325
101325
101325
101325
101325
101325
101325
101325
101325
101325
101325
101325
101325
101325
101325
101325
101325
101325
101325
101325
101325
101325
101325
101325
101325
101325
101325
101325
101325
101325
101325
101325
101325
101325
101325
101325
101325
101325
101325
101325
101325
101325
101325
101325
101325
101325
101325
101325
101325
101325
101325
101325
101325
101325
101325
101325
101325
101325
101325
101325
101325
101325
101325
101325
101325
101325
101325
101325
101325
101325
101325
101325
101325
101325
101325
101325
101325
101325
101325
101325
101325
101325
101325
101325
101325
101325
101325
101325
101325
101325
101325
101325
101325
101325
101325
101325
101325
101325
101325
101325
101325
101325
101325
101325
101325
101325
101325
101325
101325
101325
101325
101325
101325
101325
101325
101325
101325
101325
101325
101325
101325
101325
101325
101325
101325
101325
101325
101325
101325
101325
101325
101325
101325
101325
101325
101325
101325
101325
101325
101325
101325
101325
101325
101325
101325
101325
101325
101325
101325
101325
101325
101325
101325
101325
101325
101325
101325
101325
101325
101325
101325
101325
101325
101325
101325
101325
101325
101325
101325
101325
101325
101325
101325
101325
101325
101325
101325
101325
101325
101325
101325
101325
101325
101325
101325
101325
101325
101325
101325
101325
101325
101325
101325
101325
101325
101325
101325
101325
101325
101325
101325
101325
101325
101325
101325
101325
101325
101325
101325
101325
101325
101325
101325
101325
101325
101325
101325
101325
101325
101325
101325
101325
101325
101325
101325
101325
101325
101325
101325
101325
101325
101325
101325
101325
101325
101325
101325
101325
101325
101325
101325
101325
101325
101325
101325
101325
101325
101325
101325
101325
101325
101325
101325
101325
101325
101325
101325
101325
101325
101325
101325
101325
101325
101325
101325
101325
101325
101325
101325
101325
101325
101325
101325
101325
101325
101325
101325
101325
101325
101325
101325
101325
101325
101325
101325
101325
101325
101325
101325
101325
101325
101325
101325
101325
101325
101325
101325
101325
101325
101325
101325
101325
101325
101325
101325
101325
101325
101325
101325
101325
101325
101325
101325
101325
101325
101325
101325
101325
101325
101325
101325
101325
101325
101325
101325
101325
101325
101325
101325
101325
101325
101325
101325
101325
101325
101325
101325
101325
101325
101325
101325
101325
101325
101325
101325
101325
101325
101325
101325
101325
101325
101325
101325
101325
101325
101325
101325
101325
101325
101325
101325
101325
101325
101325
101325
101325
101325
101325
101325
101325
101325
101325
101325
101325
101325
101325
101325
101325
101325
101325
101325
101325
101325
101325
101325
101325
101325
101325
101325
101325
101325
101325
101325
101325
101325
101325
101325
101325
101325
101325
101325
101325
101325
101325
101325
101325
101325
101325
101325
101325
101325
101325
101325
101325
101325
101325
101325
101325
101325
101325
101325
101325
101325
101325
101325
101325
101325
101325
101325
101325
101325
101325
101325
101325
101325
101325
101325
101325
101325
101325
101325
101325
101325
101325
101325
101325
101325
101325
101325
101325
101325
101325
101325
101325
101325
101325
101325
101325
101325
101325
101325
101325
101325
101325
101325
101325
101325
101325
101325
101325
101325
101325
101325
101325
101325
101325
101325
101325
101325
101325
101325
101325
101325
101325
101325
101325
101325
101325
101325
101325
101325
101325
101325
101325
101325
101325
101325
101325
101325
101325
101325
101325
101325
101325
101325
101325
101325
101325
101325
101325
101325
101325
101325
101325
101325
101325
101325
101325
101325
101325
101325
101325
101325
101325
101325
101325
101325
101325
101325
101325
101325
101325
101325
101325
101325
101325
101325
101325
101325
101325
101325
101325
101325
101325
101325
101325
101325
101325
101325
101325
101325
101325
101325
101325
101325
101325
101325
101325
101325
101325
101325
101325
101325
101325
101325
101325
101325
101325
101325
101325
101325
101325
101325
101325
101325
101325
101325
101325
101325
101325
101325
101325
101325
101325
101325
101325
101325
101325
101325
101325
101325
101325
101325
101325
101325
101325
101325
101325
101325
101325
101325
101325
101325
101325
101325
101325
101325
101325
101325
101325
101325
101325
101325
101325
101325
101325
101325
101325
101325
101325
101325
101325
101325
101325
101325
101325
101325
101325
101325
101325
101325
101325
101325
101325
101325
101325
101325
101325
101325
101325
101325
101325
101325
101325
101325
101325
101325
101325
101325
101325
101325
101325
101325
101325
101325
101325
101325
101325
101325
101325
101325
101325
101325
101325
101325
101325
101325
101325
101325
101325
101325
101325
101325
101325
101325
101325
101325
101325
101325
101325
101325
101325
101325
101325
101325
101325
101325
101325
101325
101325
101325
101325
101325
101325
101325
101325
101325
101325
101325
101325
101325
101325
101325
101325
101325
101325
101325
101325
101325
101325
101325
101325
101325
101325
101325
101325
101325
101325
101325
101325
101325
101325
101325
101325
101325
101325
101325
101325
101325
101325
101325
101325
101325
101325
101325
101325
101325
101325
101325
101325
101325
101325
101325
101325
101325
101325
101325
101325
101325
101325
101325
101325
101325
101325
101325
101325
101325
101325
101325
101325
101325
101325
101325
101325
101325
101325
101325
101325
101325
101325
101325
101325
101325
101325
101325
101325
101325
101325
101325
101325
101325
101325
101325
101325
101325
101325
101325
101325
101325
101325
101325
101325
101325
101325
101325
101325
101325
101325
101325
101325
101325
101325
101325
101325
101325
101325
101325
101325
101325
101325
101325
101325
101325
101325
101325
101325
101325
101325
101325
101325
101325
101325
101325
101325
101325
101325
101325
101325
101325
101325
101325
101325
101325
101325
101325
101325
101325
101325
101325
101325
101325
101325
101325
101325
101325
101325
101325
101325
101325
101325
101325
101325
101325
101325
101325
101325
101325
101325
101325
101325
101325
101325
101325
101325
101325
101325
101325
101325
101325
101325
101325
101325
101325
101325
101325
101325
101325
101325
101325
101325
101325
101325
101325
101325
101325
101325
101325
101325
101325
101325
101325
101325
101325
101325
101325
101325
101325
101325
101325
101325
101325
101325
101325
101325
101325
101325
101325
101325
101325
101325
101325
101325
101325
101325
101325
101325
101325
101325
101325
101325
101325
101325
101325
101325
101325
101325
101325
101325
101325
101325
101325
101325
101325
101325
101325
101325
101325
101325
101325
101325
101325
101325
101325
101325
101325
101325
101325
101325
101325
101325
101325
101325
101325
101325
101325
101325
101325
101325
101325
101325
101325
101325
101325
101325
101325
101325
101325
101325
101325
101325
101325
101325
101325
101325
101325
101325
101325
101325
101325
101325
101325
101325
101325
101325
101325
101325
101325
101325
101325
101325
101325
101325
101325
101325
101325
101325
101325
101325
101325
101325
101325
101325
101325
101325
101325
101325
101325
101325
101325
101325
101325
101325
101325
101325
101325
101325
101325
101325
101325
101325
101325
101325
101325
101325
101325
101325
101325
101325
101325
101325
101325
101325
101325
101325
101325
101325
101325
101325
101325
101325
101325
101325
101325
101325
101325
101325
101325
101325
101325
101325
101325
101325
101325
101325
101325
101325
101325
101325
101325
101325
101325
101325
101325
101325
101325
101325
101325
101325
101325
101325
101325
101325
101325
101325
101325
101325
101325
101325
101325
101325
101325
101325
101325
101325
101325
101325
101325
101325
101325
101325
101325
101325
101325
101325
101325
101325
101325
101325
101325
101325
101325
101325
101325
101325
101325
101325
101325
101325
101325
101325
101325
101325
101325
101325
101325
101325
101325
101325
101325
101325
101325
101325
101325
101325
101325
101325
101325
101325
101325
101325
101325
101325
101325
101325
101325
101325
101325
101325
101325
101325
101325
101325
101325
101325
101325
101325
101325
101325
101325
101325
101325
101325
101325
101325
101325
101325
101325
101325
101325
101325
101325
101325
101325
101325
101325
101325
101325
101325
101325
101325
101325
101325
101325
101325
101325
101325
101325
101325
101325
101325
101325
101325
101325
101325
101325
101325
101325
101325
101325
101325
101325
101325
101325
101325
101325
101325
101325
101325
101325
101325
101325
101325
101325
101325
101325
101325
101325
101325
101325
101325
101325
101325
101325
101325
101325
101325
101325
101325
101325
101325
101325
101325
101325
101325
101325
101325
101325
101325
101325
101325
101325
101325
101325
101325
101325
101325
101325
101325
101325
101325
101325
101325
101325
101325
101325
101325
101325
101325
101325
101325
101325
101325
101325
101325
101325
101325
101325
101325
101325
101325
101325
101325
101325
101325
101325
101325
101325
101325
101325
101325
101325
101325
101325
101325
101325
101325
101325
101325
101325
101325
101325
101325
101325
101325
101325
101325
101325
101325
101325
101325
101325
101325
101325
101325
101325
101325
101325
101325
101325
101325
101325
101325
101325
101325
101325
101325
101325
101325
101325
101325
101325
101325
101325
101325
101325
101325
101325
101325
101325
101325
101325
101325
101325
101325
101325
101325
101325
101325
101325
101325
101325
101325
101325
101325
101325
101325
101325
101325
101325
101325
101325
101325
101325
101325
101325
101325
101325
101325
101325
101325
101325
101325
101325
101325
101325
101325
101325
101325
101325
101325
101325
101325
101325
101325
101325
101325
101325
101325
101325
101325
101325
101325
101325
101325
101325
101325
101325
101325
101325
101325
101325
101325
101325
101325
101325
101325
101325
101325
101325
101325
101325
101325
101325
101325
101325
101325
101325
101325
101325
101325
101325
101325
101325
101325
101325
101325
101325
101325
101325
101325
101325
101325
101325
101325
101325
101325
101325
101325
101325
101325
101325
101325
101325
101325
101325
101325
101325
101325
101325
101325
101325
101325
101325
101325
101325
101325
101325
101325
101325
101325
101325
101325
101325
101325
101325
101325
101325
101325
101325
101325
101325
101325
101325
101325
101325
101325
101325
101325
101325
101325
101325
101325
101325
101325
101325
101325
101325
101325
101325
101325
101325
101325
101325
101325
101325
101325
101325
101325
101325
101325
101325
101325
101325
101325
101325
101325
101325
101325
101325
101325
101325
101325
101325
101325
101325
101325
101325
101325
101325
101325
101325
101325
101325
101325
101325
101325
101325
101325
101325
101325
101325
101325
101325
101325
101325
101325
101325
101325
101325
101325
101325
101325
101325
101325
101325
101325
101325
101325
101325
101325
101325
101325
101325
101325
101325
101325
101325
101325
101325
101325
101325
101325
101325
101325
101325
101325
101325
101325
101325
101325
101325
101325
101325
101325
101325
101325
101325
101325
101325
101325
101325
101325
101325
101325
101325
101325
101325
101325
101325
101325
101325
101325
101325
101325
101325
101325
101325
101325
101325
101325
101325
101325
101325
101325
101325
101325
101325
101325
101325
101325
101325
101325
101325
101325
101325
101325
101325
101325
101325
101325
101325
101325
101325
101325
101325
101325
101325
101325
101325
101325
101325
101325
101325
101325
101325
101325
101325
101325
101325
101325
101325
101325
101325
101325
101325
101325
101325
101325
101325
101325
101325
101325
101325
101325
101325
101325
101325
101325
101325
101325
101325
101325
101325
101325
101325
101325
101325
101325
101325
101325
101325
101325
101325
101325
101324.999
101324.999
101324.999
101324.999
101324.999
101324.999
101324.999
101324.999
101324.999
101324.999
101324.999
101324.999
101324.999
101324.999
101324.999
101324.998
101324.998
101324.998
101324.998
101324.998
101324.998
101324.998
101324.997
101324.997
101324.997
101324.997
101324.996
101324.996
101324.996
101324.996
101324.995
101324.995
101324.994
101324.994
101324.994
101324.993
101324.993
101324.992
101324.991
101324.991
101324.99
101324.99
101324.989
101324.988
101324.987
101324.986
101324.985
101324.984
101324.983
101324.982
101324.98
101324.979
101324.978
101324.976
101324.974
101324.973
101324.971
101324.969
101324.967
101324.964
101324.962
101324.959
101324.957
101324.954
101324.951
101324.947
101324.944
101324.94
101324.936
101324.932
101324.927
101324.923
101324.918
101324.912
101324.907
101324.901
101324.894
101324.887
101324.88
101324.873
101324.865
101324.856
101324.847
101324.838
101324.828
101324.817
101324.806
101324.794
101324.781
101324.768
101324.754
101324.739
101324.724
101324.707
101324.69
101324.672
101324.652
101324.632
101324.61
101324.588
101324.564
101324.539
101324.513
101324.485
101324.456
101324.426
101324.394
101324.36
101324.325
101324.288
101324.249
101324.208
101324.165
101324.12
101324.073
101324.024
101323.972
101323.918
101323.862
101323.803
101323.741
101323.676
101323.609
101323.538
101323.465
101323.388
101323.308
101323.224
101323.137
101323.047
101322.952
101322.854
101322.751
101322.645
101322.534
101322.419
101322.299
101322.175
101322.046
101321.912
101321.773
101321.629
101321.479
101321.324
101321.164
101320.998
101320.827
101320.649
101320.465
101320.276
101320.08
101319.878
101319.669
101319.454
101319.232
101319.003
101318.768
101318.526
101318.276
101318.02
101317.756
101317.486
101317.208
101316.922
101316.63
101316.33
101316.022
101315.708
101315.385
101315.056
101314.719
101314.375
101314.023
101313.665
101313.299
101312.926
101312.546
101312.159
101311.766
101311.366
101310.959
101310.546
101310.128
101309.703
101309.272
101308.836
101308.395
101307.948
101307.497
101307.042
101306.583
101306.119
101305.652
101305.183
101304.71
101304.235
101303.758
101303.279
101302.799
101302.319
101301.838
101301.357
101300.877
101300.398
101299.921
101299.446
101298.973
101298.504
101298.038
101297.576
101297.119
101296.667
101296.221
101295.78
101295.347
101294.921
101294.503
101294.093
101293.692
101293.301
101292.919
101292.547
101292.187
101291.837
101291.5
101291.174
101290.861
101290.561
101290.275
101290.002
101289.743
101289.499
101289.27
101289.055
101288.856
101288.672
101288.504
101288.352
101288.216
101288.095
101287.991
101287.904
101287.832
101287.777
101287.738
101287.716
101287.709
101287.718
101287.743
101287.784
101287.84
101287.912
101287.998
101288.099
101288.214
101288.343
101288.486
101288.642
101288.81
101288.991
101289.184
101289.388
101289.603
101289.828
101290.063
101290.307
101290.56
101290.822
101291.09
101291.366
101291.648
101291.936
101292.229
101292.527
101292.829
101293.134
101293.442
101293.753
101294.065
101294.378
101294.692
101295.006
101295.32
101295.633
101295.944
101296.254
101296.561
101296.865
101297.166
101297.463
101297.757
101298.046
101298.331
101298.61
101298.885
101299.153
101299.416
101299.674
101299.925
101300.169
101300.408
101300.64
101300.865
101301.083
101301.295
101301.5
101301.698
101301.89
101302.075
101302.254
101302.425
101302.591
101302.75
101302.903
101303.051
101303.192
101303.328
101303.458
101303.583
101303.703
101303.819
101303.929
101304.036
101304.138
101304.236
101304.331
101304.422
101304.511
101304.596
101304.678
101304.758
101304.836
101304.911
101304.985
101305.057
101305.127
101305.196
101305.263
101305.33
101305.395
101305.459
101305.522
101305.584
101305.646
101305.706
101305.766
101305.825
101305.883
101305.94
101305.995
101306.05
101306.104
101306.156
101306.207
101306.256
101306.303
101306.349
101306.393
101306.435
101306.474
101306.511
101306.546
101306.578
101306.608
101306.634
101306.658
101306.679
101306.698
101306.713
101306.725
101306.735
101306.742
101306.746
101306.748
101306.747
101306.744
101306.739
101306.733
101306.725
101306.716
101306.706
101306.696
101306.686
101306.676
101306.667
101306.66
101306.654
101306.65
101306.65
101306.652
101306.658
101306.668
101306.682
101306.702
101306.726
101306.757
101306.793
101306.835
101306.884
101306.939
101307.001
101307.07
101307.146
101307.228
101307.316
101307.411
101307.511
101307.617
101307.728
101307.843
101307.962
101308.085
101308.21
101308.336
101308.464
101308.591
101308.718
101308.843
101308.966
101309.085
101309.199
101309.309
101309.413
101309.51
101309.6
101309.682
101309.756
101309.822
101309.879
101309.928
101309.968
101310
101310.024
101310.04
101310.049
101310.052
101310.05
101310.043
101310.032
101310.018
101310.002
101309.986
101309.969
101309.953
101309.939
101309.926
101309.916
101309.91
101309.906
101309.905
101309.908
101309.913
101309.922
101309.932
101309.944
101309.956
101309.968
101309.979
101309.987
101309.991
101309.986
101309.955
101309.904
101310.213
101310.507
101310.491
101309.416
101309.388
101309.482
101309.724
101309.801
101309.924
101309.95
101309.973
101309.961
101309.947
101309.926
101309.905
101309.883
101309.861
101309.84
101309.82
101309.8
101309.782
101309.764
101309.748
101309.732
101309.718
101309.704
101309.692
101309.68
101309.67
101309.66
101309.652
101309.645
101309.639
101309.634
101309.63
101309.627
101309.626
101309.625
101309.626
101309.627
101309.63
101309.633
101309.638
101309.643
101309.649
101309.655
101309.662
101309.668
101309.676
101309.683
101309.69
101309.696
101309.702
101309.708
101309.713
101309.717
101309.72
101309.721
101309.722
101309.721
101309.718
101309.714
101309.707
101309.699
101309.689
101309.677
101309.662
101309.645
101309.626
101309.605
101309.581
101309.555
101309.527
101309.496
101309.463
101309.428
101309.39
101309.35
101309.308
101309.264
101309.218
101309.17
101309.12
101309.068
101309.015
101308.96
101308.903
101308.846
101308.787
101308.726
101308.665
101308.603
101308.541
101308.477
101308.414
101308.35
101308.285
101308.221
101308.156
101308.092
101308.028
101307.964
101307.9
101307.838
101307.775
101307.714
101307.653
101307.594
101307.535
101307.478
101307.422
101307.367
101307.313
101307.261
101307.21
101307.16
101307.112
101307.066
101307.021
101306.978
101306.937
101306.897
101306.859
101306.823
101306.788
101306.755
101306.724
101306.694
101306.666
101306.64
101306.616
101306.593
101306.571
101306.552
101306.533
101306.517
101306.501
101306.487
101306.475
101306.463
101306.453
101306.445
101306.437
101306.431
101306.425
101306.421
101306.417
101306.415
101306.413
101306.412
101306.411
101306.412
101306.413
101306.414
101306.416
101306.418
101306.421
101306.424
101306.427
101306.43
101306.433
101306.437
101306.44
101306.444
101306.447
101306.45
101306.454
101306.456
101306.459
101306.461
101306.463
101306.465
101306.466
101306.466
101306.467
101306.466
101306.465
101306.464
101306.462
101306.459
101306.455
101306.451
101306.446
101306.441
101306.434
101306.427
101306.42
101306.412
101306.403
101306.393
101306.383
101306.372
101306.36
101306.347
101306.334
101306.32
101306.305
101306.29
101306.274
101306.257
101306.239
101306.221
101306.202
101306.183
101306.163
101306.142
101306.121
101306.099
101306.077
101306.054
101306.03
101306.006
101305.982
101305.957
101305.932
101305.906
101305.88
101305.854
101305.827
101305.8
101305.772
101305.744
101305.716
101305.687
101305.659
101305.63
101305.6
101305.571
101305.541
101305.511
101305.481
101305.45
101305.42
101305.389
101305.358
101305.327
101305.296
101305.264
101305.232
101305.201
101305.169
101305.137
101305.104
101305.072
101305.039
101305.006
101304.973
101304.94
101304.906
101304.873
101304.839
101304.804
101304.77
101304.735
101304.7
101304.665
101304.629
101304.593
101304.557
101304.52
101304.483
101304.445
101304.407
101304.369
101304.33
101304.29
101304.25
101304.21
101304.168
101304.126
101304.084
101304.041
101303.997
101303.952
101303.907
101303.861
101303.814
101303.766
101303.717
101303.667
101303.617
101303.565
101303.513
101303.459
101303.404
101303.348
101303.292
101303.233
101303.174
101303.114
101303.052
101302.989
101302.925
101302.859
101302.792
101302.724
101302.654
101302.583
101302.511
101302.436
101302.361
101302.284
101302.205
101302.125
101302.043
101301.96
101301.875
101301.788
101301.7
101301.61
101301.518
101301.424
101301.329
101301.233
101301.134
101301.034
101300.932
101300.828
101300.722
101300.615
101300.506
101300.395
101300.282
101300.168
101300.052
101299.934
101299.814
101299.693
101299.569
101299.445
101299.318
101299.19
101299.06
101298.928
101298.795
101298.66
101298.523
101298.385
101298.245
101298.104
101297.961
101297.817
101297.672
101297.525
101297.376
101297.226
101297.075
101296.923
101296.769
101296.614
101296.458
101296.301
101296.143
101295.984
101295.824
101295.663
101295.501
101295.339
101295.175
101295.011
101294.846
101294.681
101294.515
101294.349
101294.182
101294.015
101293.848
101293.68
101293.513
101293.345
101293.177
101293.01
101292.842
101292.675
101292.508
101292.341
101292.175
101292.009
101291.844
101291.68
101291.516
101291.353
101291.191
101291.03
101290.87
101290.711
101290.554
101290.397
101290.242
101290.089
101289.936
101289.786
101289.637
101289.49
101289.345
101289.201
101289.06
101288.921
101288.783
101288.648
101288.516
101288.385
101288.258
101288.132
101288.009
101287.889
101287.772
101287.657
101287.546
101287.437
101287.331
101287.228
101287.129
101287.032
101286.939
101286.849
101286.763
101286.68
101286.6
101286.524
101286.452
101286.383
101286.318
101286.257
101286.2
101286.146
101286.096
101286.05
101286.009
101285.971
101285.937
101285.907
101285.882
101285.86
101285.843
101285.83
101285.821
101285.817
101285.816
101285.82
101285.828
101285.841
101285.858
101285.879
101285.905
101285.935
101285.969
101286.007
101286.05
101286.098
101286.149
101286.205
101286.266
101286.33
101286.399
101286.473
101286.55
101286.632
101286.718
101286.808
101286.903
101287.001
101287.104
101287.211
101287.322
101287.437
101287.556
101287.679
101287.806
101287.937
101288.071
101288.21
101288.352
101288.498
101288.648
101288.801
101288.958
101289.118
101289.282
101289.45
101289.62
101289.794
101289.971
101290.152
101290.335
101290.522
101290.712
101290.904
101291.1
101291.298
101291.499
101291.702
101291.909
101292.117
101292.329
101292.542
101292.758
101292.977
101293.197
101293.419
101293.644
101293.871
101294.099
101294.339
101294.597
101294.877
101295.179
101295.505
101295.857
101296.238
101296.649
101297.093
101297.572
101298.088
101298.644
101299.243
101299.887
101300.579
101301.32
101302.113
101302.959
101303.859
101304.814
101305.822
101306.883
101307.993
101309.148
101310.341
101311.564
101312.808
101314.059
101315.303
101316.526
101317.709
101318.837
101319.891
101320.856
101321.721
101322.475
101323.114
101323.637
101324.052
101324.367
101324.597
101324.755
101324.86
101324.924
101324.962
101324.982
101324.992
101324.997
101324.999
101325
101325
101325
101325
101325
101325
101325
101325
101325
101325
101325
101325
101325
101325
101325
101325
101325
101325
101325
101325
101325
101325
101325
101325
101325
101325
101325
101325
)
;

boundaryField
{
    closed
    {
        type            zeroGradient;
    }
    open
    {
        type            waveTransmissive;
        gamma           1.25;
        fieldInf        101325;
        lInf            1;
        value           uniform 101325;
    }
    sides
    {
        type            empty;
    }
}


// ************************************************************************* //
