/*--------------------------------*- C++ -*----------------------------------*\
| =========                 |                                                 |
| \\      /  F ield         | OpenFOAM: The Open Source CFD Toolbox           |
|  \\    /   O peration     | Version:  2206                                  |
|   \\  /    A nd           | Website:  www.openfoam.com                      |
|    \\/     M anipulation  |                                                 |
\*---------------------------------------------------------------------------*/
FoamFile
{
    version     2.0;
    format      ascii;
    arch        "LSB;label=32;scalar=64";
    class       surfaceScalarField;
    location    "8e-06";
    object      phi;
}
// * * * * * * * * * * * * * * * * * * * * * * * * * * * * * * * * * * * * * //

dimensions      [1 0 -1 0 0 0 0];

oriented        oriented;

internalField   nonuniform List<scalar> 
3182
(
2.8016261e-18
-2.51532785e-18
5.2549206e-19
-1.09354893e-18
-9.1973298e-22
-9.49745685e-24
-6.92777374e-25
-2.05041461e-29
1.38243626e-25
7.04190439e-24
1.1800573e-22
6.4966242e-19
3.60661289e-18
-1.48570803e-18
3.06543653e-19
-6.4900187e-19
2.55816686e-19
-3.35593574e-18
-3.96329591e-18
4.72379272e-18
2.54626447e-20
2.66119214e-22
2.34821352e-22
5.99450644e-19
2.19577118e-18
1.84879841e-18
3.39893531e-18
4.58195275e-19
-1.28688456e-18
-8.12514659e-19
-2.09387018e-18
-4.39569143e-18
-2.60129868e-18
-2.25337341e-18
-7.61106793e-19
4.22099625e-19
-4.89974878e-19
-1.07778091e-18
-1.69543701e-19
-4.10713661e-19
-1.73184288e-18
-2.54402997e-18
-1.41330119e-18
-1.08519629e-18
-6.44303682e-19
-8.73585768e-19
-4.37627067e-19
-1.19731337e-18
-6.53600383e-19
-5.37672709e-19
-1.76336133e-21
5.62108374e-19
1.52004358e-18
1.84171185e-18
2.60422636e-18
3.26887728e-18
4.56453184e-18
5.2144856e-18
5.8659254e-18
4.12863504e-18
5.21904038e-18
6.07687748e-18
7.80193117e-18
7.59603917e-18
8.50383907e-18
8.7141209e-18
1.04460924e-17
1.04341596e-17
1.3069085e-17
1.47739203e-17
1.56505119e-17
1.61906804e-17
1.65473478e-17
1.65092973e-17
1.65025876e-17
1.69678168e-17
1.78146915e-17
1.7908196e-17
1.75543212e-17
1.72377078e-17
1.71706416e-17
1.64274892e-17
1.46937609e-17
1.45987958e-17
1.53245887e-17
1.28876102e-17
1.23650089e-17
1.1470455e-17
1.20087197e-17
1.00829818e-17
6.81487933e-18
6.98727491e-18
5.56174693e-18
4.66213802e-18
2.70268352e-18
3.21961898e-18
1.10803622e-18
1.52977193e-19
3.59089396e-18
3.62099542e-18
2.52177892e-18
4.11261725e-18
5.19222526e-18
2.64349195e-18
2.22314331e-18
3.4913603e-18
4.83712441e-18
1.13222747e-18
3.4666137e-18
3.1277694e-18
4.69262767e-18
3.72405819e-18
2.38351655e-18
-7.8179169e-19
-1.19682858e-18
-2.82474711e-18
-2.47071543e-18
-5.20851696e-19
-2.90932949e-19
-7.90739601e-19
4.24406381e-19
-1.35894207e-18
-7.4464266e-19
-2.00603726e-18
-2.94125945e-18
-4.95258684e-18
-2.88658358e-18
-2.93002354e-18
-1.19559813e-18
-4.89505396e-18
-5.78113128e-18
-7.8071673e-18
-6.67761648e-18
-6.7456104e-18
-6.41597255e-18
-7.67347357e-18
-8.59417795e-18
-9.25349197e-18
-1.05351832e-17
-1.03556495e-17
-1.27254303e-17
-1.76809376e-17
-1.40325706e-17
-1.71162919e-17
-1.79034497e-17
-1.72790923e-17
-1.57846177e-17
-1.86597691e-17
-1.77940032e-17
-1.8837657e-17
-2.06562027e-17
-2.05660712e-17
-2.10862762e-17
-2.02929306e-17
-2.02466891e-17
-1.74247078e-17
-2.05434988e-17
-1.77307291e-17
-2.0258977e-17
-1.9083113e-17
-1.75810034e-17
-1.90662503e-17
-2.03862802e-17
-1.85905061e-17
-1.96977396e-17
-1.88834415e-17
-1.96992311e-17
-2.20425121e-17
-2.43904852e-17
-2.66465934e-17
-2.70340209e-17
-3.05963831e-17
-2.98536344e-17
-3.29196638e-17
-3.27635679e-17
-3.193338e-17
-3.05686838e-17
-3.01219293e-17
-2.83994861e-17
-3.19108633e-17
-3.1888701e-17
-3.34397961e-17
-3.33986977e-17
-3.46535938e-17
-3.56095008e-17
-3.42552532e-17
-3.39213422e-17
-3.51002837e-17
-3.479123e-17
-3.45349574e-17
-3.42972709e-17
-3.60300198e-17
-3.61773943e-17
-3.69171704e-17
-3.55384061e-17
-3.64647461e-17
-3.57337398e-17
-3.48144168e-17
-3.56693519e-17
-3.57703755e-17
-3.56019284e-17
-3.74524271e-17
-4.10025805e-17
-4.22834592e-17
-4.23352454e-17
-4.10988792e-17
-4.1062899e-17
-4.1023799e-17
-4.13306753e-17
-4.1358065e-17
-4.33394426e-17
-4.05526167e-17
-4.43947002e-17
-4.14723755e-17
-4.06433686e-17
-4.09177039e-17
-4.09844675e-17
-3.86698759e-17
-3.64565383e-17
-3.58838888e-17
-4.0205198e-17
-4.26551909e-17
-4.63452223e-17
-4.52469826e-17
-4.63120096e-17
-4.56671842e-17
-4.8331535e-17
-4.85406224e-17
-4.77486431e-17
-4.87884341e-17
-5.04002508e-17
-5.23211439e-17
-5.17611461e-17
-5.30653086e-17
-5.46528638e-17
-5.49725975e-17
-5.43807402e-17
-5.53033183e-17
-5.60938103e-17
-5.41533411e-17
-5.05821979e-17
-5.15041861e-17
-5.15307053e-17
-5.20226784e-17
-5.36847207e-17
-5.40451759e-17
-5.65058747e-17
-5.55987447e-17
-6.03685235e-17
-5.98810902e-17
-5.77640499e-17
-5.89513018e-17
-5.92774469e-17
-5.99433189e-17
-5.99209154e-17
-6.03238534e-17
-5.95306074e-17
-6.03554698e-17
-5.88183912e-17
-5.82647131e-17
-5.92988973e-17
-6.02623009e-17
-6.12143899e-17
-5.71611205e-17
-5.97728488e-17
-6.01912264e-17
-6.13291238e-17
-6.13178631e-17
-6.24390405e-17
-6.50713539e-17
-6.66066599e-17
-6.55400062e-17
-6.27590136e-17
-6.55726398e-17
-6.15177907e-17
-6.31221431e-17
-6.54602207e-17
-6.41394264e-17
-6.31894579e-17
-6.26544942e-17
-6.51502555e-17
-6.5330847e-17
-6.61097934e-17
-6.60168244e-17
-6.5940741e-17
-6.7712011e-17
-6.67878112e-17
-6.72766635e-17
-6.81723059e-17
-6.82031338e-17
-6.74716381e-17
-7.18216171e-17
-7.30810094e-17
-7.27608973e-17
-7.29128995e-17
-7.36089078e-17
-7.6055653e-17
-7.63470473e-17
-7.28179609e-17
-7.36917997e-17
-7.71107681e-17
-7.88215854e-17
-7.61005479e-17
-7.57285023e-17
-7.58174265e-17
-7.28958712e-17
-7.60379074e-17
-7.60079398e-17
-7.55381579e-17
-7.56460465e-17
-7.756923e-17
-7.47182549e-17
-7.5874708e-17
-7.84555323e-17
-7.77518763e-17
-8.04481395e-17
-8.09905204e-17
-8.06009546e-17
-8.10030861e-17
-8.11296368e-17
-8.29979249e-17
-8.29030147e-17
-8.0822038e-17
-8.16688774e-17
-8.17531828e-17
-7.92433404e-17
-7.93584341e-17
-7.9700436e-17
-8.21841695e-17
-8.18416344e-17
-7.87016648e-17
-8.11658035e-17
-8.18393507e-17
-7.67407805e-17
-7.57626194e-17
-7.62099624e-17
-7.63085533e-17
-7.81980825e-17
-8.04676756e-17
-7.60640757e-17
-7.68464166e-17
-7.98258966e-17
-7.86302916e-17
-7.53054984e-17
-8.09721259e-17
-8.01092729e-17
-8.11811169e-17
-7.9908624e-17
-8.08385393e-17
-8.04076832e-17
-8.00571135e-17
-7.90353521e-17
-8.4161847e-17
-8.2888831e-17
-8.24199616e-17
-8.14449232e-17
-8.18576831e-17
-8.11097645e-17
-8.30345467e-17
-7.87137997e-17
-7.65781386e-17
-7.59971388e-17
-7.58971418e-17
-7.5906888e-17
-7.62124436e-17
-7.7388582e-17
-7.57687602e-17
-7.43879673e-17
-7.15215251e-17
-7.00996563e-17
-6.90036155e-17
-6.59219138e-17
-6.96863156e-17
-6.73723726e-17
-6.55377115e-17
-6.50722092e-17
-6.09693675e-17
-5.87416671e-17
-5.76941882e-17
-6.07293211e-17
-6.26061874e-17
-6.03712928e-17
-6.17972634e-17
-6.45514327e-17
-5.96261504e-17
-6.11040143e-17
-6.02427769e-17
-5.61654517e-17
-5.9412187e-17
-5.57071402e-17
-5.53329599e-17
-5.32581985e-17
-5.79087735e-17
-5.23811207e-17
-5.27527694e-17
-5.36721834e-17
-5.17562651e-17
-5.12816836e-17
-4.9906328e-17
-4.73243231e-17
-4.98983795e-17
-4.87958782e-17
-5.2377705e-17
-5.15336562e-17
-5.11052243e-17
-4.88444559e-17
-4.51565071e-17
-4.58524116e-17
-4.64599123e-17
-4.26784563e-17
-4.4729641e-17
-4.6956592e-17
-4.43203448e-17
-4.61023418e-17
-4.6153831e-17
-4.53944433e-17
-4.3177877e-17
-4.51578413e-17
-4.22415869e-17
-4.36119432e-17
-4.75192607e-17
-4.7722698e-17
-4.61581548e-17
-4.33411185e-17
-4.30579262e-17
-4.51527593e-17
-4.60739468e-17
-4.1741234e-17
-4.04848284e-17
-3.89268077e-17
-4.06977795e-17
-4.03135443e-17
-4.05854605e-17
-4.13917648e-17
-4.15626856e-17
-3.91576794e-17
-3.67157558e-17
-3.69465802e-17
-3.49290367e-17
-3.51971422e-17
-3.31511682e-17
-3.3166754e-17
-3.79911134e-17
-3.59580963e-17
-3.89770244e-17
-3.76699366e-17
-3.71739237e-17
-3.61100828e-17
-3.72057828e-17
-3.43245449e-17
-3.60227904e-17
-3.81642273e-17
-3.58642068e-17
-3.9768715e-17
-3.87872584e-17
-3.72918097e-17
-3.61128818e-17
-3.64812774e-17
-3.60846043e-17
-3.40537713e-17
-3.43225289e-17
-2.90463697e-17
-2.82267262e-17
-2.83558929e-17
-2.95647995e-17
-3.08657579e-17
-2.81274817e-17
-2.78698604e-17
-2.79618072e-17
-2.43302674e-17
-2.0182365e-17
-2.04569598e-17
-1.90888244e-17
-1.60789039e-17
-1.99710644e-17
-1.86250464e-17
-2.05131853e-17
-1.99826898e-17
-1.95188441e-17
-1.95633792e-17
-1.9255735e-17
-1.9095422e-17
-1.86676642e-17
-1.85148531e-17
-1.81485266e-17
-1.7358704e-17
-1.89305024e-17
-1.92696603e-17
-1.68495163e-17
-2.04849818e-17
-1.68072069e-17
-1.82244967e-17
-1.83357314e-17
-1.71941299e-17
-1.8058778e-17
-1.7608111e-17
-1.33689231e-17
-1.4295376e-17
-1.65434885e-17
-1.67306688e-17
-1.3971599e-17
-1.03263353e-17
-1.08159501e-17
-7.34822815e-18
-8.57847832e-18
-6.6327625e-18
-6.5619803e-18
-6.54351949e-18
-4.87569e-18
-5.98744557e-18
-6.44191111e-18
-8.70958741e-18
-6.44250049e-18
-8.72486254e-18
-8.77247838e-18
-9.54721673e-18
-7.90682849e-18
-7.60030596e-18
-4.62800407e-18
-6.95551372e-18
-7.17271612e-18
-6.8084689e-18
-6.43268831e-18
-7.13300473e-18
-8.14860104e-18
-6.04182159e-18
-6.93447038e-18
-3.14997915e-18
-2.09273874e-18
-1.61449889e-18
-1.33216928e-18
-2.53756099e-18
-2.10715482e-18
-3.38906929e-18
-2.36622393e-18
-2.32606686e-18
-4.44928119e-18
-3.53195829e-18
-3.0194781e-18
1.04149738e-18
-1.09947113e-19
-4.59071822e-19
2.79447758e-20
1.13015634e-19
1.12270668e-18
-1.16523004e-18
6.84080175e-19
4.65329855e-18
3.55847847e-18
5.19328666e-18
5.07003329e-18
7.79986538e-18
9.28498964e-18
1.04787974e-17
9.36924829e-18
1.242686e-17
1.3726243e-17
1.21385355e-17
1.21310443e-17
1.32746743e-17
1.27613779e-17
1.41137305e-17
1.58004487e-17
1.48643043e-17
1.39157289e-17
1.39231018e-17
1.28684049e-17
1.68791878e-17
1.89131824e-17
1.9835653e-17
1.96788775e-17
1.89070552e-17
2.12176404e-17
2.1168633e-17
2.32400863e-17
2.52608348e-17
2.55653278e-17
2.41304988e-17
2.42273198e-17
2.39492348e-17
2.82368235e-17
3.20118954e-17
3.11552422e-17
3.26542989e-17
3.48414717e-17
3.12746393e-17
2.89775279e-17
2.96982678e-17
2.77513331e-17
2.77056218e-17
3.03440022e-17
2.84343339e-17
2.74246116e-17
2.36618828e-17
2.54505473e-17
2.72959194e-17
2.82713599e-17
3.16785963e-17
3.12515107e-17
2.70682127e-17
2.43568768e-17
2.68139731e-17
2.63213046e-17
2.4614063e-17
2.51757713e-17
2.51744483e-17
2.2777866e-17
2.15686562e-17
2.21511846e-17
1.9669124e-17
1.78172609e-17
2.02085066e-17
1.88780577e-17
1.79133686e-17
1.65952058e-17
1.93945282e-17
1.98324077e-17
2.18814715e-17
2.0832492e-17
2.06326535e-17
2.26859072e-17
2.05780197e-17
2.09514326e-17
1.99775733e-17
1.76740353e-17
1.76937247e-17
1.95120305e-17
1.90060642e-17
1.94863114e-17
2.10781152e-17
2.10935568e-17
2.00194065e-17
2.18254768e-17
2.34481504e-17
2.28670775e-17
2.51026385e-17
2.28763977e-17
2.51219927e-17
2.43185954e-17
2.21016081e-17
2.29813225e-17
1.93665966e-17
1.9781339e-17
2.01454269e-17
1.75901194e-17
1.59057233e-17
1.75826317e-17
1.84025965e-17
1.66218956e-17
1.69351974e-17
1.78564774e-17
2.06204436e-17
2.03096297e-17
2.06119767e-17
2.21626914e-17
1.5319614e-17
1.79354044e-17
1.40623885e-17
1.37625578e-17
1.70495439e-17
1.4360342e-17
1.76043828e-17
1.69998341e-17
1.65864666e-17
1.66651724e-17
1.9798235e-17
2.02173628e-17
2.13547595e-17
1.89181581e-17
2.1202552e-17
2.30499544e-17
2.29428913e-17
2.15888127e-17
1.94799024e-17
2.08233984e-17
1.95979629e-17
1.85658497e-17
2.5245415e-17
2.35199462e-17
2.31244469e-17
2.43554457e-17
2.50557537e-17
2.61922777e-17
2.57706983e-17
2.66034539e-17
2.43319207e-17
2.77062817e-17
2.64375929e-17
2.92348318e-17
2.90935975e-17
2.82157135e-17
2.87127417e-17
2.87892545e-17
2.70944799e-17
3.05516716e-17
2.94337583e-17
2.70514391e-17
3.10309162e-17
3.1492851e-17
3.33929689e-17
3.42002587e-17
3.41657013e-17
3.27009693e-17
3.61651129e-17
3.83649237e-17
3.73554667e-17
3.75173462e-17
3.56465261e-17
3.41160006e-17
3.21377945e-17
3.37415011e-17
3.00219086e-17
3.16033257e-17
3.49701808e-17
3.16713368e-17
3.17864714e-17
3.11297587e-17
3.21327126e-17
3.24320142e-17
3.32388977e-17
3.40001332e-17
2.87258948e-17
2.95076968e-17
2.83653407e-17
2.30091954e-17
2.11590014e-17
2.2805825e-17
2.08128761e-17
1.75458408e-17
1.78126091e-17
2.04521931e-17
2.15673095e-17
2.22893976e-17
2.12976556e-17
2.24232057e-17
2.26135476e-17
2.2624319e-17
2.53825784e-17
2.32618698e-17
2.12293289e-17
2.36253273e-17
2.28840667e-17
2.21953582e-17
2.45456744e-17
2.33452444e-17
1.96186039e-17
2.49055129e-17
2.19132018e-17
2.17625223e-17
2.25160019e-17
2.1580392e-17
2.35135152e-17
2.23650975e-17
2.23021146e-17
2.26151654e-17
2.0780889e-17
2.1403702e-17
1.92703897e-17
1.3871074e-17
1.58469051e-17
1.50956647e-17
1.36027223e-17
1.68636923e-17
1.95694229e-17
2.1198265e-17
2.24302285e-17
1.97393191e-17
2.2542632e-17
2.12644178e-17
2.09626206e-17
1.99658797e-17
1.91808879e-17
2.28295713e-17
2.17027101e-17
2.11502996e-17
2.04048434e-17
2.42621255e-17
2.50019427e-17
2.54471072e-17
2.27670303e-17
2.50541812e-17
2.64944954e-17
2.62734935e-17
2.58281333e-17
2.40921291e-17
2.49365742e-17
2.6678764e-17
2.35630066e-17
2.93129447e-17
2.77874439e-17
2.33370189e-17
2.82298768e-17
2.35443898e-17
2.4126627e-17
1.76371001e-17
2.0343463e-17
2.35499693e-17
1.93662665e-17
1.78811381e-17
1.77655747e-17
1.8447369e-17
1.72370018e-17
2.23752005e-17
2.11555102e-17
2.15874549e-17
1.92138428e-17
2.00950769e-17
2.12354208e-17
2.27196257e-17
1.87577945e-17
1.80361152e-17
1.93539243e-17
1.68161628e-17
1.70293147e-17
1.69118507e-17
1.66357942e-17
1.46016456e-17
1.63187824e-17
1.66078918e-17
1.78328983e-17
1.87027989e-17
1.80328325e-17
2.12870625e-17
1.96084447e-17
1.97302007e-17
1.97888262e-17
1.93612867e-17
1.80318454e-17
1.95454074e-17
1.76152422e-17
1.93887225e-17
1.6283898e-17
1.60396102e-17
1.57579412e-17
1.37127368e-17
1.56007672e-17
1.62153251e-17
1.73836371e-17
1.97817872e-17
1.69161401e-17
1.90869329e-17
2.21838652e-17
1.78863777e-17
1.86240446e-17
1.91175473e-17
2.09041021e-17
2.21104397e-17
2.23334637e-17
2.05027615e-17
2.27220286e-17
2.33171114e-17
2.12337286e-17
2.26691722e-17
2.3964664e-17
2.22147231e-17
2.35456537e-17
2.83157976e-17
2.78137527e-17
2.81233981e-17
2.76913299e-17
2.9243677e-17
3.00480776e-17
3.12800469e-17
3.13500936e-17
3.083e-17
3.26008606e-17
3.29234778e-17
3.15017437e-17
3.40463599e-17
3.70475377e-17
3.66266023e-17
3.89398603e-17
3.73444961e-17
3.84823804e-17
3.70379124e-17
3.52151206e-17
3.51520783e-17
3.62358796e-17
3.68622208e-17
3.61210408e-17
3.57567805e-17
3.42483503e-17
3.54844475e-17
3.61240088e-17
3.71244896e-17
3.84574954e-17
3.77316152e-17
3.49782374e-17
3.32271617e-17
3.37254425e-17
3.71104304e-17
3.52815181e-17
3.4333211e-17
3.60449414e-17
3.59717612e-17
3.73707577e-17
3.69632707e-17
3.76421502e-17
3.77194525e-17
3.84010909e-17
3.7033174e-17
3.8140767e-17
3.8150655e-17
4.04553198e-17
4.10675887e-17
4.21134387e-17
4.07633053e-17
4.06610614e-17
4.17055489e-17
4.3058498e-17
4.11804801e-17
4.10823465e-17
4.322202e-17
4.59065101e-17
4.47193712e-17
4.58282699e-17
4.90487231e-17
4.78565892e-17
4.75497248e-17
4.76868413e-17
5.03995309e-17
5.05754906e-17
4.97798797e-17
5.04367607e-17
4.70777345e-17
4.76182606e-17
4.82327488e-17
4.70342063e-17
4.87639895e-17
4.46563365e-17
4.47118681e-17
4.48271426e-17
4.6591896e-17
4.51192541e-17
4.54906119e-17
4.48113027e-17
4.52293158e-17
4.43886165e-17
4.43718074e-17
4.3486013e-17
4.31486535e-17
4.39807762e-17
4.44671152e-17
4.57919071e-17
4.32592081e-17
4.3399216e-17
4.34449051e-17
4.28297112e-17
4.19444995e-17
4.35400698e-17
4.23498616e-17
4.18301356e-17
3.98867652e-17
3.80001135e-17
3.59236867e-17
3.55549375e-17
3.68721349e-17
3.6343364e-17
4.04625247e-17
3.90126617e-17
4.41048853e-17
4.21048291e-17
3.98422329e-17
4.05577862e-17
3.94259431e-17
4.0619618e-17
3.98424986e-17
3.86024838e-17
3.93262628e-17
3.61826388e-17
3.62001032e-17
3.70177557e-17
3.718736e-17
4.16410096e-17
4.13907109e-17
4.10020966e-17
3.55821796e-17
3.74259878e-17
3.36691298e-17
3.55070632e-17
3.82972701e-17
3.8776268e-17
4.01997431e-17
3.96579879e-17
3.85633938e-17
3.47638139e-17
3.25775806e-17
3.51001797e-17
3.62713323e-17
3.81102065e-17
3.85148371e-17
3.93351964e-17
3.90554654e-17
3.83386696e-17
3.67213138e-17
4.11030064e-17
4.21020911e-17
4.4496764e-17
4.27070131e-17
4.32791826e-17
4.37721428e-17
4.56711322e-17
4.60457699e-17
4.6636555e-17
4.54612864e-17
4.67840558e-17
4.90879255e-17
4.73729418e-17
4.64440748e-17
4.44820301e-17
4.6703496e-17
4.57976184e-17
4.44987777e-17
4.66505259e-17
4.66484364e-17
4.68211434e-17
4.39768814e-17
3.90041152e-17
3.86064722e-17
3.56136964e-17
3.87840575e-17
3.901205e-17
3.98400117e-17
3.97251349e-17
3.78680922e-17
3.71883281e-17
3.70287266e-17
3.51422636e-17
3.35092074e-17
3.04297562e-17
2.88348021e-17
2.93296576e-17
2.96892953e-17
2.82324324e-17
2.56380496e-17
2.3647218e-17
2.49958365e-17
2.21134662e-17
2.00948271e-17
1.67675298e-17
1.89447057e-17
1.86802939e-17
1.63874313e-17
1.85416017e-17
1.99976276e-17
1.72815774e-17
1.99928777e-17
2.1631021e-17
2.19984402e-17
2.07377739e-17
1.911206e-17
1.56743483e-17
1.46640364e-17
1.43688069e-17
1.18020097e-17
1.30932745e-17
1.33663155e-17
8.22383939e-18
1.22960896e-17
1.08839923e-17
9.95968341e-18
1.30037222e-17
1.20277236e-17
1.22554629e-17
1.26616344e-17
1.06055407e-17
1.2521616e-17
1.13076778e-17
1.21530153e-17
6.78674551e-18
8.45183557e-18
5.89420529e-18
9.16004246e-18
8.34897816e-18
8.64213011e-18
7.84122764e-18
6.50333485e-18
4.8186871e-18
5.62015488e-18
5.52892141e-18
7.10710151e-18
7.32635521e-18
6.82056817e-18
1.08310116e-18
8.24114422e-19
1.37987956e-18
2.04319324e-18
1.44325802e-18
-5.6841609e-19
-2.06909334e-19
-4.52993048e-19
-1.78601785e-18
-2.30714045e-18
-3.48145744e-18
-8.6159631e-19
-3.21009661e-18
-1.42704898e-18
-1.98424052e-18
-2.1563007e-18
-3.49048207e-18
-6.62551561e-18
-4.24671178e-18
-6.360998e-18
-8.33189535e-18
-4.84368045e-18
-7.36683646e-18
-6.08379415e-18
-6.15895755e-18
-7.23020891e-18
-8.66595653e-18
-6.34594148e-18
-9.78055593e-18
-1.08472094e-17
-1.08834582e-17
-9.74109287e-18
-8.9982029e-18
-9.74289362e-18
-7.17717338e-18
-1.13896476e-17
-1.20998822e-17
-1.00806323e-17
-1.17457467e-17
-1.0999768e-17
-1.15901991e-17
-1.07468067e-17
-1.37037313e-17
-1.46980732e-17
-1.92306895e-17
-1.85498489e-17
-1.84701186e-17
-1.99044711e-17
-2.00177972e-17
-1.88828526e-17
-2.06210859e-17
-2.22626808e-17
-2.06211017e-17
-2.25603e-17
-2.36899823e-17
-2.13698209e-17
-2.16827598e-17
-2.07069874e-17
-2.21927659e-17
-2.05738076e-17
-2.2190269e-17
-2.23114631e-17
-2.20554134e-17
-2.25291549e-17
-2.26022118e-17
-2.24953169e-17
-1.78172825e-17
-1.72604005e-17
-1.68803525e-17
-1.72542961e-17
-2.07024883e-17
-1.84076332e-17
-1.89393024e-17
-1.78587795e-17
-1.99549401e-17
-1.72767675e-17
-2.08356104e-17
-1.98413628e-17
-1.94874242e-17
-2.19554416e-17
-1.95954638e-17
-1.8902699e-17
-1.77466842e-17
-1.82962272e-17
-2.06200728e-17
-1.4970115e-17
-2.00056322e-17
-1.99480286e-17
-2.41710214e-17
-2.22233486e-17
-1.91807806e-17
-1.9769059e-17
-2.32507238e-17
-2.35481175e-17
-2.29860506e-17
-2.41641292e-17
-2.37875623e-17
-2.42550173e-17
-2.61468256e-17
-2.93086969e-17
-2.4807361e-17
-2.90859934e-17
-2.74938332e-17
-3.00908281e-17
-2.69380897e-17
-2.4918378e-17
-2.43466128e-17
-2.83959113e-17
-3.01228042e-17
-2.59254474e-17
-2.97297297e-17
-2.91776764e-17
-3.24236248e-17
-3.21060845e-17
-3.35684504e-17
-3.37705673e-17
-3.52985637e-17
-3.58126288e-17
-3.78672917e-17
-4.10639256e-17
-4.17837169e-17
-3.8751128e-17
-4.09786796e-17
-4.24471787e-17
-4.22736698e-17
-4.42399538e-17
-4.57812088e-17
-4.69429937e-17
-4.54689433e-17
-4.781198e-17
-4.40446333e-17
-4.40315933e-17
-4.17080286e-17
-4.36911365e-17
-4.59884526e-17
-4.60731548e-17
-4.86661695e-17
-4.76720895e-17
-4.68009236e-17
-4.29174522e-17
-4.36316966e-17
-4.49089808e-17
-4.38068167e-17
-4.31398675e-17
-4.18450182e-17
-4.0938494e-17
-4.28710024e-17
-4.33893503e-17
-4.43367925e-17
-4.72608677e-17
-5.09543714e-17
-4.82651192e-17
-4.50048904e-17
-4.67424846e-17
-4.83419014e-17
-4.94343266e-17
-4.71945424e-17
-5.16335767e-17
-4.91266829e-17
-4.8508377e-17
-4.88376433e-17
-4.31298325e-17
-4.49058537e-17
-4.57797781e-17
-4.30443889e-17
-4.43930983e-17
-4.05855551e-17
-4.13004594e-17
-3.95798428e-17
-4.16265097e-17
-4.16135264e-17
-4.22262289e-17
-4.46762694e-17
-3.97409062e-17
-4.48206651e-17
-4.52805861e-17
-4.67903075e-17
-4.32388075e-17
-4.25213437e-17
-4.33427935e-17
-4.20128052e-17
-4.11354397e-17
-4.19685539e-17
-4.52728141e-17
-4.076738e-17
-4.29453103e-17
-4.24943184e-17
-4.03352325e-17
-3.88545863e-17
-3.54728917e-17
-3.1131234e-17
-3.58254076e-17
-3.59912894e-17
-3.59051868e-17
-3.43714474e-17
-3.54238409e-17
-3.85856204e-17
-3.971702e-17
-3.73718126e-17
-3.81607288e-17
-3.78726584e-17
-3.78628599e-17
-3.83893098e-17
-3.61623033e-17
-3.63835825e-17
-3.26675736e-17
-3.30328544e-17
-3.23005002e-17
-2.63870127e-17
-2.89104237e-17
-2.77965691e-17
-2.40186562e-17
-2.70580681e-17
-2.86538554e-17
-2.67524139e-17
-2.44672551e-17
-2.72351536e-17
-2.47090522e-17
-2.44608883e-17
-2.51895964e-17
-2.40147249e-17
-2.48907106e-17
-2.62953536e-17
-2.57878594e-17
-2.52072505e-17
-2.65619869e-17
-2.75191308e-17
-2.93106196e-17
-3.25129453e-17
-2.98359924e-17
-3.36549383e-17
-3.26493335e-17
-3.36416066e-17
-2.76706257e-17
-3.01813504e-17
-2.6117265e-17
-2.34321533e-17
-2.38825157e-17
-2.41930858e-17
-2.32220426e-17
-2.27563966e-17
-2.29598729e-17
-1.69821344e-17
-1.88471731e-17
-1.86222449e-17
-1.92796398e-17
-1.93758159e-17
-2.02972592e-17
-1.7915436e-17
-1.94497045e-17
-1.59836664e-17
-1.64529154e-17
-1.72348118e-17
-1.61331254e-17
-1.81443869e-17
-2.21794788e-17
-2.09028335e-17
-2.10601707e-17
-1.96913994e-17
-2.19746166e-17
-2.22595062e-17
-2.13531173e-17
-2.31119441e-17
-2.32607204e-17
-2.27712102e-17
-2.37682233e-17
-2.2781545e-17
-2.60594368e-17
-2.61699502e-17
-2.73092496e-17
-2.52457765e-17
-2.61874435e-17
-2.68004829e-17
-2.78486178e-17
-2.72756344e-17
-2.68799452e-17
-2.9054684e-17
-3.16741e-17
-3.11227587e-17
-3.31609675e-17
-3.37242179e-17
-3.30863278e-17
-3.27850449e-17
-3.19177235e-17
-3.09875288e-17
-2.77886112e-17
-3.08254914e-17
-2.83993695e-17
-2.80272863e-17
-2.416115e-17
-2.59619545e-17
-2.24543257e-17
-2.84698077e-17
-2.4682209e-17
-2.4764842e-17
-2.47800171e-17
-2.51928517e-17
-2.5399806e-17
-2.19113526e-17
-2.71671902e-17
-2.68606604e-17
-2.87720901e-17
-2.97357323e-17
-3.2733743e-17
-3.06014315e-17
-3.2294396e-17
-3.22321091e-17
-3.30262971e-17
-3.04957981e-17
-3.31634604e-17
-2.98234219e-17
-3.27292912e-17
-3.09873611e-17
-2.79811197e-17
-2.77908227e-17
-2.60022502e-17
-2.88103695e-17
-2.91720143e-17
-3.28788832e-17
-3.16505831e-17
-3.53463674e-17
-3.48832091e-17
-3.46696069e-17
-3.14851952e-17
-3.09924473e-17
-2.74861393e-17
-2.86983716e-17
-3.04418919e-17
-3.09188718e-17
-2.73180942e-17
-3.0463732e-17
-2.77582742e-17
-2.48513932e-17
-2.70740865e-17
-2.83913216e-17
-2.807035e-17
-2.93282022e-17
-2.83630077e-17
-2.6807918e-17
-2.55848874e-17
-2.52307032e-17
-2.24573483e-17
-2.60044485e-17
-2.22558103e-17
-2.2661913e-17
-2.13982779e-17
-2.25509259e-17
-1.7680276e-17
-1.96365603e-17
-1.88316931e-17
-1.81616157e-17
-1.86427066e-17
-1.87230037e-17
-2.09901933e-17
-1.71897314e-17
-1.66655513e-17
-1.80980077e-17
-1.88570978e-17
-1.80134621e-17
-1.63245826e-17
-2.14871782e-17
-2.19954636e-17
-2.13079535e-17
-1.98688474e-17
-1.97471812e-17
-2.31597712e-17
-2.29522183e-17
-2.51379882e-17
-2.85436308e-17
-2.64688204e-17
-2.9577093e-17
-2.94070341e-17
-2.93734809e-17
-2.65406579e-17
-2.58601013e-17
-2.31572549e-17
-2.44937459e-17
-2.0808772e-17
-2.18797714e-17
-2.16927656e-17
-2.20859931e-17
-2.13970888e-17
-2.33346477e-17
-2.39548196e-17
-2.56724439e-17
-2.56981651e-17
-3.21319141e-17
-3.2063925e-17
-3.08684145e-17
-2.84080952e-17
-2.50183316e-17
-2.80224976e-17
-2.78515183e-17
-2.52137042e-17
-2.7352344e-17
-2.60920446e-17
-2.7779629e-17
-2.44277862e-17
-2.79585697e-17
-2.69835875e-17
-2.57448553e-17
-2.72012817e-17
-2.65680564e-17
-2.80098931e-17
-2.9413642e-17
-2.79557599e-17
-2.88230108e-17
-2.56395554e-17
-2.46785654e-17
-2.72900292e-17
-2.76261886e-17
-2.75849473e-17
-3.03853094e-17
-3.13913347e-17
-2.79924921e-17
-2.70382241e-17
-2.74118655e-17
-2.84161504e-17
-3.03131732e-17
-3.30310794e-17
-3.14210676e-17
-2.84834396e-17
-2.95163033e-17
-3.03092257e-17
-3.02176435e-17
-3.28707081e-17
-3.17179406e-17
-3.43222102e-17
-3.43321864e-17
-3.28165802e-17
-3.39159423e-17
-3.68776414e-17
-3.23176769e-17
-3.326345e-17
-3.1451227e-17
-3.21941603e-17
-3.10813307e-17
-3.32435784e-17
-3.22300836e-17
-3.39872912e-17
-3.30216649e-17
-3.32970376e-17
-3.35787265e-17
-3.0506487e-17
-2.80993465e-17
-2.67828271e-17
-2.54232651e-17
-2.63325976e-17
-2.75169896e-17
-2.63864361e-17
-2.73171649e-17
-3.0358083e-17
-3.33907911e-17
-3.01300827e-17
-2.84058963e-17
-3.00058957e-17
-3.00247241e-17
-3.06641339e-17
-3.24029271e-17
-3.19807825e-17
-2.8292207e-17
-2.45470777e-17
-2.53291623e-17
-2.23109762e-17
-1.95482373e-17
-2.15524686e-17
-2.12565565e-17
-1.7851553e-17
-2.05907434e-17
-1.99206557e-17
-2.26060268e-17
-2.34351153e-17
-2.36027787e-17
-2.21389131e-17
-2.10669233e-17
-2.06833088e-17
-1.92537968e-17
-2.10410294e-17
-1.90355405e-17
-2.21888241e-17
-2.15398516e-17
-2.0695641e-17
-2.10188181e-17
-2.37862694e-17
-2.30071872e-17
-2.14272346e-17
-2.05108603e-17
-2.04391566e-17
-2.14229366e-17
-2.23929483e-17
-2.25254757e-17
-1.89647004e-17
-2.27218105e-17
-1.79645771e-17
-2.30574888e-17
-2.18654316e-17
-2.38252008e-17
-2.48722067e-17
-2.85587163e-17
-2.75722638e-17
-2.59659863e-17
-2.92774265e-17
-2.66602705e-17
-2.54096685e-17
-2.97475117e-17
-3.00478972e-17
-2.58959667e-17
-2.34033468e-17
-1.84209526e-17
-1.9580032e-17
-2.10571251e-17
-1.63541947e-17
-1.64839063e-17
-2.03482869e-17
-1.97871593e-17
-2.11072167e-17
-1.82734764e-17
-1.96459342e-17
-1.91974661e-17
-2.18764292e-17
-1.70526125e-17
-1.88017502e-17
-1.75807542e-17
-1.77752842e-17
-2.04733682e-17
-1.80413677e-17
-1.98004509e-17
-2.11756954e-17
-1.88708002e-17
-1.59179339e-17
-1.72016986e-17
-1.77157283e-17
-1.78174233e-17
-1.67721873e-17
-1.93832672e-17
-1.87490005e-17
-2.06694791e-17
-1.94562593e-17
-2.05447789e-17
-1.72623028e-17
-1.50713416e-17
-1.73995356e-17
-1.99361966e-17
-2.21190095e-17
-1.93719455e-17
-2.25706756e-17
-2.26935484e-17
-2.10806014e-17
-1.84381605e-17
-1.92092896e-17
-1.87621204e-17
-1.78335249e-17
-1.78242993e-17
-1.61238502e-17
-1.7524011e-17
-1.79303016e-17
-1.72913771e-17
-1.50336101e-17
-1.5324769e-17
-1.12694242e-17
-1.15544689e-17
-5.67526044e-18
-3.68676487e-18
-4.8156067e-18
-4.23355716e-19
4.76295544e-19
2.28716802e-18
1.78761924e-19
-3.53853048e-19
5.07031558e-19
1.28111478e-18
8.09680919e-19
2.5395828e-18
3.14463401e-18
1.25934941e-19
4.29341368e-19
3.49813626e-20
2.03966967e-18
5.49531196e-18
2.79133821e-18
4.67094831e-18
3.37520597e-18
9.83240422e-19
1.24799254e-18
-6.1118275e-19
3.04257728e-18
3.67865785e-18
1.07938469e-18
2.09809412e-18
-5.93267286e-19
7.04786829e-19
2.87145309e-18
2.72209439e-18
4.32122182e-18
5.44755172e-18
7.44225477e-18
8.02656433e-18
4.70547546e-18
7.40374215e-18
7.57952257e-18
7.24095446e-18
7.980029e-18
1.16018894e-17
9.11469069e-18
8.1431725e-18
8.82799183e-18
1.15938714e-17
1.01568805e-17
1.30047801e-17
1.32690161e-17
1.61444049e-17
1.42599837e-17
1.65274414e-17
1.84558285e-17
1.63398224e-17
1.31034467e-17
1.66641898e-17
1.63013599e-17
1.3048118e-17
1.65126411e-17
1.57798717e-17
1.7396621e-17
1.80160441e-17
2.08309455e-17
2.26187633e-17
2.31890642e-17
2.14346141e-17
2.17589596e-17
2.14580485e-17
2.37265502e-17
2.65241412e-17
2.09294567e-17
2.03098667e-17
1.98614856e-17
1.51208692e-17
1.67104018e-17
1.66766301e-17
1.81055195e-17
1.51213467e-17
1.77910777e-17
2.08169375e-17
2.10905566e-17
2.20932246e-17
2.24551442e-17
2.46624765e-17
2.38548519e-17
2.20383271e-17
2.49839665e-17
2.47977032e-17
2.40166946e-17
2.60684847e-17
2.56453505e-17
2.61473416e-17
2.75879705e-17
2.47101952e-17
2.48036591e-17
2.49932534e-17
2.51675216e-17
2.59525039e-17
2.78526957e-17
2.61813972e-17
2.55758355e-17
2.60796229e-17
2.45937862e-17
2.87663136e-17
3.03677556e-17
3.44435925e-17
3.34698162e-17
3.85484245e-17
3.57568461e-17
3.94922026e-17
3.76920718e-17
4.23443914e-17
4.23976922e-17
4.34906855e-17
4.59429662e-17
4.51079282e-17
4.64410898e-17
4.77511594e-17
4.45003725e-17
4.29387898e-17
3.98168424e-17
4.1436983e-17
4.32746826e-17
4.30599982e-17
4.17829324e-17
4.11704537e-17
4.33245861e-17
4.11528088e-17
4.53579653e-17
4.62355386e-17
5.03991893e-17
5.02164541e-17
5.20864374e-17
4.96355081e-17
5.0143597e-17
5.11775068e-17
4.75905779e-17
4.67677528e-17
5.1291711e-17
5.3009639e-17
5.10310933e-17
5.23140029e-17
4.87267892e-17
5.3077881e-17
5.47263623e-17
5.58057582e-17
5.19203532e-17
5.3671632e-17
5.25624718e-17
5.26534215e-17
5.4598702e-17
5.66564851e-17
5.19431977e-17
5.66406569e-17
5.52990349e-17
5.72461957e-17
5.84381789e-17
5.86347411e-17
6.11407912e-17
6.13003798e-17
6.46375031e-17
6.89116974e-17
7.24902174e-17
7.14666805e-17
7.07999563e-17
7.05247552e-17
7.47663268e-17
7.59703696e-17
7.50207607e-17
7.44168248e-17
7.21061356e-17
7.4596291e-17
7.44170639e-17
7.56793728e-17
7.68452156e-17
7.81628709e-17
7.71189667e-17
7.87878725e-17
7.97634781e-17
7.73969019e-17
7.74328106e-17
7.61449638e-17
7.62887726e-17
7.35394152e-17
7.34558973e-17
7.42972032e-17
7.50447167e-17
7.40048013e-17
7.52064024e-17
7.59057297e-17
7.74129258e-17
7.74751338e-17
8.03891606e-17
8.0702213e-17
7.96728513e-17
7.95111293e-17
7.72623056e-17
7.79939903e-17
8.20673215e-17
8.57108025e-17
8.35533494e-17
8.18685715e-17
8.22525249e-17
7.84280624e-17
7.68694345e-17
8.0078478e-17
8.19612491e-17
7.82677548e-17
8.14300405e-17
7.76709865e-17
7.84034533e-17
7.81479056e-17
7.84529361e-17
7.87047355e-17
8.1449891e-17
7.86513354e-17
7.72770408e-17
7.94445395e-17
7.79479786e-17
8.05096789e-17
7.98419589e-17
8.28298001e-17
8.13750012e-17
8.4106676e-17
8.31751377e-17
8.40829951e-17
8.3955046e-17
8.32927328e-17
8.50384536e-17
8.28930977e-17
8.36741614e-17
8.23022106e-17
8.2946154e-17
8.26870509e-17
8.53275301e-17
8.90260211e-17
8.67750875e-17
8.48082244e-17
8.24352519e-17
8.22700554e-17