/*--------------------------------*- C++ -*----------------------------------*\
| =========                 |                                                 |
| \\      /  F ield         | OpenFOAM: The Open Source CFD Toolbox           |
|  \\    /   O peration     | Version:  2206                                  |
|   \\  /    A nd           | Website:  www.openfoam.com                      |
|    \\/     M anipulation  |                                                 |
\*---------------------------------------------------------------------------*/
FoamFile
{
    version     2.0;
    format      ascii;
    arch        "LSB;label=32;scalar=64";
    class       volScalarField;
    location    "8e-06";
    object      PVsourcePV;
}
// * * * * * * * * * * * * * * * * * * * * * * * * * * * * * * * * * * * * * //

dimensions      [1 -3 -1 0 0 0 0];

internalField   nonuniform List<scalar> 
3183
(
0
0
0
0
0
0
0
0
0
0
0
0
0
0
0
0
0
0
0
0
0
0
0
0
0
0
0
0
0
0
0
0
0
0
0
0
0
0
0
0
0
0
0
0
0
0
0
0
0
0
0
0
0
0
0
0
0
0
0
0
0
0
0
0
0
0
0
0
0
0
0
0
0
0
0
0
0
0
0
0
0
0
0
0
0
0
0
0
0
0
0
0
0
0
0
0
0
0
0
0
0
0
0
0
0
0
0
0
0
0
0
0
0
0
0
0
0
0
0
0
0
0
0
0
0
0
0
0
0
0
0
0
0
0
0
0
0
0
0
0
0
0
0
0
0
0
0
0
0
0
0
0
0
0
0
0
0
0
0
0
0
0
0
0
0
0
0
0
0
0
0
0
0
0
0
0
0
0
0
0
0
0
0
0
0
0
0
0
0
0
0
0
0
0
0
0
0
0
0
0
0
0
0
0
0
0
0
0
0
0
0
0
0
0
0
0
0
0
0
0
0
0
0
0
0
0
0
0
0
0
0
0
0
0
0
0
0
0
0
0
0
0
0
0
0
0
0
0
0
0
0
0
0
0
0
0
0
0
0
0
0
0
0
0
0
0
0
0
0
0
0
0
0
0
0
0
0
0
0
0
0
0
0
0
0
0
0
0
0
0
0
0
0
0
0
0
0
0
0
0
0
0
0
0
0
0
0
0
0
0
0
0
0
0
0
0
0
0
0
0
0
0
0
0
0
0
0
0
0
0
0
0
0
0
0
0
0
0
0
0
0
0
0
0
0
0
0
0
0
0
0
0
0
0
0
0
0
0
0
0
0
0
0
0
0
0
0
0
0
0
0
0
0
0
0
0
0
0
0
0
0
0
0
0
0
0
0
0
0
0
0
0
0
0
0
0
0
0
0
0
0
0
0
0
0
0
0
0
0
0
0
0
0
0
0
0
0
0
0
0
0
0
0
0
0
0
0
0
0
0
0
0
0
0
0
0
0
0
0
0
0
0
0
0
0
0
0
0
0
0
0
0
0
0
0
0
0
0
0
0
0
0
0
0
0
0
0
0
0
0
0
0
0
0
0
0
0
0
0
0
0
0
0
0
0
0
0
0
0
0
0
0
0
0
0
0
0
0
0
0
0
0
0
0
0
0
0
0
0
0
0
0
0
0
0
0
0
0
0
0
0
0
0
0
0
0
0
0
0
0
0
0
0
0
0
0
0
0
0
0
0
0
0
0
0
0
0
0
0
0
0
0
0
0
0
0
0
0
0
0
0
0
0
0
0
0
0
0
0
0
0
0
0
0
0
0
0
0
0
0
0
0
0
0
0
0
0
0
0
0
0
0
0
0
0
0
0
0
0
0
0
0
0
0
0
0
0
0
0
0
0
0
0
0
0
0
0
0
0
0
0
0
0
0
0
0
0
0
0
0
0
0
0
0
0
0
0
0
0
0
0
0
0
0
0
0
0
0
0
0
0
0
0
0
0
0
0
0
0
0
0
0
0
0
0
0
0
0
0
0
0
0
0
0
0
0
0
0
0
0
0
0
0
0
0
0
0
0
0
0
0
0
0
0
0
0
0
0
0
0
0
0
0
0
0
0
0
0
0
0
0
0
0
0
0
0
0
0
0
0
0
0
0
0
0
0
0
0
0
0
0
0
0
0
0
0
0
0
0
0
0
0
0
0
0
0
0
0
0
0
0
0
0
0
0
0
0
0
0
0
0
0
0
0
0
0
0
0
0
0
0
0
0
0
0
0
0
0
0
0
0
0
0
0
0
0
0
0
0
0
0
0
0
0
0
0
0
0
0
0
0
0
0
0
0
0
0
0
0
0
0
0
0
0
0
0
0
0
0
0
0
0
0
0
0
0
0
0
0
0
0
0
0
0
0
0
0
0
0
0
0
0
0
0
0
0
0
0
0
0
0
0
0
0
0
0
0
0
0
0
0
0
0
0
0
0
0
0
0
0
0
0
0
0
0
0
0
0
0
0
0
0
0
0
0
0
0
0
0
0
0
0
0
0
0
0
0
0
0
0
0
0
0
0
0
0
0
0
0
0
0
0
0
0
0
0
0
0
0
0
0
0
0
0
0
0
0
0
0
0
0
0
0
0
0
0
0
0
0
0
0
0
0
0
0
0
0
0
0
0
0
0
0
0
0
0
0
0
0
0
0
0
0
0
0
0
0
0
0
0
0
0
0
0
0
0
0
0
0
0
0
0
0
0
0
0
0
0
0
0
0
0
0
0
0
0
0
0
0
0
0
0
0
0
0
0
0
0
0
0
0
0
0
0
0
0
0
0
0
0
0
0
0
0
0
0
0
0
0
0
0
0
0
0
0
0
0
0
0
0
0
0
0
0
0
0
0
0
0
0
0
0
0
0
0
0
0
0
0
0
0
0
0
0
0
0
0
0
0
0
0
0
0
0
0
0
0
0
0
0
0
0
0
0
0
0
0
0
0
0
0
0
0
0
0
0
0
0
0
0
0
0
0
0
0
0
0
0
0
0
0
0
0
0
0
0
0
0
0
0
0
0
0
0
0
0
0
0
0
0
0
0
0
0
0
0
0
0
0
0
0
0
0
0
0
0
0
0
0
0
0
0
0
0
0
0
0
0
0
0
0
0
0
0
0
0
0
0
0
0
0
0
0
0
0
0
0
0
0
0
0
0
0
0
0
0
0
0
0
0
0
0
0
0
0
0
0
0
0
0
0
0
0
0
0
0
0
0
0
0
0
0
0
0
0
0
0
0
0
0
0
0
0
0
0
0
0
0
0
0
0
0
0
0
0
0
0
0
0
0
0
0
0
0
0
0
0
0
0
0
0
0
0
0
0
0
0
0
0
0
0
0
0
0
0
0
0
0
0
0
0
0
0
0
0
0
0
0
0
0
0
0
0
0
0
0
0
0
0
0
0
0
0
0
0
0
0
0
0
0
0
0
0
0
0
0
0
0
0
0
0
0
0
0
0
0
0
0
0
0
0
0
0
0
0
0
0
0
0
0
0
0
0
0
0
0
0
0
0
0
0
0
0
0
0
0
0
0
0
0
0
0
0
0
0
0
0
0
0
0
0
0
0
0
0
0
0
0
0
0
0
0
0
0
0
0
0
0
0
0
0
0
0
0
0
0
0
0
0
0
0
0
0
0
0
0
0
0
0
0
0
0
0
0
0
0
0
0
0
0
0
0
0
0
0
0
0
0
0
0
0
0
0
0
0
0
0
0
0
0
0
0
0
0
0
0
0
0
0
0
0
0
0
0
0
0
0
0
0
0
0
0
0
0
0
0
0
0
0
0
0
0
0
0
0
0
0
0
0
0
0
0
0
0
0
0
0
0
0
0
0
0
0
0
0
0
0
0
0
0
0
0
0
0
0
0
0
0
0
0
0
0
0
0
0
0
0
0
0
0
0
0
0
0
0
0
0
0
0
0
0
0
0
0
0
0
0
0
0
0
0
0
0
0
0
0
0
0
0
0
0
0
0
0
0
0
0
0
0
0
0
0
0
0
0
0
0
0
0
0
0
0
0
0
0
0
0
0
0
0
0
0
0
0
0
0
0
0
0
0
0
0
0
0
0
0
0
0
0
0
0
0
0
0
0
0
0
0
0
0
0
0
0
0
0
0
0
0
0
0
0
0
0
0
0
0
0
0
0
0
0
0
0
0
0
0
0
0
0
0
0
0
0
0
0
0
0
0
0
0
0
0
0
0
0
0
0
0
0
0
0
0
0
0
0
0
0
0
0
0
0
0
0
0
0
0
0
0
0
0
0
0
0
0
0
0
0
0
0
0
0
0
0
0
0
0
0
0
0
0
0
0
0
0
0
0
0
0
0
0
0
0
0
0
0
0
0
0
0
0
0
0
0
0
0
0
0
0
0
0
0
0
0
0
0
0
0
0
0
0
0
0
0
0
0
0
0
0
0
0
0
0
0
0
0
0
0
0
0
0
0
0
0
0
0
0
0
0
0
0
0
0
0
0
0
0
0
0
0
0
0
0
0
0
0
0
0
0
0
0
0
0
0
0
0
0
0
0
0
0
0
0
0
0
0
0
0
0
0
0
0
0
0
0
0
0
0
0
0
0
0
0
0
0
0
0
0
0
0
0
0
0
0
0
0
0
0
0
0
0
0
0
0
0
0
0
0
0
0
0
0
0
0
0
0
0
0
0
0
0
0
0
0
0
0
0
0
0
0
0
0
0
0
0
0
0
0
0
0
0
0
0
0
0
0
0
0
0
0
0
0
0
0
0
0
0
0
0
0
0
0
0
0
0
0
0
0
0
0
0
0
0
0
0
0
0
0
0
0
0
0
0
0
0
0
0
0
0
0
0
0
0
0
0
0
0
0
0
0
0
0
0
0
0
0
0
0
0
0
0
0
0
0
0
0
0
0
0
0
0
0
0
0
0
0
0
0
0
0
0
0
0
0
0
0
0
0
0
0
0
0
0
0
0
0
0
0
0
0
0
0
0
0
0
0
0
0
0
0
0
0
0
0
0
0
0
0
0
0
0
0
0
0
0
0
0
0
0
0
0
0
0
0
0
0
0
0
0
0
0
0
0
0
0
0
0
0
0
0
0
0
0
0
0
0
0
0
0
0
0
0
0
0
0
0
0
0
0
0
0
0
0
0
0
0
0
0
0
0
0
0
0
0
0
0
0
0
0
0
0
0
0
0
0
0
0
0
0
0
0
0
0
0
0
0
0
0
0
0
0
0
0
0
0
0
0
0
0
0
0
0
0
0
0
0
0
0
0
0
0
0
0
0
0
0
0
0
0
0
0
0
0
0
0
0
0
0
0
0
0
0
0
0
0
0
0
0
0
0
0
0
0
0
0
0
0
0
0
0
0
0
0
0
0
0
0
0
0
0
0
0
0
0
0
0
0
0
0
0
0
0
0
0
0
0
0
0
0
0
0
0
0
0
0
0
0
0
0
0
0
0
0
0
0
0
0
0
0
0
0
0
0
0
0
0
0
0
0
0
0
0
0
0
0
0
0
0
0
0
0
0
0
0
0
0
0
0
0
0
0
0
0
0
0
0
0
0
0
0
0
0
0
0
0
0
0
0
0
0
0
0
0
0
0
0
0
0
0
0
0
0
0
0
0
0
0
0
0
0
0
0
0
0
0
0
0
0
0
0
0
0
0
0
0
0
0
0
0
0
0
0
0
0
0
0
0
0
0
0
0
0
0
0
0
0
0
0
0
0
0
0
0
0
0
0
0
0
0
0
0
0
0
0
0
0
0
0
0
0
0
0
0
0
0
0
0
0
0
0
0
0
0
0
0
0
0
0
0
0
0
0
0
0
0
0
0
0
0
0
0
0
0
0
0
0
0
0
0
0
0
0
0
0
0
0
0
0
0
0
0
0
0
0
0
0
0
0
0
0
3.3310772e-298
0
7.15482563e-295
0
1.4472129e-291
0
2.76871595e-288
0
5.02878412e-285
0
8.69951601e-282
0
1.43749106e-278
0
2.27444426e-275
0
3.45352905e-272
0
5.04220679e-269
0
7.0910381e-266
0
9.62088284e-263
0
1.26111026e-259
0
1.59912601e-256
0
1.96386159e-253
0
2.33829541e-250
0
2.7019033e-247
0
3.03255046e-244
0
3.30878106e-241
0
3.51216637e-238
0
3.62934834e-235
0
3.6534643e-232
0
3.58474814e-229
0
3.43024877e-226
0
3.20275528e-223
0
2.91913966e-220
6.36274168e-223
2.59839935e-217
6.49209598e-219
2.25969607e-214
1.05331813e-215
1.92064787e-211
1.2901918e-212
1.59605455e-208
1.38489799e-209
1.29714234e-205
1.36836406e-206
1.0313233e-202
1.27286094e-203
8.02392809e-200
1.12844547e-200
6.11044504e-197
9.60593894e-198
4.55567043e-194
7.89018212e-195
3.32596196e-191
6.27483604e-192
2.37821938e-188
4.84352029e-189
1.66583868e-185
3.63556113e-186
1.14322051e-182
2.6574039e-183
7.68786843e-180
1.89370423e-180
5.06660433e-177
1.31683345e-177
3.27275141e-174
8.94202269e-175
2.07222876e-171
5.93323927e-172
1.28625961e-168
3.84874136e-169
7.82739955e-166
2.44173882e-166
4.67014273e-163
1.51560431e-163
2.73203758e-160
9.20673567e-161
1.56711702e-157
5.47474757e-158
8.81420499e-155
3.18748142e-155
4.86110365e-152
1.81729896e-152
2.62877874e-149
1.01474174e-149
1.39390227e-146
5.54979635e-147
7.24695815e-144
2.97317654e-144
3.69406505e-141
1.56028855e-141
1.84609072e-138
8.02116694e-139
9.0441895e-136
4.03939551e-136
4.34326879e-133
1.99264312e-133
2.04432673e-130
9.62843668e-131
9.43018417e-128
4.55685072e-128
4.26254979e-125
2.11211342e-125
1.88770682e-122
9.58660359e-123
8.18926159e-120
4.26039734e-120
3.47954199e-117
1.85356098e-117
1.4477079e-114
7.89331646e-115
5.89695381e-112
3.2894479e-112
2.35104225e-109
1.34122819e-109
9.17208828e-107
5.34926076e-107
3.50050661e-104
2.08632102e-104
1.30652682e-101
7.95497261e-102
4.76749013e-99
2.96434596e-99
1.70017375e-96
1.07920034e-96
5.92331334e-94
3.83703482e-94
2.0152403e-91
1.33178369e-91
6.69250126e-89
4.51050398e-89
2.16841849e-86
1.48992105e-86
6.85121726e-84
4.79760635e-84
2.109703e-81
1.50510582e-81
6.32765917e-79
4.59756981e-79
1.84735609e-76
1.36654623e-76
5.24611417e-74
3.94954178e-74
1.4480113e-71
1.10907412e-71
3.88142871e-69
3.02344117e-69
1.00949144e-66
7.99415251e-67
2.54492328e-64
2.04804528e-64
6.21207552e-62
5.07841391e-62
1.46646532e-59
1.21735416e-59
3.34357391e-57
2.81729616e-57
7.35234437e-55
6.28552216e-55
1.55675496e-52
1.34971329e-52
3.16824989e-50
2.78452978e-50
6.18525214e-48
5.50806837e-48
1.15574346e-45
1.04232507e-45
2.06173405e-43
1.8821561e-43
3.50123866e-41
3.23368298e-41
5.64154736e-39
5.26849999e-39
8.5923325e-37
8.108875e-37
1.23150632e-34
1.17376372e-34
1.65238058e-32
1.58952219e-32
2.06267926e-30
2.00124769e-30
2.37758916e-28
2.32486551e-28
2.50731745e-26
2.46895937e-26
2.39114339e-24
2.36896392e-24
2.03155336e-22
2.0226522e-22
1.50741457e-20
1.50549674e-20
9.50216907e-19
9.48575993e-19
4.88608129e-17
4.84113223e-17
1.9202938e-15
1.92873554e-15
8.68379505e-12
9.08882387e-12
0.0435490858
0.140413549
0.768411533
0.73875006
0.233571459
0.188927175
0.0245016159
0.0217771021
0.00357508981
0.00336724544
0.000454680954
0.000448502747
5.33522394e-05
5.32664394e-05
6.21190534e-06
6.22329955e-06
1.21342273e-06
1.21270936e-06
7.27429488e-07
7.27589422e-07
6.84485242e-07
6.84497257e-07
6.80949154e-07
6.80951129e-07
6.80679098e-07
6.80679105e-07
6.80659966e-07
6.80660171e-07
6.80657121e-07
6.80659343e-07
6.80657281e-07
6.80658762e-07
6.80657012e-07
6.80659912e-07
6.80656476e-07
6.80658405e-07
6.80657709e-07
6.80656907e-07
6.80657959e-07
6.806573e-07
6.80658192e-07
6.80657105e-07
6.80658735e-07
6.80657754e-07
6.80658308e-07
6.80657941e-07
6.80658618e-07
6.8065788e-07
6.80658593e-07
6.80656908e-07
6.80658266e-07
6.80657153e-07
6.80658683e-07
6.80656858e-07
6.80658199e-07
6.8065824e-07
6.80657765e-07
6.80658574e-07
6.80657826e-07
6.80657803e-07
6.80657826e-07
6.80658335e-07
6.80657623e-07
6.80658399e-07
6.80658137e-07
6.80657545e-07
6.80658321e-07
6.80657448e-07
6.8065804e-07
6.80656829e-07
6.8065798e-07
6.8065726e-07
6.80657596e-07
6.80657935e-07
6.80656841e-07
6.80659232e-07
6.806572e-07
6.80659088e-07
6.80658158e-07
6.80658119e-07
6.80657786e-07
6.80658522e-07
6.80657693e-07
6.80658802e-07
6.80657432e-07
6.80658528e-07
6.80657862e-07
6.80657626e-07
6.8065824e-07
6.80657157e-07
6.80658554e-07
6.80658008e-07
6.80658087e-07
6.80658465e-07
6.80658638e-07
6.80658444e-07
6.80657128e-07
6.80658065e-07
6.80658197e-07
6.80658322e-07
6.80658768e-07
6.80658287e-07
6.80658566e-07
6.80658922e-07
6.80657697e-07
6.8065788e-07
6.80658272e-07
6.80658963e-07
6.80657665e-07
6.80658082e-07
6.80658545e-07
6.80656756e-07
6.80658372e-07
6.80657573e-07
6.80658e-07
6.80658395e-07
6.80658097e-07
6.80658143e-07
6.80658109e-07
6.80658556e-07
6.80657817e-07
6.80658291e-07
6.80657814e-07
6.80659502e-07
6.80657723e-07
6.80658297e-07
6.80657441e-07
6.8065897e-07
6.8065808e-07
6.80658763e-07
6.80657516e-07
6.80658674e-07
6.80658963e-07
6.80659376e-07
6.80658869e-07
6.80658312e-07
6.80659479e-07
6.80657718e-07
6.80658905e-07
6.80657571e-07
6.80658506e-07
6.80657689e-07
6.80657963e-07
6.80658005e-07
6.80658346e-07
6.80658412e-07
6.80658281e-07
6.80657885e-07
6.80658654e-07
6.80658105e-07
6.80659118e-07
6.80657064e-07
6.80659227e-07
6.80658322e-07
6.80658267e-07
6.80658721e-07
6.80658498e-07
6.80658095e-07
6.80658346e-07
6.8065946e-07
6.8065908e-07
6.80658221e-07
6.80659033e-07
6.80658103e-07
6.80659508e-07
6.80658529e-07
6.80658811e-07
6.8065869e-07
6.80658484e-07
6.80658181e-07
6.80658963e-07
6.80657571e-07
6.80658305e-07
6.80658116e-07
6.80658572e-07
6.80658774e-07
6.80658713e-07
6.80658698e-07
6.80658442e-07
6.80659908e-07
6.80659082e-07
6.8065942e-07
6.80659548e-07
6.80658716e-07
6.80658924e-07
6.80658519e-07
6.80658946e-07
6.80658719e-07
6.80658481e-07
6.80658993e-07
6.80659228e-07
6.80658216e-07
6.80659566e-07
6.80658807e-07
6.80659787e-07
6.80658224e-07
6.80659092e-07
6.80658782e-07
6.80659125e-07
6.80658263e-07
6.80659124e-07
6.80658377e-07
6.80658984e-07
6.80658327e-07
6.80658665e-07
6.80658838e-07
6.80658896e-07
6.80658811e-07
6.80659983e-07
6.80659101e-07
6.80659352e-07
6.80658682e-07
6.80659575e-07
6.80659088e-07
6.80658241e-07
6.80659438e-07
6.80658713e-07
6.80659224e-07
6.80658252e-07
6.80659646e-07
6.80658658e-07
6.80659614e-07
6.80658042e-07
6.80658751e-07
6.80659126e-07
6.80658174e-07
6.80658898e-07
6.80659322e-07
6.80659453e-07
6.80659333e-07
6.80659382e-07
6.80658872e-07
6.80659422e-07
6.80660067e-07
6.80658632e-07
6.80659108e-07
6.80659194e-07
6.80660123e-07
6.80659101e-07
6.80660209e-07
6.80658958e-07
6.80659805e-07
6.80659008e-07
6.80658868e-07
6.80658978e-07
6.80660355e-07
6.80658515e-07
6.80659484e-07
6.80658435e-07
6.80659129e-07
6.80659106e-07
6.80659494e-07
6.80659102e-07
6.80659162e-07
6.80658412e-07
6.80659686e-07
6.80658818e-07
6.80659476e-07
6.80659695e-07
6.80658977e-07
6.80660034e-07
6.80659666e-07
6.8065993e-07
6.80659155e-07
6.80660089e-07
6.80658585e-07
6.80659454e-07
6.80658713e-07
6.80659488e-07
6.80658494e-07
6.8065991e-07
6.80658755e-07
6.80658933e-07
6.80660046e-07
6.80658922e-07
6.80660064e-07
6.80659044e-07
6.80659606e-07
6.80659854e-07
6.80658766e-07
6.80660221e-07
6.80659032e-07
6.80659633e-07
6.80659511e-07
6.80659878e-07
6.80658463e-07
6.80659441e-07
6.8065876e-07
6.8065925e-07
6.80659738e-07
6.80658997e-07
6.80659109e-07
6.80659143e-07
6.8065947e-07
6.80659646e-07
6.80658227e-07
6.80658978e-07
6.80659835e-07
6.80660224e-07
6.80659457e-07
6.80659198e-07
6.80659526e-07
6.80659456e-07
6.80660133e-07
6.80658834e-07
6.80660181e-07
6.80659836e-07
6.80659345e-07
6.80660262e-07
6.80659709e-07
6.80659897e-07
6.8065965e-07
6.80659705e-07
6.80659878e-07
6.80659091e-07
6.80659805e-07
6.80660687e-07
6.8065863e-07
6.80660836e-07
6.80658869e-07
6.8066053e-07
6.80659276e-07
6.80660163e-07
6.80659522e-07
6.80659157e-07
6.80659736e-07
6.8066014e-07
6.80659672e-07
6.80659722e-07
6.80659993e-07
6.8065964e-07
6.80660438e-07
6.8065928e-07
6.80659263e-07
6.80659698e-07
6.80659083e-07
6.80660628e-07
6.80659587e-07
6.80659439e-07
6.80660062e-07
6.80659489e-07
6.80660241e-07
6.80659156e-07
6.8066036e-07
6.80659532e-07
6.80660348e-07
6.80659776e-07
6.80659809e-07
6.80660287e-07
6.80659659e-07
6.8066053e-07
6.80660119e-07
6.80659832e-07
6.80659385e-07
6.8066084e-07
6.8065886e-07
6.80660576e-07
6.80660061e-07
6.80660183e-07
6.80660114e-07
6.80659883e-07
6.80659722e-07
6.80660856e-07
6.80659699e-07
6.8065975e-07
6.80660154e-07
6.80659903e-07
6.80661064e-07
6.80659939e-07
6.80661086e-07
6.80660393e-07
6.80660989e-07
6.80659993e-07
6.80660975e-07
6.80659516e-07
6.80660891e-07
6.80659892e-07
6.80659874e-07
6.80660463e-07
6.80659905e-07
6.80660301e-07
6.80660546e-07
6.80660484e-07
6.8066018e-07
6.80660341e-07
6.80659124e-07
6.8066042e-07
6.80660104e-07
6.80659587e-07
6.80660711e-07
6.80660481e-07
6.8066001e-07
6.8066028e-07
6.80660374e-07
6.80660405e-07
6.80660619e-07
6.80661108e-07
6.80661179e-07
6.80660248e-07
6.80660389e-07
6.80660351e-07
6.80661047e-07
6.80659967e-07
6.80661861e-07
6.80659617e-07
6.80661019e-07
6.80660104e-07
6.80661212e-07
6.80660796e-07
6.80660745e-07
6.80660675e-07
6.80661016e-07
6.80660712e-07
6.80660185e-07
6.80660839e-07
6.80660723e-07
6.80660523e-07
6.80660799e-07
6.80660699e-07
6.80660774e-07
6.80660536e-07
6.80661066e-07
6.80659919e-07
6.80661702e-07
6.80660512e-07
6.80660675e-07
6.80661187e-07
6.80660897e-07
6.80660508e-07
6.80661512e-07
6.80661053e-07
6.80661111e-07
6.80661114e-07
6.80661564e-07
6.80661905e-07
6.80661437e-07
6.80661088e-07
6.80662176e-07
6.80661017e-07
6.80661659e-07
6.8066074e-07
6.8066129e-07
6.80660882e-07
6.80661322e-07
6.80661697e-07
6.8066088e-07
6.80661156e-07
6.80662057e-07
6.80661216e-07
6.80661239e-07
6.80660885e-07
6.80661273e-07
6.8066129e-07
6.80660447e-07
6.80661868e-07
6.80661617e-07
6.80661079e-07
6.80660539e-07
6.80660998e-07
6.80660964e-07
6.80661132e-07
6.80661601e-07
6.80660723e-07
6.80661571e-07
6.80661004e-07
6.80662301e-07
6.80661496e-07
6.80661383e-07
6.8066146e-07
6.80661253e-07
6.80662137e-07
6.8066099e-07
6.80660813e-07
6.8066236e-07
6.80659743e-07
6.80662803e-07
6.80660294e-07
6.80661761e-07
6.80661052e-07
6.80661217e-07
6.8066093e-07
6.8066142e-07
6.8066101e-07
6.80661211e-07
6.80661258e-07
6.80661194e-07
6.80661775e-07
6.80660718e-07
6.80662053e-07
6.80661222e-07
6.80661743e-07
6.80662193e-07
6.80661362e-07
6.80661376e-07
6.80662922e-07
6.80660716e-07
6.80661901e-07
6.80660879e-07
6.80662296e-07
6.80660426e-07
6.80662456e-07
6.80660392e-07
6.80662654e-07
6.80661189e-07
6.80661732e-07
6.80661824e-07
6.80661669e-07
6.8066182e-07
6.80661677e-07
6.80661518e-07
6.80661853e-07
6.80661653e-07
6.80661917e-07
6.80661889e-07
6.80662046e-07
6.80661995e-07
6.8066164e-07
6.8066192e-07
6.80661833e-07
6.80661669e-07
6.80661969e-07
6.80662007e-07
6.80661967e-07
6.80661966e-07
6.80661954e-07
6.80661923e-07
6.80662063e-07
6.8066203e-07
6.80662042e-07
6.80662089e-07
6.80662061e-07
6.80662126e-07
6.80662145e-07
6.80662104e-07
6.80662174e-07
6.8066218e-07
6.80662128e-07
6.80662143e-07
6.80662179e-07
6.80662201e-07
6.80662182e-07
6.80662181e-07
6.80662201e-07
6.80662184e-07
6.80662187e-07
6.80662188e-07
6.80662195e-07
6.80662164e-07
6.80662202e-07
6.80662178e-07
6.80662184e-07
6.80662183e-07
6.80662185e-07
6.80662186e-07
6.806622e-07
6.80662189e-07
6.80662191e-07
6.80662174e-07
6.8066217e-07
6.80662195e-07
6.80662182e-07
6.80662188e-07
6.80662187e-07
6.80662178e-07
6.80662194e-07
6.80662189e-07
6.80662188e-07
6.806622e-07
6.80662182e-07
6.806622e-07
6.8066218e-07
6.80662195e-07
6.8066219e-07
6.80662181e-07
6.80662191e-07
6.80662178e-07
6.80662175e-07
6.80662203e-07
)
;

boundaryField
{
    closed
    {
        type            calculated;
        value           uniform 0;
    }
    open
    {
        type            calculated;
        value           uniform 0;
    }
    sides
    {
        type            empty;
    }
}


// ************************************************************************* //
