/*--------------------------------*- C++ -*----------------------------------*\
| =========                 |                                                 |
| \\      /  F ield         | OpenFOAM: The Open Source CFD Toolbox           |
|  \\    /   O peration     | Version:  2206                                  |
|   \\  /    A nd           | Website:  www.openfoam.com                      |
|    \\/     M anipulation  |                                                 |
\*---------------------------------------------------------------------------*/
FoamFile
{
    version     2.0;
    format      ascii;
    arch        "LSB;label=32;scalar=64";
    class       volScalarField;
    location    "8e-06";
    object      sourcePV;
}
// * * * * * * * * * * * * * * * * * * * * * * * * * * * * * * * * * * * * * //

dimensions      [1 -3 -1 0 0 0 0];

internalField   nonuniform List<scalar> 
3183
(
0
0
0
0
0
0
0
0
0
0
0
0
0
0
0
0
0
0
0
0
0
0
0
0
0
0
0
0
0
0
0
0
0
0
0
0
0
0
0
0
0
0
0
0
0
0
0
0
0
0
0
0
0
0
0
0
0
0
0
0
0
0
0
0
0
0
0
0
0
0
0
0
0
0
0
0
0
0
0
0
0
0
0
0
0
0
0
0
0
0
0
0
0
0
0
0
0
0
0
0
0
0
0
0
0
0
0
0
0
0
0
0
0
0
0
0
0
0
0
0
0
0
0
0
0
0
0
0
0
0
0
0
0
0
0
0
0
0
0
0
0
0
0
0
0
0
0
0
0
0
0
0
0
0
0
0
0
0
0
0
0
0
0
0
0
0
0
0
0
0
0
0
0
0
0
0
0
0
0
0
0
0
0
0
0
0
0
0
0
0
0
0
0
0
0
0
0
0
0
0
0
0
0
0
0
0
0
0
0
0
0
0
0
0
0
0
0
0
0
0
0
0
0
0
0
0
0
0
0
0
0
0
0
0
0
0
0
0
0
0
0
0
0
0
0
0
0
0
0
0
0
0
0
0
0
0
0
0
0
0
0
0
0
0
0
0
0
0
0
0
0
0
0
0
0
0
0
0
0
0
0
0
0
0
0
0
0
0
0
0
0
0
0
0
0
0
0
0
0
0
0
0
0
0
0
0
0
0
0
0
0
0
0
0
0
0
0
0
0
0
0
0
0
0
0
0
0
0
0
0
0
0
0
0
0
0
0
0
0
0
0
0
0
0
0
0
0
0
0
0
0
0
0
0
0
0
0
0
0
0
0
0
0
0
0
0
0
0
0
0
0
0
0
0
0
0
0
0
0
0
0
0
0
0
0
0
0
0
0
0
0
0
0
0
0
0
0
0
0
0
0
0
0
0
0
0
0
0
0
0
0
0
0
0
0
0
0
0
0
0
0
0
0
0
0
0
0
0
0
0
0
0
0
0
0
0
0
0
0
0
0
0
0
0
0
0
0
0
0
0
0
0
0
0
0
0
0
0
0
0
0
0
0
0
0
0
0
0
0
0
0
0
0
0
0
0
0
0
0
0
0
0
0
0
0
0
0
0
0
0
0
0
0
0
0
0
0
0
0
0
0
0
0
0
0
0
0
0
0
0
0
0
0
0
0
0
0
0
0
0
0
0
0
0
0
0
0
0
0
0
0
0
0
0
0
0
0
0
0
0
0
0
0
0
0
0
0
0
0
0
0
0
0
0
0
0
0
0
0
0
0
0
0
0
0
0
0
0
0
0
0
0
0
0
0
0
0
0
0
0
0
0
0
0
0
0
0
0
0
0
0
0
0
0
0
0
0
0
0
0
0
0
0
0
0
0
0
0
0
0
0
0
0
0
0
0
0
0
0
0
0
0
0
0
0
0
0
0
0
0
0
0
0
0
0
0
0
0
0
0
0
0
0
0
0
0
0
0
0
0
0
0
0
0
0
0
0
0
0
0
0
0
0
0
0
0
0
0
0
0
0
0
0
0
0
0
0
0
0
0
0
0
0
0
0
0
0
0
0
0
0
0
0
0
0
0
0
0
0
0
0
0
0
0
0
0
0
0
0
0
0
0
0
0
0
0
0
0
0
0
0
0
0
0
0
0
0
0
0
0
0
0
0
0
0
0
0
0
0
0
0
0
0
0
0
0
0
0
0
0
0
0
0
0
0
0
0
0
0
0
0
0
0
0
0
0
0
0
0
0
0
0
0
0
0
0
0
0
0
0
0
0
0
0
0
0
0
0
0
0
0
0
0
0
0
0
0
0
0
0
0
0
0
0
0
0
0
0
0
0
0
0
0
0
0
0
0
0
0
0
0
0
0
0
0
0
0
0
0
0
0
0
0
0
0
0
0
0
0
0
0
0
0
0
0
0
0
0
0
0
0
0
0
0
0
0
0
0
0
0
0
0
0
0
0
0
0
0
0
0
0
0
0
0
0
0
0
0
0
0
0
0
0
0
0
0
0
0
0
0
0
0
0
0
0
0
0
0
0
0
0
0
0
0
0
0
0
0
0
0
0
0
0
0
0
0
0
0
0
0
0
0
0
0
0
0
0
0
0
0
0
0
0
0
0
0
0
0
0
0
0
0
0
0
0
0
0
0
0
0
0
0
0
0
0
0
0
0
0
0
0
0
0
0
0
0
0
0
0
0
0
0
0
0
0
0
0
0
0
0
0
0
0
0
0
0
0
0
0
0
0
0
0
0
0
0
0
0
0
0
0
0
0
0
0
0
0
0
0
0
0
0
0
0
0
0
0
0
0
0
0
0
0
0
0
0
0
0
0
0
0
0
0
0
0
0
0
0
0
0
0
0
0
0
0
0
0
0
0
0
0
0
0
0
0
0
0
0
0
0
0
0
0
0
0
0
0
0
0
0
0
0
0
0
0
0
0
0
0
0
0
0
0
0
0
0
0
0
0
0
0
0
0
0
0
0
0
0
0
0
0
0
0
0
0
0
0
0
0
0
0
0
0
0
0
0
0
0
0
0
0
0
0
0
0
0
0
0
0
0
0
0
0
0
0
0
0
0
0
0
0
0
0
0
0
0
0
0
0
0
0
0
0
0
0
0
0
0
0
0
0
0
0
0
0
0
0
0
0
0
0
0
0
0
0
0
0
0
0
0
0
0
0
0
0
0
0
0
0
0
0
0
0
0
0
0
0
0
0
0
0
0
0
0
0
0
0
0
0
0
0
0
0
0
0
0
0
0
0
0
0
0
0
0
0
0
0
0
0
0
0
0
0
0
0
0
0
0
0
0
0
0
0
0
0
0
0
0
0
0
0
0
0
0
0
0
0
0
0
0
0
0
0
0
0
0
0
0
0
0
0
0
0
0
0
0
0
0
0
0
0
0
0
0
0
0
0
0
0
0
0
0
0
0
0
0
0
0
0
0
0
0
0
0
0
0
0
0
0
0
0
0
0
0
0
0
0
0
0
0
0
0
0
0
0
0
0
0
0
0
0
0
0
0
0
0
0
0
0
0
0
0
0
0
0
0
0
0
0
0
0
0
0
0
0
0
0
0
0
0
0
0
0
0
0
0
0
0
0
0
0
0
0
0
0
0
0
0
0
0
0
0
0
0
0
0
0
0
0
0
0
0
0
0
0
0
0
0
0
0
0
0
0
0
0
0
0
0
0
0
0
0
0
0
0
0
0
0
0
0
0
0
0
0
0
0
0
0
0
0
0
0
0
0
0
0
0
0
0
0
0
0
0
0
0
0
0
0
0
0
0
0
0
0
0
0
0
0
0
0
0
0
0
0
0
0
0
0
0
0
0
0
0
0
0
0
0
0
0
0
0
0
0
0
0
0
0
0
0
0
0
0
0
0
0
0
0
0
0
0
0
0
0
0
0
0
0
0
0
0
0
0
0
0
0
0
0
0
0
0
0
0
0
0
0
0
0
0
0
0
0
0
0
0
0
0
0
0
0
0
0
0
0
0
0
0
0
0
0
0
0
0
0
0
0
0
0
0
0
0
0
0
0
0
0
0
0
0
0
0
0
0
0
0
0
0
0
0
0
0
0
0
0
0
0
0
0
0
0
0
0
0
0
0
0
0
0
0
0
0
0
0
0
0
0
0
0
0
0
0
0
0
0
0
0
0
0
0
0
0
0
0
0
0
0
0
0
0
0
0
0
0
0
0
0
0
0
0
0
0
0
0
0
0
0
0
0
0
0
0
0
0
0
0
0
0
0
0
0
0
0
0
0
0
0
0
0
0
0
0
0
0
0
0
0
0
0
0
0
0
0
0
0
0
0
0
0
0
0
0
0
0
0
0
0
0
0
0
0
0
0
0
0
0
0
0
0
0
0
0
0
0
0
0
0
0
0
0
0
0
0
0
0
0
0
0
0
0
0
0
0
0
0
0
0
0
0
0
0
0
0
0
0
0
0
0
0
0
0
0
0
0
0
0
0
0
0
0
0
0
0
0
0
0
0
0
0
0
0
0
0
0
0
0
0
0
0
0
0
0
0
0
0
0
0
0
0
0
0
0
0
0
0
0
0
0
0
0
0
0
0
0
0
0
0
0
0
0
0
0
0
0
0
0
0
0
0
0
0
0
0
0
0
0
0
0
0
0
0
0
0
0
0
0
0
0
0
0
0
0
0
0
0
0
0
0
0
0
0
0
0
0
0
0
0
0
0
0
0
0
0
0
0
0
0
0
0
0
0
0
0
0
0
0
0
0
0
0
0
0
0
0
0
0
0
0
0
0
0
0
0
0
0
0
0
0
0
0
0
0
0
0
0
0
0
0
0
0
0
0
0
0
0
0
0
0
0
0
0
0
0
0
0
0
0
0
0
0
0
0
0
0
0
0
0
0
0
0
0
0
0
0
0
0
0
0
0
0
0
0
0
0
0
0
0
0
0
0
0
0
0
0
0
0
0
0
0
0
0
0
0
0
0
0
0
0
0
0
0
0
0
0
0
0
0
0
0
0
0
0
0
0
0
0
0
0
0
0
0
0
0
0
0
0
0
0
0
0
0
0
0
0
0
0
0
0
0
0
0
0
0
0
0
0
0
0
0
0
0
0
0
0
0
0
0
0
0
0
0
0
0
0
0
0
0
0
0
0
0
0
0
0
0
0
0
0
0
0
0
0
0
0
0
0
0
0
0
0
0
0
0
0
0
0
0
0
0
0
0
0
0
0
0
0
0
0
0
0
0
0
0
0
0
0
0
0
0
0
0
0
0
0
0
0
0
0
0
0
0
0
0
0
0
0
0
0
0
0
0
0
0
0
0
0
0
0
0
0
0
0
0
0
0
0
0
0
0
0
0
0
0
0
0
0
0
0
0
0
0
0
0
0
0
0
0
0
0
0
0
0
0
0
0
0
0
0
0
0
0
0
0
0
0
0
0
0
0
0
0
0
0
0
0
0
0
0
0
0
0
0
0
0
0
0
0
0
0
0
0
0
0
0
0
0
0
0
0
0
0
0
0
0
0
0
0
0
0
0
0
0
0
0
0
0
0
0
0
0
0
0
0
0
0
0
0
0
0
0
0
0
0
0
0
0
0
0
0
0
0
0
0
0
0
0
0
0
0
0
0
0
0
0
0
0
0
0
0
0
0
0
0
0
0
0
0
0
0
0
0
0
0
0
0
0
0
0
0
0
0
0
0
0
0
0
0
0
0
0
0
0
0
0
0
0
0
0
0
0
0
0
0
0
0
0
0
0
0
0
0
0
0
0
0
0
0
0
0
0
0
0
0
0
0
0
0
0
0
0
0
0
0
0
0
0
0
0
0
0
0
0
0
0
0
0
0
0
0
0
0
0
0
0
0
0
0
0
0
0
0
0
0
0
0
0
0
0
0
0
0
0
0
0
0
0
0
0
0
2.53676605e-298
0
5.81572609e-295
0
1.24916066e-291
0
2.52668831e-288
0
4.83389984e-285
0
8.77975178e-282
0
1.51884808e-278
0
2.50971494e-275
0
3.97095114e-272
0
6.02951471e-269
0
8.80318641e-266
0
1.238024e-262
0
1.67970947e-259
0
2.2017718e-256
0
2.79191333e-253
0
3.428705e-250
0
4.08242882e-247
0
4.71725167e-244
0
5.29452839e-241
0
5.77679926e-238
0
6.13188958e-235
0
6.33647751e-232
0
6.37858156e-229
0
6.25861006e-226
0
5.98886968e-223
0
5.59168891e-220
0
5.09652453e-217
1.11087076e-219
4.53654417e-214
1.13345472e-215
3.94520227e-211
1.83898762e-212
3.3532582e-208
2.25254524e-209
2.78655087e-205
2.41789274e-206
2.26468018e-202
2.38902616e-203
1.80058686e-199
2.22228731e-200
1.40089722e-196
1.9701524e-197
1.0668223e-193
1.67710042e-194
7.9537428e-191
1.37754652e-191
5.80679538e-188
1.09552332e-188
4.15213207e-185
8.45629975e-186
2.90838695e-182
6.34732443e-183
1.99594814e-179
4.6395602e-180
1.34222458e-176
3.30621731e-177
8.84578205e-174
2.29905889e-174
5.71389511e-171
1.56118731e-171
3.61790319e-168
1.03588396e-168
2.24568003e-165
6.71951569e-166
1.36658531e-162
4.26303064e-163
8.15359994e-160
2.64609284e-160
4.76986309e-157
1.60740354e-157
2.73602886e-154
9.55835915e-155
1.53887162e-151
5.56502227e-152
8.48699852e-149
3.17282138e-149
4.58958354e-146
1.77163711e-146
2.4336133e-143
9.68938677e-144
1.26524608e-140
5.19086749e-141
6.44946639e-138
2.72410702e-138
3.22308889e-135
1.40041515e-135
1.57902461e-132
7.05237868e-133
7.5829109e-130
3.47895466e-130
3.56918905e-127
1.6810283e-127
1.6464154e-124
7.95580347e-125
7.44198363e-122
3.68753781e-122
3.29574642e-119
1.67372466e-119
1.42976279e-116
7.43822566e-117
6.07493069e-114
3.23613123e-114
2.52755252e-111
1.37809374e-111
1.02954888e-108
5.7430455e-109
4.10468354e-106
2.34164965e-106
1.60135445e-103
9.33927179e-104
6.1115328e-101
3.64250686e-101
2.28106455e-98
1.38885828e-98
8.32355872e-96
5.17545018e-96
2.96833252e-93
1.88417535e-93
1.03415099e-90
6.69907724e-91
3.51840707e-88
2.3251605e-88
1.16844347e-85
7.87488672e-86
3.7858408e-83
2.60125245e-83
1.19615369e-80
8.37613861e-81
3.68332946e-78
2.62776352e-78
1.10474571e-75
8.02689492e-76
3.22529811e-73
2.3858524e-73
9.1591882e-71
6.89550309e-71
2.52808223e-68
1.93633197e-68
6.77658451e-66
5.27862449e-66
1.76247063e-63
1.3956987e-63
4.44318033e-61
3.57568127e-61
1.08456597e-58
8.86640041e-59
2.56030109e-56
2.12537804e-56
5.83754408e-54
4.91871601e-54
1.28364545e-51
1.09738901e-51
2.71793773e-49
2.35646378e-49
5.53144595e-47
4.86150919e-47
1.07988287e-44
9.61653392e-45
2.01781196e-42
1.81979483e-42
3.59958048e-40
3.28605543e-40
6.11281089e-38
5.64568555e-38
9.84957481e-36
9.1982716e-36
1.50013492e-33
1.4157281e-33
2.15008629e-31
2.04927352e-31
2.88489047e-29
2.77514602e-29
3.60123073e-27
3.49397737e-27
4.15103177e-25
4.05898158e-25
4.37752433e-23
4.31055497e-23
4.17469609e-21
4.13597297e-21
3.54688803e-19
3.53134749e-19
2.63179437e-17
2.62844604e-17
1.65898324e-15
1.65611837e-15
8.53060697e-14
8.45213042e-14
3.35264001e-12
3.36737845e-12
1.91754707e-09
1.98996986e-09
0.857288004
2.47778948
10.1357152
9.52012149
2.79648805
2.25293275
0.287774681
0.25577491
0.0419898938
0.0395487346
0.00534028342
0.00526771956
0.000626625133
0.000625617401
7.29557389e-05
7.30895654e-05
1.42479064e-05
1.42395278e-05
8.53985215e-06
8.54173061e-06
8.03546637e-06
8.03560749e-06
7.99393455e-06
7.99395774e-06
7.99076271e-06
7.99076279e-06
7.990538e-06
7.99054041e-06
7.99050459e-06
7.99053068e-06
7.99050647e-06
7.99052386e-06
7.9905033e-06
7.99053737e-06
7.99049701e-06
7.99051967e-06
7.99051149e-06
7.99050208e-06
7.99051443e-06
7.99050669e-06
7.99051717e-06
7.9905044e-06
7.99052354e-06
7.99051202e-06
7.99051852e-06
7.99051421e-06
7.99052217e-06
7.9905135e-06
7.99052188e-06
7.99050209e-06
7.99051804e-06
7.99050496e-06
7.99052293e-06
7.99050149e-06
7.99051724e-06
7.99051773e-06
7.99051215e-06
7.99052165e-06
7.99051287e-06
7.99051259e-06
7.99051287e-06
7.99051884e-06
7.99051049e-06
7.99051959e-06
7.99051652e-06
7.99050956e-06
7.99051868e-06
7.99050843e-06
7.99051538e-06
7.99050115e-06
7.99051468e-06
7.99050622e-06
7.99051017e-06
7.99051415e-06
7.9905013e-06
7.99052938e-06
7.99050552e-06
7.99052769e-06
7.99051677e-06
7.99051631e-06
7.99051239e-06
7.99052104e-06
7.9905113e-06
7.99052433e-06
7.99050824e-06
7.99052111e-06
7.99051329e-06
7.99051052e-06
7.99051773e-06
7.99050501e-06
7.99052142e-06
7.99051501e-06
7.99051593e-06
7.99052038e-06
7.9905224e-06
7.99052012e-06
7.99050467e-06
7.99051567e-06
7.99051722e-06
7.99051869e-06
7.99052393e-06
7.99051828e-06
7.99052155e-06
7.99052574e-06
7.99051135e-06
7.9905135e-06
7.99051811e-06
7.99052622e-06
7.99051097e-06
7.99051588e-06
7.99052131e-06
7.9905003e-06
7.99051928e-06
7.99050989e-06
7.99051491e-06
7.99051955e-06
7.99051605e-06
7.99051659e-06
7.99051619e-06
7.99052144e-06
7.99051276e-06
7.99051833e-06
7.99051273e-06
7.99053255e-06
7.99051166e-06
7.9905184e-06
7.99050835e-06
7.9905263e-06
7.99051585e-06
7.99052387e-06
7.99050922e-06
7.99052282e-06
7.99052622e-06
7.99053107e-06
7.99052511e-06
7.99051858e-06
7.99053228e-06
7.9905116e-06
7.99052554e-06
7.99050987e-06
7.99052085e-06
7.99051126e-06
7.99051448e-06
7.99051497e-06
7.99051898e-06
7.99051975e-06
7.99051821e-06
7.99051356e-06
7.99052259e-06
7.99051614e-06
7.99052805e-06
7.99050392e-06
7.99052932e-06
7.99051869e-06
7.99051805e-06
7.99052337e-06
7.99052076e-06
7.99051602e-06
7.99051898e-06
7.99053206e-06
7.99052759e-06
7.99051751e-06
7.99052704e-06
7.99051612e-06
7.99053262e-06
7.99052112e-06
7.99052443e-06
7.99052301e-06
7.9905206e-06
7.99051704e-06
7.99052622e-06
7.99050987e-06
7.99051849e-06
7.99051628e-06
7.99052163e-06
7.990524e-06
7.99052329e-06
7.99052311e-06
7.9905201e-06
7.99053732e-06
7.99052762e-06
7.99053159e-06
7.99053309e-06
7.99052332e-06
7.99052576e-06
7.990521e-06
7.99052602e-06
7.99052335e-06
7.99052056e-06
7.99052657e-06
7.99052934e-06
7.99051744e-06
7.9905333e-06
7.99052439e-06
7.99053589e-06
7.99051754e-06
7.99052774e-06
7.99052409e-06
7.99052812e-06
7.990518e-06
7.99052811e-06
7.99051934e-06
7.99052647e-06
7.99051875e-06
7.99052272e-06
7.99052475e-06
7.99052544e-06
7.99052443e-06
7.9905382e-06
7.99052784e-06
7.99053079e-06
7.99052292e-06
7.9905334e-06
7.99052769e-06
7.99051774e-06
7.99053179e-06
7.99052329e-06
7.99052928e-06
7.99051787e-06
7.99053424e-06
7.99052263e-06
7.99053387e-06
7.9905154e-06
7.99052373e-06
7.99052813e-06
7.99051696e-06
7.99052546e-06
7.99053044e-06
7.99053197e-06
7.99053057e-06
7.99053114e-06
7.99052515e-06
7.99053161e-06
7.99053919e-06
7.99052234e-06
7.99052793e-06
7.99052893e-06
7.99053984e-06
7.99052784e-06
7.99054085e-06
7.99052616e-06
7.99053611e-06
7.99052675e-06
7.9905251e-06
7.99052639e-06
7.99054257e-06
7.99052096e-06
7.99053233e-06
7.99052002e-06
7.99052817e-06
7.9905279e-06
7.99053246e-06
7.99052785e-06
7.99052856e-06
7.99051975e-06
7.99053472e-06
7.99052452e-06
7.99053225e-06
7.99053482e-06
7.99052638e-06
7.99053881e-06
7.99053447e-06
7.99053758e-06
7.99052848e-06
7.99053945e-06
7.99052179e-06
7.99053199e-06
7.99052329e-06
7.99053239e-06
7.99052072e-06
7.99053734e-06
7.99052378e-06
7.99052587e-06
7.99053894e-06
7.99052574e-06
7.99053916e-06
7.99052718e-06
7.99053378e-06
7.99053669e-06
7.9905239e-06
7.990541e-06
7.99052703e-06
7.99053409e-06
7.99053265e-06
7.99053696e-06
7.99052035e-06
7.99053184e-06
7.99052384e-06
7.99052959e-06
7.99053532e-06
7.99052662e-06
7.99052794e-06
7.99052833e-06
7.99053218e-06
7.99053424e-06
7.99051758e-06
7.99052639e-06
7.99053647e-06
7.99054103e-06
7.99053203e-06
7.99052898e-06
7.99053283e-06
7.99053201e-06
7.99053996e-06
7.99052471e-06
7.99054053e-06
7.99053648e-06
7.9905307e-06
7.99054147e-06
7.99053498e-06
7.9905372e-06
7.99053429e-06
7.99053494e-06
7.99053696e-06
7.99052773e-06
7.99053612e-06
7.99054647e-06
7.9905223e-06
7.99054822e-06
7.99052511e-06
7.99054462e-06
7.9905299e-06
7.99054032e-06
7.99053279e-06
7.9905285e-06
7.9905353e-06
7.99054005e-06
7.99053455e-06
7.99053513e-06
7.99053832e-06
7.99053418e-06
7.99054355e-06
7.99052994e-06
7.99052975e-06
7.99053486e-06
7.99052763e-06
7.99054577e-06
7.99053355e-06
7.99053182e-06
7.99053913e-06
7.9905324e-06
7.99054123e-06
7.99052849e-06
7.99054263e-06
7.99053291e-06
7.99054249e-06
7.99053577e-06
7.99053616e-06
7.99054177e-06
7.9905344e-06
7.99054462e-06
7.9905398e-06
7.99053643e-06
7.99053118e-06
7.99054826e-06
7.99052501e-06
7.99054517e-06
7.99053911e-06
7.99054055e-06
7.99053974e-06
7.99053703e-06
7.99053514e-06
7.99054845e-06
7.99053487e-06
7.99053547e-06
7.9905402e-06
7.99053726e-06
7.9905509e-06
7.99053768e-06
7.99055116e-06
7.99054302e-06
7.99055001e-06
7.99053832e-06
7.99054985e-06
7.99053272e-06
7.99054887e-06
7.99053713e-06
7.99053692e-06
7.99054384e-06
7.99053728e-06
7.99054193e-06
7.99054481e-06
7.99054409e-06
7.99054051e-06
7.99054241e-06
7.99052811e-06
7.99054334e-06
7.99053962e-06
7.99053355e-06
7.99054675e-06
7.99054405e-06
7.99053852e-06
7.99054169e-06
7.99054279e-06
7.99054316e-06
7.99054567e-06
7.99055142e-06
7.99055225e-06
7.99054132e-06
7.99054297e-06
7.99054252e-06
7.9905507e-06
7.99053801e-06
7.99056025e-06
7.9905339e-06
7.99055037e-06
7.99053962e-06
7.99055264e-06
7.99054776e-06
7.99054715e-06
7.99054633e-06
7.99055033e-06
7.99054676e-06
7.99054057e-06
7.99054825e-06
7.99054689e-06
7.99054455e-06
7.99054779e-06
7.99054661e-06
7.99054749e-06
7.99054469e-06
7.99055092e-06
7.99053745e-06
7.99055839e-06
7.99054442e-06
7.99054633e-06
7.99055234e-06
7.99054893e-06
7.99054437e-06
7.99055616e-06
7.99055077e-06
7.99055145e-06
7.99055148e-06
7.99055677e-06
7.99056077e-06
7.99055528e-06
7.99055118e-06
7.99056396e-06
7.99055035e-06
7.99055788e-06
7.99054709e-06
7.99055355e-06
7.99054876e-06
7.99055393e-06
7.99055834e-06
7.99054874e-06
7.99055198e-06
7.99056256e-06
7.99055268e-06
7.99055296e-06
7.99054879e-06
7.99055336e-06
7.99055355e-06
7.99054365e-06
7.99056034e-06
7.99055739e-06
7.99055107e-06
7.99054473e-06
7.99055012e-06
7.99054973e-06
7.9905517e-06
7.9905572e-06
7.9905469e-06
7.99055685e-06
7.99055019e-06
7.99056543e-06
7.99055597e-06
7.99055464e-06
7.99055555e-06
7.99055311e-06
7.9905635e-06
7.99055003e-06
7.99054795e-06
7.99056612e-06
7.99053538e-06
7.99057132e-06
7.99054186e-06
7.99055909e-06
7.99055075e-06
7.99055269e-06
7.99054932e-06
7.99055507e-06
7.99055027e-06
7.99055263e-06
7.99055318e-06
7.99055243e-06
7.99055925e-06
7.99054683e-06
7.99056251e-06
7.99055275e-06
7.99055888e-06
7.99056416e-06
7.9905544e-06
7.99055457e-06
7.99057272e-06
7.99054681e-06
7.99056073e-06
7.99054872e-06
7.99056537e-06
7.9905434e-06
7.99056724e-06
7.990543e-06
7.99056957e-06
7.99055236e-06
7.99055875e-06
7.99055983e-06
7.99055801e-06
7.99055978e-06
7.9905581e-06
7.99055623e-06
7.99056017e-06
7.99055782e-06
7.99056092e-06
7.99056059e-06
7.99056243e-06
7.99056183e-06
7.99055766e-06
7.99056095e-06
7.99055994e-06
7.99055801e-06
7.99056152e-06
7.99056197e-06
7.9905615e-06
7.99056149e-06
7.99056135e-06
7.99056098e-06
7.99056263e-06
7.99056224e-06
7.99056238e-06
7.99056293e-06
7.9905626e-06
7.99056337e-06
7.9905636e-06
7.99056311e-06
7.99056394e-06
7.990564e-06
7.9905634e-06
7.99056357e-06
7.99056399e-06
7.99056426e-06
7.99056403e-06
7.99056401e-06
7.99056426e-06
7.99056406e-06
7.99056409e-06
7.9905641e-06
7.99056418e-06
7.99056382e-06
7.99056427e-06
7.99056398e-06
7.99056406e-06
7.99056404e-06
7.99056407e-06
7.99056408e-06
7.99056425e-06
7.99056411e-06
7.99056413e-06
7.99056394e-06
7.99056389e-06
7.99056418e-06
7.99056402e-06
7.9905641e-06
7.99056409e-06
7.99056398e-06
7.99056417e-06
7.99056411e-06
7.9905641e-06
7.99056425e-06
7.99056403e-06
7.99056425e-06
7.990564e-06
7.99056418e-06
7.99056412e-06
7.99056401e-06
7.99056413e-06
7.99056398e-06
7.99056395e-06
7.99056428e-06
)
;

boundaryField
{
    closed
    {
        type            calculated;
        value           uniform 0;
    }
    open
    {
        type            calculated;
        value           uniform 0;
    }
    sides
    {
        type            empty;
    }
}


// ************************************************************************* //
