/*--------------------------------*- C++ -*----------------------------------*\
| =========                 |                                                 |
| \\      /  F ield         | OpenFOAM: The Open Source CFD Toolbox           |
|  \\    /   O peration     | Version:  2206                                  |
|   \\  /    A nd           | Website:  www.openfoam.com                      |
|    \\/     M anipulation  |                                                 |
\*---------------------------------------------------------------------------*/
FoamFile
{
    version     2.0;
    format      ascii;
    arch        "LSB;label=32;scalar=64";
    class       volVectorField;
    location    "8e-06";
    object      U;
}
// * * * * * * * * * * * * * * * * * * * * * * * * * * * * * * * * * * * * * //

dimensions      [0 1 -1 0 0 0 0];

internalField   nonuniform List<vector> 
3183
(
(2.02056062e-13 0 0)
(-2.52255217e-14 0 0)
(-1.21349354e-13 0 0)
(-7.98093168e-14 0 0)
(-8.39776312e-14 0 0)
(-2.77046802e-18 0 0)
(-2.18875918e-19 0 0)
(-1.10449255e-23 0 0)
(4.33969099e-24 0 0)
(4.15053441e-20 0 0)
(2.0749807e-18 0 0)
(4.50056843e-14 0 0)
(3.2501956e-13 0 0)
(1.26176233e-13 0 0)
(-6.28682675e-14 0 0)
(-4.40881133e-14 0 0)
(7.66662151e-15 0 0)
(-2.15827671e-13 0 0)
(-6.68147664e-13 0 0)
(2.24927839e-14 0 0)
(3.60381128e-13 0 0)
(7.162359e-17 0 0)
(1.1839708e-17 0 0)
(7.18776066e-14 0 0)
(2.21027061e-13 0 0)
(3.24401654e-13 0 0)
(4.44111681e-13 0 0)
(3.31943277e-13 0 0)
(-1.49430648e-13 0 0)
(2.98594088e-14 0 0)
(-2.68197029e-13 0 0)
(-4.23834739e-13 0 0)
(-5.24697804e-13 0 0)
(-3.0329142e-13 0 0)
(-1.64574489e-13 0 0)
(-1.05841917e-14 0 0)
(-9.62686007e-14 0 0)
(-2.25194402e-13 0 0)
(-3.61691734e-14 0 0)
(-8.76627173e-14 0 0)
(-2.6235263e-13 0 0)
(-3.4476206e-13 0 0)
(-4.47000279e-14 0 0)
(-3.66888373e-13 0 0)
(-1.29261066e-13 0 0)
(-5.06731101e-14 0 0)
(-7.23973401e-14 0 0)
(-1.50146912e-13 0 0)
(-2.36235659e-13 0 0)
(-8.2805475e-14 0 0)
(-6.60779803e-14 0 0)
(1.60966504e-13 0 0)
(9.80726583e-14 0 0)
(1.79478621e-13 0 0)
(6.12497118e-13 0 0)
(3.14426868e-13 0 0)
(6.81401733e-13 0 0)
(8.4354364e-13 0 0)
(8.87445677e-13 0 0)
(8.28496045e-13 0 0)
(8.03410691e-13 0 0)
(8.81036349e-13 0 0)
(1.1264711e-12 0 0)
(8.95881791e-13 0 0)
(1.24924377e-12 0 0)
(1.49948941e-12 0 0)
(1.38641786e-12 0 0)
(1.72026107e-12 0 0)
(2.16803065e-12 0 0)
(1.92717008e-12 0 0)
(2.47448239e-12 0 0)
(2.5994023e-12 0 0)
(2.64085593e-12 0 0)
(2.58509047e-12 0 0)
(2.74528463e-12 0 0)
(2.37234765e-12 0 0)
(2.49924724e-12 0 0)
(2.72752357e-12 0 0)
(3.01244285e-12 0 0)
(2.58009925e-12 0 0)
(2.63174046e-12 0 0)
(2.83221721e-12 0 0)
(2.68060566e-12 0 0)
(1.70692103e-12 0 0)
(2.42370259e-12 0 0)
(1.93193421e-12 0 0)
(1.89061574e-12 0 0)
(1.76305624e-12 0 0)
(2.13905884e-12 0 0)
(2.0596727e-12 0 0)
(6.9023178e-13 0 0)
(7.83961762e-13 0 0)
(1.29906454e-12 0 0)
(4.01111037e-13 0 0)
(4.69735939e-13 0 0)
(1.35353185e-12 0 0)
(-8.83894336e-13 0 0)
(2.91908331e-13 0 0)
(-2.60433796e-13 0 0)
(-1.41817502e-13 0 0)
(1.25368175e-12 0 0)
(8.44859436e-13 0 0)
(1.50151668e-12 0 0)
(6.34580686e-14 0 0)
(1.19822389e-13 0 0)
(5.60880702e-13 0 0)
(1.04492723e-12 0 0)
(5.87863329e-13 0 0)
(-4.95997275e-13 0 0)
(4.29299462e-13 0 0)
(1.35431563e-12 0 0)
(4.0997217e-13 0 0)
(5.01245089e-13 0 0)
(-6.31472127e-13 0 0)
(1.29498102e-13 0 0)
(5.45517311e-13 0 0)
(-6.83559178e-13 0 0)
(-2.17692738e-13 0 0)
(-9.45750369e-14 0 0)
(-6.34512282e-13 0 0)
(-2.08281108e-13 0 0)
(9.99889181e-15 0 0)
(2.94206697e-13 0 0)
(1.7820779e-13 0 0)
(-1.11438582e-12 0 0)
(-6.49701695e-13 0 0)
(3.13215884e-14 0 0)
(-7.97181171e-13 0 0)
(-9.37442989e-14 0 0)
(-2.90501933e-13 0 0)
(-1.03393338e-12 0 0)
(-7.51250037e-13 0 0)
(-1.10182627e-12 0 0)
(-1.07149423e-12 0 0)
(-5.8774795e-13 0 0)
(-1.04303553e-12 0 0)
(-1.59077061e-12 0 0)
(-1.40494507e-12 0 0)
(-1.51282401e-12 0 0)
(-1.69970737e-12 0 0)
(-1.65552928e-12 0 0)
(-2.23351331e-12 0 0)
(-3.04287995e-12 0 0)
(-2.15660592e-12 0 0)
(-2.12729144e-12 0 0)
(-3.00928775e-12 0 0)
(-2.61820523e-12 0 0)
(-2.74771699e-12 0 0)
(-2.61568472e-12 0 0)
(-2.35360682e-12 0 0)
(-3.29823338e-12 0 0)
(-3.26439604e-12 0 0)
(-2.58421919e-12 0 0)
(-3.2486025e-12 0 0)
(-3.48259696e-12 0 0)
(-3.19126247e-12 0 0)
(-2.54525269e-12 0 0)
(-2.94288264e-12 0 0)
(-2.18898852e-12 0 0)
(-3.75625321e-12 0 0)
(-2.66772271e-12 0 0)
(-2.98999876e-12 0 0)
(-2.99089687e-12 0 0)
(-2.73330435e-12 0 0)
(-3.16414427e-12 0 0)
(-2.8669974e-12 0 0)
(-3.36313276e-12 0 0)
(-3.15132742e-12 0 0)
(-3.01276084e-12 0 0)
(-4.22491689e-12 0 0)
(-4.02693391e-12 0 0)
(-4.57994024e-12 0 0)
(-5.06792712e-12 0 0)
(-4.43716757e-12 0 0)
(-5.3797251e-12 0 0)
(-4.67835755e-12 0 0)
(-5.19322837e-12 0 0)
(-5.04878299e-12 0 0)
(-3.56251207e-12 0 0)
(-5.59678347e-12 0 0)
(-4.23511094e-12 0 0)
(-6.02452263e-12 0 0)
(-4.5098778e-12 0 0)
(-4.5633985e-12 0 0)
(-6.33001618e-12 0 0)
(-5.73058158e-12 0 0)
(-5.39218348e-12 0 0)
(-4.95766676e-12 0 0)
(-5.78865986e-12 0 0)
(-4.32603402e-12 0 0)
(-5.26728114e-12 0 0)
(-5.69453995e-12 0 0)
(-5.74416606e-12 0 0)
(-4.86986962e-12 0 0)
(-6.68184269e-12 0 0)
(-5.12101147e-12 0 0)
(-5.50887252e-12 0 0)
(-5.41913076e-12 0 0)
(-5.30131261e-12 0 0)
(-6.08616623e-12 0 0)
(-5.66004053e-12 0 0)
(-5.97526338e-12 0 0)
(-5.13490796e-12 0 0)
(-6.35476812e-12 0 0)
(-7.24212101e-12 0 0)
(-5.48788468e-12 0 0)
(-7.18377125e-12 0 0)
(-6.11107568e-12 0 0)
(-6.16045779e-12 0 0)
(-5.33392618e-12 0 0)
(-6.87495382e-12 0 0)
(-7.4060669e-12 0 0)
(-5.75752404e-12 0 0)
(-7.4363809e-12 0 0)
(-5.70355184e-12 0 0)
(-6.89564359e-12 0 0)
(-6.64102062e-12 0 0)
(-6.5960218e-12 0 0)
(-5.26440899e-12 0 0)
(-5.16830958e-12 0 0)
(-5.9648353e-12 0 0)
(-7.00855402e-12 0 0)
(-7.76119352e-12 0 0)
(-5.77002583e-12 0 0)
(-6.95778684e-12 0 0)
(-6.66757551e-12 0 0)
(-7.29885398e-12 0 0)
(-7.72283357e-12 0 0)
(-7.92998581e-12 0 0)
(-6.91737626e-12 0 0)
(-7.44373488e-12 0 0)
(-7.85191229e-12 0 0)
(-7.52366923e-12 0 0)
(-8.57963887e-12 0 0)
(-7.98091291e-12 0 0)
(-8.11571113e-12 0 0)
(-8.61797723e-12 0 0)
(-8.57476815e-12 0 0)
(-8.5753699e-12 0 0)
(-8.26907883e-12 0 0)
(-9.02710546e-12 0 0)
(-8.06310303e-12 0 0)
(-8.00974136e-12 0 0)
(-7.55868593e-12 0 0)
(-7.90467042e-12 0 0)
(-9.0574918e-12 0 0)
(-8.42733395e-12 0 0)
(-7.8133645e-12 0 0)
(-9.19502123e-12 0 0)
(-9.9845576e-12 0 0)
(-8.09934671e-12 0 0)
(-8.53829088e-12 0 0)
(-9.29117105e-12 0 0)
(-9.59366681e-12 0 0)
(-9.58008467e-12 0 0)
(-9.1192588e-12 0 0)
(-9.38681775e-12 0 0)
(-9.0483644e-12 0 0)
(-8.59128314e-12 0 0)
(-9.25790409e-12 0 0)
(-9.32086214e-12 0 0)
(-9.42948367e-12 0 0)
(-9.6989213e-12 0 0)
(-7.77731962e-12 0 0)
(-9.52679721e-12 0 0)
(-8.83065061e-12 0 0)
(-9.96229267e-12 0 0)
(-9.21129921e-12 0 0)
(-1.02131084e-11 0 0)
(-9.42668076e-12 0 0)
(-9.19336099e-12 0 0)
(-1.06822741e-11 0 0)
(-1.0054238e-11 0 0)
(-9.28314152e-12 0 0)
(-1.05014677e-11 0 0)
(-8.78275527e-12 0 0)
(-1.03183886e-11 0 0)
(-1.07738019e-11 0 0)
(-9.33870371e-12 0 0)
(-8.81326366e-12 0 0)
(-1.01451713e-11 0 0)
(-1.06969091e-11 0 0)
(-1.0653508e-11 0 0)
(-1.00219273e-11 0 0)
(-9.48617586e-12 0 0)
(-1.09921627e-11 0 0)
(-1.02657364e-11 0 0)
(-1.03289914e-11 0 0)
(-1.05506098e-11 0 0)
(-1.10523566e-11 0 0)
(-9.8128495e-12 0 0)
(-1.08982135e-11 0 0)
(-1.04680642e-11 0 0)
(-1.23214381e-11 0 0)
(-1.00571891e-11 0 0)
(-1.11611327e-11 0 0)
(-1.14320019e-11 0 0)
(-1.156235e-11 0 0)
(-1.11683761e-11 0 0)
(-1.21404389e-11 0 0)
(-1.19454668e-11 0 0)
(-1.17156143e-11 0 0)
(-1.08791547e-11 0 0)
(-1.20777666e-11 0 0)
(-1.2691583e-11 0 0)
(-1.17901753e-11 0 0)
(-1.09357887e-11 0 0)
(-1.1701869e-11 0 0)
(-1.21563947e-11 0 0)
(-1.10986668e-11 0 0)
(-1.21783572e-11 0 0)
(-1.16377093e-11 0 0)
(-1.1375675e-11 0 0)
(-1.11994304e-11 0 0)
(-1.18635535e-11 0 0)
(-1.22990777e-11 0 0)
(-1.25929134e-11 0 0)
(-1.32247089e-11 0 0)
(-1.14164774e-11 0 0)
(-1.29432763e-11 0 0)
(-1.28957193e-11 0 0)
(-1.27037318e-11 0 0)
(-1.24485425e-11 0 0)
(-1.18639554e-11 0 0)
(-1.35782013e-11 0 0)
(-1.18753126e-11 0 0)
(-1.18465681e-11 0 0)
(-1.24660907e-11 0 0)
(-1.28031272e-11 0 0)
(-1.20970549e-11 0 0)
(-1.18220366e-11 0 0)
(-1.32972856e-11 0 0)
(-1.27509724e-11 0 0)
(-1.17661145e-11 0 0)
(-1.07441205e-11 0 0)
(-1.17352487e-11 0 0)
(-1.10988033e-11 0 0)
(-1.27756789e-11 0 0)
(-1.2928597e-11 0 0)
(-1.16151204e-11 0 0)
(-1.18285928e-11 0 0)
(-1.2470691e-11 0 0)
(-1.24624237e-11 0 0)
(-1.10053706e-11 0 0)
(-1.1384777e-11 0 0)
(-1.22305448e-11 0 0)
(-1.36268299e-11 0 0)
(-1.12388899e-11 0 0)
(-1.27717836e-11 0 0)
(-1.27378582e-11 0 0)
(-1.17455831e-11 0 0)
(-1.27100739e-11 0 0)
(-1.26157546e-11 0 0)
(-1.35324092e-11 0 0)
(-1.11901222e-11 0 0)
(-1.19848224e-11 0 0)
(-1.35704415e-11 0 0)
(-1.22609114e-11 0 0)
(-1.34580374e-11 0 0)
(-1.16579689e-11 0 0)
(-1.18363212e-11 0 0)
(-1.2315703e-11 0 0)
(-1.23393347e-11 0 0)
(-1.14930789e-11 0 0)
(-1.12911376e-11 0 0)
(-1.19059211e-11 0 0)
(-1.18225097e-11 0 0)
(-1.21418287e-11 0 0)
(-1.08974444e-11 0 0)
(-1.10953847e-11 0 0)
(-1.02235893e-11 0 0)
(-1.15133357e-11 0 0)
(-1.00098483e-11 0 0)
(-1.10096183e-11 0 0)
(-9.62778647e-12 0 0)
(-1.03486852e-11 0 0)
(-1.03855172e-11 0 0)
(-8.92821688e-12 0 0)
(-9.12978421e-12 0 0)
(-9.4393383e-12 0 0)
(-9.39615492e-12 0 0)
(-8.89940738e-12 0 0)
(-9.87162741e-12 0 0)
(-9.8441255e-12 0 0)
(-9.04212973e-12 0 0)
(-1.00924593e-11 0 0)
(-9.10886373e-12 0 0)
(-8.84473249e-12 0 0)
(-8.84006775e-12 0 0)
(-8.38271145e-12 0 0)
(-7.71991567e-12 0 0)
(-9.53009692e-12 0 0)
(-8.59315392e-12 0 0)
(-8.61627211e-12 0 0)
(-7.93853395e-12 0 0)
(-7.76963639e-12 0 0)
(-8.35233725e-12 0 0)
(-7.60744883e-12 0 0)
(-8.24239293e-12 0 0)
(-7.7180009e-12 0 0)
(-6.7582133e-12 0 0)
(-8.357844e-12 0 0)
(-7.54210876e-12 0 0)
(-8.81358442e-12 0 0)
(-7.42884506e-12 0 0)
(-6.99265372e-12 0 0)
(-7.0469044e-12 0 0)
(-7.35340358e-12 0 0)
(-7.5556604e-12 0 0)
(-6.65559854e-12 0 0)
(-7.08513133e-12 0 0)
(-6.68838023e-12 0 0)
(-7.21838838e-12 0 0)
(-6.76194166e-12 0 0)
(-7.9461206e-12 0 0)
(-6.51492865e-12 0 0)
(-6.95120921e-12 0 0)
(-6.6878654e-12 0 0)
(-7.18319576e-12 0 0)
(-6.97843577e-12 0 0)
(-6.23562584e-12 0 0)
(-6.48033168e-12 0 0)
(-7.54815767e-12 0 0)
(-6.29814551e-12 0 0)
(-7.89536791e-12 0 0)
(-6.59931301e-12 0 0)
(-5.906426e-12 0 0)
(-7.25918125e-12 0 0)
(-6.40769368e-12 0 0)
(-5.98181494e-12 0 0)
(-5.21865193e-12 0 0)
(-7.21485354e-12 0 0)
(-6.92590593e-12 0 0)
(-6.47616058e-12 0 0)
(-5.25034433e-12 0 0)
(-6.12048706e-12 0 0)
(-6.36274559e-12 0 0)
(-5.74750926e-12 0 0)
(-5.20696773e-12 0 0)
(-5.80946215e-12 0 0)
(-5.17152495e-12 0 0)
(-5.29910307e-12 0 0)
(-5.59948848e-12 0 0)
(-4.5857428e-12 0 0)
(-6.21377219e-12 0 0)
(-5.87814743e-12 0 0)
(-5.9572788e-12 0 0)
(-5.83116274e-12 0 0)
(-6.04800428e-12 0 0)
(-4.63016773e-12 0 0)
(-5.92553037e-12 0 0)
(-4.7618404e-12 0 0)
(-5.75839211e-12 0 0)
(-6.60892138e-12 0 0)
(-6.82422639e-12 0 0)
(-4.59365028e-12 0 0)
(-5.55710579e-12 0 0)
(-6.35495373e-12 0 0)
(-6.08445042e-12 0 0)
(-4.14823696e-12 0 0)
(-5.76836075e-12 0 0)
(-5.00466141e-12 0 0)
(-4.280207e-12 0 0)
(-3.66239744e-12 0 0)
(-5.29435717e-12 0 0)
(-4.6471602e-12 0 0)
(-4.23497768e-12 0 0)
(-3.75324912e-12 0 0)
(-3.99790455e-12 0 0)
(-4.70336484e-12 0 0)
(-2.94421632e-12 0 0)
(-2.91513523e-12 0 0)
(-3.01064981e-12 0 0)
(-3.38163946e-12 0 0)
(-2.72441835e-12 0 0)
(-3.12034378e-12 0 0)
(-3.12587028e-12 0 0)
(-2.68652994e-12 0 0)
(-2.98186936e-12 0 0)
(-3.80523216e-12 0 0)
(-2.47337512e-12 0 0)
(-2.87951425e-12 0 0)
(-2.7003109e-12 0 0)
(-2.88241887e-12 0 0)
(-2.96254443e-12 0 0)
(-2.23421328e-12 0 0)
(-3.17812422e-12 0 0)
(-3.16609816e-12 0 0)
(-2.87292701e-12 0 0)
(-3.10150442e-12 0 0)
(-2.7387974e-12 0 0)
(-2.53926104e-12 0 0)
(-3.89273789e-12 0 0)
(-1.72888889e-12 0 0)
(-2.90254458e-12 0 0)
(-3.34573734e-12 0 0)
(-1.54541677e-12 0 0)
(-2.18860035e-12 0 0)
(-1.97515048e-12 0 0)
(-2.7844598e-12 0 0)
(-2.4058927e-12 0 0)
(-1.3586718e-12 0 0)
(-1.6543679e-12 0 0)
(-1.19061714e-12 0 0)
(-1.46975575e-12 0 0)
(-1.6209004e-12 0 0)
(-8.1754508e-13 0 0)
(-8.18063106e-13 0 0)
(-7.52777115e-13 0 0)
(-1.17480443e-12 0 0)
(-6.30759546e-13 0 0)
(-1.58497732e-12 0 0)
(-8.05148581e-13 0 0)
(-9.2842097e-13 0 0)
(-1.54082323e-12 0 0)
(-1.92125245e-12 0 0)
(-8.27673151e-13 0 0)
(-1.27936593e-12 0 0)
(-1.61311251e-12 0 0)
(-4.93123537e-13 0 0)
(-1.06333504e-12 0 0)
(-9.85543952e-13 0 0)
(-8.94342741e-13 0 0)
(-1.92769695e-12 0 0)
(-2.67482275e-13 0 0)
(-7.77002947e-13 0 0)
(-1.30587829e-12 0 0)
(1.59162038e-13 0 0)
(-8.36547224e-14 0 0)
(-1.24966614e-12 0 0)
(-5.4038702e-13 0 0)
(-4.46554194e-13 0 0)
(-1.4955365e-13 0 0)
(-3.45029094e-13 0 0)
(-3.91737916e-13 0 0)
(-4.52586925e-13 0 0)
(-2.51014273e-13 0 0)
(-4.23368259e-13 0 0)
(-1.20288434e-13 0 0)
(-7.43322618e-13 0 0)
(-3.52237555e-13 0 0)
(-9.55357513e-14 0 0)
(-6.05795118e-13 0 0)
(3.68331113e-13 0 0)
(5.79097671e-13 0 0)
(1.13856779e-13 0 0)
(-1.20392474e-12 0 0)
(8.04407301e-13 0 0)
(1.1030235e-12 0 0)
(1.11314434e-13 0 0)
(1.12116524e-12 0 0)
(1.63205905e-12 0 0)
(1.17611104e-12 0 0)
(1.28924138e-12 0 0)
(1.28145346e-12 0 0)
(2.27869058e-12 0 0)
(2.16015781e-12 0 0)
(1.77610138e-12 0 0)
(2.82274325e-12 0 0)
(9.24260638e-13 0 0)
(2.25943748e-12 0 0)
(2.4153808e-12 0 0)
(2.28524202e-12 0 0)
(2.18414094e-12 0 0)
(2.00381526e-12 0 0)
(1.67937925e-12 0 0)
(1.79503673e-12 0 0)
(2.91457983e-12 0 0)
(2.6215058e-12 0 0)
(3.54931844e-12 0 0)
(3.00171556e-12 0 0)
(2.74545004e-12 0 0)
(2.69357957e-12 0 0)
(4.45013702e-12 0 0)
(3.07851512e-12 0 0)
(3.6645907e-12 0 0)
(4.14994499e-12 0 0)
(4.07499645e-12 0 0)
(3.47100796e-12 0 0)
(4.05513124e-12 0 0)
(3.58709308e-12 0 0)
(3.7300975e-12 0 0)
(5.39829095e-12 0 0)
(4.4417163e-12 0 0)
(5.95213767e-12 0 0)
(4.42308681e-12 0 0)
(5.37587845e-12 0 0)
(5.21837211e-12 0 0)
(3.47732569e-12 0 0)
(4.00073497e-12 0 0)
(4.04299064e-12 0 0)
(4.74445933e-12 0 0)
(4.70235018e-12 0 0)
(4.26388667e-12 0 0)
(4.24529753e-12 0 0)
(4.64423223e-12 0 0)
(4.03746938e-12 0 0)
(4.7556845e-12 0 0)
(5.17169155e-12 0 0)
(4.31488285e-12 0 0)
(3.52273591e-12 0 0)
(4.20334642e-12 0 0)
(3.86182333e-12 0 0)
(3.73393438e-12 0 0)
(4.28522546e-12 0 0)
(3.36226882e-12 0 0)
(4.44084094e-12 0 0)
(3.5953193e-12 0 0)
(2.74252515e-12 0 0)
(3.89518032e-12 0 0)
(2.58022773e-12 0 0)
(2.99267348e-12 0 0)
(2.73355449e-12 0 0)
(2.75953313e-12 0 0)
(3.28894352e-12 0 0)
(3.11475889e-12 0 0)
(3.12071829e-12 0 0)
(2.94663531e-12 0 0)
(3.36056217e-12 0 0)
(3.29017394e-12 0 0)
(3.71489647e-12 0 0)
(2.98115267e-12 0 0)
(2.95092765e-12 0 0)
(2.73200997e-12 0 0)
(3.0262214e-12 0 0)
(3.53243839e-12 0 0)
(2.23691181e-12 0 0)
(2.21725088e-12 0 0)
(3.46992679e-12 0 0)
(3.05842055e-12 0 0)
(3.52983478e-12 0 0)
(3.02753915e-12 0 0)
(2.86305345e-12 0 0)
(3.78449099e-12 0 0)
(3.60110572e-12 0 0)
(3.91742908e-12 0 0)
(2.97262779e-12 0 0)
(4.13064124e-12 0 0)
(3.54037257e-12 0 0)
(3.75545477e-12 0 0)
(2.30562944e-12 0 0)
(3.10298509e-12 0 0)
(4.10895994e-12 0 0)
(2.5325907e-12 0 0)
(2.81767012e-12 0 0)
(2.58971903e-12 0 0)
(2.38991121e-12 0 0)
(2.79641921e-12 0 0)
(2.55223519e-12 0 0)
(2.46105023e-12 0 0)
(3.25722899e-12 0 0)
(2.58166071e-12 0 0)
(3.32931992e-12 0 0)
(3.01374104e-12 0 0)
(3.31726014e-12 0 0)
(2.88675836e-12 0 0)
(2.8356851e-12 0 0)
(2.1688855e-12 0 0)
(1.81984792e-12 0 0)
(1.99951091e-12 0 0)
(2.0670663e-12 0 0)
(2.44446192e-12 0 0)
(3.06888143e-12 0 0)
(2.96419702e-12 0 0)
(1.98764478e-12 0 0)
(2.83277717e-12 0 0)
(3.29404493e-12 0 0)
(2.4404444e-12 0 0)
(3.56258905e-12 0 0)
(3.9549718e-12 0 0)
(3.0505497e-12 0 0)
(3.40082361e-12 0 0)
(3.66910092e-12 0 0)
(3.457591e-12 0 0)
(2.87171187e-12 0 0)
(2.69325677e-12 0 0)
(2.88278936e-12 0 0)
(3.50593511e-12 0 0)
(3.85844388e-12 0 0)
(4.39674605e-12 0 0)
(2.95687339e-12 0 0)
(3.40543835e-12 0 0)
(3.35064102e-12 0 0)
(4.10980188e-12 0 0)
(4.15950502e-12 0 0)
(4.11757842e-12 0 0)
(4.34014073e-12 0 0)
(2.75386333e-12 0 0)
(4.4473016e-12 0 0)
(4.82034735e-12 0 0)
(4.2554385e-12 0 0)
(4.54727212e-12 0 0)
(4.81076222e-12 0 0)
(4.59692776e-12 0 0)
(4.39780611e-12 0 0)
(4.76241955e-12 0 0)
(4.45999859e-12 0 0)
(4.85068072e-12 0 0)
(3.95041655e-12 0 0)
(5.32966289e-12 0 0)
(5.2913576e-12 0 0)
(4.4802733e-12 0 0)
(5.33760208e-12 0 0)
(5.48942616e-12 0 0)
(5.53704511e-12 0 0)
(6.19249498e-12 0 0)
(5.84211481e-12 0 0)
(5.20096846e-12 0 0)
(5.77318767e-12 0 0)
(5.26473393e-12 0 0)
(4.55046012e-12 0 0)
(4.73222353e-12 0 0)
(4.65451221e-12 0 0)
(5.38611005e-12 0 0)
(4.90178072e-12 0 0)
(5.4645682e-12 0 0)
(4.63703696e-12 0 0)
(5.56624124e-12 0 0)
(5.34594668e-12 0 0)
(4.77299958e-12 0 0)
(4.56822733e-12 0 0)
(4.78947143e-12 0 0)
(5.28694555e-12 0 0)
(3.95351249e-12 0 0)
(4.26098978e-12 0 0)
(3.42362369e-12 0 0)
(3.2557713e-12 0 0)
(3.60671689e-12 0 0)
(3.03220816e-12 0 0)
(2.86887032e-12 0 0)
(3.07454679e-12 0 0)
(3.4124755e-12 0 0)
(2.62701997e-12 0 0)
(3.31266509e-12 0 0)
(3.68551185e-12 0 0)
(4.25356038e-12 0 0)
(3.2089027e-12 0 0)
(3.22263806e-12 0 0)
(3.77101262e-12 0 0)
(3.61524498e-12 0 0)
(3.6381377e-12 0 0)
(3.38869956e-12 0 0)
(3.48265574e-12 0 0)
(3.89922309e-12 0 0)
(3.96505275e-12 0 0)
(3.79608778e-12 0 0)
(2.87253678e-12 0 0)
(3.52870307e-12 0 0)
(3.25055231e-12 0 0)
(3.7954612e-12 0 0)
(2.90430824e-12 0 0)
(3.93175836e-12 0 0)
(4.30414597e-12 0 0)
(3.45978197e-12 0 0)
(2.86848661e-12 0 0)
(2.56471316e-12 0 0)
(3.94198206e-12 0 0)
(2.93109716e-12 0 0)
(2.38552749e-12 0 0)
(1.73409809e-12 0 0)
(2.54564071e-12 0 0)
(2.46288654e-12 0 0)
(2.08630436e-12 0 0)
(2.77475372e-12 0 0)
(3.3445678e-12 0 0)
(3.35338755e-12 0 0)
(3.23860344e-12 0 0)
(3.52102292e-12 0 0)
(3.52456122e-12 0 0)
(2.82844727e-12 0 0)
(2.84287296e-12 0 0)
(3.12614295e-12 0 0)
(3.11946277e-12 0 0)
(4.19268315e-12 0 0)
(3.63519776e-12 0 0)
(2.97077899e-12 0 0)
(3.1469531e-12 0 0)
(3.83796177e-12 0 0)
(4.03232922e-12 0 0)
(3.59993837e-12 0 0)
(3.9963315e-12 0 0)
(3.82257219e-12 0 0)
(3.58177085e-12 0 0)
(4.58905282e-12 0 0)
(3.85533917e-12 0 0)
(3.75835002e-12 0 0)
(3.57058379e-12 0 0)
(3.5549608e-12 0 0)
(4.52000767e-12 0 0)
(4.31460131e-12 0 0)
(3.69823118e-12 0 0)
(3.89036586e-12 0 0)
(4.39693449e-12 0 0)
(3.94683548e-12 0 0)
(2.29260067e-12 0 0)
(2.4861721e-12 0 0)
(3.99423368e-12 0 0)
(3.57642545e-12 0 0)
(3.08509222e-12 0 0)
(3.13863425e-12 0 0)
(2.67886181e-12 0 0)
(3.31973019e-12 0 0)
(2.30785941e-12 0 0)
(3.85193101e-12 0 0)
(3.20112019e-12 0 0)
(2.66937759e-12 0 0)
(3.78451474e-12 0 0)
(3.04746624e-12 0 0)
(3.44104421e-12 0 0)
(3.06822971e-12 0 0)
(3.35472477e-12 0 0)
(2.46956548e-12 0 0)
(2.69945209e-12 0 0)
(2.05607845e-12 0 0)
(3.05662824e-12 0 0)
(2.8424741e-12 0 0)
(1.98474202e-12 0 0)
(2.5109575e-12 0 0)
(2.5136301e-12 0 0)
(2.26725133e-12 0 0)
(2.92489213e-12 0 0)
(2.92360174e-12 0 0)
(3.47396734e-12 0 0)
(3.07989334e-12 0 0)
(2.77287642e-12 0 0)
(2.83301321e-12 0 0)
(2.21742553e-12 0 0)
(3.50082563e-12 0 0)
(3.19639567e-12 0 0)
(2.60551971e-12 0 0)
(3.14797315e-12 0 0)
(2.77835183e-12 0 0)
(2.1120863e-12 0 0)
(2.61400397e-12 0 0)
(2.18081453e-12 0 0)
(2.20782631e-12 0 0)
(2.46539425e-12 0 0)
(2.93517902e-12 0 0)
(2.91399103e-12 0 0)
(3.61426255e-12 0 0)
(2.44346085e-12 0 0)
(2.98687106e-12 0 0)
(3.38476783e-12 0 0)
(2.92105442e-12 0 0)
(2.45713286e-12 0 0)
(2.93100843e-12 0 0)
(4.21612022e-12 0 0)
(4.18057097e-12 0 0)
(2.36214565e-12 0 0)
(3.3832586e-12 0 0)
(4.14909204e-12 0 0)
(3.1648141e-12 0 0)
(2.93008324e-12 0 0)
(4.04698093e-12 0 0)
(3.48449656e-12 0 0)
(3.31331914e-12 0 0)
(3.72768253e-12 0 0)
(5.16389365e-12 0 0)
(4.11839143e-12 0 0)
(3.84873149e-12 0 0)
(4.36813618e-12 0 0)
(4.28217841e-12 0 0)
(5.3796091e-12 0 0)
(3.88299907e-12 0 0)
(5.26256051e-12 0 0)
(4.44293415e-12 0 0)
(6.54501353e-12 0 0)
(4.26314854e-12 0 0)
(5.33198288e-12 0 0)
(4.36832784e-12 0 0)
(6.04454713e-12 0 0)
(6.49186411e-12 0 0)
(5.46350464e-12 0 0)
(6.21119797e-12 0 0)
(5.16764081e-12 0 0)
(6.1799722e-12 0 0)
(5.33027005e-12 0 0)
(4.37162508e-12 0 0)
(5.69000105e-12 0 0)
(6.67678213e-12 0 0)
(4.954467e-12 0 0)
(5.37735667e-12 0 0)
(4.72789962e-12 0 0)
(5.80788542e-12 0 0)
(5.81295107e-12 0 0)
(6.34680794e-12 0 0)
(5.54988134e-12 0 0)
(5.29491559e-12 0 0)
(5.41206457e-12 0 0)
(5.22785964e-12 0 0)
(5.85956176e-12 0 0)
(4.99779993e-12 0 0)
(5.23951848e-12 0 0)
(5.73270024e-12 0 0)
(5.290554e-12 0 0)
(5.62571813e-12 0 0)
(6.40302926e-12 0 0)
(5.82305652e-12 0 0)
(5.82776826e-12 0 0)
(5.56981351e-12 0 0)
(5.94515455e-12 0 0)
(6.16655885e-12 0 0)
(6.17227924e-12 0 0)
(5.8798072e-12 0 0)
(6.07817887e-12 0 0)
(6.76832067e-12 0 0)
(6.47659912e-12 0 0)
(6.68557392e-12 0 0)
(6.22890304e-12 0 0)
(6.05476881e-12 0 0)
(5.49327217e-12 0 0)
(7.01412338e-12 0 0)
(6.43014184e-12 0 0)
(7.59404941e-12 0 0)
(6.14125451e-12 0 0)
(6.94546266e-12 0 0)
(8.40498151e-12 0 0)
(6.99564784e-12 0 0)
(7.37171323e-12 0 0)
(7.40899971e-12 0 0)
(7.44315436e-12 0 0)
(7.77709619e-12 0 0)
(8.19969386e-12 0 0)
(7.67094543e-12 0 0)
(7.48637164e-12 0 0)
(7.55640626e-12 0 0)
(7.54685299e-12 0 0)
(7.05292289e-12 0 0)
(7.57400397e-12 0 0)
(6.50394473e-12 0 0)
(6.92817504e-12 0 0)
(7.0536128e-12 0 0)
(7.45188378e-12 0 0)
(7.18957529e-12 0 0)
(6.53030722e-12 0 0)
(6.84081404e-12 0 0)
(7.32330567e-12 0 0)
(6.431904e-12 0 0)
(6.99368805e-12 0 0)
(6.87509454e-12 0 0)
(7.34104694e-12 0 0)
(5.97217637e-12 0 0)
(7.48692045e-12 0 0)
(5.74572603e-12 0 0)
(7.62631515e-12 0 0)
(6.49592727e-12 0 0)
(6.55987059e-12 0 0)
(6.58020305e-12 0 0)
(6.22823221e-12 0 0)
(6.96338158e-12 0 0)
(6.27031375e-12 0 0)
(6.62720403e-12 0 0)
(6.83933291e-12 0 0)
(5.84183746e-12 0 0)
(5.64829033e-12 0 0)
(5.0247025e-12 0 0)
(6.70486574e-12 0 0)
(6.27301152e-12 0 0)
(5.36033183e-12 0 0)
(5.21403862e-12 0 0)
(6.14737796e-12 0 0)
(7.66130164e-12 0 0)
(6.24749905e-12 0 0)
(5.8769157e-12 0 0)
(5.90920801e-12 0 0)
(5.8936782e-12 0 0)
(6.66079052e-12 0 0)
(5.70047102e-12 0 0)
(6.50706416e-12 0 0)
(5.48236445e-12 0 0)
(5.62138765e-12 0 0)
(5.30429886e-12 0 0)
(5.97654095e-12 0 0)
(5.53519812e-12 0 0)
(6.3687737e-12 0 0)
(6.54951098e-12 0 0)
(5.95979046e-12 0 0)
(5.82833463e-12 0 0)
(5.19686318e-12 0 0)
(5.88178534e-12 0 0)
(5.30011561e-12 0 0)
(6.03953945e-12 0 0)
(6.21305691e-12 0 0)
(6.42639476e-12 0 0)
(6.37752117e-12 0 0)
(4.98743718e-12 0 0)
(4.4608976e-12 0 0)
(5.26031485e-12 0 0)
(5.95571793e-12 0 0)
(5.57496479e-12 0 0)
(5.55870682e-12 0 0)
(5.82837044e-12 0 0)
(7.07032268e-12 0 0)
(5.12170223e-12 0 0)
(5.68914518e-12 0 0)
(6.76775626e-12 0 0)
(5.95953652e-12 0 0)
(6.20770387e-12 0 0)
(6.74482065e-12 0 0)
(6.74376808e-12 0 0)
(6.64032346e-12 0 0)
(5.93821465e-12 0 0)
(7.81697388e-12 0 0)
(6.94057297e-12 0 0)
(7.72302738e-12 0 0)
(6.21081272e-12 0 0)
(7.6761187e-12 0 0)
(7.30582161e-12 0 0)
(6.53516891e-12 0 0)
(7.74881421e-12 0 0)
(7.61179031e-12 0 0)
(7.35423131e-12 0 0)
(6.31202999e-12 0 0)
(7.11699833e-12 0 0)
(7.17106424e-12 0 0)
(6.10261729e-12 0 0)
(7.81155854e-12 0 0)
(6.65409146e-12 0 0)
(6.10685539e-12 0 0)
(6.22686642e-12 0 0)
(5.41998403e-12 0 0)
(6.16397481e-12 0 0)
(5.98577281e-12 0 0)
(5.7990439e-12 0 0)
(6.85835118e-12 0 0)
(5.36868785e-12 0 0)
(5.7312005e-12 0 0)
(5.1279135e-12 0 0)
(4.99719376e-12 0 0)
(4.82158286e-12 0 0)
(4.85520043e-12 0 0)
(4.26268283e-12 0 0)
(4.62404974e-12 0 0)
(4.43371986e-12 0 0)
(4.6200514e-12 0 0)
(4.03465708e-12 0 0)
(3.83719015e-12 0 0)
(3.3052182e-12 0 0)
(3.52928087e-12 0 0)
(2.45807262e-12 0 0)
(2.87338563e-12 0 0)
(2.34971563e-12 0 0)
(3.18789015e-12 0 0)
(2.28659337e-12 0 0)
(2.82043627e-12 0 0)
(3.48799373e-12 0 0)
(2.64098567e-12 0 0)
(3.36485683e-12 0 0)
(3.5051338e-12 0 0)
(2.59821924e-12 0 0)
(3.21850594e-12 0 0)
(2.98800879e-12 0 0)
(1.81654446e-12 0 0)
(2.03490554e-12 0 0)
(2.554055e-12 0 0)
(1.69545355e-12 0 0)
(1.85683738e-12 0 0)
(1.72555953e-12 0 0)
(1.67730211e-12 0 0)
(1.98892982e-12 0 0)
(1.15397937e-12 0 0)
(1.99222382e-12 0 0)
(1.71792885e-12 0 0)
(2.11723861e-12 0 0)
(2.06386255e-12 0 0)
(1.90561922e-12 0 0)
(1.26611053e-12 0 0)
(1.97393033e-12 0 0)
(1.78765726e-12 0 0)
(1.0885565e-12 0 0)
(1.45718852e-12 0 0)
(1.0987126e-12 0 0)
(1.72458336e-12 0 0)
(1.0811264e-12 0 0)
(1.9287059e-12 0 0)
(4.81480012e-13 0 0)
(1.17662839e-12 0 0)
(5.18869182e-13 0 0)
(8.11902883e-13 0 0)
(1.45361074e-12 0 0)
(8.60116657e-13 0 0)
(8.08071319e-13 0 0)
(1.10562592e-12 0 0)
(7.40691257e-13 0 0)
(-6.32742551e-13 0 0)
(6.4948433e-13 0 0)
(7.05912731e-13 0 0)
(2.83249728e-13 0 0)
(-1.124343e-14 0 0)
(-1.72526689e-13 0 0)
(-3.69846081e-14 0 0)
(-4.26842432e-14 0 0)
(-9.63817628e-13 0 0)
(6.56114605e-14 0 0)
(-3.32308601e-13 0 0)
(-1.37374099e-12 0 0)
(-3.18256638e-13 0 0)
(2.99798266e-13 0 0)
(7.49637402e-14 0 0)
(-3.76528657e-13 0 0)
(-8.17225036e-13 0 0)
(-1.345202e-12 0 0)
(-6.49860408e-14 0 0)
(-1.43919447e-12 0 0)
(-1.43694738e-12 0 0)
(-9.42297801e-13 0 0)
(-1.17404072e-12 0 0)
(-9.45495369e-13 0 0)
(-7.51113768e-13 0 0)
(-1.60006026e-12 0 0)
(-3.57677272e-13 0 0)
(-1.38132697e-12 0 0)
(-1.35513884e-12 0 0)
(-1.84929323e-12 0 0)
(-1.88436584e-12 0 0)
(-1.54051407e-12 0 0)
(-1.69787465e-12 0 0)
(-1.04196096e-12 0 0)
(-1.54950577e-12 0 0)
(-1.14129259e-12 0 0)
(-1.62211315e-12 0 0)
(-1.87693695e-12 0 0)
(-2.29566018e-12 0 0)
(-1.14423577e-12 0 0)
(-1.43255262e-12 0 0)
(-2.4370409e-12 0 0)
(-1.95140616e-12 0 0)
(-1.97577671e-12 0 0)
(-3.24493126e-12 0 0)
(-2.88941753e-12 0 0)
(-1.93309297e-12 0 0)
(-3.8911885e-12 0 0)
(-3.12444309e-12 0 0)
(-2.99857651e-12 0 0)
(-3.26081466e-12 0 0)
(-3.5814e-12 0 0)
(-3.0039601e-12 0 0)
(-3.39335522e-12 0 0)
(-3.17898186e-12 0 0)
(-3.49419793e-12 0 0)
(-3.84569901e-12 0 0)
(-3.01880554e-12 0 0)
(-3.0426806e-12 0 0)
(-3.28354124e-12 0 0)
(-3.00126966e-12 0 0)
(-2.72545105e-12 0 0)
(-4.26468059e-12 0 0)
(-4.07492166e-12 0 0)
(-3.23921616e-12 0 0)
(-2.56348278e-12 0 0)
(-2.33941427e-12 0 0)
(-3.53084907e-12 0 0)
(-1.90499099e-12 0 0)
(-3.19771184e-12 0 0)
(-3.51860882e-12 0 0)
(-2.75206003e-12 0 0)
(-2.57605201e-12 0 0)
(-3.15161889e-12 0 0)
(-2.46993708e-12 0 0)
(-2.77991089e-12 0 0)
(-2.9744641e-12 0 0)
(-2.64945983e-12 0 0)
(-3.26264306e-12 0 0)
(-3.79129212e-12 0 0)
(-3.15105594e-12 0 0)
(-2.86786622e-12 0 0)
(-2.44397203e-12 0 0)
(-3.06712523e-12 0 0)
(-3.21984638e-12 0 0)
(-2.80764327e-12 0 0)
(-2.76365821e-12 0 0)
(-3.21587435e-12 0 0)
(-3.20627148e-12 0 0)
(-2.90444732e-12 0 0)
(-3.2324274e-12 0 0)
(-3.19508557e-12 0 0)
(-3.72988508e-12 0 0)
(-3.69756827e-12 0 0)
(-3.8023293e-12 0 0)
(-3.3601885e-12 0 0)
(-4.07149934e-12 0 0)
(-3.4550486e-12 0 0)
(-3.73276931e-12 0 0)
(-3.82270114e-12 0 0)
(-3.93775791e-12 0 0)
(-4.84155141e-12 0 0)
(-4.00043711e-12 0 0)
(-4.28513057e-12 0 0)
(-4.42600028e-12 0 0)
(-4.43034188e-12 0 0)
(-3.42828745e-12 0 0)
(-4.71142222e-12 0 0)
(-4.48636192e-12 0 0)
(-4.75723047e-12 0 0)
(-2.17110391e-12 0 0)
(-4.4037139e-12 0 0)
(-5.30146523e-12 0 0)
(-4.737706e-12 0 0)
(-5.19875619e-12 0 0)
(-5.73501783e-12 0 0)
(-5.02392902e-12 0 0)
(-6.00620701e-12 0 0)
(-6.00864761e-12 0 0)
(-6.39418583e-12 0 0)
(-5.88858755e-12 0 0)
(-6.51201317e-12 0 0)
(-6.15160335e-12 0 0)
(-6.92298351e-12 0 0)
(-6.67334324e-12 0 0)
(-5.89428086e-12 0 0)
(-6.89965029e-12 0 0)
(-7.94142592e-12 0 0)
(-7.04191902e-12 0 0)
(-7.17365468e-12 0 0)
(-7.00751941e-12 0 0)
(-6.24638701e-12 0 0)
(-6.01335538e-12 0 0)
(-7.59564999e-12 0 0)
(-6.93078262e-12 0 0)
(-7.13300865e-12 0 0)
(-6.72294004e-12 0 0)
(-7.42313337e-12 0 0)
(-7.46091529e-12 0 0)
(-6.71110491e-12 0 0)
(-6.48327983e-12 0 0)
(-6.84678474e-12 0 0)
(-6.84127579e-12 0 0)
(-6.59338432e-12 0 0)
(-6.28264654e-12 0 0)
(-6.2604292e-12 0 0)
(-7.25257621e-12 0 0)
(-6.56337902e-12 0 0)
(-6.95048113e-12 0 0)
(-7.60888132e-12 0 0)
(-7.38508618e-12 0 0)
(-7.22238169e-12 0 0)
(-7.22604991e-12 0 0)
(-7.66590717e-12 0 0)
(-6.72781013e-12 0 0)
(-7.41662098e-12 0 0)
(-7.79049887e-12 0 0)
(-8.80302945e-12 0 0)
(-6.78647346e-12 0 0)
(-7.95860041e-12 0 0)
(-6.32981117e-12 0 0)
(-6.6910474e-12 0 0)
(-6.97331936e-12 0 0)
(-7.00064146e-12 0 0)
(-6.90102209e-12 0 0)
(-7.10789196e-12 0 0)
(-5.37251087e-12 0 0)
(-6.25031676e-12 0 0)
(-6.65697531e-12 0 0)
(-6.30344409e-12 0 0)
(-6.81772549e-12 0 0)
(-6.32117085e-12 0 0)
(-5.91553341e-12 0 0)
(-7.35588254e-12 0 0)
(-7.37799107e-12 0 0)
(-6.37692889e-12 0 0)
(-6.76106857e-12 0 0)
(-6.90505512e-12 0 0)
(-6.57631134e-12 0 0)
(-6.40470838e-12 0 0)
(-6.32307332e-12 0 0)
(-7.22574136e-12 0 0)
(-5.92396153e-12 0 0)
(-6.79779466e-12 0 0)
(-6.20408757e-12 0 0)
(-6.60045935e-12 0 0)
(-6.64897803e-12 0 0)
(-6.53842555e-12 0 0)
(-5.11411568e-12 0 0)
(-5.77807634e-12 0 0)
(-4.62712239e-12 0 0)
(-5.66785969e-12 0 0)
(-5.97212914e-12 0 0)
(-4.95406669e-12 0 0)
(-4.28060726e-12 0 0)
(-5.95357939e-12 0 0)
(-6.60621484e-12 0 0)
(-6.30211723e-12 0 0)
(-4.84125699e-12 0 0)
(-6.74795741e-12 0 0)
(-5.30933921e-12 0 0)
(-6.10465224e-12 0 0)
(-5.59546632e-12 0 0)
(-6.06244456e-12 0 0)
(-4.68021009e-12 0 0)
(-5.97666432e-12 0 0)
(-4.48008755e-12 0 0)
(-4.4568361e-12 0 0)
(-3.80789597e-12 0 0)
(-4.4600744e-12 0 0)
(-4.17904245e-12 0 0)
(-4.21444445e-12 0 0)
(-4.1702504e-12 0 0)
(-4.51506265e-12 0 0)
(-3.72648102e-12 0 0)
(-3.80945787e-12 0 0)
(-4.12368295e-12 0 0)
(-2.85317607e-12 0 0)
(-4.18115401e-12 0 0)
(-4.0466988e-12 0 0)
(-3.88162764e-12 0 0)
(-3.30918498e-12 0 0)
(-4.18788192e-12 0 0)
(-3.12890952e-12 0 0)
(-4.57568394e-12 0 0)
(-4.43341051e-12 0 0)
(-4.19343065e-12 0 0)
(-4.86155758e-12 0 0)
(-5.08000859e-12 0 0)
(-4.67656337e-12 0 0)
(-5.06635259e-12 0 0)
(-5.31001666e-12 0 0)
(-4.86446925e-12 0 0)
(-4.46229223e-12 0 0)
(-4.31514118e-12 0 0)
(-3.82133331e-12 0 0)
(-3.79677587e-12 0 0)
(-3.64272915e-12 0 0)
(-4.0487733e-12 0 0)
(-2.96860498e-12 0 0)
(-3.97190276e-12 0 0)
(-3.39240513e-12 0 0)
(-2.54596978e-12 0 0)
(-3.22023613e-12 0 0)
(-2.4419651e-12 0 0)
(-2.80420696e-12 0 0)
(-3.28107137e-12 0 0)
(-2.84418467e-12 0 0)
(-2.89422021e-12 0 0)
(-3.39909503e-12 0 0)
(-2.26608629e-12 0 0)
(-2.42914335e-12 0 0)
(-2.65681451e-12 0 0)
(-2.53620559e-12 0 0)
(-3.45573023e-12 0 0)
(-2.99802893e-12 0 0)
(-2.75511623e-12 0 0)
(-2.73901499e-12 0 0)
(-3.18034023e-12 0 0)
(-4.45153364e-12 0 0)
(-3.39111809e-12 0 0)
(-2.92571146e-12 0 0)
(-3.63213937e-12 0 0)
(-3.70575906e-12 0 0)
(-3.93473662e-12 0 0)
(-4.11100158e-12 0 0)
(-2.73864743e-12 0 0)
(-4.59778273e-12 0 0)
(-4.01217609e-12 0 0)
(-3.89665738e-12 0 0)
(-3.81165584e-12 0 0)
(-4.34810892e-12 0 0)
(-4.72141047e-12 0 0)
(-4.20768219e-12 0 0)
(-4.05699156e-12 0 0)