/*--------------------------------*- C++ -*----------------------------------*\
| =========                 |                                                 |
| \\      /  F ield         | OpenFOAM: The Open Source CFD Toolbox           |
|  \\    /   O peration     | Version:  2206                                  |
|   \\  /    A nd           | Website:  www.openfoam.com                      |
|    \\/     M anipulation  |                                                 |
\*---------------------------------------------------------------------------*/
FoamFile
{
    version     2.0;
    format      ascii;
    arch        "LSB;label=32;scalar=64";
    class       volScalarField;
    location    "8.4e-06";
    object      p;
}
// * * * * * * * * * * * * * * * * * * * * * * * * * * * * * * * * * * * * * //

dimensions      [1 -1 -2 0 0 0 0];

internalField   nonuniform List<scalar> 
3183
(
101325
101325
101325
101325
101325
101325
101325
101325
101325
101325
101325
101325
101325
101325
101325
101325
101325
101325
101325
101325
101325
101325
101325
101325
101325
101325
101325
101325
101325
101325
101325
101325
101325
101325
101325
101325
101325
101325
101325
101325
101325
101325
101325
101325
101325
101325
101325
101325
101325
101325
101325
101325
101325
101325
101325
101325
101325
101325
101325
101325
101325
101325
101325
101325
101325
101325
101325
101325
101325
101325
101325
101325
101325
101325
101325
101325
101325
101325
101325
101325
101325
101325
101325
101325
101325
101325
101325
101325
101325
101325
101325
101325
101325
101325
101325
101325
101325
101325
101325
101325
101325
101325
101325
101325
101325
101325
101325
101325
101325
101325
101325
101325
101325
101325
101325
101325
101325
101325
101325
101325
101325
101325
101325
101325
101325
101325
101325
101325
101325
101325
101325
101325
101325
101325
101325
101325
101325
101325
101325
101325
101325
101325
101325
101325
101325
101325
101325
101325
101325
101325
101325
101325
101325
101325
101325
101325
101325
101325
101325
101325
101325
101325
101325
101325
101325
101325
101325
101325
101325
101325
101325
101325
101325
101325
101325
101325
101325
101325
101325
101325
101325
101325
101325
101325
101325
101325
101325
101325
101325
101325
101325
101325
101325
101325
101325
101325
101325
101325
101325
101325
101325
101325
101325
101325
101325
101325
101325
101325
101325
101325
101325
101325
101325
101325
101325
101325
101325
101325
101325
101325
101325
101325
101325
101325
101325
101325
101325
101325
101325
101325
101325
101325
101325
101325
101325
101325
101325
101325
101325
101325
101325
101325
101325
101325
101325
101325
101325
101325
101325
101325
101325
101325
101325
101325
101325
101325
101325
101325
101325
101325
101325
101325
101325
101325
101325
101325
101325
101325
101325
101325
101325
101325
101325
101325
101325
101325
101325
101325
101325
101325
101325
101325
101325
101325
101325
101325
101325
101325
101325
101325
101325
101325
101325
101325
101325
101325
101325
101325
101325
101325
101325
101325
101325
101325
101325
101325
101325
101325
101325
101325
101325
101325
101325
101325
101325
101325
101325
101325
101325
101325
101325
101325
101325
101325
101325
101325
101325
101325
101325
101325
101325
101325
101325
101325
101325
101325
101325
101325
101325
101325
101325
101325
101325
101325
101325
101325
101325
101325
101325
101325
101325
101325
101325
101325
101325
101325
101325
101325
101325
101325
101325
101325
101325
101325
101325
101325
101325
101325
101325
101325
101325
101325
101325
101325
101325
101325
101325
101325
101325
101325
101325
101325
101325
101325
101325
101325
101325
101325
101325
101325
101325
101325
101325
101325
101325
101325
101325
101325
101325
101325
101325
101325
101325
101325
101325
101325
101325
101325
101325
101325
101325
101325
101325
101325
101325
101325
101325
101325
101325
101325
101325
101325
101325
101325
101325
101325
101325
101325
101325
101325
101325
101325
101325
101325
101325
101325
101325
101325
101325
101325
101325
101325
101325
101325
101325
101325
101325
101325
101325
101325
101325
101325
101325
101325
101325
101325
101325
101325
101325
101325
101325
101325
101325
101325
101325
101325
101325
101325
101325
101325
101325
101325
101325
101325
101325
101325
101325
101325
101325
101325
101325
101325
101325
101325
101325
101325
101325
101325
101325
101325
101325
101325
101325
101325
101325
101325
101325
101325
101325
101325
101325
101325
101325
101325
101325
101325
101325
101325
101325
101325
101325
101325
101325
101325
101325
101325
101325
101325
101325
101325
101325
101325
101325
101325
101325
101325
101325
101325
101325
101325
101325
101325
101325
101325
101325
101325
101325
101325
101325
101325
101325
101325
101325
101325
101325
101325
101325
101325
101325
101325
101325
101325
101325
101325
101325
101325
101325
101325
101325
101325
101325
101325
101325
101325
101325
101325
101325
101325
101325
101325
101325
101325
101325
101325
101325
101325
101325
101325
101325
101325
101325
101325
101325
101325
101325
101325
101325
101325
101325
101325
101325
101325
101325
101325
101325
101325
101325
101325
101325
101325
101325
101325
101325
101325
101325
101325
101325
101325
101325
101325
101325
101325
101325
101325
101325
101325
101325
101325
101325
101325
101325
101325
101325
101325
101325
101325
101325
101325
101325
101325
101325
101325
101325
101325
101325
101325
101325
101325
101325
101325
101325
101325
101325
101325
101325
101325
101325
101325
101325
101325
101325
101325
101325
101325
101325
101325
101325
101325
101325
101325
101325
101325
101325
101325
101325
101325
101325
101325
101325
101325
101325
101325
101325
101325
101325
101325
101325
101325
101325
101325
101325
101325
101325
101325
101325
101325
101325
101325
101325
101325
101325
101325
101325
101325
101325
101325
101325
101325
101325
101325
101325
101325
101325
101325
101325
101325
101325
101325
101325
101325
101325
101325
101325
101325
101325
101325
101325
101325
101325
101325
101325
101325
101325
101325
101325
101325
101325
101325
101325
101325
101325
101325
101325
101325
101325
101325
101325
101325
101325
101325
101325
101325
101325
101325
101325
101325
101325
101325
101325
101325
101325
101325
101325
101325
101325
101325
101325
101325
101325
101325
101325
101325
101325
101325
101325
101325
101325
101325
101325
101325
101325
101325
101325
101325
101325
101325
101325
101325
101325
101325
101325
101325
101325
101325
101325
101325
101325
101325
101325
101325
101325
101325
101325
101325
101325
101325
101325
101325
101325
101325
101325
101325
101325
101325
101325
101325
101325
101325
101325
101325
101325
101325
101325
101325
101325
101325
101325
101325
101325
101325
101325
101325
101325
101325
101325
101325
101325
101325
101325
101325
101325
101325
101325
101325
101325
101325
101325
101325
101325
101325
101325
101325
101325
101325
101325
101325
101325
101325
101325
101325
101325
101325
101325
101325
101325
101325
101325
101325
101325
101325
101325
101325
101325
101325
101325
101325
101325
101325
101325
101325
101325
101325
101325
101325
101325
101325
101325
101325
101325
101325
101325
101325
101325
101325
101325
101325
101325
101325
101325
101325
101325
101325
101325
101325
101325
101325
101325
101325
101325
101325
101325
101325
101325
101325
101325
101325
101325
101325
101325
101325
101325
101325
101325
101325
101325
101325
101325
101325
101325
101325
101325
101325
101325
101325
101325
101325
101325
101325
101325
101325
101325
101325
101325
101325
101325
101325
101325
101325
101325
101325
101325
101325
101325
101325
101325
101325
101325
101325
101325
101325
101325
101325
101325
101325
101325
101325
101325
101325
101325
101325
101325
101325
101325
101325
101325
101325
101325
101325
101325
101325
101325
101325
101325
101325
101325
101325
101325
101325
101325
101325
101325
101325
101325
101325
101325
101325
101325
101325
101325
101325
101325
101325
101325
101325
101325
101325
101325
101325
101325
101325
101325
101325
101325
101325
101325
101325
101325
101325
101325
101325
101325
101325
101325
101325
101325
101325
101325
101325
101325
101325
101325
101325
101325
101325
101325
101325
101325
101325
101325
101325
101325
101325
101325
101325
101325
101325
101325
101325
101325
101325
101325
101325
101325
101325
101325
101325
101325
101325
101325
101325
101325
101325
101325
101325
101325
101325
101325
101325
101325
101325
101325
101325
101325
101325
101325
101325
101325
101325
101325
101325
101325
101325
101325
101325
101325
101325
101325
101325
101325
101325
101325
101325
101325
101325
101325
101325
101325
101325
101325
101325
101325
101325
101325
101325
101325
101325
101325
101325
101325
101325
101325
101325
101325
101325
101325
101325
101325
101325
101325
101325
101325
101325
101325
101325
101325
101325
101325
101325
101325
101325
101325
101325
101325
101325
101325
101325
101325
101325
101325
101325
101325
101325
101325
101325
101325
101325
101325
101325
101325
101325
101325
101325
101325
101325
101325
101325
101325
101325
101325
101325
101325
101325
101325
101325
101325
101325
101325
101325
101325
101325
101325
101325
101325
101325
101325
101325
101325
101325
101325
101325
101325
101325
101325
101325
101325
101325
101325
101325
101325
101325
101325
101325
101325
101325
101325
101325
101325
101325
101325
101325
101325
101325
101325
101325
101325
101325
101325
101325
101325
101325
101325
101325
101325
101325
101325
101325
101325
101325
101325
101325
101325
101325
101325
101325
101325
101325
101325
101325
101325
101325
101325
101325
101325
101325
101325
101325
101325
101325
101325
101325
101325
101325
101325
101325
101325
101325
101325
101325
101325
101325
101325
101325
101325
101325
101325
101325
101325
101325
101325
101325
101325
101325
101325
101325
101325
101325
101325
101325
101325
101325
101325
101325
101325
101325
101325
101325
101325
101325
101325
101325
101325
101325
101325
101325
101325
101325
101325
101325
101325
101325
101325
101325
101325
101325
101325
101325
101325
101325
101325
101325
101325
101325
101325
101325
101325
101325
101325
101325
101325
101325
101325
101325
101325
101325
101325
101325
101325
101325
101325
101325
101325
101325
101325
101325
101325
101325
101325
101325
101325
101325
101325
101325
101325
101325
101325
101325
101325
101325
101325
101325
101325
101325
101325
101325
101325
101325
101325
101325
101325
101325
101325
101325
101325
101325
101325
101325
101325
101325
101325
101325
101325
101325
101325
101325
101325
101325
101325
101325
101325
101325
101325
101325
101325
101325
101325
101325
101325
101325
101325
101325
101325
101325
101325
101325
101325
101325
101325
101325
101325
101325
101325
101325
101325
101325
101325
101325
101325
101325
101325
101325
101325
101325
101325
101325
101325
101325
101325
101325
101325
101325
101325
101325
101325
101325
101325
101325
101325
101325
101325
101325
101325
101325
101325
101325
101325
101325
101325
101325
101325
101325
101325
101325
101325
101325
101325
101325
101325
101325
101325
101325
101325
101325
101325
101325
101325
101325
101325
101325
101325
101325
101325
101325
101325
101325
101325
101325
101325
101325
101325
101325
101325
101325
101325
101325
101325
101325
101325
101325
101325
101325
101325
101325
101325
101325
101325
101325
101325
101325
101325
101325
101325
101325
101325
101325
101325
101325
101325
101325
101325
101325
101325
101325
101325
101325
101325
101325
101325
101325
101325
101325
101325
101325
101325
101325
101325
101325
101325
101325
101325
101325
101325
101325
101325
101325
101325
101325
101325
101325
101325
101325
101325
101325
101325
101325
101325
101325
101325
101325
101325
101325
101325
101325
101325
101325
101325
101325
101325
101325
101325
101325
101325
101325
101325
101325
101325
101325
101325
101325
101325
101325
101325
101325
101325
101325
101325
101325
101325
101325
101325
101325
101325
101325
101325
101325
101325
101325
101325
101325
101325
101325
101325
101325
101325
101325
101325
101325
101325
101325
101325
101325
101325
101325
101325
101325
101325
101325
101325
101325
101325
101325
101325
101325
101325
101325
101325
101325
101325
101325
101325
101325
101325
101325
101325
101325
101325
101325
101325
101325
101325
101325
101325
101325
101325
101325
101325
101325
101325
101325
101325
101325
101325
101325
101325
101325
101325
101325
101325
101325
101325
101325
101325
101325
101325
101325
101325
101325
101325
101325
101325
101325
101325
101325
101325
101325
101325
101325
101325
101325
101325
101325
101325
101325
101325
101325
101325
101325
101325
101325
101325
101325
101325
101325
101325
101325
101325
101325
101325
101325
101325
101325
101325
101325
101325
101325
101325
101325
101325
101325
101325
101325
101325
101325
101325
101325
101325
101325
101325
101325
101325
101325
101325
101325
101325
101325
101325
101325
101325
101325
101325
101325
101325
101325
101325
101325
101325
101325
101325
101325
101325
101325
101325
101325
101325
101325
101325
101325
101325
101325
101325
101325
101325
101325
101325
101325
101325
101325
101325
101325
101325
101325
101325
101325
101325
101325
101325
101325
101325
101325
101325
101325
101325
101325
101325
101325
101325
101325
101325
101325
101325
101325
101325
101325
101325
101325
101325
101325
101325
101325
101325
101325
101325
101325
101325
101325
101325
101325
101325
101325
101325
101325
101325
101325
101325
101325
101325
101325
101325
101325
101325
101325
101325
101325
101325
101325
101325
101325
101325
101325
101325
101325
101325
101325
101325
101325
101325
101325
101325
101325
101325
101325
101325
101325
101325
101325
101325
101325
101325
101325
101325
101325
101325
101325
101325
101325
101325
101325
101325
101325
101325
101325
101325
101325
101325
101325
101325
101325
101325
101325
101325
101325
101325
101325
101325
101325
101325
101325
101325
101325
101325
101325
101325
101325
101325
101325
101325
101325
101325
101325
101325
101325
101325
101325
101325
101325
101325
101325
101325
101325
101325
101325
101325
101325
101325
101325
101325
101325
101325
101325
101325
101325
101325
101325
101325
101325
101325
101325
101325
101325
101325
101325
101325
101325
101325
101325
101325
101325
101325
101325
101325
101325
101325
101325
101325
101325
101325
101325
101325
101325
101325
101325
101325
101325
101325
101325
101325
101325
101325
101325
101325
101325
101325
101325
101325
101325
101325
101325
101325
101325
101325
101325
101325
101325
101325
101325
101325
101325
101325
101325
101325
101325
101325
101325
101325
101325
101325
101325
101325
101325
101325
101325
101325
101325
101325
101325
101325
101325
101325
101325
101325
101325
101325
101325
101325
101325
101325
101325
101325
101325
101325
101325
101325
101325
101325
101325
101325
101325
101325
101325
101325
101325
101325
101325
101325
101325
101325
101325
101325
101325
101325
101325
101325
101325
101325
101325
101325
101325
101325
101325
101325
101325
101325
101325
101325
101325
101325
101325
101325
101325
101325
101325
101325
101325
101325
101325
101325
101325
101325
101325
101325
101325
101325
101325
101325
101325
101325
101325
101325
101325
101325
101325
101325
101325
101325
101325
101325
101325
101325
101325
101325
101325
101325
101325
101325
101325
101325
101325
101325
101325
101325
101325
101325
101325
101325
101325
101325
101325
101325
101325
101325
101325
101325
101325
101325
101325
101325
101325
101325
101325
101325
101325
101325
101325
101325
101325
101325
101325
101325
101325
101325
101325
101325
101325
101325
101325
101325
101325
101325
101325
101325
101325
101325
101325
101325
101325
101325
101325
101325
101325
101325
101325
101325
101325
101325
101325
101325
101325
101325
101325
101325
101325
101325
101325
101325
101325
101325
101325
101325
101325
101325
101325
101325
101325
101325
101325
101325
101325
101325
101325
101325
101325
101325
101325
101325
101325
101325
101325
101325
101325
101325
101325
101325
101325
101325
101325
101324.999
101324.999
101324.999
101324.999
101324.999
101324.999
101324.999
101324.999
101324.999
101324.999
101324.999
101324.999
101324.999
101324.999
101324.998
101324.998
101324.998
101324.998
101324.998
101324.998
101324.998
101324.997
101324.997
101324.997
101324.997
101324.997
101324.996
101324.996
101324.996
101324.995
101324.995
101324.995
101324.994
101324.994
101324.994
101324.993
101324.993
101324.992
101324.991
101324.991
101324.99
101324.989
101324.989
101324.988
101324.987
101324.986
101324.985
101324.984
101324.983
101324.982
101324.981
101324.979
101324.978
101324.976
101324.975
101324.973
101324.971
101324.969
101324.967
101324.965
101324.963
101324.96
101324.958
101324.955
101324.952
101324.949
101324.945
101324.942
101324.938
101324.934
101324.93
101324.925
101324.92
101324.915
101324.91
101324.904
101324.898
101324.892
101324.885
101324.878
101324.87
101324.862
101324.854
101324.845
101324.835
101324.825
101324.815
101324.804
101324.792
101324.78
101324.767
101324.753
101324.738
101324.723
101324.707
101324.69
101324.672
101324.653
101324.633
101324.612
101324.59
101324.567
101324.543
101324.517
101324.49
101324.462
101324.432
101324.401
101324.369
101324.334
101324.298
101324.261
101324.221
101324.18
101324.137
101324.092
101324.044
101323.995
101323.943
101323.889
101323.832
101323.773
101323.711
101323.647
101323.58
101323.51
101323.436
101323.36
101323.281
101323.198
101323.112
101323.022
101322.928
101322.831
101322.73
101322.625
101322.516
101322.403
101322.286
101322.164
101322.037
101321.906
101321.77
101321.629
101321.483
101321.332
101321.176
101321.014
101320.847
101320.675
101320.496
101320.312
101320.122
101319.926
101319.724
101319.516
101319.301
101319.08
101318.853
101318.619
101318.379
101318.132
101317.878
101317.617
101317.35
101317.075
101316.794
101316.506
101316.211
101315.909
101315.6
101315.284
101314.961
101314.631
101314.295
101313.951
101313.601
101313.244
101312.881
101312.511
101312.134
101311.752
101311.363
101310.968
101310.568
101310.162
101309.75
101309.333
101308.911
101308.484
101308.053
101307.617
101307.178
101306.734
101306.287
101305.837
101305.384
101304.929
101304.471
101304.012
101303.551
101303.089
101302.627
101302.164
101301.702
101301.24
101300.779
101300.32
101299.863
101299.408
101298.956
101298.507
101298.062
101297.622
101297.186
101296.756
101296.331
101295.913
101295.501
101295.097
101294.7
101294.312
101293.932
101293.561
101293.2
101292.848
101292.507
101292.177
101291.858
101291.551
101291.255
101290.972
101290.702
101290.445
101290.201
101289.97
101289.754
101289.551
101289.363
101289.189
101289.03
101288.886
101288.757
101288.643
101288.545
101288.461
101288.392
101288.339
101288.301
101288.278
101288.27
101288.277
101288.299
101288.335
101288.386
101288.451
101288.529
101288.622
101288.728
101288.846
101288.978
101289.122
101289.278
101289.445
101289.623
101289.813
101290.012
101290.221
101290.44
101290.667
101290.903
101291.147
101291.398
101291.655
101291.919
101292.188
101292.463
101292.742
101293.026
101293.313
101293.603
101293.895
101294.19
101294.486
101294.783
101295.08
101295.377
101295.674
101295.97
101296.265
101296.558
101296.849
101297.137
101297.422
101297.704
101297.982
101298.257
101298.527
101298.792
101299.053
101299.309
101299.56
101299.805
101300.045
101300.279
101300.507
101300.73
101300.946
101301.157
101301.361
101301.56
101301.752
101301.938
101302.118
101302.293
101302.461
101302.624
101302.781
101302.932
101303.078
101303.218
101303.353
101303.484
101303.609
101303.73
101303.846
101303.958
101304.066
101304.17
101304.27
101304.367
101304.46
101304.55
101304.638
101304.722
101304.804
101304.883
101304.96
101305.034
101305.107
101305.178
101305.247
101305.314
101305.379
101305.444
101305.506
101305.568
101305.628
101305.687
101305.744
101305.801
101305.856
101305.909
101305.962
101306.013
101306.063
101306.111
101306.158
101306.204
101306.248
101306.29
101306.331
101306.37
101306.407
101306.442
101306.475
101306.506
101306.535
101306.562
101306.588
101306.611
101306.631
101306.65
101306.667
101306.682
101306.695
101306.707
101306.717
101306.725
101306.732
101306.738
101306.742
101306.746
101306.75
101306.753
101306.757
101306.76
101306.764
101306.77
101306.776
101306.784
101306.793
101306.805
101306.819
101306.836
101306.856
101306.879
101306.906
101306.937
101306.972
101307.011
101307.055
101307.103
101307.155
101307.213
101307.275
101307.342
101307.413
101307.489
101307.569
101307.653
101307.741
101307.832
101307.927
101308.024
101308.124
101308.225
101308.328
101308.432
101308.536
101308.64
101308.743
101308.844
101308.944
101309.041
101309.136
101309.227
101309.313
101309.396
101309.474
101309.546
101309.613
101309.675
101309.731
101309.781
101309.826
101309.865
101309.898
101309.926
101309.948
101309.966
101309.98
101309.99
101309.996
101309.999
101310
101309.998
101309.996
101309.992
101309.988
101309.984
101309.98
101309.977
101309.975
101309.974
101309.975
101309.977
101309.981
101309.986
101309.993
101310.002
101310.011
101310.022
101310.034
101310.045
101310.058
101310.07
101310.081
101310.092
101310.101
101310.108
101310.113
101310.114
101310.111
101310.103
101310.087
101310.06
101310.006
101309.929
101310.224
101310.556
101310.574
101309.576
101309.552
101309.647
101309.886
101309.946
101310.08
101310.12
101310.155
101310.155
101310.152
101310.141
101310.128
101310.114
101310.1
101310.086
101310.072
101310.058
101310.044
101310.03
101310.017
101310.003
101309.99
101309.977
101309.965
101309.952
101309.94
101309.928
101309.915
101309.904
101309.892
101309.881
101309.869
101309.858
101309.848
101309.837
101309.827
101309.817
101309.807
101309.798
101309.789
101309.781
101309.773
101309.765
101309.758
101309.751
101309.745
101309.739
101309.734
101309.729
101309.725
101309.721
101309.718
101309.715
101309.713
101309.711
101309.709
101309.708
101309.707
101309.706
101309.705
101309.704
101309.704
101309.703
101309.703
101309.702
101309.701
101309.7
101309.698
101309.696
101309.694
101309.69
101309.687
101309.682
101309.677
101309.67
101309.663
101309.655
101309.646
101309.635
101309.623
101309.61
101309.596
101309.581
101309.564
101309.545
101309.525
101309.504
101309.481
101309.457
101309.431
101309.404
101309.375
101309.345
101309.313
101309.28
101309.246
101309.21
101309.172
101309.134
101309.094
101309.053
101309.011
101308.967
101308.923
101308.877
101308.831
101308.784
101308.736
101308.687
101308.637
101308.587
101308.537
101308.486
101308.434
101308.383
101308.331
101308.279
101308.227
101308.175
101308.123
101308.071
101308.019
101307.968
101307.917
101307.867
101307.817
101307.767
101307.718
101307.67
101307.622
101307.576
101307.53
101307.485
101307.44
101307.397
101307.355
101307.314
101307.274
101307.234
101307.196
101307.159
101307.124
101307.089
101307.056
101307.023
101306.992
101306.962
101306.933
101306.905
101306.879
101306.854
101306.829
101306.806
101306.784
101306.763
101306.744
101306.725
101306.707
101306.691
101306.675
101306.66
101306.646
101306.633
101306.621
101306.61
101306.599
101306.589
101306.58
101306.572
101306.564
101306.556
101306.55
101306.543
101306.538
101306.532
101306.527
101306.523
101306.519
101306.515
101306.511
101306.507
101306.504
101306.5
101306.497
101306.494
101306.491
101306.487
101306.484
101306.48
101306.477
101306.473
101306.469
101306.465
101306.461
101306.456
101306.451
101306.446
101306.44
101306.434
101306.428
101306.421
101306.414
101306.406
101306.398
101306.389
101306.38
101306.371
101306.361
101306.35
101306.339
101306.328
101306.316
101306.303
101306.29
101306.277
101306.263
101306.248
101306.233
101306.217
101306.201
101306.185
101306.167
101306.15
101306.132
101306.113
101306.094
101306.074
101306.054
101306.034
101306.013
101305.991
101305.97
101305.947
101305.925
101305.902
101305.878
101305.854
101305.83
101305.805
101305.781
101305.755
101305.73
101305.704
101305.677
101305.651
101305.624
101305.597
101305.569
101305.541
101305.513
101305.485
101305.456
101305.427
101305.398
101305.369
101305.339
101305.309
101305.279
101305.248
101305.218
101305.186
101305.155
101305.123
101305.091
101305.059
101305.027
101304.994
101304.961
101304.927
101304.893
101304.859
101304.825
101304.79
101304.755
101304.719
101304.683
101304.646
101304.609
101304.572
101304.534
101304.496
101304.457
101304.417
101304.377
101304.337
101304.296
101304.254
101304.212
101304.169
101304.125
101304.081
101304.036
101303.99
101303.943
101303.896
101303.847
101303.798
101303.748
101303.698
101303.646
101303.593
101303.539
101303.485
101303.429
101303.372
101303.315
101303.256
101303.196
101303.135
101303.072
101303.009
101302.944
101302.878
101302.811
101302.743
101302.673
101302.602
101302.529
101302.456
101302.38
101302.304
101302.226
101302.146
101302.066
101301.983
101301.899
101301.814
101301.727
101301.639
101301.549
101301.457
101301.364
101301.27
101301.174
101301.076
101300.977
101300.876
101300.773
101300.669
101300.563
101300.456
101300.347
101300.236
101300.124
101300.01
101299.895
101299.778
101299.659
101299.539
101299.418
101299.295
101299.17
101299.044
101298.916
101298.787
101298.656
101298.524
101298.391
101298.256
101298.12
101297.982
101297.843
101297.703
101297.561
101297.419
101297.275
101297.13
101296.984
101296.837
101296.688
101296.539
101296.389
101296.238
101296.086
101295.933
101295.779
101295.625
101295.47
101295.314
101295.158
101295.001
101294.844
101294.686
101294.528
101294.37
101294.211
101294.052
101293.893
101293.734
101293.575
101293.416
101293.258
101293.099
101292.94
101292.782
101292.625
101292.467
101292.311
101292.154
101291.999
101291.844
101291.69
101291.537
101291.384
101291.233
101291.083
101290.934
101290.786
101290.64
101290.494
101290.351
101290.208
101290.068
101289.929
101289.791
101289.656
101289.522
101289.39
101289.261
101289.133
101289.007
101288.884
101288.763
101288.644
101288.528
101288.414
101288.303
101288.194
101288.088
101287.985
101287.884
101287.786
101287.691
101287.6
101287.511
101287.425
101287.342
101287.263
101287.187
101287.114
101287.044
101286.978
101286.915
101286.856
101286.8
101286.748
101286.699
101286.654
101286.613
101286.575
101286.542
101286.512
101286.485
101286.463
101286.445
101286.43
101286.419
101286.412
101286.41
101286.411
101286.416
101286.425
101286.439
101286.456
101286.477
101286.503
101286.532
101286.566
101286.603
101286.645
101286.691
101286.74
101286.794
101286.852
101286.914
101286.98
101287.05
101287.124
101287.202
101287.284
101287.37
101287.46
101287.553
101287.651
101287.752
101287.858
101287.967
101288.079
101288.196
101288.316
101288.44
101288.567
101288.698
101288.832
101288.97
101289.111
101289.255
101289.403
101289.554
101289.709
101289.873
101290.052
101290.249
101290.465
101290.703
101290.962
101291.248
101291.561
101291.904
101292.281
101292.695
101293.15
101293.648
101294.194
101294.793
101295.448
101296.164
101296.945
101297.795
101298.717
101299.715
101300.79
101301.945
101303.177
101304.485
101305.864
101307.306
101308.801
101310.335
101311.89
101313.445
101314.978
101316.463
101317.873
101319.185
101320.375
101321.425
101322.323
101323.066
101323.657
101324.107
101324.435
101324.661
101324.808
101324.898
101324.95
101324.977
101324.99
101324.996
101324.999
101325
101325
101325
101325
101325
101325
101325
101325
101325
101325
101325
101325
101325
101325
101325
101325
101325
101325
101325
101325
101325
101325
101325
101325
101325
101325
101325
)
;

boundaryField
{
    closed
    {
        type            zeroGradient;
    }
    open
    {
        type            waveTransmissive;
        gamma           1.25;
        fieldInf        101325;
        lInf            1;
        value           uniform 101325;
    }
    sides
    {
        type            empty;
    }
}


// ************************************************************************* //
