/*--------------------------------*- C++ -*----------------------------------*\
| =========                 |                                                 |
| \\      /  F ield         | OpenFOAM: The Open Source CFD Toolbox           |
|  \\    /   O peration     | Version:  2206                                  |
|   \\  /    A nd           | Website:  www.openfoam.com                      |
|    \\/     M anipulation  |                                                 |
\*---------------------------------------------------------------------------*/
FoamFile
{
    version     2.0;
    format      ascii;
    arch        "LSB;label=32;scalar=64";
    class       volScalarField;
    location    "8.4e-06";
    object      PVsourcePV;
}
// * * * * * * * * * * * * * * * * * * * * * * * * * * * * * * * * * * * * * //

dimensions      [1 -3 -1 0 0 0 0];

internalField   nonuniform List<scalar> 
3183
(
0
0
0
0
0
0
0
0
0
0
0
0
0
0
0
0
0
0
0
0
0
0
0
0
0
0
0
0
0
0
0
0
0
0
0
0
0
0
0
0
0
0
0
0
0
0
0
0
0
0
0
0
0
0
0
0
0
0
0
0
0
0
0
0
0
0
0
0
0
0
0
0
0
0
0
0
0
0
0
0
0
0
0
0
0
0
0
0
0
0
0
0
0
0
0
0
0
0
0
0
0
0
0
0
0
0
0
0
0
0
0
0
0
0
0
0
0
0
0
0
0
0
0
0
0
0
0
0
0
0
0
0
0
0
0
0
0
0
0
0
0
0
0
0
0
0
0
0
0
0
0
0
0
0
0
0
0
0
0
0
0
0
0
0
0
0
0
0
0
0
0
0
0
0
0
0
0
0
0
0
0
0
0
0
0
0
0
0
0
0
0
0
0
0
0
0
0
0
0
0
0
0
0
0
0
0
0
0
0
0
0
0
0
0
0
0
0
0
0
0
0
0
0
0
0
0
0
0
0
0
0
0
0
0
0
0
0
0
0
0
0
0
0
0
0
0
0
0
0
0
0
0
0
0
0
0
0
0
0
0
0
0
0
0
0
0
0
0
0
0
0
0
0
0
0
0
0
0
0
0
0
0
0
0
0
0
0
0
0
0
0
0
0
0
0
0
0
0
0
0
0
0
0
0
0
0
0
0
0
0
0
0
0
0
0
0
0
0
0
0
0
0
0
0
0
0
0
0
0
0
0
0
0
0
0
0
0
0
0
0
0
0
0
0
0
0
0
0
0
0
0
0
0
0
0
0
0
0
0
0
0
0
0
0
0
0
0
0
0
0
0
0
0
0
0
0
0
0
0
0
0
0
0
0
0
0
0
0
0
0
0
0
0
0
0
0
0
0
0
0
0
0
0
0
0
0
0
0
0
0
0
0
0
0
0
0
0
0
0
0
0
0
0
0
0
0
0
0
0
0
0
0
0
0
0
0
0
0
0
0
0
0
0
0
0
0
0
0
0
0
0
0
0
0
0
0
0
0
0
0
0
0
0
0
0
0
0
0
0
0
0
0
0
0
0
0
0
0
0
0
0
0
0
0
0
0
0
0
0
0
0
0
0
0
0
0
0
0
0
0
0
0
0
0
0
0
0
0
0
0
0
0
0
0
0
0
0
0
0
0
0
0
0
0
0
0
0
0
0
0
0
0
0
0
0
0
0
0
0
0
0
0
0
0
0
0
0
0
0
0
0
0
0
0
0
0
0
0
0
0
0
0
0
0
0
0
0
0
0
0
0
0
0
0
0
0
0
0
0
0
0
0
0
0
0
0
0
0
0
0
0
0
0
0
0
0
0
0
0
0
0
0
0
0
0
0
0
0
0
0
0
0
0
0
0
0
0
0
0
0
0
0
0
0
0
0
0
0
0
0
0
0
0
0
0
0
0
0
0
0
0
0
0
0
0
0
0
0
0
0
0
0
0
0
0
0
0
0
0
0
0
0
0
0
0
0
0
0
0
0
0
0
0
0
0
0
0
0
0
0
0
0
0
0
0
0
0
0
0
0
0
0
0
0
0
0
0
0
0
0
0
0
0
0
0
0
0
0
0
0
0
0
0
0
0
0
0
0
0
0
0
0
0
0
0
0
0
0
0
0
0
0
0
0
0
0
0
0
0
0
0
0
0
0
0
0
0
0
0
0
0
0
0
0
0
0
0
0
0
0
0
0
0
0
0
0
0
0
0
0
0
0
0
0
0
0
0
0
0
0
0
0
0
0
0
0
0
0
0
0
0
0
0
0
0
0
0
0
0
0
0
0
0
0
0
0
0
0
0
0
0
0
0
0
0
0
0
0
0
0
0
0
0
0
0
0
0
0
0
0
0
0
0
0
0
0
0
0
0
0
0
0
0
0
0
0
0
0
0
0
0
0
0
0
0
0
0
0
0
0
0
0
0
0
0
0
0
0
0
0
0
0
0
0
0
0
0
0
0
0
0
0
0
0
0
0
0
0
0
0
0
0
0
0
0
0
0
0
0
0
0
0
0
0
0
0
0
0
0
0
0
0
0
0
0
0
0
0
0
0
0
0
0
0
0
0
0
0
0
0
0
0
0
0
0
0
0
0
0
0
0
0
0
0
0
0
0
0
0
0
0
0
0
0
0
0
0
0
0
0
0
0
0
0
0
0
0
0
0
0
0
0
0
0
0
0
0
0
0
0
0
0
0
0
0
0
0
0
0
0
0
0
0
0
0
0
0
0
0
0
0
0
0
0
0
0
0
0
0
0
0
0
0
0
0
0
0
0
0
0
0
0
0
0
0
0
0
0
0
0
0
0
0
0
0
0
0
0
0
0
0
0
0
0
0
0
0
0
0
0
0
0
0
0
0
0
0
0
0
0
0
0
0
0
0
0
0
0
0
0
0
0
0
0
0
0
0
0
0
0
0
0
0
0
0
0
0
0
0
0
0
0
0
0
0
0
0
0
0
0
0
0
0
0
0
0
0
0
0
0
0
0
0
0
0
0
0
0
0
0
0
0
0
0
0
0
0
0
0
0
0
0
0
0
0
0
0
0
0
0
0
0
0
0
0
0
0
0
0
0
0
0
0
0
0
0
0
0
0
0
0
0
0
0
0
0
0
0
0
0
0
0
0
0
0
0
0
0
0
0
0
0
0
0
0
0
0
0
0
0
0
0
0
0
0
0
0
0
0
0
0
0
0
0
0
0
0
0
0
0
0
0
0
0
0
0
0
0
0
0
0
0
0
0
0
0
0
0
0
0
0
0
0
0
0
0
0
0
0
0
0
0
0
0
0
0
0
0
0
0
0
0
0
0
0
0
0
0
0
0
0
0
0
0
0
0
0
0
0
0
0
0
0
0
0
0
0
0
0
0
0
0
0
0
0
0
0
0
0
0
0
0
0
0
0
0
0
0
0
0
0
0
0
0
0
0
0
0
0
0
0
0
0
0
0
0
0
0
0
0
0
0
0
0
0
0
0
0
0
0
0
0
0
0
0
0
0
0
0
0
0
0
0
0
0
0
0
0
0
0
0
0
0
0
0
0
0
0
0
0
0
0
0
0
0
0
0
0
0
0
0
0
0
0
0
0
0
0
0
0
0
0
0
0
0
0
0
0
0
0
0
0
0
0
0
0
0
0
0
0
0
0
0
0
0
0
0
0
0
0
0
0
0
0
0
0
0
0
0
0
0
0
0
0
0
0
0
0
0
0
0
0
0
0
0
0
0
0
0
0
0
0
0
0
0
0
0
0
0
0
0
0
0
0
0
0
0
0
0
0
0
0
0
0
0
0
0
0
0
0
0
0
0
0
0
0
0
0
0
0
0
0
0
0
0
0
0
0
0
0
0
0
0
0
0
0
0
0
0
0
0
0
0
0
0
0
0
0
0
0
0
0
0
0
0
0
0
0
0
0
0
0
0
0
0
0
0
0
0
0
0
0
0
0
0
0
0
0
0
0
0
0
0
0
0
0
0
0
0
0
0
0
0
0
0
0
0
0
0
0
0
0
0
0
0
0
0
0
0
0
0
0
0
0
0
0
0
0
0
0
0
0
0
0
0
0
0
0
0
0
0
0
0
0
0
0
0
0
0
0
0
0
0
0
0
0
0
0
0
0
0
0
0
0
0
0
0
0
0
0
0
0
0
0
0
0
0
0
0
0
0
0
0
0
0
0
0
0
0
0
0
0
0
0
0
0
0
0
0
0
0
0
0
0
0
0
0
0
0
0
0
0
0
0
0
0
0
0
0
0
0
0
0
0
0
0
0
0
0
0
0
0
0
0
0
0
0
0
0
0
0
0
0
0
0
0
0
0
0
0
0
0
0
0
0
0
0
0
0
0
0
0
0
0
0
0
0
0
0
0
0
0
0
0
0
0
0
0
0
0
0
0
0
0
0
0
0
0
0
0
0
0
0
0
0
0
0
0
0
0
0
0
0
0
0
0
0
0
0
0
0
0
0
0
0
0
0
0
0
0
0
0
0
0
0
0
0
0
0
0
0
0
0
0
0
0
0
0
0
0
0
0
0
0
0
0
0
0
0
0
0
0
0
0
0
0
0
0
0
0
0
0
0
0
0
0
0
0
0
0
0
0
0
0
0
0
0
0
0
0
0
0
0
0
0
0
0
0
0
0
0
0
0
0
0
0
0
0
0
0
0
0
0
0
0
0
0
0
0
0
0
0
0
0
0
0
0
0
0
0
0
0
0
0
0
0
0
0
0
0
0
0
0
0
0
0
0
0
0
0
0
0
0
0
0
0
0
0
0
0
0
0
0
0
0
0
0
0
0
0
0
0
0
0
0
0
0
0
0
0
0
0
0
0
0
0
0
0
0
0
0
0
0
0
0
0
0
0
0
0
0
0
0
0
0
0
0
0
0
0
0
0
0
0
0
0
0
0
0
0
0
0
0
0
0
0
0
0
0
0
0
0
0
0
0
0
0
0
0
0
0
0
0
0
0
0
0
0
0
0
0
0
0
0
0
0
0
0
0
0
0
0
0
0
0
0
0
0
0
0
0
0
0
0
0
0
0
0
0
0
0
0
0
0
0
0
0
0
0
0
0
0
0
0
0
0
0
0
0
0
0
0
0
0
0
0
0
0
0
0
0
0
0
0
0
0
0
0
0
0
0
0
0
0
0
0
0
0
0
0
0
0
0
0
0
0
0
0
0
0
0
0
0
0
0
0
0
0
0
0
0
0
0
0
0
0
0
0
0
0
0
0
0
0
0
0
0
0
0
0
0
0
0
0
0
0
0
0
0
0
0
0
0
0
0
0
0
0
0
0
0
0
0
0
0
0
0
0
0
0
0
0
0
0
0
0
0
0
0
0
0
0
0
0
0
0
0
0
0
0
0
0
0
0
0
0
0
0
0
0
0
0
0
0
0
0
0
0
0
0
0
0
0
0
0
0
0
0
0
0
0
0
0
0
0
0
0
0
0
0
0
0
0
0
0
0
0
0
0
0
0
0
0
0
0
0
0
0
0
0
0
0
0
0
0
0
0
0
0
0
0
0
0
0
0
0
0
0
0
0
0
0
0
0
0
0
0
0
0
0
0
0
0
0
0
0
0
0
0
0
0
0
0
0
0
0
0
0
0
0
0
0
0
0
0
0
0
0
0
0
0
0
0
0
0
0
0
0
0
0
0
0
0
0
0
0
0
0
0
0
0
0
0
0
0
0
0
0
0
0
0
0
0
0
0
0
0
0
0
0
0
0
0
0
0
0
0
0
0
0
0
0
0
0
0
0
0
0
0
0
0
0
0
0
0
0
0
0
0
0
0
0
0
0
0
0
0
0
0
0
0
0
0
0
0
0
0
0
0
0
0
0
0
0
0
0
0
0
0
0
0
0
0
0
0
0
0
6.02531412e-298
0
1.0358225e-294
0
1.70503779e-291
0
2.69336926e-288
0
4.09105091e-285
0
5.98582452e-282
0
8.45002544e-279
0
1.15256137e-275
0
1.52093309e-272
0
1.94407209e-269
0
2.40958011e-266
0
2.89885996e-263
0
3.38816141e-260
0
3.85047159e-257
0
4.25804138e-254
0
4.58520895e-251
0
4.81111119e-248
0
4.92188081e-245
0
4.91201049e-242
0
4.7847071e-239
0
4.55122705e-236
0
4.22934435e-233
0
3.84122386e-230
4.64388123e-232
3.41103504e-227
1.14574887e-228
2.96264056e-224
1.60084576e-225
2.51763802e-221
1.85095217e-222
2.09394029e-218
1.92917094e-219
1.70497338e-215
1.87460114e-216
1.35947088e-212
1.72714845e-213
1.06176767e-209
1.52350551e-210
8.12450137e-207
1.29452667e-207
6.09206309e-204
1.06396168e-204
4.47732077e-201
8.48328445e-202
3.22579706e-198
6.57607712e-199
2.27873197e-195
4.96423386e-196
1.57853032e-192
3.6541029e-193
1.07244783e-189
2.62542512e-190
7.14689259e-187
1.84277037e-187
4.67223639e-184
1.26442516e-184
2.99669115e-181
8.48618016e-182
1.88584763e-178
5.5735894e-179
1.16453146e-175
3.5837254e-176
7.05672685e-173
2.25661584e-173
4.1964806e-170
1.39196026e-170
2.44914414e-167
8.41290231e-168
1.40282376e-164
4.98311756e-165
7.88604089e-162
2.89310502e-162
4.35095586e-159
1.64661933e-159
2.35601341e-156
9.18828153e-157
1.252077e-153
5.02715872e-154
6.53028804e-151
2.69701348e-151
3.34244669e-148
1.41883329e-148
1.67882443e-145
7.31937394e-146
8.27422599e-143
3.70261762e-143
4.00127359e-140
1.83664832e-140
1.89836639e-137
8.9332042e-138
8.83546597e-135
4.26016808e-135
4.03364469e-132
1.99182352e-132
1.80605078e-129
9.12931993e-130
7.929866e-127
4.10148021e-127
3.41380403e-124
1.80593008e-124
1.44070493e-121
7.79211004e-122
5.959302e-119
3.29405505e-119
2.41553221e-116
1.36410544e-116
9.59253057e-114
5.53245216e-114
3.73125188e-111
2.19706404e-111
1.4212382e-108
8.54115829e-109
5.29970072e-106
3.24955674e-106
1.93410484e-103
1.20959283e-103
6.90581692e-101
4.4037842e-101
2.41161612e-98
1.56760849e-98
8.23378982e-96
5.45400123e-96
2.74737638e-93
1.85390588e-93
8.95526772e-91
6.15418195e-91
2.85024469e-88
1.99417894e-88
8.85349415e-86
6.30455472e-86
2.68253536e-83
1.94361246e-83
7.92365341e-81
5.8395579e-81
2.2802686e-78
1.70881602e-78
6.38905435e-76
4.86702633e-76
1.74165765e-73
1.34824538e-73
4.61555378e-71
3.62967828e-71
1.18809057e-68
9.48830754e-69
2.96781828e-66
2.4061646e-66
7.18700539e-64
5.9133772e-64
1.68539441e-61
1.4068114e-61
3.82271497e-59
3.23590666e-59
8.37491954e-57
7.18675474e-57
1.76965925e-54
1.5388741e-54
3.6007456e-52
3.17171704e-52
7.04212131e-50
6.28079811e-50
1.3211298e-47
1.19255849e-47
2.37210242e-45
2.16618742e-45
4.06588673e-43
3.75442059e-43
6.63357113e-41
6.19080313e-41
1.02674753e-38
9.67946488e-39
1.50188155e-36
1.42947204e-36
2.06690601e-34
1.98501608e-34
2.66215107e-32
2.57819345e-32
3.18895396e-30
3.11235731e-30
3.52595159e-28
3.46555432e-28
3.56509893e-26
3.5260307e-26
3.25805151e-24
3.23958028e-24
2.650961e-22
2.63750618e-22
1.88254442e-20
1.88358387e-20
1.13472117e-18
1.13395602e-18
5.57484408e-17
5.54595001e-17
2.09147384e-15
2.10268639e-15
1.03823184e-11
1.08692172e-11
0.0378075757
0.124769163
0.768752975
0.751436111
0.261524131
0.2121081
0.0281140953
0.0248481573
0.0042819747
0.00400434733
0.00056646464
0.000555839838
6.88113455e-05
6.86305973e-05
8.09117041e-06
8.13887195e-06
1.4227218e-06
1.42476897e-06
7.48314481e-07
7.48273237e-07
6.85684492e-07
6.85690957e-07
6.80329352e-07
6.80330567e-07
6.79902877e-07
6.79903242e-07
6.79871088e-07
6.79871674e-07
6.79867285e-07
6.79869618e-07
6.79867628e-07
6.79869258e-07
6.7986736e-07
6.79870121e-07
6.79867071e-07
6.79868487e-07
6.79868314e-07
6.79867209e-07
6.79868606e-07
6.79867958e-07
6.79868581e-07
6.79867463e-07
6.79869222e-07
6.798679e-07
6.79868809e-07
6.79868006e-07
6.79869127e-07
6.79868449e-07
6.79868735e-07
6.79867601e-07
6.79868535e-07
6.7986757e-07
6.79869391e-07
6.79867252e-07
6.79868709e-07
6.79868613e-07
6.79868286e-07
6.79868838e-07
6.79867963e-07
6.79868288e-07
6.7986779e-07
6.79868538e-07
6.79868151e-07
6.79868362e-07
6.79868836e-07
6.7986755e-07
6.7986884e-07
6.79867969e-07
6.79868075e-07
6.79867413e-07
6.79868148e-07
6.79867583e-07
6.7986768e-07
6.79868264e-07
6.79867234e-07
6.79869471e-07
6.79867391e-07
6.79869492e-07
6.79868399e-07
6.79868673e-07
6.79868204e-07
6.79869009e-07
6.79867861e-07
6.7986924e-07
6.79867824e-07
6.79868952e-07
6.7986833e-07
6.79867791e-07
6.79868638e-07
6.79867279e-07
6.79869144e-07
6.79868471e-07
6.79868698e-07
6.79868466e-07
6.79869311e-07
6.7986861e-07
6.7986789e-07
6.7986828e-07
6.79869021e-07
6.79868515e-07
6.79869148e-07
6.79868285e-07
6.79868969e-07
6.79869415e-07
6.79868139e-07
6.79868289e-07
6.79868634e-07
6.79869034e-07
6.7986831e-07
6.79868623e-07
6.79868546e-07
6.79867356e-07
6.79868368e-07
6.79868355e-07
6.79868362e-07
6.79868535e-07
6.79868669e-07
6.79868512e-07
6.79868414e-07
6.79868821e-07
6.79868227e-07
6.79868579e-07
6.79868211e-07
6.79869738e-07
6.79867774e-07
6.79868712e-07
6.79868068e-07
6.79869372e-07
6.79868138e-07
6.7986929e-07
6.7986801e-07
6.7986866e-07
6.79869393e-07
6.79869609e-07
6.79869563e-07
6.79868703e-07
6.79869852e-07
6.7986821e-07
6.79869169e-07
6.79867729e-07
6.7986905e-07
6.79868034e-07
6.79868068e-07
6.79868258e-07
6.79868741e-07
6.79868548e-07
6.79868354e-07
6.79868343e-07
6.79868879e-07
6.79868525e-07
6.7986937e-07
6.79867113e-07
6.7986985e-07
6.79868328e-07
6.79868855e-07
6.79869101e-07
6.79868979e-07
6.7986822e-07
6.79869259e-07
6.79869383e-07
6.79869589e-07
6.79868189e-07
6.79869625e-07
6.79868384e-07
6.79869763e-07
6.79868949e-07
6.79868937e-07
6.79869103e-07
6.79868791e-07
6.79868136e-07
6.79869647e-07
6.79867925e-07
6.79868708e-07
6.79868124e-07
6.79869353e-07
6.79868571e-07
6.79869204e-07
6.79869386e-07
6.79868527e-07
6.79870191e-07
6.79869456e-07
6.79869982e-07
6.79869864e-07
6.79869451e-07
6.79869386e-07
6.79869195e-07
6.79868935e-07
6.79868843e-07
6.79868977e-07
6.79869273e-07
6.79869247e-07
6.79868515e-07
6.79869617e-07
6.79869315e-07
6.79869934e-07
6.79868981e-07
6.79869477e-07
6.79868743e-07
6.79869662e-07
6.79868275e-07
6.79869916e-07
6.79868635e-07
6.79869483e-07
6.79868457e-07
6.79869428e-07
6.79868857e-07
6.79869013e-07
6.79869425e-07
6.79869829e-07
6.79869341e-07
6.79869731e-07
6.79868824e-07
6.79870164e-07
6.79869408e-07
6.79868673e-07
6.79869713e-07
6.79868943e-07
6.79869413e-07
6.79869107e-07
6.79869573e-07
6.79869004e-07
6.79870209e-07
6.7986813e-07
6.79869453e-07
6.79869163e-07
6.79868562e-07
6.79869429e-07
6.79869553e-07
6.79869527e-07
6.79869981e-07
6.79869611e-07
6.79869499e-07
6.79869736e-07
6.79870386e-07
6.79869176e-07
6.79869286e-07
6.79869656e-07
6.79870097e-07
6.79869777e-07
6.79870328e-07
6.7986951e-07
6.79870397e-07
6.79869606e-07
6.79869427e-07
6.79869211e-07
6.79870759e-07
6.79869115e-07
6.79869825e-07
6.79868679e-07
6.79869571e-07
6.79869252e-07
6.79869884e-07
6.79869445e-07
6.79869512e-07
6.79869026e-07
6.79869873e-07
6.79869406e-07
6.79870182e-07
6.79869748e-07
6.79869113e-07
6.79870286e-07
6.79869809e-07
6.79870067e-07
6.79869571e-07
6.79870634e-07
6.79869112e-07
6.79869889e-07
6.79869127e-07
6.79869866e-07
6.79868828e-07
6.798703e-07
6.7986901e-07
6.79869271e-07
6.79870498e-07
6.79869074e-07
6.798707e-07
6.798693e-07
6.79869862e-07
6.79869857e-07
6.79869266e-07
6.79870353e-07
6.79869247e-07
6.7987002e-07
6.7986981e-07
6.79869884e-07
6.79868854e-07
6.79869761e-07
6.79868962e-07
6.79869599e-07
6.79869896e-07
6.79869295e-07
6.79869557e-07
6.7986972e-07
6.79869701e-07
6.79869817e-07
6.79869171e-07
6.7986932e-07
6.79870195e-07
6.79870274e-07
6.79870038e-07
6.79869749e-07
6.79869879e-07
6.79869685e-07
6.79870116e-07
6.79869378e-07
6.79870374e-07
6.79870255e-07
6.79869716e-07
6.7987035e-07
6.79870058e-07
6.79870562e-07
6.79869817e-07
6.79870132e-07
6.7987002e-07
6.7986944e-07
6.79870279e-07
6.79870869e-07
6.79868756e-07
6.79871475e-07
6.79869319e-07
6.79870933e-07
6.79869463e-07
6.798704e-07
6.79870037e-07
6.79869547e-07
6.7986994e-07
6.79870401e-07
6.7987001e-07
6.79869916e-07
6.79870558e-07
6.79869892e-07
6.79870463e-07
6.79869442e-07
6.79869925e-07
6.7986972e-07
6.79869594e-07
6.79870893e-07
6.79869966e-07
6.79869352e-07
6.79870588e-07
6.79869576e-07
6.79870314e-07
6.79870121e-07
6.79870177e-07
6.79869971e-07
6.7987088e-07
6.79869837e-07
6.79870057e-07
6.79870463e-07
6.79869704e-07
6.79870594e-07
6.79870835e-07
6.79869861e-07
6.79869655e-07
6.79871078e-07
6.79869222e-07
6.7987087e-07
6.79870304e-07
6.7986995e-07
6.79870388e-07
6.79870422e-07
6.79869825e-07
6.79870995e-07
6.79869741e-07
6.79869944e-07
6.79870859e-07
6.79870085e-07
6.79871162e-07
6.79870444e-07
6.79871597e-07
6.79870728e-07
6.7987092e-07
6.79870282e-07
6.79871298e-07
6.79869756e-07
6.79870919e-07
6.79870025e-07
6.79870418e-07
6.79870597e-07
6.79869999e-07
6.7987091e-07
6.79870567e-07
6.79871178e-07
6.79870288e-07
6.79870424e-07
6.79869242e-07
6.79870584e-07
6.79870489e-07
6.79869958e-07
6.79870909e-07
6.79870327e-07
6.79870669e-07
6.79870341e-07
6.79870654e-07
6.79870757e-07
6.79870931e-07
6.79871246e-07
6.79871107e-07
6.79870437e-07
6.7987062e-07
6.79870524e-07
6.79871289e-07
6.79869748e-07
6.79871981e-07
6.79869996e-07
6.79871255e-07
6.79870056e-07
6.79872009e-07
6.79870655e-07
6.79871271e-07
6.79870885e-07
6.7987121e-07
6.7987097e-07
6.7987066e-07
6.79871014e-07
6.79870972e-07
6.79870832e-07
6.79870684e-07
6.79871057e-07
6.79870676e-07
6.79870865e-07
6.79871514e-07
6.79870341e-07
6.79871465e-07
6.79870988e-07
6.79870817e-07
6.79871613e-07
6.79871078e-07
6.7987065e-07
6.7987178e-07
6.79870956e-07
6.79871119e-07
6.79871268e-07
6.79871711e-07
6.79872071e-07
6.79871299e-07
6.79871309e-07
6.79872216e-07
6.79871312e-07
6.79871807e-07
6.79870801e-07
6.7987157e-07
6.79870981e-07
6.79871487e-07
6.7987209e-07
6.7987071e-07
6.79871471e-07
6.79872347e-07
6.7987144e-07
6.79871169e-07
6.79871104e-07
6.79871505e-07
6.7987139e-07
6.79871127e-07
6.79871612e-07
6.79871924e-07
6.79870968e-07
6.79871179e-07
6.79871085e-07
6.79871273e-07
6.79871174e-07
6.79872006e-07
6.79870944e-07
6.79871711e-07
6.7987122e-07
6.79872481e-07
6.79871691e-07
6.79871362e-07
6.79871641e-07
6.79871645e-07
6.79872269e-07
6.79871076e-07
6.79871148e-07
6.79872531e-07
6.79869791e-07
6.79873027e-07
6.7987037e-07
6.79871931e-07
6.79871284e-07
6.7987157e-07
6.79870851e-07
6.79871935e-07
6.79871047e-07
6.7987158e-07
6.79871512e-07
6.79871219e-07
6.79871971e-07
6.79871184e-07
6.79872118e-07
6.79871161e-07
6.79872055e-07
6.79872146e-07
6.79871634e-07
6.79871613e-07
6.79873178e-07
6.79870579e-07
6.79872268e-07
6.79870968e-07
6.79872699e-07
6.79870383e-07
6.79872742e-07
6.79870875e-07
6.79872884e-07
6.79871423e-07
6.79871943e-07
6.79871991e-07
6.79871736e-07
6.79872167e-07
6.79871988e-07
6.79871828e-07
6.7987199e-07
6.79871942e-07
6.79872215e-07
6.79872242e-07
6.79872276e-07
6.79872256e-07
6.79871939e-07
6.7987219e-07
6.79872092e-07
6.79872035e-07
6.79872286e-07
6.79872309e-07
6.79872295e-07
6.79872313e-07
6.79872294e-07
6.79872286e-07
6.79872407e-07
6.7987242e-07
6.79872424e-07
6.79872479e-07
6.79872466e-07
6.79872541e-07
6.79872582e-07
6.79872542e-07
6.7987262e-07
6.7987263e-07
6.7987259e-07
6.79872612e-07
6.7987265e-07
6.79872674e-07
6.79872659e-07
6.79872654e-07
6.79872684e-07
6.79872662e-07
6.79872668e-07
6.79872674e-07
6.79872675e-07
6.79872645e-07
6.79872682e-07
6.79872658e-07
6.79872666e-07
6.79872665e-07
6.79872671e-07
6.79872672e-07
6.79872683e-07
6.79872672e-07
6.79872672e-07
6.79872656e-07
6.79872653e-07
6.79872675e-07
6.7987266e-07
6.7987267e-07
6.79872672e-07
6.79872662e-07
6.79872678e-07
6.79872671e-07
6.79872671e-07
6.79872682e-07
6.79872665e-07
6.79872679e-07
6.7987266e-07
6.79872679e-07
6.79872675e-07
6.79872663e-07
6.79872675e-07
6.79872659e-07
6.79872658e-07
6.79872687e-07
)
;

boundaryField
{
    closed
    {
        type            calculated;
        value           uniform 0;
    }
    open
    {
        type            calculated;
        value           uniform 0;
    }
    sides
    {
        type            empty;
    }
}


// ************************************************************************* //
