/*--------------------------------*- C++ -*----------------------------------*\
| =========                 |                                                 |
| \\      /  F ield         | OpenFOAM: The Open Source CFD Toolbox           |
|  \\    /   O peration     | Version:  2206                                  |
|   \\  /    A nd           | Website:  www.openfoam.com                      |
|    \\/     M anipulation  |                                                 |
\*---------------------------------------------------------------------------*/
FoamFile
{
    version     2.0;
    format      ascii;
    arch        "LSB;label=32;scalar=64";
    class       volScalarField;
    location    "8.4e-06";
    object      sourcePV;
}
// * * * * * * * * * * * * * * * * * * * * * * * * * * * * * * * * * * * * * //

dimensions      [1 -3 -1 0 0 0 0];

internalField   nonuniform List<scalar> 
3183
(
0
0
0
0
0
0
0
0
0
0
0
0
0
0
0
0
0
0
0
0
0
0
0
0
0
0
0
0
0
0
0
0
0
0
0
0
0
0
0
0
0
0
0
0
0
0
0
0
0
0
0
0
0
0
0
0
0
0
0
0
0
0
0
0
0
0
0
0
0
0
0
0
0
0
0
0
0
0
0
0
0
0
0
0
0
0
0
0
0
0
0
0
0
0
0
0
0
0
0
0
0
0
0
0
0
0
0
0
0
0
0
0
0
0
0
0
0
0
0
0
0
0
0
0
0
0
0
0
0
0
0
0
0
0
0
0
0
0
0
0
0
0
0
0
0
0
0
0
0
0
0
0
0
0
0
0
0
0
0
0
0
0
0
0
0
0
0
0
0
0
0
0
0
0
0
0
0
0
0
0
0
0
0
0
0
0
0
0
0
0
0
0
0
0
0
0
0
0
0
0
0
0
0
0
0
0
0
0
0
0
0
0
0
0
0
0
0
0
0
0
0
0
0
0
0
0
0
0
0
0
0
0
0
0
0
0
0
0
0
0
0
0
0
0
0
0
0
0
0
0
0
0
0
0
0
0
0
0
0
0
0
0
0
0
0
0
0
0
0
0
0
0
0
0
0
0
0
0
0
0
0
0
0
0
0
0
0
0
0
0
0
0
0
0
0
0
0
0
0
0
0
0
0
0
0
0
0
0
0
0
0
0
0
0
0
0
0
0
0
0
0
0
0
0
0
0
0
0
0
0
0
0
0
0
0
0
0
0
0
0
0
0
0
0
0
0
0
0
0
0
0
0
0
0
0
0
0
0
0
0
0
0
0
0
0
0
0
0
0
0
0
0
0
0
0
0
0
0
0
0
0
0
0
0
0
0
0
0
0
0
0
0
0
0
0
0
0
0
0
0
0
0
0
0
0
0
0
0
0
0
0
0
0
0
0
0
0
0
0
0
0
0
0
0
0
0
0
0
0
0
0
0
0
0
0
0
0
0
0
0
0
0
0
0
0
0
0
0
0
0
0
0
0
0
0
0
0
0
0
0
0
0
0
0
0
0
0
0
0
0
0
0
0
0
0
0
0
0
0
0
0
0
0
0
0
0
0
0
0
0
0
0
0
0
0
0
0
0
0
0
0
0
0
0
0
0
0
0
0
0
0
0
0
0
0
0
0
0
0
0
0
0
0
0
0
0
0
0
0
0
0
0
0
0
0
0
0
0
0
0
0
0
0
0
0
0
0
0
0
0
0
0
0
0
0
0
0
0
0
0
0
0
0
0
0
0
0
0
0
0
0
0
0
0
0
0
0
0
0
0
0
0
0
0
0
0
0
0
0
0
0
0
0
0
0
0
0
0
0
0
0
0
0
0
0
0
0
0
0
0
0
0
0
0
0
0
0
0
0
0
0
0
0
0
0
0
0
0
0
0
0
0
0
0
0
0
0
0
0
0
0
0
0
0
0
0
0
0
0
0
0
0
0
0
0
0
0
0
0
0
0
0
0
0
0
0
0
0
0
0
0
0
0
0
0
0
0
0
0
0
0
0
0
0
0
0
0
0
0
0
0
0
0
0
0
0
0
0
0
0
0
0
0
0
0
0
0
0
0
0
0
0
0
0
0
0
0
0
0
0
0
0
0
0
0
0
0
0
0
0
0
0
0
0
0
0
0
0
0
0
0
0
0
0
0
0
0
0
0
0
0
0
0
0
0
0
0
0
0
0
0
0
0
0
0
0
0
0
0
0
0
0
0
0
0
0
0
0
0
0
0
0
0
0
0
0
0
0
0
0
0
0
0
0
0
0
0
0
0
0
0
0
0
0
0
0
0
0
0
0
0
0
0
0
0
0
0
0
0
0
0
0
0
0
0
0
0
0
0
0
0
0
0
0
0
0
0
0
0
0
0
0
0
0
0
0
0
0
0
0
0
0
0
0
0
0
0
0
0
0
0
0
0
0
0
0
0
0
0
0
0
0
0
0
0
0
0
0
0
0
0
0
0
0
0
0
0
0
0
0
0
0
0
0
0
0
0
0
0
0
0
0
0
0
0
0
0
0
0
0
0
0
0
0
0
0
0
0
0
0
0
0
0
0
0
0
0
0
0
0
0
0
0
0
0
0
0
0
0
0
0
0
0
0
0
0
0
0
0
0
0
0
0
0
0
0
0
0
0
0
0
0
0
0
0
0
0
0
0
0
0
0
0
0
0
0
0
0
0
0
0
0
0
0
0
0
0
0
0
0
0
0
0
0
0
0
0
0
0
0
0
0
0
0
0
0
0
0
0
0
0
0
0
0
0
0
0
0
0
0
0
0
0
0
0
0
0
0
0
0
0
0
0
0
0
0
0
0
0
0
0
0
0
0
0
0
0
0
0
0
0
0
0
0
0
0
0
0
0
0
0
0
0
0
0
0
0
0
0
0
0
0
0
0
0
0
0
0
0
0
0
0
0
0
0
0
0
0
0
0
0
0
0
0
0
0
0
0
0
0
0
0
0
0
0
0
0
0
0
0
0
0
0
0
0
0
0
0
0
0
0
0
0
0
0
0
0
0
0
0
0
0
0
0
0
0
0
0
0
0
0
0
0
0
0
0
0
0
0
0
0
0
0
0
0
0
0
0
0
0
0
0
0
0
0
0
0
0
0
0
0
0
0
0
0
0
0
0
0
0
0
0
0
0
0
0
0
0
0
0
0
0
0
0
0
0
0
0
0
0
0
0
0
0
0
0
0
0
0
0
0
0
0
0
0
0
0
0
0
0
0
0
0
0
0
0
0
0
0
0
0
0
0
0
0
0
0
0
0
0
0
0
0
0
0
0
0
0
0
0
0
0
0
0
0
0
0
0
0
0
0
0
0
0
0
0
0
0
0
0
0
0
0
0
0
0
0
0
0
0
0
0
0
0
0
0
0
0
0
0
0
0
0
0
0
0
0
0
0
0
0
0
0
0
0
0
0
0
0
0
0
0
0
0
0
0
0
0
0
0
0
0
0
0
0
0
0
0
0
0
0
0
0
0
0
0
0
0
0
0
0
0
0
0
0
0
0
0
0
0
0
0
0
0
0
0
0
0
0
0
0
0
0
0
0
0
0
0
0
0
0
0
0
0
0
0
0
0
0
0
0
0
0
0
0
0
0
0
0
0
0
0
0
0
0
0
0
0
0
0
0
0
0
0
0
0
0
0
0
0
0
0
0
0
0
0
0
0
0
0
0
0
0
0
0
0
0
0
0
0
0
0
0
0
0
0
0
0
0
0
0
0
0
0
0
0
0
0
0
0
0
0
0
0
0
0
0
0
0
0
0
0
0
0
0
0
0
0
0
0
0
0
0
0
0
0
0
0
0
0
0
0
0
0
0
0
0
0
0
0
0
0
0
0
0
0
0
0
0
0
0
0
0
0
0
0
0
0
0
0
0
0
0
0
0
0
0
0
0
0
0
0
0
0
0
0
0
0
0
0
0
0
0
0
0
0
0
0
0
0
0
0
0
0
0
0
0
0
0
0
0
0
0
0
0
0
0
0
0
0
0
0
0
0
0
0
0
0
0
0
0
0
0
0
0
0
0
0
0
0
0
0
0
0
0
0
0
0
0
0
0
0
0
0
0
0
0
0
0
0
0
0
0
0
0
0
0
0
0
0
0
0
0
0
0
0
0
0
0
0
0
0
0
0
0
0
0
0
0
0
0
0
0
0
0
0
0
0
0
0
0
0
0
0
0
0
0
0
0
0
0
0
0
0
0
0
0
0
0
0
0
0
0
0
0
0
0
0
0
0
0
0
0
0
0
0
0
0
0
0
0
0
0
0
0
0
0
0
0
0
0
0
0
0
0
0
0
0
0
0
0
0
0
0
0
0
0
0
0
0
0
0
0
0
0
0
0
0
0
0
0
0
0
0
0
0
0
0
0
0
0
0
0
0
0
0
0
0
0
0
0
0
0
0
0
0
0
0
0
0
0
0
0
0
0
0
0
0
0
0
0
0
0
0
0
0
0
0
0
0
0
0
0
0
0
0
0
0
0
0
0
0
0
0
0
0
0
0
0
0
0
0
0
0
0
0
0
0
0
0
0
0
0
0
0
0
0
0
0
0
0
0
0
0
0
0
0
0
0
0
0
0
0
0
0
0
0
0
0
0
0
0
0
0
0
0
0
0
0
0
0
0
0
0
0
0
0
0
0
0
0
0
0
0
0
0
0
0
0
0
0
0
0
0
0
0
0
0
0
0
0
0
0
0
0
0
0
0
0
0
0
0
0
0
0
0
0
0
0
0
0
0
0
0
0
0
0
0
0
0
0
0
0
0
0
0
0
0
0
0
0
0
0
0
0
0
0
0
0
0
0
0
0
0
0
0
0
0
0
0
0
0
0
0
0
0
0
0
0
0
0
0
0
0
0
0
0
0
0
0
0
0
0
0
0
0
0
0
0
0
0
0
0
0
0
0
0
0
0
0
0
0
0
0
0
0
0
0
0
0
0
0
0
0
0
0
0
0
0
0
0
0
0
0
0
0
0
0
0
0
0
0
0
0
0
0
0
0
0
0
0
0
0
0
0
0
0
0
0
0
0
0
0
0
0
0
0
0
0
0
0
0
0
0
0
0
0
0
0
0
0
0
0
0
0
0
0
0
0
0
0
0
0
0
0
0
0
0
0
0
0
0
0
0
0
0
0
0
0
0
0
0
0
0
0
0
0
0
0
0
0
0
0
0
0
0
0
0
0
0
0
0
0
0
0
0
0
0
0
0
0
0
0
0
0
0
0
0
0
0
0
0
0
0
0
0
0
0
0
0
0
0
0
0
0
0
0
0
0
0
0
0
0
0
0
0
0
0
0
0
0
0
0
0
0
0
0
0
0
0
0
0
0
0
0
0
0
0
0
0
0
0
0
0
0
0
0
0
0
0
0
0
0
0
0
0
0
0
0
0
0
0
0
0
0
0
0
0
0
0
0
0
0
0
0
0
0
0
0
0
0
0
0
0
0
0
0
0
0
0
0
0
0
0
0
0
0
0
0
0
0
0
0
0
0
0
0
0
0
0
0
0
0
0
0
0
0
0
0
0
0
0
0
0
0
0
0
0
0
0
0
0
0
0
0
0
0
0
0
0
0
0
0
0
0
0
0
0
0
0
0
0
0
0
0
0
0
0
0
0
0
0
0
0
0
0
0
0
0
0
0
0
0
0
0
0
0
0
0
0
0
0
0
0
0
0
0
0
0
0
0
0
0
0
0
0
0
0
0
0
0
0
0
0
0
0
0
0
0
0
0
0
0
0
0
0
0
0
0
0
0
0
0
0
0
0
0
0
0
0
0
0
0
0
0
0
0
0
0
0
0
0
0
0
0
0
0
0
0
0
0
0
0
0
0
0
0
0
0
0
0
0
0
0
0
5.84440947e-298
0
1.0519593e-294
0
1.808442e-291
0
2.97682465e-288
0
4.7023521e-285
0
7.14256381e-282
0
1.04506481e-278
0
1.47528953e-275
0
2.01225635e-272
0
2.65539636e-269
0
3.39415452e-266
0
4.20688476e-263
0
5.06111821e-260
0
5.91538938e-257
0
6.7225365e-254
0
7.43411239e-251
0
8.0053141e-248
0
8.39971672e-245
0
8.59310933e-242
0
8.57587675e-239
0
8.35361782e-236
0
7.94598511e-233
0
7.38401027e-230
0
6.70639089e-227
8.10775001e-229
5.95532443e-224
2.0003624e-225
5.17247273e-221
2.79491584e-222
4.39554301e-218
3.2315765e-219
3.65580934e-215
3.36813861e-216
2.97671221e-212
3.27286522e-213
2.37349956e-209
3.01542765e-210
1.85373967e-206
2.65988753e-207
1.4184563e-203
2.26011348e-204
1.063613e-200
1.85757019e-201
7.81695217e-198
1.48109622e-198
5.63191753e-195
1.14811699e-195
3.97843705e-192
8.66705351e-193
2.75595533e-189
6.3796965e-190
1.87238615e-186
4.58372845e-187
1.24777563e-183
3.21729191e-184
8.15725526e-181
2.20755927e-181
5.23192164e-178
1.48160179e-178
3.29250047e-175
9.73092705e-176
2.03315492e-172
6.25682445e-173
1.2320336e-169
3.9398245e-170
7.32663346e-167
2.43022275e-167
4.27595958e-164
1.46880821e-164
2.44918933e-161
8.70002254e-162
1.3768235e-158
5.05107066e-159
7.59633173e-156
2.87483189e-156
4.11336268e-153
1.60418163e-153
2.18600063e-150
8.77691399e-151
1.14012267e-147
4.70871453e-148
5.83557606e-145
2.47714036e-145
2.93105876e-142
1.27788914e-142
1.44459672e-139
6.46439832e-140
6.98582164e-137
3.20660343e-137
3.31435698e-134
1.55964769e-134
1.54258358e-131
7.43782541e-132
7.04233832e-129
3.47752372e-129
3.15318319e-126
1.59388753e-126
1.38447492e-123
7.16077233e-124
5.96015882e-121
3.15297246e-121
2.51532604e-118
1.36042412e-118
1.04043425e-115
5.75108912e-116
4.21727652e-113
2.38159103e-113
1.67475945e-110
9.65910557e-111
6.51439086e-108
3.83585304e-108
2.48133909e-105
1.49120041e-105
9.25274494e-103
5.67339955e-103
3.3767527e-100
2.11182754e-100
1.20568624e-97
7.68856471e-98
4.21043942e-95
2.73688691e-95
1.43753697e-92
9.52213812e-93
4.79664311e-90
3.23673338e-90
1.56349976e-87
1.07445833e-87
4.97624083e-85
3.48163605e-85
1.54573112e-82
1.10071191e-82
4.68343719e-80
3.39335205e-80
1.38339027e-77
1.01952813e-77
3.98111985e-75
2.98342107e-75
1.11546469e-72
8.49733893e-73
3.04075926e-70
2.35390096e-70
8.05829313e-68
6.33705356e-68
2.07428676e-65
1.65656316e-65
5.1815125e-63
4.20092162e-63
1.25477893e-60
1.03241624e-60
2.94252929e-58
2.45615135e-58
6.67407622e-56
5.64956787e-56
1.4621768e-53
1.25473516e-53
3.08964724e-51
2.68671956e-51
6.28654e-49
5.53749926e-49
1.22948362e-46
1.09656424e-46
2.30655988e-44
2.0820873e-44
4.14145248e-42
3.78194557e-42
7.09862968e-40
6.5548411e-40
1.15815486e-37
1.08085202e-37
1.79259802e-35
1.68993731e-35
2.62213427e-33
2.49571454e-33
3.60861021e-31
3.46563862e-31
4.64784827e-29
4.50126669e-29
5.56759318e-27
5.43386313e-27
6.15595719e-25
6.05050962e-25
6.22430451e-23
6.1560953e-23
5.68823057e-21
5.65598165e-21
4.62831154e-19
4.60482077e-19
3.28673339e-17
3.28854817e-17
1.98110914e-15
1.97977327e-15
9.7331176e-14
9.68267145e-14
3.65150318e-12
3.67107915e-12
2.19813697e-09
2.27594197e-09
0.752958195
2.22913511
10.213278
9.74145988
3.13872945
2.5351663
0.330203726
0.291844856
0.0502923495
0.0470315797
0.00665319744
0.00652840775
0.000808194357
0.000806071447
9.50279531e-05
9.5588214e-05
1.67061513e-05
1.67301956e-05
8.78514913e-06
8.78466472e-06
8.04955172e-06
8.04962765e-06
7.9866549e-06
7.98666917e-06
7.9816459e-06
7.98165018e-06
7.98127253e-06
7.98127941e-06
7.98122786e-06
7.98125526e-06
7.98123189e-06
7.98125103e-06
7.98122874e-06
7.98126116e-06
7.98122534e-06
7.98124197e-06
7.98123995e-06
7.98122696e-06
7.98124337e-06
7.98123577e-06
7.98124308e-06
7.98122995e-06
7.98125061e-06
7.98123509e-06
7.98124576e-06
7.98123633e-06
7.98124949e-06
7.98124153e-06
7.98124488e-06
7.98123157e-06
7.98124254e-06
7.98123121e-06
7.9812526e-06
7.98122747e-06
7.98124459e-06
7.98124346e-06
7.98123962e-06
7.9812461e-06
7.98123582e-06
7.98123964e-06
7.98123379e-06
7.98124258e-06
7.98123803e-06
7.98124051e-06
7.98124608e-06
7.98123097e-06
7.98124612e-06
7.98123589e-06
7.98123713e-06
7.98122936e-06
7.981238e-06
7.98123136e-06
7.9812325e-06
7.98123936e-06
7.98122726e-06
7.98125354e-06
7.9812291e-06
7.98125378e-06
7.98124095e-06
7.98124416e-06
7.98123866e-06
7.9812481e-06
7.98123462e-06
7.98125082e-06
7.98123419e-06
7.98124744e-06
7.98124013e-06
7.98123381e-06
7.98124375e-06
7.98122779e-06
7.98124969e-06
7.98124179e-06
7.98124445e-06
7.98124173e-06
7.98125165e-06
7.98124342e-06
7.98123496e-06
7.98123955e-06
7.98124825e-06
7.98124231e-06
7.98124975e-06
7.9812396e-06
7.98124764e-06
7.98125288e-06
7.98123788e-06
7.98123965e-06
7.9812437e-06
7.9812484e-06
7.9812399e-06
7.98124357e-06
7.98124267e-06
7.98122869e-06
7.98124058e-06
7.98124043e-06
7.98124051e-06
7.98124254e-06
7.98124411e-06
7.98124227e-06
7.98124113e-06
7.9812459e-06
7.98123892e-06
7.98124305e-06
7.98123873e-06
7.98125667e-06
7.98123361e-06
7.98124462e-06
7.98123706e-06
7.98125237e-06
7.98123787e-06
7.98125141e-06
7.98123638e-06
7.98124401e-06
7.98125262e-06
7.98125516e-06
7.98125462e-06
7.98124451e-06
7.98125801e-06
7.98123872e-06
7.98124999e-06
7.98123308e-06
7.98124859e-06
7.98123666e-06
7.98123706e-06
7.98123929e-06
7.98124496e-06
7.98124269e-06
7.98124042e-06
7.98124029e-06
7.98124658e-06
7.98124243e-06
7.98125235e-06
7.98122584e-06
7.98125799e-06
7.98124011e-06
7.98124629e-06
7.98124918e-06
7.98124776e-06
7.98123884e-06
7.98125104e-06
7.9812525e-06
7.98125493e-06
7.98123848e-06
7.98125534e-06
7.98124077e-06
7.98125697e-06
7.98124741e-06
7.98124727e-06
7.98124921e-06
7.98124555e-06
7.98123785e-06
7.9812556e-06
7.98123537e-06
7.98124457e-06
7.98123771e-06
7.98125215e-06
7.98124297e-06
7.9812504e-06
7.98125253e-06
7.98124245e-06
7.98126199e-06
7.98125336e-06
7.98125953e-06
7.98125815e-06
7.98125329e-06
7.98125253e-06
7.9812503e-06
7.98124724e-06
7.98124616e-06
7.98124773e-06
7.98125121e-06
7.9812509e-06
7.9812423e-06
7.98125525e-06
7.98125171e-06
7.98125897e-06
7.98124778e-06
7.9812536e-06
7.98124498e-06
7.98125578e-06
7.98123948e-06
7.98125876e-06
7.98124372e-06
7.98125368e-06
7.98124162e-06
7.98125303e-06
7.98124633e-06
7.98124816e-06
7.981253e-06
7.98125774e-06
7.981252e-06
7.98125659e-06
7.98124593e-06
7.98126167e-06
7.9812528e-06
7.98124416e-06
7.98125638e-06
7.98124733e-06
7.98125285e-06
7.98124926e-06
7.98125473e-06
7.98124805e-06
7.9812622e-06
7.98123779e-06
7.98125333e-06
7.98124992e-06
7.98124286e-06
7.98125304e-06
7.9812545e-06
7.98125419e-06
7.98125952e-06
7.98125518e-06
7.98125387e-06
7.98125664e-06
7.98126428e-06
7.98125006e-06
7.98125136e-06
7.98125571e-06
7.98126089e-06
7.98125713e-06
7.9812636e-06
7.98125399e-06
7.9812644e-06
7.98125512e-06
7.98125302e-06
7.98125048e-06
7.98126866e-06
7.98124935e-06
7.98125769e-06
7.98124423e-06
7.9812547e-06
7.98125096e-06
7.98125839e-06
7.98125323e-06
7.98125401e-06
7.98124831e-06
7.98125826e-06
7.98125278e-06
7.98126188e-06
7.98125679e-06
7.98124933e-06
7.9812631e-06
7.9812575e-06
7.98126054e-06
7.98125471e-06
7.98126719e-06
7.98124932e-06
7.98125844e-06
7.98124949e-06
7.98125818e-06
7.98124599e-06
7.98126327e-06
7.98124812e-06
7.98125119e-06
7.98126559e-06
7.98124887e-06
7.98126797e-06
7.98125153e-06
7.98125812e-06
7.98125807e-06
7.98125112e-06
7.9812639e-06
7.9812509e-06
7.98125998e-06
7.98125752e-06
7.98125839e-06
7.98124628e-06
7.98125694e-06
7.98124755e-06
7.98125504e-06
7.98125853e-06
7.98125147e-06
7.98125454e-06
7.98125646e-06
7.98125624e-06
7.98125759e-06
7.98125001e-06
7.98125176e-06
7.98126203e-06
7.98126296e-06
7.98126019e-06
7.9812568e-06
7.98125833e-06
7.98125605e-06
7.98126111e-06
7.98125245e-06
7.98126414e-06
7.98126274e-06
7.98125641e-06
7.98126385e-06
7.98126043e-06
7.98126635e-06
7.98125759e-06
7.9812613e-06
7.98125998e-06
7.98125317e-06
7.98126303e-06
7.98126995e-06
7.98124514e-06
7.98127707e-06
7.98125175e-06
7.98127071e-06
7.98125344e-06
7.98126445e-06
7.98126018e-06
7.98125443e-06
7.98125905e-06
7.98126446e-06
7.98125986e-06
7.98125876e-06
7.9812663e-06
7.98125847e-06
7.98126519e-06
7.98125319e-06
7.98125887e-06
7.98125646e-06
7.98125498e-06
7.98127024e-06
7.98125935e-06
7.98125214e-06
7.98126665e-06
7.98125477e-06
7.98126344e-06
7.98126117e-06
7.98126183e-06
7.98125941e-06
7.98127008e-06
7.98125783e-06
7.98126041e-06
7.98126519e-06
7.98125627e-06
7.98126672e-06
7.98126955e-06
7.98125811e-06
7.9812557e-06
7.98127241e-06
7.98125061e-06
7.98126996e-06
7.98126331e-06
7.98125916e-06
7.98126431e-06
7.9812647e-06
7.98125769e-06
7.98127144e-06
7.9812567e-06
7.98125909e-06
7.98126984e-06
7.98126075e-06
7.9812734e-06
7.98126497e-06
7.9812785e-06
7.9812683e-06
7.98127056e-06
7.98126306e-06
7.981275e-06
7.98125688e-06
7.98127054e-06
7.98126004e-06
7.98126466e-06
7.98126676e-06
7.98125973e-06
7.98127043e-06
7.98126641e-06
7.98127359e-06
7.98126313e-06
7.98126473e-06
7.98125085e-06
7.98126661e-06
7.9812655e-06
7.98125926e-06
7.98127042e-06
7.98126359e-06
7.9812676e-06
7.98126375e-06
7.98126743e-06
7.98126864e-06
7.98127068e-06
7.98127438e-06
7.98127275e-06
7.98126488e-06
7.98126703e-06
7.9812659e-06
7.98127489e-06
7.98125679e-06
7.98128301e-06
7.9812597e-06
7.98127449e-06
7.9812604e-06
7.98128334e-06
7.98126744e-06
7.98127468e-06
7.98127014e-06
7.98127396e-06
7.98127114e-06
7.9812675e-06
7.98127166e-06
7.98127116e-06
7.98126952e-06
7.98126778e-06
7.98127217e-06
7.98126769e-06
7.98126991e-06
7.98127753e-06
7.98126375e-06
7.98127695e-06
7.98127135e-06
7.98126934e-06
7.98127869e-06
7.98127241e-06
7.98126738e-06
7.98128065e-06
7.98127098e-06
7.98127289e-06
7.98127465e-06
7.98127985e-06
7.98128407e-06
7.98127501e-06
7.98127512e-06
7.98128578e-06
7.98127515e-06
7.98128097e-06
7.98126916e-06
7.98127818e-06
7.98127127e-06
7.98127721e-06
7.98128429e-06
7.98126809e-06
7.98127703e-06
7.98128731e-06
7.98127666e-06
7.98127348e-06
7.98127272e-06
7.98127742e-06
7.98127608e-06
7.98127298e-06
7.98127868e-06
7.98128235e-06
7.98127112e-06
7.9812736e-06
7.98127249e-06
7.9812747e-06
7.98127353e-06
7.98128331e-06
7.98127083e-06
7.98127985e-06
7.98127407e-06
7.98128889e-06
7.98127961e-06
7.98127575e-06
7.98127902e-06
7.98127906e-06
7.9812864e-06
7.98127239e-06
7.98127323e-06
7.98128947e-06
7.98125729e-06
7.9812953e-06
7.9812641e-06
7.98128243e-06
7.98127483e-06
7.98127818e-06
7.98126974e-06
7.98128247e-06
7.98127204e-06
7.9812783e-06
7.98127751e-06
7.98127406e-06
7.9812829e-06
7.98127365e-06
7.98128462e-06
7.98127339e-06
7.98128388e-06
7.98128495e-06
7.98127894e-06
7.98127869e-06
7.98129708e-06
7.98126654e-06
7.98128638e-06
7.98127112e-06
7.98129144e-06
7.98126425e-06
7.98129195e-06
7.98127003e-06
7.98129361e-06
7.98127646e-06
7.98128257e-06
7.98128313e-06
7.98128013e-06
7.98128519e-06
7.9812831e-06
7.98128122e-06
7.98128312e-06
7.98128256e-06
7.98128577e-06
7.98128608e-06
7.98128648e-06
7.98128624e-06
7.98128253e-06
7.98128547e-06
7.98128432e-06
7.98128365e-06
7.98128659e-06
7.98128687e-06
7.9812867e-06
7.98128691e-06
7.98128669e-06
7.98128659e-06
7.98128802e-06
7.98128817e-06
7.98128821e-06
7.98128886e-06
7.98128871e-06
7.98128959e-06
7.98129008e-06
7.9812896e-06
7.98129052e-06
7.98129064e-06
7.98129017e-06
7.98129043e-06
7.98129087e-06
7.98129116e-06
7.98129098e-06
7.98129092e-06
7.98129127e-06
7.98129101e-06
7.98129108e-06
7.98129116e-06
7.98129117e-06
7.98129082e-06
7.98129124e-06
7.98129097e-06
7.98129106e-06
7.98129105e-06
7.98129112e-06
7.98129113e-06
7.98129126e-06
7.98129113e-06
7.98129113e-06
7.98129095e-06
7.9812909e-06
7.98129117e-06
7.98129099e-06
7.9812911e-06
7.98129113e-06
7.98129101e-06
7.9812912e-06
7.98129112e-06
7.98129112e-06
7.98129124e-06
7.98129105e-06
7.98129121e-06
7.98129099e-06
7.98129121e-06
7.98129117e-06
7.98129102e-06
7.98129117e-06
7.98129098e-06
7.98129097e-06
7.98129131e-06
)
;

boundaryField
{
    closed
    {
        type            calculated;
        value           uniform 0;
    }
    open
    {
        type            calculated;
        value           uniform 0;
    }
    sides
    {
        type            empty;
    }
}


// ************************************************************************* //
