/*--------------------------------*- C++ -*----------------------------------*\
| =========                 |                                                 |
| \\      /  F ield         | OpenFOAM: The Open Source CFD Toolbox           |
|  \\    /   O peration     | Version:  2206                                  |
|   \\  /    A nd           | Website:  www.openfoam.com                      |
|    \\/     M anipulation  |                                                 |
\*---------------------------------------------------------------------------*/
FoamFile
{
    version     2.0;
    format      ascii;
    arch        "LSB;label=32;scalar=64";
    class       surfaceScalarField;
    location    "2.8e-06";
    object      phi;
}
// * * * * * * * * * * * * * * * * * * * * * * * * * * * * * * * * * * * * * //

dimensions      [1 0 -1 0 0 0 0];

oriented        oriented;

internalField   nonuniform List<scalar> 
3182
(
7.4440185e-19
-6.49611259e-19
1.89315342e-19
-3.92826606e-19
-3.81667725e-23
-1.1883074e-24
-8.64762446e-26
-1.07568726e-30
1.59435557e-29
6.20319805e-25
8.49097253e-24
5.58200131e-22
1.51440451e-18
-5.95595264e-19
-1.11014853e-18
-1.56954544e-23
1.16216608e-18
-1.24632728e-18
-2.24420573e-18
2.83231827e-18
1.24332154e-21
3.22566163e-23
3.69051915e-24
1.51553214e-23
1.60657242e-22
9.23390647e-19
2.74591454e-18
-1.99502359e-18
-1.35502123e-18
-5.99108768e-19
-1.34783529e-18
1.51330515e-18
-1.08270032e-19
-9.72359814e-19
3.24858504e-19
4.85475265e-19
-4.87679272e-19
-4.85680771e-19
4.86880704e-19
-2.19397645e-19
-1.73597586e-18
-1.18590909e-18
4.31736759e-19
1.30155534e-18
6.53331871e-19
1.7306134e-18
6.50444301e-19
4.32355175e-19
-8.66216486e-19
-5.42519764e-19
-1.1081089e-19
-1.72657942e-18
-2.14969449e-19
4.30388957e-19
4.32203783e-19
-2.14954707e-19
-2.15240826e-19
-2.19343982e-19
-2.16917026e-19
-4.33047665e-19
-1.08065431e-18
-8.69520289e-19
-2.21785561e-19
-1.81836108e-22
-6.38115745e-19
2.21392742e-19
8.69562336e-19
1.72871923e-18
1.74655769e-18
2.15661389e-18
2.60347869e-18
1.75878657e-18
2.17512551e-18
3.04121452e-18
3.92379405e-18
3.50106307e-18
3.91406429e-18
5.24389609e-18
6.11837208e-18
5.26869812e-18
5.67470862e-18
5.17555271e-18
5.14995124e-18
3.45449406e-18
5.07891432e-18
4.26057758e-18
4.36068774e-18
4.28707666e-18
4.26148887e-18
5.11138992e-18
1.70427174e-18
2.74295125e-18
-5.9123964e-19
8.55052046e-19
-1.90090204e-18
-5.0017694e-18
-3.18400485e-18
-3.32198236e-18
-3.64308885e-18
-2.25707181e-18
-4.04772076e-18
-2.2145623e-18
9.08923035e-19
3.26740269e-19
-2.24635194e-18
-3.06633659e-18
-5.25984334e-18
-3.05487432e-18
-4.74408216e-18
-1.77173452e-18
-4.32693051e-18
-3.85872661e-18
-1.46875636e-18
-3.55053211e-18
-2.52038449e-19
-3.2108992e-18
-1.29575732e-18
-1.92688638e-18
-3.83679409e-18
-3.48506055e-19
2.07313787e-19
1.42787748e-19
-4.12084519e-18
-1.56579836e-18
-3.68999351e-18
-2.12625887e-18
-3.76543202e-18
-5.1983349e-18
-5.00855116e-18
-7.57709556e-18
-4.63695191e-18
-5.9370924e-18
-4.21489854e-18
-4.38896235e-18
-5.01483099e-18
-2.63701516e-18
-1.29834849e-18
-1.44486843e-18
9.6555334e-19
1.04228253e-18
2.40223731e-18
3.50928018e-18
3.78858076e-18
2.15257785e-18
2.87814843e-18
2.06975845e-18
2.96087035e-18
5.25116535e-19
-2.24026682e-19
1.41866628e-18
-1.56835355e-18
1.26676744e-19
3.35597221e-18
5.86427073e-18
3.99588975e-18
2.22797052e-18
6.54061606e-18
6.22356424e-18
7.39383916e-18
7.93226283e-18
6.31176588e-18
7.90234618e-18
9.99571262e-18
6.69324189e-18
1.0115805e-17
8.45006985e-18
8.73814806e-18
1.06145203e-17
1.03449202e-17
1.14044135e-17
1.06293113e-17
8.5803339e-18
9.42023933e-18
5.61329426e-18
8.76447493e-18
7.98233433e-18
4.96824451e-18
4.57124971e-18
5.69311248e-18
7.32647104e-18
5.3390944e-18
3.99935063e-18
1.31295089e-18
5.33579295e-18
5.79542605e-18
6.5967611e-18
6.34357351e-18
7.99091491e-18
5.15397169e-18
5.23280945e-18
4.85646886e-18
3.51672647e-18
3.96862318e-18
4.08616111e-18
4.71601267e-18
3.69238882e-18
3.19256476e-18
6.69889263e-18
8.62418607e-18
9.35471969e-18
6.50539511e-18
8.06415529e-18
3.88572344e-18
3.98597694e-18
3.38682798e-18
8.52587249e-21
-7.90448671e-19
2.60841353e-18
1.5181887e-18
3.02512185e-18
9.71580958e-19
5.67102195e-18
1.5609091e-18
-7.18033606e-19
-3.93943135e-19
5.38638244e-19
-1.95074282e-18
-1.04149344e-18
2.50329737e-19
3.47965922e-18
3.50736804e-18
3.51802008e-18
3.61373003e-18
2.99068143e-18
2.50343035e-18
1.63210227e-18
-1.44231548e-18
-2.72699537e-18
4.96754375e-19
4.03912351e-18
1.230361e-18
2.66689521e-18
2.38037025e-18
3.44865852e-18
3.76959006e-18
-1.06214543e-18
6.00309394e-19
-4.27388609e-18
-2.04215967e-18
-9.42015795e-19
-1.54467319e-18
-1.33591198e-18
-1.58023968e-18
-4.92300964e-19
-2.54641117e-18
-3.63289277e-18
-4.48179537e-18
-2.84520957e-18
-2.36362102e-18
-2.45945834e-18
-4.18781461e-18
-3.87726651e-18
-3.24137187e-18
-7.48509925e-18
-9.19886893e-18
-4.47770424e-18
-7.61097874e-18
-9.92346711e-18
-9.30912655e-18
-9.69022305e-18
-1.04138247e-17
-1.13784732e-17
-8.9323944e-18
-8.13031762e-18
-9.001196e-18
-8.42197625e-18
-8.42439119e-18
-7.18667479e-18
-9.75853834e-18
-1.06244047e-17
-1.18566681e-17
-1.23492961e-17
-1.24751358e-17
-1.15116275e-17
-1.26750749e-17
-1.14217332e-17
-1.04049327e-17
-1.05066515e-17
-1.23291299e-17
-1.21223795e-17
-1.12460268e-17
-1.02170849e-17
-1.32057619e-17
-1.42587035e-17
-1.21484312e-17
-1.51118705e-17
-1.59175325e-17
-1.57560704e-17
-1.93052183e-17
-1.93185826e-17
-1.70800605e-17
-2.15714244e-17
-2.01385041e-17
-2.41976995e-17
-2.39157175e-17
-2.61913765e-17
-2.53927749e-17
-2.44264257e-17
-2.1077233e-17
-2.19481334e-17
-2.21115269e-17
-2.10374619e-17
-2.15168605e-17
-2.00827654e-17
-1.8527882e-17
-1.97215047e-17
-2.28252154e-17
-2.76453535e-17
-2.66544344e-17
-2.5468087e-17
-2.37799178e-17
-2.19999611e-17
-2.49979644e-17
-2.33155481e-17
-2.76239187e-17
-2.81633467e-17
-2.50900522e-17
-2.36352994e-17
-2.22285426e-17
-2.58506888e-17
-2.38865562e-17
-2.25125195e-17
-2.5774838e-17
-2.29970921e-17
-2.69134036e-17
-2.29907586e-17
-2.35586549e-17
-2.33023753e-17
-2.3026338e-17
-2.35346165e-17
-2.49367076e-17
-2.50044865e-17
-2.57117878e-17
-2.72478977e-17
-2.41937036e-17
-2.42765021e-17
-2.2715948e-17
-2.23699238e-17
-2.41674527e-17
-2.17231479e-17
-2.12488465e-17
-2.34207173e-17
-2.30184406e-17
-2.06134124e-17
-2.24235256e-17
-2.55125531e-17
-2.34871216e-17
-2.36773361e-17
-2.60843818e-17
-2.49670074e-17
-2.27001894e-17
-2.47283609e-17
-2.48256286e-17
-2.21889649e-17
-2.11485161e-17
-2.49786555e-17
-2.35122338e-17
-2.38731374e-17
-2.5695027e-17
-2.12012659e-17
-2.07039151e-17
-2.33099006e-17
-2.4518049e-17
-2.6644967e-17
-2.19632885e-17
-2.37533715e-17
-2.15480722e-17
-1.88851409e-17
-1.5869056e-17
-1.62420033e-17
-1.72220677e-17
-1.84775413e-17
-1.87365238e-17
-1.60340931e-17
-1.96192834e-17
-1.6528623e-17
-1.79393861e-17
-1.8878471e-17
-1.59359786e-17
-1.65977955e-17
-1.54787637e-17
-1.53761428e-17
-1.32493382e-17
-1.16832353e-17
-1.29809069e-17
-1.02560785e-17
-1.12427894e-17
-1.29588818e-17
-1.69511761e-17
-1.47627704e-17
-1.45186888e-17
-1.39702026e-17
-8.20786725e-18
-1.12306037e-17
-1.07918732e-17
-7.04608014e-18
-8.62285834e-18
-4.73858096e-18
-9.40383437e-18
-9.32809485e-18
-4.54322167e-18
-6.93003754e-18
-8.84794315e-18
-5.05220551e-18
-7.14703772e-18
-7.5224456e-18
-4.34938781e-18
-4.50392438e-18
-2.1288422e-18
-1.95740995e-18
-6.53551656e-20
1.40237294e-18
4.64388397e-18
4.91835673e-18
2.17559071e-18
2.05869998e-18
1.92784791e-18
-1.29239208e-18
-4.88804685e-19
1.07379105e-18
-2.8321855e-18
3.13035758e-18
3.18840982e-18
3.80569081e-18
2.01998757e-18
2.46426883e-18
2.35951262e-19
-7.36643796e-19
9.66215226e-19
7.90490359e-19
1.92075593e-18
-2.09569122e-18
-1.72709714e-18
2.02411225e-18
-1.00759676e-18
5.28773596e-20
6.16900902e-19
-3.75406153e-18
-3.85275817e-18
-2.8941223e-18
-1.31310549e-18
-1.96640259e-19
-4.33762612e-18
-4.70843498e-18
-6.0218063e-18
-4.62740623e-18
-2.29059115e-18
-1.95978429e-18
1.78855198e-19
-2.28798054e-18
1.90647675e-18
2.5915322e-18
5.07723096e-19
3.19883067e-18
2.18416573e-18
2.32913072e-18
1.76511645e-18
1.84156433e-18
9.77617379e-19
-1.53038922e-18
-1.19885047e-18
2.67366473e-18
2.52838468e-18
4.84228982e-18
5.98365443e-18
3.73759044e-18
6.21828073e-18
6.49990514e-18
3.63601743e-18
7.20301287e-19
1.38174299e-18
2.25169674e-18
-7.51952617e-20
-1.02225004e-18
1.69090953e-18
4.47351439e-18
2.9391328e-18
9.83086776e-19
-5.19351555e-19
-1.97056725e-18
2.18944814e-18
-5.57841144e-19
-5.08396484e-19
-1.22045099e-18
4.27560848e-19
4.10903346e-18
1.08957158e-18
-1.62795581e-18
-2.8233952e-19
7.87941539e-20
-2.53659976e-18
-2.65189501e-18
-2.68406502e-18
-3.52046243e-18
-7.38456657e-18
-5.20129729e-18
-5.86537644e-18
-3.92169121e-18
-2.12460809e-18
1.02999508e-18
-6.27001555e-19
-1.13051012e-18
-3.0737892e-19
-5.79842597e-19
-7.52454122e-19
-7.39832042e-19
-9.76984331e-19
7.25653145e-19
-2.46765959e-18
-1.70467807e-18
7.55902442e-19
-3.23890724e-18
-2.53304483e-18
-4.53995963e-18
-5.8290026e-18
-6.75287214e-18
-6.54989936e-18
-8.6382555e-18
-6.69736709e-18
-6.82535156e-18
-4.77328464e-18
-4.69635374e-18
-4.66835036e-18
-7.57149035e-18
-7.46542162e-18
-5.06900988e-18
-5.11796028e-18
-4.59424509e-18
-2.58350922e-18
-5.29409651e-18
-6.46172033e-18
-5.17902568e-18
-3.56572293e-18
-4.04605438e-18
-1.52044245e-18
-3.38744399e-18
-4.02216551e-18
-5.25049867e-18
-3.93890327e-18
-1.55418584e-18
-1.20419782e-18
1.53980809e-18
-1.16505068e-18
4.5729246e-19
-1.50339497e-18
-2.34218383e-18
-2.46231105e-18
-4.04343488e-18
-5.16325242e-18
-5.06356303e-18
-3.62310714e-19
7.10593226e-19
5.86717971e-19
-1.83203846e-18
-2.02213631e-18
8.0885815e-19
2.52455153e-18
-5.23372798e-19
-2.66254624e-18
-3.27124692e-18
-4.82469557e-18
-1.23704446e-18
-5.01850837e-19
-3.24261962e-19
3.26588082e-18
1.93129358e-18
4.25886349e-18
1.90579113e-18
6.51275173e-18
5.91570029e-18
9.83352292e-18
1.00868937e-17
1.19705641e-17
1.19357821e-17
1.27329376e-17
9.40765837e-18
7.54127533e-18
8.06507171e-18
7.51875114e-18
6.6577162e-18
7.73765977e-18
1.00726823e-17
7.27017822e-18
8.75874365e-18
9.80251334e-18
1.26539507e-17
1.09039547e-17
1.16272856e-17
9.84347043e-18
1.09073872e-17
1.17798225e-17
1.40762339e-17
1.06665899e-17
8.79664553e-18
9.23211856e-18
9.24287162e-18
8.76500302e-18
8.24388892e-18
1.03228641e-17
1.17752013e-17
6.11677776e-18
8.14775627e-18
7.50402124e-18
6.9970626e-18
7.31003133e-18
8.51923815e-18
9.24867272e-18
1.13388655e-17
6.91967838e-18
3.01157175e-18
2.24181719e-18
-4.1067197e-19
1.33198697e-18
1.96093781e-18
2.96125195e-18
5.098325e-18
2.08617623e-18
4.91039013e-18
6.41260051e-18
6.88815343e-18
8.54240612e-18
7.92787352e-18
8.84392741e-18
6.79884606e-18
5.7877691e-18
8.18472292e-18
3.94486358e-18
2.07643927e-18
1.38816411e-18
2.80765812e-18
5.60057659e-18
6.66689776e-18
9.7679361e-18
8.4988449e-18
9.31427043e-18
5.61706659e-18
2.96854546e-18
3.62939261e-18
2.64553131e-18
4.98606054e-18
3.41346875e-18
8.58430484e-19
-6.69509172e-19
1.75356099e-18
2.62663696e-18
-1.06273369e-18
3.25002013e-19
-3.08550336e-18
-1.30400414e-19
2.00214582e-19
6.66584943e-19
2.78860492e-18
2.3014115e-18
2.36514017e-18
1.21424326e-18
2.27526051e-19
1.51622716e-19
1.73743137e-18
-3.22921844e-18
-1.26533642e-18
7.73296137e-19
-2.78565228e-18
-3.93691231e-18
-6.0865639e-18
-6.72618434e-18
-1.50163229e-18
-2.00818196e-18
-5.27953254e-19
-3.62026318e-18
-2.99537004e-18
-4.02021504e-18
-6.29097725e-18
-6.67441588e-18
-6.50991962e-18
-7.93109456e-18
-4.96123135e-18
-5.26826278e-18
-5.31931535e-18
-6.1871042e-18
-4.1946948e-18
-4.10398e-18
-2.19220156e-18
-2.27924844e-18
-2.57778818e-18
-2.53609144e-19
-3.02397927e-18
-2.03704437e-18
-1.85234206e-18
1.42364549e-18
2.76882937e-18
4.84939825e-18
7.29408924e-18
7.93383781e-18
7.16283521e-18
9.04047796e-18
8.20722227e-18
9.48072904e-18
1.46884314e-17
1.28750356e-17
1.34607216e-17
1.34891731e-17
1.60726314e-17
1.64498088e-17
1.79903521e-17
1.74363743e-17
1.42386196e-17
1.59165836e-17
1.45259322e-17
1.46525936e-17
1.34406634e-17
1.62640688e-17
1.86307771e-17
2.0809742e-17
2.00719308e-17
1.71748412e-17
1.81609718e-17
1.65068764e-17
1.55932766e-17
1.70566915e-17
1.81083505e-17
1.74452916e-17
1.6275316e-17
1.73895401e-17
1.71784131e-17
1.43035931e-17
1.04514861e-17
1.21398327e-17
1.35323992e-17
1.28204147e-17
1.73629217e-17
1.74285456e-17
1.71834826e-17
1.68215617e-17
1.70342422e-17
1.60133596e-17
1.06074588e-17
1.70464583e-17
1.20678341e-17
1.16502575e-17
1.46341577e-17
1.35693205e-17
1.3516646e-17
1.31852513e-17
1.43406746e-17
1.43522024e-17
1.48157382e-17
1.49101966e-17
1.65858294e-17
1.36939308e-17
1.14426562e-17
9.63211549e-18
1.0182831e-17
7.73908436e-18
9.00889642e-18
1.03982902e-17
1.18604613e-17
9.86991319e-18
8.17926706e-18
8.17311083e-18
8.31914821e-18
1.02380672e-17
9.46178485e-18
9.56648319e-18
6.36943249e-18
9.01825641e-18
6.77754111e-18
3.07111224e-18
3.96864068e-18
5.36879167e-18
1.62469104e-18
1.11321649e-18
2.98538207e-18
-2.33391337e-19
-1.9353832e-18
1.62583499e-18
-1.04787537e-18
-3.63221615e-18
-4.49821303e-18
-6.42131599e-18
-6.21909851e-18
-5.49136435e-18
-6.08184515e-18
-4.92352731e-18
-6.57374431e-18
-6.76244953e-18
-1.7409121e-18
-4.73888155e-18
-1.93857698e-18
-4.34664381e-18
-5.52024521e-18
-7.51292618e-18
-4.38289172e-18
-4.04453599e-18
-3.85610768e-18
-4.98126402e-18
-3.67742033e-18
-4.19930099e-18
-7.33580704e-18
-7.88313557e-18
-7.87380789e-18
-4.07514303e-18
-5.53675673e-18
-7.07153588e-18
-6.67948377e-18
-9.1375898e-18
-7.38850119e-18
-4.40479628e-18
-4.07021803e-18
-3.90674551e-18
-8.96904161e-18
-9.7840499e-18
-5.79871217e-18
-6.68519207e-18
-7.68898443e-18
-4.2951722e-18
-4.80423857e-18
-2.17884371e-18
-2.84882718e-18
-2.01094555e-18
-2.00863015e-18
-2.4654826e-18
-5.66846131e-19
-2.54496937e-18
-2.48557996e-18
-1.08885998e-18
-1.08895793e-18
-1.06521449e-19
-9.91725921e-19
-3.27554825e-19
-8.52113809e-19
-8.57103695e-19
1.84110268e-18
1.49676018e-18
1.53634238e-18
1.16955397e-18
5.96794705e-19
5.04866469e-19
-8.15166738e-19
2.91771832e-18
4.28377835e-18
1.99238906e-18
5.48080245e-18
2.83239881e-18
4.45913403e-18
2.51416832e-18
2.52105001e-18
1.56495528e-18
1.49069648e-18
4.1383167e-18
1.59367808e-18
4.20525781e-18
4.32646786e-18
1.03441635e-18
1.76174391e-18
-1.89450296e-19
5.20710624e-19
9.28401206e-19
-9.92475088e-19
-1.91091683e-18
-2.79170321e-18
-3.52081353e-18
-2.85198808e-18
-2.04622549e-18
-6.86647557e-20
-7.00266505e-19
-2.85226391e-18
-2.44156354e-18
-3.14675619e-18
-6.11770581e-19
-2.74432706e-18
-2.27739374e-18
-2.3170704e-18
-1.57765488e-18
8.57589396e-21
3.49255161e-19
-1.1969695e-19
-1.34272873e-18
-1.9226326e-18
-9.86440421e-19
3.9039288e-19
1.97744273e-18
-2.51669181e-18
-1.61281749e-18
-2.56305978e-18
-1.08440671e-18
-2.56020372e-18
-2.9601934e-18
-3.75087276e-18
-3.87120761e-18
-1.5938105e-18
-2.6084287e-18
-5.71706771e-18
-2.1868065e-18
-5.71346304e-18
-1.57098979e-18
1.45580696e-19
1.791543e-18
2.07440605e-18
2.5326973e-19
2.60116587e-18
1.18621541e-18
2.09480494e-18
3.11832157e-18
5.29633014e-18
6.01030748e-18
7.4894854e-18
5.82463371e-18
4.13014958e-18
6.91054904e-18
4.2184313e-18
4.47348783e-18
4.19904307e-18
3.38556061e-18
8.49954533e-19
1.6461422e-18
3.56953347e-18
1.7738152e-18
8.36809321e-19
2.3432628e-18
3.18879145e-19
-5.25276199e-19
-9.70383023e-19
-3.06320041e-18
-8.96074811e-19
1.74332634e-19
1.0392723e-18
1.15823366e-18
3.3828713e-18
4.45721579e-18
1.40614138e-18
2.97725621e-18
5.75773347e-18
5.57791796e-18
7.63553791e-18
3.80085554e-18
3.17858401e-18
4.11877532e-18
4.8807586e-18
7.39412023e-18
8.12670666e-18
5.37958516e-18
6.45330263e-18
6.7944025e-18
7.27007956e-18
5.003311e-18
2.26779182e-18
4.61060601e-18
6.44779028e-18
9.9404716e-18
6.53477112e-18
7.81780808e-18
4.07106478e-18
6.23212305e-18
5.28452758e-18
7.4111248e-18
6.24419255e-18
7.67204153e-18
6.17429221e-18
9.49793378e-18
9.3334714e-18
9.62628975e-18
1.14166034e-17
1.30051935e-17
1.61515119e-17
1.65153136e-17
1.66676282e-17
1.69652747e-17
1.71380891e-17
1.46696486e-17
1.55240392e-17
1.46773281e-17
1.6527678e-17
1.72321132e-17
1.68408711e-17
1.82225675e-17
2.07059727e-17
1.89998312e-17
1.81256667e-17
1.69357282e-17
1.53269908e-17
1.91676726e-17
1.72915489e-17
1.6737416e-17
1.95565263e-17
2.19707317e-17
1.89212052e-17
1.82493257e-17
1.81649147e-17
1.70191511e-17
2.04839588e-17
1.95312547e-17
2.21506071e-17
2.2012406e-17
2.03340546e-17
1.96682167e-17
1.78168448e-17
1.73467792e-17
1.7813191e-17
1.74415227e-17
1.92139464e-17
1.63279935e-17
1.41212487e-17
1.56718155e-17
1.58068394e-17
1.78977002e-17
1.76933027e-17
1.78515685e-17
1.88245746e-17
1.69930716e-17
1.53235203e-17
1.07319688e-17
9.41949917e-18
6.66832268e-18
7.79582016e-18
1.06136839e-17
8.88013632e-18
1.15088693e-17
1.11229064e-17
9.07379598e-18
1.09164597e-17
1.04239574e-17
1.42319521e-17
1.37888164e-17
1.2823064e-17
1.51054879e-17
9.77145732e-18
1.10354623e-17
8.89305966e-18
1.23375293e-17
8.9353103e-18
8.52124243e-18
8.52359817e-18
1.08759783e-17
1.33101898e-17
9.43851437e-18
7.30616606e-18
8.30210629e-18
5.09248416e-18
4.99536018e-18
5.49625657e-18
1.0271115e-18
4.58550853e-18
2.95455729e-18
5.52895311e-18
3.25241297e-18
4.23142442e-18
9.50642518e-18
6.49042521e-18
1.07120544e-17
1.25762901e-17
1.14208956e-17
1.34928661e-17
1.29213944e-17
1.51306566e-17
1.48734086e-17
1.41911706e-17
1.5471732e-17
1.39609077e-17
1.62042139e-17
1.66071153e-17
1.36147598e-17
1.69973211e-17
1.31063e-17
1.38221786e-17
1.21007327e-17
1.08312445e-17
1.41176189e-17
1.22143388e-17
1.17901961e-17
1.5384029e-17
1.35801831e-17
1.38384769e-17
1.25698123e-17
1.29026584e-17
1.38140512e-17
9.88054603e-18
8.81661413e-18
8.96642456e-18
6.37773538e-18
5.05333812e-18
3.08943185e-18
4.08320677e-18
3.22973465e-18
3.97386638e-18
3.14306823e-18
3.02490141e-18
2.76807558e-18
2.57710296e-18
3.17257884e-18
2.16586148e-18
4.01786915e-18
5.68186187e-18
1.47746385e-18
-9.75775822e-20
1.96779215e-18
1.41619392e-18
-3.74155939e-19
-2.50734928e-18
-2.00881493e-18
-2.15794877e-18
-1.798696e-18
-3.46874459e-18
-4.43439894e-18
-2.75347697e-18
-1.12624472e-18
-2.2502822e-18
-1.3411828e-18
-1.02196188e-18
-3.81168114e-18
-3.73817146e-18
-5.56170582e-18
-5.75882429e-18
-2.93846947e-18
-4.90443409e-18
-2.94341018e-18
-4.11527323e-18
-5.6558589e-18
-7.86748236e-18
-7.66683816e-18
-7.34043527e-18
-6.30182192e-18
-9.75734616e-18
-9.293743e-18
-8.12817454e-18
-1.09944402e-17
-1.20422777e-17
-1.27574379e-17
-1.09145101e-17
-1.14121856e-17
-1.00704447e-17
-1.13667349e-17
-1.24679167e-17
-1.45423934e-17
-1.40420014e-17
-1.71520437e-17
-2.05132722e-17
-2.13174432e-17
-1.8338424e-17
-1.55037221e-17
-1.75405736e-17
-1.31400555e-17
-8.19519003e-18
-1.00402092e-17
-1.09605193e-17
-8.55159945e-18
-8.28767564e-18
-7.0206772e-18
-6.30410889e-18
-2.78207381e-18
2.38517765e-19
-9.60509804e-19
-1.20223152e-18
-3.28034548e-18
-2.82279648e-18
-8.85264774e-19
-1.98578168e-18
7.8123642e-19
1.36220727e-18
4.9061937e-18
4.27697709e-19
-2.69967739e-18
-2.9576783e-18
-4.2242725e-18
-2.84913948e-18
-5.15551663e-18
-3.83204456e-18
-3.44509877e-18
-1.84965573e-18
-3.35808942e-18
-3.77241545e-18
-3.12074569e-18
-6.24381054e-19
-4.65724569e-18
-4.91837615e-18
-3.41584014e-18
-8.76940799e-18
-8.88662744e-18
-7.9844392e-18
-8.83530437e-18
-1.1555823e-17
-1.18746994e-17
-9.52683089e-18
-7.56061434e-18
-9.38348074e-18
-7.47256068e-18
-9.81967921e-18
-6.54318422e-18
-3.58605546e-18
-6.8868848e-18
-6.41275285e-18
-1.0870779e-17
-5.56333715e-18
-9.2538533e-18
-8.82348094e-18
-4.2875029e-18
-7.31847692e-18
-8.61607971e-18
-1.36463125e-17
-1.42491661e-17
-1.33147966e-17
-1.43558194e-17
-1.43162939e-17
-1.31354524e-17
-1.69273517e-17
-1.88697545e-17
-1.75399435e-17
-1.1653351e-17
-1.49262697e-17
-1.49105306e-17
-1.45119804e-17
-1.47406054e-17
-1.48378952e-17
-1.37714768e-17
-1.53188434e-17
-1.38073331e-17
-1.77882345e-17
-1.71961167e-17
-1.95170589e-17
-1.74110236e-17
-1.80349307e-17
-1.86167217e-17
-1.85547348e-17
-1.94077054e-17
-1.77949349e-17
-1.89119344e-17
-1.99165614e-17
-1.73045429e-17
-1.95026143e-17
-1.9392074e-17
-1.76040561e-17
-1.95562353e-17
-1.68607359e-17
-2.04156435e-17
-2.16124181e-17
-2.06609841e-17
-1.96409661e-17
-1.6219362e-17
-1.79835118e-17
-1.75784319e-17
-1.85042998e-17
-1.66954981e-17
-1.72012242e-17
-1.79021864e-17
-1.64645298e-17
-1.8011389e-17
-1.52281993e-17
-1.3789778e-17
-1.44986579e-17
-1.46224884e-17
-1.61691558e-17
-1.59665037e-17
-1.61179919e-17
-1.50119918e-17
-1.25592825e-17
-1.19382175e-17
-1.53318955e-17
-1.5807433e-17
-1.96314283e-17
-1.74892983e-17
-1.76333002e-17
-1.97584938e-17
-1.77460479e-17
-1.60537249e-17
-1.7429362e-17
-1.2218901e-17
-1.25421016e-17
-1.34088951e-17
-1.58060208e-17
-1.31287601e-17
-1.34489853e-17
-1.42230316e-17
-8.81203118e-18
-8.28780147e-18
-1.0689756e-17
-1.15594472e-17
-6.79580106e-18
-9.16692469e-18
-7.16191574e-18
-6.00367902e-18
-5.77305575e-18
-2.48376453e-18
-2.0378291e-18
-3.23976773e-18
-1.28276043e-18
-9.83864641e-19
-3.91573769e-19
1.30111959e-18
-1.10617791e-19
1.5301321e-18
-1.1187924e-18
-6.60453973e-19
1.6752796e-18
2.51641133e-18
3.5366232e-18
4.18576423e-18
3.47204744e-18
2.2669436e-18
-4.34090123e-19
2.99203988e-18
1.16632494e-18
-9.67913938e-19
1.73447708e-18
-7.01376303e-19
4.61747681e-19
-2.91749633e-19
1.75257177e-18
3.09465538e-20
-1.52035172e-19
-6.05656894e-19
1.8062587e-18
1.93473339e-18
1.83043456e-18
2.26767149e-18
2.23215489e-18
1.12942235e-18
1.91727818e-18
1.95263736e-19
-1.60221438e-18
-2.16103557e-18
-5.93094441e-19
-2.65993522e-18
-7.11424942e-18
-7.28823351e-18
-3.85092236e-18
-4.56234052e-18
-8.24605193e-19
-2.01449708e-18
-1.96581519e-18
-1.63971203e-18
1.05657966e-18
-2.40604534e-18
-5.18227831e-18
-1.43833213e-18
-7.40193166e-20
-2.32843285e-18
-1.12819373e-18
1.30391616e-18
2.1584452e-18
-7.0755205e-19
1.12404506e-18
2.31258658e-18
4.06865878e-18
3.50499623e-18
4.04094207e-19
1.17970698e-18
2.2223744e-18
2.43983451e-19
4.9037901e-18
4.12878177e-18
4.81191217e-19
2.6855294e-18
4.52507768e-18
4.97373251e-19
2.35495961e-20
-1.77070485e-18
-3.26590227e-18
-2.54871005e-18
-3.10548347e-18
-1.74234869e-18
-1.01991582e-18
-2.71548671e-18
3.27192614e-19
-2.0400708e-18
3.48663681e-18
1.69676662e-18
2.04747528e-18
3.03658216e-18
7.62315586e-18
5.49864215e-18
9.16719075e-18
9.03535022e-18
1.1045937e-17
1.04883437e-17
1.14348338e-17
1.21496768e-17
1.03714188e-17
1.0607332e-17
7.67301463e-18
6.69999647e-18
4.92446349e-18
5.73620378e-18
5.62805013e-18
4.85690176e-18
1.81369835e-18
2.55982686e-18
1.1355666e-18
6.94811186e-19
2.61364926e-19
-2.85638827e-19
3.17162736e-18
5.91226209e-18
8.81204787e-18
6.36605774e-18
5.76520642e-18
2.95335612e-18
3.13739168e-18
2.28476183e-18
4.76158753e-18
1.97823979e-18
2.02547685e-18
-4.74321361e-20
-2.75817641e-18
1.0840852e-18
-2.04247994e-18
6.14618447e-19
2.5019123e-18
2.61407699e-18
3.78198466e-18
8.24264197e-18
1.02249035e-17
8.78776097e-18
9.21249257e-18
9.83799963e-18
9.37563927e-18
9.46022965e-18
1.02762069e-17
5.95246303e-18
2.49739011e-18
3.82964495e-18
8.13524127e-19
7.68041069e-19
-5.29854897e-19
1.63362959e-18
1.26833157e-18
-2.88192366e-18
-1.26293601e-18
-1.81309734e-18
-3.30057202e-18
-2.54787004e-18
-5.05489461e-19
3.57186498e-19
3.36082076e-18
2.47937211e-18
1.9399624e-18
2.42684161e-18
2.42321302e-18
8.83086724e-19
-1.26134295e-18
-1.77100639e-18
-2.98573992e-18
-3.77269965e-18
-2.71096588e-18
-3.23932466e-18
-7.51353684e-19
4.00935787e-19
-1.04397622e-18
-1.37210276e-18
5.68876126e-19
-2.78576639e-18
-4.13566713e-18
-5.37633512e-18
-7.97983291e-18
-8.10936981e-18
-9.06790577e-18
-9.81604292e-18
-9.98718953e-18
-7.16936969e-18
-6.61058121e-18
-6.11565066e-18
-7.36925704e-18
-8.76450408e-18
-1.0046231e-17
-1.37774109e-17
-9.44677146e-18
-1.072777e-17
-1.33621628e-17
-1.21102595e-17
-1.05477806e-17
-1.11508822e-17
-1.29039404e-17
-1.26979558e-17
-1.43709537e-17
-1.7292213e-17
-1.4258044e-17
-1.62925382e-17
-1.41982463e-17
-9.24051311e-18
-1.04860572e-17
-1.19828804e-17
-1.35441495e-17
-1.40745442e-17
-1.43560265e-17
-1.25055833e-17
-1.04122343e-17
-7.90229644e-18
-1.23437064e-17
-1.07994274e-17
-9.46168927e-18
-1.34863465e-17
-1.34519779e-17
-1.29282427e-17
-1.6961688e-17
-1.59097375e-17
-1.80459151e-17
-1.62549455e-17
-1.56845988e-17
-1.535784e-17
-1.59666437e-17
-1.54140169e-17
-1.55110199e-17
-1.4621594e-17
-1.6678422e-17
-1.4317751e-17
-1.34091788e-17
-1.05421936e-17
-9.14666465e-18
-1.10353957e-17
-9.31090409e-18
-1.12546828e-17
-1.25911922e-17
-1.5362947e-17
-1.28578361e-17
-9.17246985e-18
-8.37526098e-18
-9.26329173e-18
-8.42592772e-18
-6.98533604e-18
-8.37392187e-18
-7.31186293e-18
-6.27828566e-18
-7.63936681e-18
-6.69693978e-18
-5.57109838e-18
-4.10166035e-19
-2.88098644e-18
-5.19763435e-18
-3.33150781e-18
-1.211497e-18
-2.92166921e-19
5.2896711e-18
3.6426702e-18
4.88089288e-18
3.93406039e-18
4.66359906e-18
2.1367991e-18
3.9080567e-18
6.10313458e-18
6.48443624e-18
3.81927506e-18
5.96331922e-18
9.59779362e-18
7.20446683e-18
7.81685604e-18
1.08005929e-17
1.10091478e-17
1.00013064e-17
8.44483798e-18
6.68906889e-18
7.1347709e-18
7.35833022e-18
7.85499652e-18
6.36267107e-18
6.0121871e-18
5.74658208e-18
4.75020423e-18
2.71640546e-18
2.76807224e-18
1.63451907e-18
-1.38971564e-18
-1.63598003e-18
-2.04462533e-18
-4.52727905e-18
4.66404791e-22
-1.90779122e-18
-3.05255759e-18
-6.01712714e-18
-8.09648798e-18
-5.57647577e-18
-5.52343247e-18
-8.6910797e-18
-8.58810777e-18
-1.50565587e-17
-1.34570353e-17
-1.4335257e-17
-1.30628365e-17
-1.68926199e-17
-1.32859604e-17
-1.53646095e-17
-1.70375936e-17
-1.24261313e-17
-1.2985417e-17
-1.53891156e-17
-1.30506846e-17
-1.48652209e-17
-1.22828506e-17
-1.58147978e-17
-1.93788258e-17
-2.09557547e-17
-2.29877641e-17
-2.25889669e-17
-1.64260233e-17
-1.36822285e-17
-1.34675185e-17
-1.58295256e-17
-9.36422441e-18
-1.11578832e-17
-9.178131e-18
-4.51724284e-18
-1.1566695e-17
-8.14264595e-18
-5.79484267e-18
-6.23197818e-18
-8.4038005e-19
-3.06221085e-18
-5.87490349e-18
-7.35332253e-18
-1.08358063e-17
-1.36069284e-17
-1.28083722e-17
-1.5872464e-17
-1.86379456e-17
-1.86576501e-17
-1.50570936e-17
-1.45227353e-17
-1.31358775e-17
-1.08971237e-17
-1.46857901e-17
-1.43651316e-17
-1.27221861e-17
-1.26323585e-17
-1.17738166e-17
-1.18731468e-17
-1.30620417e-17
-1.31888047e-17
-1.18026879e-17
-1.07570652e-17
-8.76930699e-18
-8.69559376e-18
-5.65208814e-18
-7.25627418e-18
-4.77265088e-18
-6.01309675e-18
-5.83083003e-18
-7.01486909e-18
-9.08354583e-18
-1.14474806e-17
-1.24720078e-17
-1.13037106e-17
-1.12832756e-17
-8.04448625e-18
-8.70224758e-18
-5.09020776e-18
-4.20611992e-18
1.09329101e-18
1.35835626e-18
2.23437496e-18
-1.25135104e-18
3.131511e-18
-1.09664085e-18
2.26804355e-18
-1.75204096e-18
-1.66848403e-18
-5.19230389e-18
-4.53815911e-18
-4.62920344e-18
-3.35559784e-18
-3.0820974e-18
-3.7587372e-18
-1.5630318e-18
-2.7256841e-18
-5.03812532e-18
-5.75118555e-18
-5.32104807e-18
-1.948105e-18
-5.56001514e-18
-1.72957598e-18
-2.50561821e-18
1.17504752e-18
-2.2325283e-18
-1.79039171e-18
-9.34889148e-19
-1.71736666e-18
-4.01507415e-19
-3.16376558e-18
-2.26235605e-18
4.21604747e-19
2.46430383e-18
1.52286724e-18
-1.07620185e-18
-1.3749546e-18
-2.94951039e-18
-4.26451067e-18
-4.44668581e-18
-6.7780882e-18
-2.83439983e-18
-3.00916876e-20
-2.11359388e-18
-1.78587262e-18
-2.15659503e-19
-2.06080319e-18
-2.27661621e-18
-1.84748108e-18
-1.89992746e-18
1.00320061e-18
1.67177149e-18
1.5252623e-18
5.89342631e-19
2.05564955e-18
5.3714277e-18
5.58406581e-18
6.51297898e-18
8.59697233e-18
6.72848868e-18
5.89873047e-18
9.06945829e-18
1.07758323e-17
7.89637498e-18
3.30037551e-18
6.22111582e-18
8.42350772e-18
6.1653445e-18
6.25819988e-18
4.3089656e-18
5.62193342e-18
8.70083687e-19
4.58507676e-18
7.32491582e-18
4.44520332e-18
4.00835862e-18
5.31892961e-18
3.51283427e-18
4.92076138e-18
1.64881223e-18
2.37691518e-18
3.81846844e-18
3.38173209e-18
2.14683814e-18
4.66081745e-18
6.08357194e-18
6.09742465e-18
5.20933178e-18
8.39222965e-18
7.34757572e-18
6.50425173e-18
5.2533922e-18
4.6088289e-18
4.57148384e-18
1.18524483e-18
-6.19176603e-20
2.79973415e-18
4.20048418e-18
3.70477993e-18
5.62822539e-18
1.33261422e-18
3.42487158e-18
6.01163098e-18
7.18953895e-18
6.76177167e-18
8.23993548e-18
1.16011213e-17
8.61938107e-18
9.79421332e-18
9.64786375e-18
9.29477415e-18
9.75851781e-18
9.53402784e-18
9.63104413e-18
9.04832207e-18
9.54588577e-18
1.07429833e-17
1.10252238e-17
1.20671954e-17
1.0975151e-17
8.38423824e-18
6.40541723e-18
5.81171482e-18
6.73211073e-18
5.91039588e-18
7.71104509e-18
6.2458776e-18
4.08479436e-18
6.94711124e-18
5.00025232e-18
5.64839342e-18
5.13954147e-18
5.77478323e-18
8.8359681e-18
1.1758679e-17
9.47086985e-18
1.01735644e-17
7.77917544e-18
6.70804378e-18
6.0776793e-18
8.62605435e-18
8.71906836e-18
7.84552809e-18
5.2180897e-18
6.34880072e-18
7.26007143e-18
2.92420941e-18
4.560676e-18
5.64109135e-18
3.20553893e-18
4.63583804e-18
5.10367456e-18
8.64629777e-18
6.4167074e-18
6.60432147e-18
6.58096883e-18
6.98612455e-18
9.13695245e-18
8.43164958e-18
1.08421204e-17
8.96858775e-18
1.05146637e-17
9.96697324e-18
1.03453719e-17
9.41008601e-18
8.95505584e-18
1.04898691e-17
1.39278641e-17
1.4407311e-17
1.36059432e-17
1.15526126e-17
1.08173578e-17
1.33783521e-17
1.58693657e-17
1.65249055e-17
1.47095677e-17
1.56603432e-17
1.40996868e-17
1.5849472e-17
1.71878767e-17
1.51703519e-17
1.29599629e-17
1.44166589e-17
1.14527273e-17
8.782411e-18
7.88515458e-18
9.16460058e-18
9.05991845e-18
9.96429398e-18
1.06339989e-17
1.29797951e-17
1.29439814e-17
1.23101268e-17
1.29794562e-17
1.27781397e-17
1.43126866e-17
1.34420647e-17
1.40169709e-17
1.71311311e-17
1.39350266e-17
1.81859757e-17
1.9959025e-17
1.98351272e-17
1.67003994e-17
1.5323167e-17
1.27424137e-17
1.72554689e-17
1.65306048e-17
1.99439445e-17
1.91376777e-17
2.14123881e-17
1.78321775e-17
1.97074758e-17
2.43074616e-17
2.57351778e-17
2.5159922e-17
2.66368609e-17
2.99511873e-17
2.80312244e-17
2.68250207e-17
2.68434284e-17
2.62907308e-17
2.49464121e-17
2.53818299e-17
2.6854658e-17
2.41318572e-17
2.42900037e-17
2.34641774e-17
2.20186101e-17
1.9482712e-17
1.79814759e-17
1.90523348e-17
1.96871189e-17
2.24927948e-17
1.95269949e-17
2.22442647e-17
2.1810112e-17
2.55941969e-17
2.49286767e-17
2.43756303e-17
2.80810789e-17
2.84864155e-17
2.99749447e-17
2.90328822e-17
2.53836881e-17
2.67934135e-17