/*--------------------------------*- C++ -*----------------------------------*\
| =========                 |                                                 |
| \\      /  F ield         | OpenFOAM: The Open Source CFD Toolbox           |
|  \\    /   O peration     | Version:  2206                                  |
|   \\  /    A nd           | Website:  www.openfoam.com                      |
|    \\/     M anipulation  |                                                 |
\*---------------------------------------------------------------------------*/
FoamFile
{
    version     2.0;
    format      ascii;
    arch        "LSB;label=32;scalar=64";
    class       volVectorField;
    location    "2.8e-06";
    object      U;
}
// * * * * * * * * * * * * * * * * * * * * * * * * * * * * * * * * * * * * * //

dimensions      [0 1 -1 0 0 0 0];

internalField   nonuniform List<vector> 
3183
(
(4.96598717e-14 0 0)
(-5.40554034e-15 0 0)
(-2.27536763e-14 0 0)
(-2.79329704e-14 0 0)
(-2.93927594e-14 0 0)
(-3.46703289e-19 0 0)
(-2.73221978e-20 0 0)
(-5.10371715e-25 0 0)
(1.620326e-25 0 0)
(4.6332779e-24 0 0)
(1.86254785e-19 0 0)
(2.37252264e-18 0 0)
(1.16763116e-13 0 0)
(4.98097906e-14 0 0)
(-8.73553195e-14 0 0)
(-9.92724078e-14 0 0)
(1.0058718e-13 0 0)
(-1.22194482e-14 0 0)
(-2.91302756e-13 0 0)
(1.35183285e-14 0 0)
(1.99219491e-13 0 0)
(9.19666171e-18 0 0)
(9.45604643e-19 0 0)
(2.09489932e-19 0 0)
(4.35150008e-18 0 0)
(6.7338112e-14 0 0)
(3.02616069e-13 0 0)
(2.71022537e-14 0 0)
(-2.70888122e-13 0 0)
(-9.01023534e-14 0 0)
(-1.89420119e-13 0 0)
(8.30501789e-14 0 0)
(1.2231733e-13 0 0)
(-1.10301734e-13 0 0)
(2.56239111e-18 0 0)
(9.15718595e-14 0 0)
(-9.63909034e-14 0 0)
(-1.01412437e-13 0 0)
(1.06652704e-13 0 0)
(-4.99842261e-14 0 0)
(-2.62720627e-13 0 0)
(-2.21057121e-13 0 0)
(4.35271468e-14 0 0)
(1.22443105e-13 0 0)
(2.0932993e-13 0 0)
(1.52650162e-13 0 0)
(1.42666022e-13 0 0)
(7.4940878e-14 0 0)
(-1.18231499e-13 0 0)
(-1.24646119e-13 0 0)
(-3.53913085e-16 0 0)
(-1.3787367e-13 0 0)
(-1.44766982e-13 0 0)
(2.52280171e-14 0 0)
(1.06433527e-13 0 0)
(-2.74547001e-14 0 0)
(8.8910802e-14 0 0)
(-6.27974825e-14 0 0)
(-2.62550689e-16 0 0)
(3.45944981e-14 0 0)
(-1.81339077e-13 0 0)
(-1.53010014e-13 0 0)
(-1.21355855e-13 0 0)
(-4.19299495e-14 0 0)
(-4.36619209e-14 0 0)
(4.61253635e-14 0 0)
(9.93397971e-14 0 0)
(2.07058335e-13 0 0)
(3.80384152e-13 0 0)
(6.30045243e-14 0 0)
(4.18588318e-13 0 0)
(3.21221338e-13 0 0)
(2.71190959e-13 0 0)
(5.57851582e-13 0 0)
(5.18408573e-13 0 0)
(4.82393071e-13 0 0)
(4.1047692e-13 0 0)
(9.50004853e-13 0 0)
(7.36658802e-13 0 0)
(1.04981318e-12 0 0)
(1.09723701e-12 0 0)
(7.44467019e-13 0 0)
(9.68560375e-13 0 0)
(1.4886519e-13 0 0)
(2.78039437e-13 0 0)
(7.35315648e-13 0 0)
(2.78930353e-13 0 0)
(7.47512796e-13 0 0)
(7.0531529e-13 0 0)
(3.74593579e-13 0 0)
(6.47382348e-13 0 0)
(3.10475721e-13 0 0)
(-1.02347296e-13 0 0)
(-2.89689928e-13 0 0)
(2.84316717e-13 0 0)
(-2.69609873e-13 0 0)
(-1.23890831e-12 0 0)
(-3.07427723e-14 0 0)
(-5.09714019e-13 0 0)
(-4.10057595e-13 0 0)
(-2.95354164e-13 0 0)
(1.91662647e-13 0 0)
(-8.62971282e-13 0 0)
(3.70206378e-13 0 0)
(-6.38561656e-13 0 0)
(3.79546378e-13 0 0)
(-7.07918328e-13 0 0)
(-5.66510417e-13 0 0)
(-6.91377808e-13 0 0)
(-6.70947977e-13 0 0)
(-1.11907956e-13 0 0)
(-2.30978179e-13 0 0)
(-5.92681031e-13 0 0)
(-3.07978753e-13 0 0)
(-8.68719362e-14 0 0)
(-7.11427347e-13 0 0)
(-1.53100099e-13 0 0)
(-2.59786482e-13 0 0)
(1.49153588e-13 0 0)
(-4.1994014e-13 0 0)
(-1.6483095e-13 0 0)
(-4.68559553e-13 0 0)
(-2.64133491e-13 0 0)
(-3.74498841e-13 0 0)
(-2.59992726e-13 0 0)
(-7.79523722e-13 0 0)
(4.83422918e-13 0 0)
(-1.01064465e-12 0 0)
(-9.73770424e-13 0 0)
(-1.71419562e-12 0 0)
(-3.52735476e-13 0 0)
(-1.27160158e-12 0 0)
(-6.78452612e-13 0 0)
(-8.45669642e-13 0 0)
(-4.04583694e-13 0 0)
(-9.2019128e-13 0 0)
(-1.5602068e-13 0 0)
(-2.47740798e-13 0 0)
(2.47130935e-14 0 0)
(-3.75705446e-14 0 0)
(5.65999118e-13 0 0)
(-6.95434659e-14 0 0)
(8.29707528e-13 0 0)
(-1.98871091e-13 0 0)
(7.56907984e-13 0 0)
(1.42217761e-12 0 0)
(6.28909067e-14 0 0)
(-2.85205276e-13 0 0)
(-6.53839622e-13 0 0)
(3.23382028e-14 0 0)
(3.49279781e-13 0 0)
(-3.19363825e-13 0 0)
(-4.29880731e-14 0 0)
(1.25453181e-12 0 0)
(6.31971381e-13 0 0)
(5.73139892e-13 0 0)
(4.96710828e-13 0 0)
(8.22242678e-13 0 0)
(1.26969568e-12 0 0)
(1.3813932e-12 0 0)
(7.65866867e-13 0 0)
(2.06752983e-12 0 0)
(1.08906862e-12 0 0)
(9.66308505e-13 0 0)
(1.21254305e-12 0 0)
(2.31086122e-12 0 0)
(6.67482573e-13 0 0)
(7.0905763e-13 0 0)
(1.9192849e-12 0 0)
(1.79791999e-12 0 0)
(1.36286659e-12 0 0)
(1.67018349e-12 0 0)
(1.60890692e-12 0 0)
(1.04894845e-12 0 0)
(1.07261921e-12 0 0)
(1.27449168e-12 0 0)
(1.55563956e-12 0 0)
(7.82084614e-13 0 0)
(8.67355853e-14 0 0)
(1.6833176e-12 0 0)
(6.5723372e-13 0 0)
(2.37710828e-13 0 0)
(6.29972571e-13 0 0)
(5.13562242e-13 0 0)
(1.53685652e-12 0 0)
(8.10224888e-13 0 0)
(1.15492883e-12 0 0)
(1.0936394e-12 0 0)
(3.40074426e-13 0 0)
(1.12617055e-12 0 0)
(8.371237e-13 0 0)
(1.08821837e-12 0 0)
(-5.60584463e-13 0 0)
(1.21686105e-12 0 0)
(5.80064859e-13 0 0)
(6.72276701e-13 0 0)
(8.62190598e-13 0 0)
(4.56261867e-13 0 0)
(9.35801664e-13 0 0)
(2.59788471e-12 0 0)
(8.71203021e-13 0 0)
(3.12217403e-13 0 0)
(1.21236648e-12 0 0)
(7.78809586e-13 0 0)
(7.29593535e-13 0 0)
(-2.03960059e-14 0 0)
(-6.51820078e-13 0 0)
(7.73627355e-13 0 0)
(2.92113232e-13 0 0)
(3.13228559e-13 0 0)
(2.68291736e-13 0 0)
(9.1430187e-13 0 0)
(-1.11548419e-13 0 0)
(3.21581384e-13 0 0)
(-6.9315985e-13 0 0)
(9.55629553e-14 0 0)
(3.83271297e-13 0 0)
(-1.04091385e-12 0 0)
(9.34606075e-13 0 0)
(-3.10784892e-14 0 0)
(-6.87655302e-13 0 0)
(9.56348434e-13 0 0)
(5.57390376e-13 0 0)
(6.67577617e-13 0 0)
(4.2572447e-13 0 0)
(-7.15021561e-13 0 0)
(3.80265871e-13 0 0)
(9.73105685e-14 0 0)
(-4.2217638e-13 0 0)
(-7.49178317e-14 0 0)
(5.92642812e-13 0 0)
(7.7656841e-13 0 0)
(-1.40061474e-13 0 0)
(1.15406558e-12 0 0)
(4.81861141e-13 0 0)
(9.46921929e-14 0 0)
(-1.74270272e-13 0 0)
(6.88539204e-13 0 0)
(-8.10988886e-13 0 0)
(3.84673665e-14 0 0)
(-3.00523081e-13 0 0)
(-5.73268851e-13 0 0)
(-5.76159521e-14 0 0)
(1.71009373e-13 0 0)
(-1.15902812e-14 0 0)
(-1.3603584e-12 0 0)
(-6.02411265e-13 0 0)
(-7.67353068e-13 0 0)
(-4.15774028e-15 0 0)
(-7.6732386e-13 0 0)
(-1.14241778e-13 0 0)
(-9.09434107e-13 0 0)
(-3.51237755e-13 0 0)
(-9.10404401e-13 0 0)
(-1.16276547e-12 0 0)
(-1.57160681e-12 0 0)
(-9.36020607e-13 0 0)
(-1.07815051e-12 0 0)
(-1.02895947e-12 0 0)
(-2.28388578e-12 0 0)
(-9.26923351e-13 0 0)
(-1.57589069e-12 0 0)
(-1.46826601e-12 0 0)
(-1.21416207e-12 0 0)
(-1.83705524e-12 0 0)
(-1.50356018e-12 0 0)
(-1.15514972e-12 0 0)
(-8.53402695e-13 0 0)
(-1.79538139e-12 0 0)
(-1.74299407e-12 0 0)
(-1.57121151e-12 0 0)
(-1.31468013e-12 0 0)
(-2.4926684e-12 0 0)
(-1.37693367e-12 0 0)
(-2.06165152e-12 0 0)
(-1.69827972e-12 0 0)
(-1.5280436e-12 0 0)
(-1.52049753e-12 0 0)
(-2.35723794e-12 0 0)
(-1.65328995e-12 0 0)
(-1.7824837e-12 0 0)
(-1.91305885e-12 0 0)
(-1.83782161e-12 0 0)
(-2.14246413e-12 0 0)
(-1.55891459e-12 0 0)
(-1.4330083e-12 0 0)
(-2.50195978e-12 0 0)
(-2.44137216e-12 0 0)
(-3.78581879e-12 0 0)
(-2.47727758e-12 0 0)
(-3.17791306e-12 0 0)
(-2.81137626e-12 0 0)
(-2.49784989e-12 0 0)
(-3.55538048e-12 0 0)
(-3.89645374e-12 0 0)
(-3.54108743e-12 0 0)
(-4.07685874e-12 0 0)
(-4.20825586e-12 0 0)
(-3.60987195e-12 0 0)
(-4.44392081e-12 0 0)
(-2.05466411e-12 0 0)
(-3.16569662e-12 0 0)
(-3.13420388e-12 0 0)
(-3.27094994e-12 0 0)
(-3.69942148e-12 0 0)
(-3.54981222e-12 0 0)
(-3.24902666e-12 0 0)
(-4.06066024e-12 0 0)
(-4.30426817e-12 0 0)
(-3.73985197e-12 0 0)
(-4.10593589e-12 0 0)
(-3.51764931e-12 0 0)
(-3.47710076e-12 0 0)
(-3.70305226e-12 0 0)
(-3.82597582e-12 0 0)
(-4.35484275e-12 0 0)
(-4.4904184e-12 0 0)
(-4.33859305e-12 0 0)
(-3.18227272e-12 0 0)
(-3.33351857e-12 0 0)
(-3.70321914e-12 0 0)
(-3.93777554e-12 0 0)
(-4.21005929e-12 0 0)
(-3.37674009e-12 0 0)
(-4.2939904e-12 0 0)
(-3.42109296e-12 0 0)
(-3.54275122e-12 0 0)
(-4.06063979e-12 0 0)
(-3.93925787e-12 0 0)
(-3.39037316e-12 0 0)
(-3.33422205e-12 0 0)
(-3.69349969e-12 0 0)
(-3.81961339e-12 0 0)
(-4.23263361e-12 0 0)
(-3.85439009e-12 0 0)
(-3.64619503e-12 0 0)
(-3.03347e-12 0 0)
(-3.88984345e-12 0 0)
(-3.76874195e-12 0 0)
(-3.0280639e-12 0 0)
(-3.4882888e-12 0 0)
(-3.57462022e-12 0 0)
(-3.43161758e-12 0 0)
(-3.02465052e-12 0 0)
(-3.1825564e-12 0 0)
(-3.66249032e-12 0 0)
(-4.62931783e-12 0 0)
(-3.20837913e-12 0 0)
(-3.78149165e-12 0 0)
(-4.04635652e-12 0 0)
(-4.14567122e-12 0 0)
(-2.65616123e-12 0 0)
(-4.78881079e-12 0 0)
(-3.43143135e-12 0 0)
(-3.29442784e-12 0 0)
(-2.83165733e-12 0 0)
(-4.25372045e-12 0 0)
(-3.60078278e-12 0 0)
(-4.38284948e-12 0 0)
(-3.24855365e-12 0 0)
(-2.89510343e-12 0 0)
(-3.65704812e-12 0 0)
(-3.94818446e-12 0 0)
(-4.13343968e-12 0 0)
(-3.22031071e-12 0 0)
(-3.73951859e-12 0 0)
(-3.43040239e-12 0 0)
(-3.28246342e-12 0 0)
(-2.47478014e-12 0 0)
(-2.53068028e-12 0 0)
(-2.16266153e-12 0 0)
(-2.93786695e-12 0 0)
(-2.578298e-12 0 0)
(-3.38874936e-12 0 0)
(-2.96292077e-12 0 0)
(-2.84003375e-12 0 0)
(-2.37405125e-12 0 0)
(-2.69928792e-12 0 0)
(-2.79979341e-12 0 0)
(-3.52358588e-12 0 0)
(-2.03866044e-12 0 0)
(-1.76469322e-12 0 0)
(-2.42996966e-12 0 0)
(-2.426017e-12 0 0)
(-1.84570704e-12 0 0)
(-1.90185156e-12 0 0)
(-1.65795448e-12 0 0)
(-2.10676827e-12 0 0)
(-2.24090833e-12 0 0)
(-2.17125647e-12 0 0)
(-2.68712429e-12 0 0)
(-2.16129827e-12 0 0)
(-1.47816393e-12 0 0)
(-1.83906446e-12 0 0)
(-1.34871279e-12 0 0)
(-1.30700312e-12 0 0)
(-1.37302293e-12 0 0)
(-8.92049604e-13 0 0)
(-1.24316369e-12 0 0)
(-1.00448925e-12 0 0)
(-9.73735967e-13 0 0)
(-5.88742046e-13 0 0)
(-1.33628586e-12 0 0)
(-1.23302407e-12 0 0)
(-1.31188661e-12 0 0)
(-1.47158667e-12 0 0)
(-2.5638818e-13 0 0)
(-2.84825861e-13 0 0)
(-9.66574991e-13 0 0)
(-5.88704848e-13 0 0)
(-9.79849757e-14 0 0)
(1.22383081e-13 0 0)
(8.11990824e-13 0 0)
(5.57464145e-13 0 0)
(7.7665175e-13 0 0)
(-6.59339397e-13 0 0)
(3.6573891e-13 0 0)
(-9.90930634e-15 0 0)
(3.78498162e-13 0 0)
(-3.92614438e-14 0 0)
(-3.12511748e-13 0 0)
(-3.83088219e-13 0 0)
(1.01703204e-12 0 0)
(7.33991428e-13 0 0)
(2.40825759e-13 0 0)
(3.13302477e-13 0 0)
(1.25222506e-12 0 0)
(-3.05802909e-13 0 0)
(-7.21372626e-13 0 0)
(4.17299715e-13 0 0)
(7.75820799e-13 0 0)
(-3.78177605e-13 0 0)
(-3.37498214e-13 0 0)
(3.17930771e-13 0 0)
(-3.42661626e-14 0 0)
(-7.31668772e-13 0 0)
(1.57803755e-13 0 0)
(1.80714393e-13 0 0)
(-1.13721009e-12 0 0)
(-3.74752484e-13 0 0)
(-1.30309399e-13 0 0)
(-3.63016852e-13 0 0)
(-7.51815262e-13 0 0)
(-1.43705423e-13 0 0)
(-6.62538104e-13 0 0)
(-3.92268196e-13 0 0)
(-1.0047409e-12 0 0)
(2.23768562e-13 0 0)
(-7.39657784e-13 0 0)
(3.50151539e-13 0 0)
(-2.746414e-13 0 0)
(-2.40508009e-14 0 0)
(1.08692743e-12 0 0)
(1.82477731e-13 0 0)
(4.89369811e-13 0 0)
(-1.71295271e-13 0 0)
(5.48865755e-13 0 0)
(7.78923559e-13 0 0)
(5.41415107e-13 0 0)
(-3.20669895e-13 0 0)
(-5.6800446e-13 0 0)
(2.69990689e-13 0 0)
(5.27208469e-13 0 0)
(4.7210579e-13 0 0)
(6.75625374e-13 0 0)
(8.79767431e-13 0 0)
(6.24458103e-13 0 0)
(7.17015313e-13 0 0)
(4.8296428e-13 0 0)
(9.66493043e-14 0 0)
(5.10864009e-13 0 0)
(9.84408029e-13 0 0)
(-4.61849858e-13 0 0)
(4.29854953e-13 0 0)
(-1.06282861e-13 0 0)
(6.99626929e-13 0 0)
(6.09655273e-14 0 0)
(3.60094423e-13 0 0)
(1.22937014e-14 0 0)
(-3.66121013e-13 0 0)
(-2.27749493e-13 0 0)
(-4.84782578e-14 0 0)
(-3.40008336e-13 0 0)
(-3.03765436e-13 0 0)
(2.12793733e-14 0 0)
(-6.0050923e-14 0 0)
(9.02918369e-13 0 0)
(2.7261906e-13 0 0)
(-5.32894243e-13 0 0)
(-3.21926077e-14 0 0)
(-2.08711356e-13 0 0)
(-1.11451821e-13 0 0)
(-6.39918541e-13 0 0)
(-4.36564102e-13 0 0)
(-4.10273745e-13 0 0)
(-1.02782566e-12 0 0)
(-1.05456661e-12 0 0)
(-2.89084051e-13 0 0)
(-1.3908988e-12 0 0)
(-9.30681363e-14 0 0)
(2.86212264e-13 0 0)
(-4.53267003e-13 0 0)
(-3.79094919e-13 0 0)
(-4.1209842e-14 0 0)
(2.50423805e-13 0 0)
(-5.21816811e-13 0 0)
(-1.76007001e-13 0 0)
(5.23877112e-13 0 0)
(-3.03069874e-13 0 0)
(-3.48380699e-13 0 0)
(6.90136702e-14 0 0)
(-7.74274425e-13 0 0)
(-6.41606262e-13 0 0)
(2.71284698e-13 0 0)
(-1.11847997e-12 0 0)
(-1.02751241e-12 0 0)
(-1.21075173e-12 0 0)
(-9.62035347e-13 0 0)
(-1.47199877e-12 0 0)
(-9.17904779e-13 0 0)
(-9.91548084e-13 0 0)
(-3.58773061e-13 0 0)
(-7.48765876e-13 0 0)
(-1.31284614e-12 0 0)
(-1.0536285e-12 0 0)
(-7.04546149e-13 0 0)
(-1.46905987e-12 0 0)
(-2.69665216e-13 0 0)
(-6.06447179e-14 0 0)
(-5.47976614e-13 0 0)
(-1.45733334e-12 0 0)
(-6.62376103e-13 0 0)
(-8.97012291e-13 0 0)
(-4.66730721e-13 0 0)
(-3.67758372e-13 0 0)
(2.40426296e-13 0 0)
(-1.04994262e-12 0 0)
(-1.05699764e-12 0 0)
(-5.33294633e-13 0 0)
(3.61579587e-14 0 0)
(-4.99552812e-13 0 0)
(-1.39320225e-13 0 0)
(-1.99129407e-13 0 0)
(-3.20062312e-13 0 0)
(4.33744372e-13 0 0)
(2.28866931e-13 0 0)
(-7.05707201e-13 0 0)
(-4.99210089e-13 0 0)
(-7.91166553e-13 0 0)
(-4.58181541e-13 0 0)
(-7.11001578e-13 0 0)
(-7.02355268e-14 0 0)
(-3.67039718e-13 0 0)
(6.23339915e-13 0 0)
(-8.66946684e-13 0 0)
(-4.43132319e-13 0 0)
(7.76233264e-13 0 0)
(8.27756015e-15 0 0)
(-1.31117918e-13 0 0)
(-2.42498966e-13 0 0)
(-4.49749966e-13 0 0)
(-9.040331e-13 0 0)
(-2.3615902e-13 0 0)
(-3.86376564e-13 0 0)
(6.96204354e-13 0 0)
(-1.02374446e-13 0 0)
(1.15442202e-12 0 0)
(3.73111821e-13 0 0)
(3.01129211e-13 0 0)
(1.67828529e-12 0 0)
(1.09579347e-12 0 0)
(1.41957025e-12 0 0)
(1.87128418e-12 0 0)
(2.22982611e-12 0 0)
(1.34428005e-12 0 0)
(1.76769037e-12 0 0)
(1.01628736e-12 0 0)
(1.29720515e-12 0 0)
(1.30893277e-12 0 0)
(1.23101588e-12 0 0)
(5.46415775e-13 0 0)
(1.56496079e-12 0 0)
(1.71834484e-12 0 0)
(8.01413997e-13 0 0)
(1.19262499e-12 0 0)
(2.24512752e-12 0 0)
(1.90142118e-12 0 0)
(1.41718546e-12 0 0)
(1.37087636e-12 0 0)
(1.8782761e-12 0 0)
(1.45793879e-12 0 0)
(2.60080883e-12 0 0)
(1.10244105e-12 0 0)
(1.89569348e-12 0 0)
(1.27711061e-12 0 0)
(1.40806423e-12 0 0)
(1.28927e-12 0 0)
(1.172001e-12 0 0)
(9.32671797e-13 0 0)
(1.77094246e-12 0 0)
(1.25012841e-12 0 0)
(1.00283788e-12 0 0)
(1.85584132e-12 0 0)
(1.09639312e-12 0 0)
(5.18698674e-13 0 0)
(1.21538033e-12 0 0)
(1.29778348e-12 0 0)
(1.6361401e-12 0 0)
(1.95027795e-12 0 0)
(7.0670208e-13 0 0)
(1.34709436e-14 0 0)
(2.39499015e-13 0 0)
(8.25518838e-13 0 0)
(-4.25327962e-13 0 0)
(8.48748525e-13 0 0)
(9.12225371e-13 0 0)
(3.68111954e-13 0 0)
(1.17331422e-13 0 0)
(7.12847437e-13 0 0)
(1.53662923e-12 0 0)
(1.26322008e-12 0 0)
(1.89870744e-12 0 0)
(1.35162921e-12 0 0)
(8.75850602e-13 0 0)
(4.49212242e-13 0 0)
(9.52503108e-13 0 0)
(1.48338869e-12 0 0)
(3.23184403e-13 0 0)
(3.71536595e-13 0 0)
(7.58052066e-13 0 0)
(-4.03104196e-15 0 0)
(6.3274885e-13 0 0)
(1.94808053e-12 0 0)
(1.47879651e-12 0 0)
(1.11633124e-12 0 0)
(1.20144649e-12 0 0)
(2.10687523e-13 0 0)
(7.40583601e-13 0 0)
(5.66982381e-13 0 0)
(3.9708503e-13 0 0)
(2.90354931e-13 0 0)
(6.61547129e-13 0 0)
(-5.57027639e-14 0 0)
(2.29670566e-13 0 0)
(-1.36761654e-13 0 0)
(5.90231729e-13 0 0)
(-3.38134459e-14 0 0)
(-2.81017981e-13 0 0)
(-4.941335e-13 0 0)
(2.40665155e-13 0 0)
(4.46759388e-13 0 0)
(-3.24511704e-13 0 0)
(4.79581798e-13 0 0)
(9.94660167e-13 0 0)
(-2.36636516e-13 0 0)
(6.12587391e-13 0 0)
(3.3477147e-13 0 0)
(-5.33173513e-14 0 0)
(-4.33280017e-13 0 0)
(-3.18448498e-13 0 0)
(-7.26435658e-14 0 0)
(1.53730775e-14 0 0)
(-6.65244888e-13 0 0)
(-8.20545551e-13 0 0)
(-1.27492141e-12 0 0)
(-4.85587714e-13 0 0)
(-4.68898258e-13 0 0)
(1.69509544e-13 0 0)
(-4.4420381e-13 0 0)
(-4.85339425e-13 0 0)
(-6.94264505e-13 0 0)
(-7.4621032e-13 0 0)
(-9.11629319e-13 0 0)
(-7.35871623e-13 0 0)
(-1.02141546e-12 0 0)
(-9.55727782e-13 0 0)
(-1.28363925e-12 0 0)
(-1.77268116e-13 0 0)
(-7.76492268e-13 0 0)
(-7.29103214e-13 0 0)
(-1.0385366e-12 0 0)
(-5.58706256e-13 0 0)
(-8.8331233e-13 0 0)
(4.3874118e-14 0 0)
(-1.87682899e-13 0 0)
(-1.28603715e-13 0 0)
(-3.49999757e-13 0 0)
(-5.17046174e-13 0 0)
(3.20437308e-14 0 0)
(4.02338999e-13 0 0)
(1.41756968e-13 0 0)
(1.0075716e-12 0 0)
(1.59883062e-12 0 0)
(1.35550898e-12 0 0)
(6.85356492e-13 0 0)
(1.41961398e-12 0 0)
(1.33464525e-12 0 0)
(2.32628645e-12 0 0)
(1.12181739e-12 0 0)
(2.46552805e-12 0 0)
(1.82022942e-12 0 0)
(2.43200159e-12 0 0)
(2.0636464e-12 0 0)
(3.47004851e-12 0 0)
(1.97234052e-12 0 0)
(2.76196865e-12 0 0)
(2.04524484e-12 0 0)
(1.89198855e-12 0 0)
(2.06414428e-12 0 0)
(2.33832909e-12 0 0)
(2.17267717e-12 0 0)
(2.6815935e-12 0 0)
(3.68852547e-12 0 0)
(3.61852682e-12 0 0)
(2.75637154e-12 0 0)
(2.75491476e-12 0 0)
(2.51101161e-12 0 0)
(2.45473231e-12 0 0)
(1.90518762e-12 0 0)
(2.34169005e-12 0 0)
(2.38840486e-12 0 0)
(2.81176553e-12 0 0)
(3.30871663e-12 0 0)
(1.91417745e-12 0 0)
(2.73863703e-12 0 0)
(2.36558395e-12 0 0)
(1.41814636e-12 0 0)
(1.98603938e-12 0 0)
(2.46116936e-12 0 0)
(2.41263013e-12 0 0)
(2.05973792e-12 0 0)
(3.06939837e-12 0 0)
(2.5245048e-12 0 0)
(2.49032802e-12 0 0)
(2.38291669e-12 0 0)
(2.2588405e-12 0 0)
(2.62308499e-12 0 0)
(1.96414691e-12 0 0)
(2.36247403e-12 0 0)
(2.17399574e-12 0 0)
(2.02623696e-12 0 0)
(1.91690392e-12 0 0)
(2.15265348e-12 0 0)
(1.60111305e-12 0 0)
(2.34180405e-12 0 0)
(2.01932716e-12 0 0)
(2.79549629e-12 0 0)
(2.02198124e-12 0 0)
(1.90366619e-12 0 0)
(2.31481485e-12 0 0)
(7.52781949e-13 0 0)
(1.59682576e-12 0 0)
(1.89804381e-12 0 0)
(9.1496813e-13 0 0)
(2.12555206e-12 0 0)
(1.44388482e-12 0 0)
(1.95639544e-12 0 0)
(1.04099198e-12 0 0)
(1.4762741e-12 0 0)
(1.40160158e-12 0 0)
(1.08656766e-12 0 0)
(1.6968841e-12 0 0)
(1.21869705e-12 0 0)
(7.85210491e-13 0 0)
(2.07934912e-12 0 0)
(7.96906956e-13 0 0)
(7.86987683e-13 0 0)
(3.01927924e-13 0 0)
(1.15710446e-12 0 0)
(1.25591324e-13 0 0)
(8.74733562e-13 0 0)
(6.51642898e-14 0 0)
(-1.30181721e-13 0 0)
(4.18262237e-13 0 0)
(-3.61060213e-13 0 0)
(5.03593414e-13 0 0)
(-6.92237573e-13 0 0)
(-4.61039658e-13 0 0)
(-1.24667892e-12 0 0)
(-1.13629452e-12 0 0)
(-4.5926624e-13 0 0)
(-1.24155276e-12 0 0)
(-4.09424747e-13 0 0)
(-1.11644358e-12 0 0)
(-6.35257005e-13 0 0)
(-7.24076499e-13 0 0)
(-9.84462918e-13 0 0)
(1.84096526e-13 0 0)
(-5.19977007e-13 0 0)
(-8.10926232e-13 0 0)
(-6.31222306e-13 0 0)
(-1.22196021e-12 0 0)
(-2.98520188e-13 0 0)
(-4.4344936e-13 0 0)
(-1.75757609e-12 0 0)
(-4.99707611e-13 0 0)
(-8.15294313e-13 0 0)
(-5.01284565e-13 0 0)
(-1.03771668e-12 0 0)
(-1.17881907e-12 0 0)
(-1.20767659e-12 0 0)
(-5.77912543e-13 0 0)
(-1.40563462e-12 0 0)
(-1.00611471e-12 0 0)
(-1.19303257e-12 0 0)
(-1.11631136e-12 0 0)
(-5.46020593e-13 0 0)
(-9.29368751e-13 0 0)
(-4.16850827e-13 0 0)
(-8.98173799e-13 0 0)
(-1.34705955e-12 0 0)
(-1.06002784e-12 0 0)
(-1.0042254e-12 0 0)
(-1.30303896e-12 0 0)
(-1.36558366e-12 0 0)
(-3.23810541e-13 0 0)
(-1.01299107e-13 0 0)
(-4.30739192e-13 0 0)
(-7.1613145e-13 0 0)
(-3.14886681e-13 0 0)
(-5.41087889e-14 0 0)
(-1.42532698e-13 0 0)
(-6.02833689e-13 0 0)
(6.2354182e-14 0 0)
(-6.81623114e-13 0 0)
(9.53546547e-14 0 0)
(8.2317814e-14 0 0)
(-1.52301509e-13 0 0)
(-2.74644748e-13 0 0)
(3.50802937e-13 0 0)
(-7.63823329e-13 0 0)
(2.39142225e-13 0 0)
(-2.67214105e-13 0 0)
(4.65904081e-13 0 0)
(3.69632252e-13 0 0)
(6.50525149e-13 0 0)
(-4.43195989e-13 0 0)
(7.95447071e-14 0 0)
(7.64748186e-13 0 0)
(6.47867912e-13 0 0)
(-9.1078713e-14 0 0)
(2.06825473e-13 0 0)
(9.46494097e-13 0 0)
(8.06337689e-13 0 0)
(-1.55663329e-13 0 0)
(5.98076485e-13 0 0)
(2.56207609e-13 0 0)
(5.1149184e-13 0 0)
(1.24585018e-13 0 0)
(8.64345763e-13 0 0)
(9.86462406e-13 0 0)
(4.17667105e-13 0 0)
(-4.83718843e-15 0 0)
(4.88909268e-13 0 0)
(1.01225602e-12 0 0)
(-9.36399593e-13 0 0)
(-2.41646767e-13 0 0)
(-2.59383732e-14 0 0)
(1.97375809e-13 0 0)
(-3.85579825e-13 0 0)
(-3.85707706e-13 0 0)
(-2.72528773e-13 0 0)
(-6.42627634e-13 0 0)
(-2.03092179e-14 0 0)
(4.75091334e-14 0 0)
(5.81327863e-14 0 0)
(-9.12429021e-13 0 0)
(-1.24675052e-13 0 0)
(2.50915278e-14 0 0)
(-7.87956557e-13 0 0)
(-5.1632719e-13 0 0)
(-3.98373696e-13 0 0)
(-7.04941355e-13 0 0)
(4.06534917e-14 0 0)
(7.88210585e-13 0 0)
(6.79291537e-14 0 0)
(-5.40276768e-13 0 0)
(-4.41997839e-13 0 0)
(-4.2623734e-14 0 0)
(6.26268751e-13 0 0)
(-1.15615563e-14 0 0)
(-3.10318939e-13 0 0)
(-2.33251752e-13 0 0)
(-3.70346001e-13 0 0)
(2.52718708e-13 0 0)
(-3.95666392e-13 0 0)
(1.4277482e-13 0 0)
(-1.52362263e-12 0 0)
(-9.19118176e-13 0 0)
(-1.31590918e-13 0 0)
(-4.4818121e-13 0 0)
(-7.11781447e-13 0 0)
(-4.72465775e-13 0 0)
(-5.63258429e-13 0 0)
(-6.26854132e-13 0 0)
(1.28038669e-13 0 0)
(7.27105576e-13 0 0)
(3.30481104e-13 0 0)
(-4.79206119e-13 0 0)
(1.17452709e-13 0 0)
(5.61004625e-13 0 0)
(5.42417527e-13 0 0)
(3.93353517e-13 0 0)
(8.2540466e-13 0 0)
(5.3934766e-13 0 0)
(9.86392427e-13 0 0)
(1.41838159e-13 0 0)
(1.39591126e-12 0 0)
(8.84698395e-13 0 0)
(1.5635779e-12 0 0)
(-3.64848585e-13 0 0)
(4.80907526e-13 0 0)
(9.88725927e-13 0 0)
(7.17917972e-13 0 0)
(1.10502622e-13 0 0)
(3.34356141e-13 0 0)
(3.53749699e-13 0 0)
(3.0081427e-13 0 0)
(3.72774229e-13 0 0)
(5.55976556e-13 0 0)
(-9.75286048e-13 0 0)
(2.20308066e-13 0 0)
(1.92647284e-13 0 0)
(-4.80537715e-13 0 0)
(-7.61249354e-14 0 0)
(4.3631562e-13 0 0)
(2.47723544e-13 0 0)
(4.8731259e-13 0 0)
(4.99725863e-13 0 0)
(-2.56401195e-13 0 0)
(7.36528859e-13 0 0)
(9.54124455e-13 0 0)
(5.94205346e-13 0 0)
(9.55208112e-13 0 0)
(6.936496e-13 0 0)
(1.08828397e-12 0 0)
(7.99396957e-13 0 0)
(5.70245191e-13 0 0)
(1.0324862e-12 0 0)
(1.0436462e-12 0 0)
(1.03381564e-12 0 0)
(7.06088752e-13 0 0)
(1.54259536e-12 0 0)
(8.76157869e-13 0 0)
(6.72110305e-13 0 0)
(8.27358035e-13 0 0)
(8.09604668e-13 0 0)
(1.09409142e-12 0 0)
(1.00578314e-12 0 0)
(1.33049906e-12 0 0)
(1.14081108e-12 0 0)
(1.03637021e-12 0 0)
(9.54298541e-13 0 0)
(3.53529741e-13 0 0)
(9.76004186e-13 0 0)
(1.09634623e-12 0 0)
(1.78322594e-12 0 0)
(9.15067249e-13 0 0)
(1.18483062e-12 0 0)
(9.14302652e-13 0 0)
(1.30263365e-12 0 0)
(2.29011391e-12 0 0)
(2.44247407e-12 0 0)
(1.61389786e-12 0 0)
(2.12427799e-12 0 0)
(2.67787906e-12 0 0)
(2.6556759e-12 0 0)
(2.55199754e-12 0 0)
(2.31324883e-12 0 0)
(2.47003385e-12 0 0)
(2.4172894e-12 0 0)
(2.99455517e-12 0 0)
(2.07575958e-12 0 0)
(2.81888526e-12 0 0)
(2.60357019e-12 0 0)
(3.63936598e-12 0 0)
(2.65961797e-12 0 0)
(3.47646746e-12 0 0)
(2.28850254e-12 0 0)
(3.09811496e-12 0 0)
(1.96697751e-12 0 0)
(3.18593977e-12 0 0)
(3.11794603e-12 0 0)
(2.71416578e-12 0 0)
(2.75010813e-12 0 0)
(2.66514607e-12 0 0)
(3.1194649e-12 0 0)
(3.41917617e-12 0 0)
(1.86475968e-12 0 0)
(2.75944961e-12 0 0)
(3.2837311e-12 0 0)
(3.06004583e-12 0 0)
(4.30307652e-12 0 0)
(2.72431854e-12 0 0)
(2.86269904e-12 0 0)
(2.51036933e-12 0 0)
(3.21849118e-12 0 0)
(1.90308134e-12 0 0)
(3.43869118e-12 0 0)
(2.75251138e-12 0 0)
(2.73819697e-12 0 0)
(2.90398929e-12 0 0)
(2.36932347e-12 0 0)
(1.73915214e-12 0 0)
(2.83778918e-12 0 0)
(2.49778834e-12 0 0)
(3.70630986e-12 0 0)
(2.15694831e-12 0 0)
(3.17029664e-12 0 0)
(2.07160974e-12 0 0)
(1.85203845e-12 0 0)
(1.84323641e-12 0 0)
(1.22781696e-12 0 0)
(1.00851958e-12 0 0)
(9.48929776e-13 0 0)
(1.5434433e-12 0 0)
(1.32292264e-12 0 0)
(1.88528675e-12 0 0)
(1.51571718e-12 0 0)
(2.32933078e-12 0 0)
(1.56692402e-12 0 0)
(1.96202412e-12 0 0)
(1.29708454e-12 0 0)
(1.90331281e-12 0 0)
(2.77830596e-12 0 0)
(1.44915034e-12 0 0)
(1.72878007e-12 0 0)
(1.56342412e-12 0 0)
(1.81516293e-12 0 0)
(1.20919315e-12 0 0)
(1.50645176e-12 0 0)
(1.42695427e-12 0 0)
(1.71833185e-12 0 0)
(1.71468288e-12 0 0)
(1.32096793e-12 0 0)
(1.14868133e-12 0 0)
(2.1346194e-12 0 0)
(5.21734467e-13 0 0)
(2.69390704e-13 0 0)
(1.23655746e-12 0 0)
(6.43888205e-13 0 0)
(2.74011134e-13 0 0)
(2.05162725e-14 0 0)
(1.16603115e-12 0 0)
(8.1043983e-13 0 0)
(5.70063083e-13 0 0)
(1.27666712e-12 0 0)
(1.14153748e-12 0 0)
(1.07922742e-12 0 0)
(1.60670946e-12 0 0)
(1.09651314e-12 0 0)
(2.37446324e-12 0 0)
(1.83123555e-12 0 0)
(2.78445576e-12 0 0)
(1.92681626e-12 0 0)
(1.14211683e-12 0 0)
(2.34861814e-12 0 0)
(3.47675772e-12 0 0)
(1.88377673e-12 0 0)
(3.38259304e-12 0 0)
(1.97591658e-12 0 0)
(1.62623177e-12 0 0)
(2.54599825e-12 0 0)
(2.84686838e-12 0 0)
(1.28878138e-12 0 0)
(1.30958022e-12 0 0)
(2.56023924e-12 0 0)
(2.15550378e-12 0 0)
(1.59357474e-12 0 0)
(1.96443846e-12 0 0)
(2.45464035e-12 0 0)
(1.63184706e-12 0 0)
(1.31787959e-12 0 0)
(2.57474279e-12 0 0)
(3.06451824e-12 0 0)
(1.5466023e-12 0 0)
(7.81808943e-13 0 0)
(1.44624425e-12 0 0)
(1.53126566e-12 0 0)
(4.68906826e-13 0 0)
(7.94820871e-13 0 0)
(3.00370852e-13 0 0)
(7.51366495e-13 0 0)
(9.35250662e-14 0 0)
(9.7814969e-13 0 0)
(5.69883379e-13 0 0)
(9.29757385e-14 0 0)
(1.12326183e-12 0 0)
(6.3937138e-13 0 0)
(5.5238674e-14 0 0)
(2.27650933e-13 0 0)
(1.13016695e-12 0 0)
(1.12370879e-12 0 0)
(1.55499501e-14 0 0)
(-6.39386372e-13 0 0)
(2.38925728e-13 0 0)
(1.19179097e-13 0 0)
(3.36466221e-13 0 0)
(-1.50066208e-13 0 0)
(-6.19090081e-13 0 0)
(-1.12646558e-13 0 0)
(-2.32982722e-13 0 0)
(-1.49497031e-13 0 0)
(-1.20271092e-12 0 0)
(-1.4191599e-13 0 0)
(-1.05081773e-13 0 0)
(-2.06991502e-13 0 0)
(-2.78418915e-13 0 0)
(-3.24127446e-13 0 0)
(-6.72675657e-13 0 0)
(-8.71124496e-13 0 0)
(-4.41725862e-13 0 0)
(-1.49530031e-12 0 0)
(-4.06354692e-13 0 0)
(-5.79055098e-13 0 0)
(-9.59040408e-13 0 0)
(-1.07135361e-12 0 0)
(8.94046533e-14 0 0)
(-1.36047608e-12 0 0)
(-1.33668096e-12 0 0)
(-4.22514363e-13 0 0)
(-9.24959766e-13 0 0)
(-2.34464952e-12 0 0)
(-1.0396806e-12 0 0)
(-1.37022519e-12 0 0)
(-2.22328909e-12 0 0)
(-1.21602253e-12 0 0)
(-1.4722726e-12 0 0)
(-2.03484256e-12 0 0)
(-1.85875073e-12 0 0)
(-1.33786013e-12 0 0)
(-1.94873816e-12 0 0)
(-2.75446351e-12 0 0)
(-1.99007196e-12 0 0)
(-2.0459128e-12 0 0)
(-2.97625022e-12 0 0)
(-3.70350175e-12 0 0)
(-2.28788709e-12 0 0)
(-2.94868699e-12 0 0)
(-2.85075031e-12 0 0)
(-1.91162359e-12 0 0)
(-2.03786343e-12 0 0)
(-1.38154522e-12 0 0)
(-1.97744584e-12 0 0)
(-7.82738901e-13 0 0)
(-9.33588185e-13 0 0)
(-1.87869372e-12 0 0)
(-9.50405343e-13 0 0)
(-1.72616081e-13 0 0)
(-3.84171378e-13 0 0)
(5.38281856e-14 0 0)
(-1.15363131e-13 0 0)
(-8.74707664e-13 0 0)
(-8.77927802e-13 0 0)
(-2.07184235e-13 0 0)
(2.13181676e-13 0 0)
(2.13861806e-13 0 0)
(8.724879e-14 0 0)
(5.36283347e-13 0 0)
(8.03868833e-13 0 0)
(-4.59745654e-13 0 0)
(-4.7063759e-13 0 0)
(-7.09549355e-13 0 0)
(-1.14175374e-13 0 0)
(-7.35320868e-13 0 0)
(-5.30319268e-13 0 0)
(-6.63996137e-13 0 0)
(2.24195123e-13 0 0)
(-1.24828061e-12 0 0)
(-5.49903864e-13 0 0)
(-4.54847148e-13 0 0)
(1.61732906e-13 0 0)
(-3.19700934e-13 0 0)
(-1.66001997e-12 0 0)
(-1.27483334e-13 0 0)
(-5.82018036e-13 0 0)
(-1.96283297e-12 0 0)
(-1.89252461e-12 0 0)
(-4.74671388e-13 0 0)
(-1.56256143e-12 0 0)
(-1.66073579e-12 0 0)
(-1.8087779e-12 0 0)
(-1.63260515e-12 0 0)
(-9.80667824e-13 0 0)
(-1.77204152e-12 0 0)
(-1.00046252e-12 0 0)
(-7.32548284e-13 0 0)
(-9.002195e-13 0 0)
(-6.61724867e-13 0 0)
(-1.80812685e-12 0 0)
(-1.04983342e-12 0 0)
(-7.58016065e-13 0 0)
(-1.39359085e-12 0 0)
(-3.43727385e-13 0 0)
(2.16542251e-13 0 0)
(-1.13565656e-12 0 0)
(-1.10756074e-12 0 0)
(-1.88986154e-12 0 0)
(-2.32175398e-12 0 0)
(-2.53656283e-12 0 0)
(-1.73272437e-12 0 0)
(-2.06756704e-12 0 0)
(-2.10424548e-12 0 0)
(-2.22607416e-12 0 0)
(-2.63717412e-12 0 0)
(-2.60532944e-12 0 0)
(-2.48308853e-12 0 0)
(-2.08590078e-12 0 0)
(-2.30642344e-12 0 0)
(-2.37778025e-12 0 0)
(-2.05679125e-12 0 0)
(-2.88605228e-12 0 0)
(-2.30469937e-12 0 0)
(-1.69428483e-12 0 0)
(-2.09894045e-12 0 0)
(-2.43366465e-12 0 0)
(-2.61305391e-12 0 0)
(-3.29206383e-12 0 0)
(-3.35447358e-12 0 0)
(-1.88263196e-12 0 0)
(-2.29749727e-12 0 0)
(-3.41293598e-12 0 0)
(-2.92232217e-12 0 0)
(-3.4503008e-12 0 0)
(-2.25841407e-12 0 0)
(-2.7824061e-12 0 0)
(-3.67892242e-12 0 0)
(-2.48700319e-12 0 0)
(-3.35157071e-12 0 0)
(-2.23344832e-12 0 0)
(-3.34148643e-12 0 0)
(-2.41949893e-12 0 0)
(-3.23008476e-12 0 0)
(-2.10734623e-12 0 0)
(-3.72219297e-12 0 0)
(-3.30944917e-12 0 0)
(-2.43996946e-12 0 0)
(-2.4543954e-12 0 0)
(-2.48876441e-12 0 0)
(-3.20697736e-12 0 0)
(-3.01927238e-12 0 0)
(-2.22094931e-12 0 0)
(-3.12215432e-12 0 0)
(-3.51021667e-12 0 0)
(-1.90775289e-12 0 0)
(-2.45804577e-12 0 0)
(-2.43701725e-12 0 0)
(-2.33554041e-12 0 0)
(-1.67887362e-12 0 0)
(-3.42194817e-12 0 0)
(-1.32275496e-12 0 0)
(-3.01540286e-12 0 0)
(-1.95094901e-12 0 0)
(-2.79428162e-12 0 0)
(-1.71052434e-12 0 0)
(-1.83226399e-12 0 0)
(-2.71850824e-12 0 0)
(-2.84122818e-12 0 0)
(-2.02791361e-12 0 0)
(-3.04305745e-12 0 0)
(-2.91576018e-12 0 0)
(-2.87631739e-12 0 0)
(-2.92116159e-12 0 0)
(-2.27099178e-12 0 0)
(-2.88198675e-12 0 0)
(-2.09327692e-12 0 0)
(-1.64130524e-12 0 0)
(-2.48382693e-12 0 0)
(-1.83961942e-12 0 0)
(-2.12556888e-12 0 0)
(-2.61419239e-12 0 0)
(-2.596417e-12 0 0)
(-9.10703013e-13 0 0)
(-8.4754391e-13 0 0)
(-1.36876054e-12 0 0)
(-1.69295539e-12 0 0)
(-1.55716532e-12 0 0)
(-1.12787181e-12 0 0)
(-1.18667887e-12 0 0)
(-7.86861929e-13 0 0)
(-9.52775734e-13 0 0)
(-1.83436357e-13 0 0)
(-4.57559724e-13 0 0)
(-2.30129895e-13 0 0)
(-4.8980574e-13 0 0)
(-1.96815182e-13 0 0)
(4.6033889e-13 0 0)
(1.95233401e-13 0 0)
(-4.70916639e-13 0 0)
(3.59631702e-13 0 0)
(-1.99107908e-13 0 0)
(1.17496103e-13 0 0)
(4.7913413e-13 0 0)
(6.51281181e-13 0 0)
(6.27319898e-13 0 0)
(8.37273358e-13 0 0)
(9.28150403e-13 0 0)
(-7.38595427e-13 0 0)
(4.6048523e-13 0 0)
(6.97888875e-13 0 0)
(4.19395808e-14 0 0)
(-1.19538793e-13 0 0)
(4.22753581e-13 0 0)
(2.61530454e-13 0 0)
(2.90329577e-14 0 0)
(1.2708183e-13 0 0)
(1.09430402e-12 0 0)
(-1.05763438e-12 0 0)
(7.76700588e-14 0 0)
(5.94086056e-13 0 0)
(1.66839588e-13 0 0)
(2.92984797e-13 0 0)
(1.20443456e-13 0 0)
(-2.98024232e-13 0 0)
(7.11807735e-13 0 0)
(2.45882195e-14 0 0)
(2.38877332e-13 0 0)
(4.20796391e-13 0 0)
(2.95616089e-14 0 0)
(-7.87089188e-13 0 0)
(-1.63761779e-14 0 0)
(-9.64496248e-13 0 0)
(-8.07283716e-13 0 0)
(-9.34138593e-13 0 0)
(-9.00893669e-13 0 0)
(-2.42063559e-14 0 0)
(-5.95611546e-13 0 0)
(1.58790546e-13 0 0)
(-4.6342617e-13 0 0)
(2.7474196e-13 0 0)
(-6.38268503e-14 0 0)
(-6.73777673e-13 0 0)
(-1.16466544e-12 0 0)
(-1.16589374e-13 0 0)
(1.84321189e-13 0 0)
(-2.1833942e-13 0 0)
(-1.47716542e-13 0 0)
(1.05144632e-12 0 0)
(-1.42179678e-13 0 0)
(7.4955997e-14 0 0)
(-4.79339742e-13 0 0)
(9.1023121e-13 0 0)
(9.99970927e-13 0 0)
(6.51887547e-13 0 0)
(-2.91585132e-13 0 0)
(-1.02097747e-13 0 0)
(-2.79641326e-14 0 0)
(9.87517505e-13 0 0)
(4.36005258e-13 0 0)
(-6.0987276e-14 0 0)
(4.56394762e-13 0 0)
(9.41043955e-14 0 0)
(4.85669542e-13 0 0)
(3.31933251e-13 0 0)
(-2.35321915e-13 0 0)
(-4.37644491e-14 0 0)
(-6.6288229e-15 0 0)
(-1.34085359e-12 0 0)
(-1.87634244e-13 0 0)