/*--------------------------------*- C++ -*----------------------------------*\
| =========                 |                                                 |
| \\      /  F ield         | OpenFOAM: The Open Source CFD Toolbox           |
|  \\    /   O peration     | Version:  2206                                  |
|   \\  /    A nd           | Website:  www.openfoam.com                      |
|    \\/     M anipulation  |                                                 |
\*---------------------------------------------------------------------------*/
FoamFile
{
    version     2.0;
    format      ascii;
    arch        "LSB;label=32;scalar=64";
    class       volScalarField;
    location    "1.76e-05";
    object      p;
}
// * * * * * * * * * * * * * * * * * * * * * * * * * * * * * * * * * * * * * //

dimensions      [1 -1 -2 0 0 0 0];

internalField   nonuniform List<scalar> 
3183
(
101325
101325
101325
101325
101325
101325
101325
101325
101325
101325
101325
101325
101325
101325
101325
101325
101325
101325
101325
101325
101325
101325
101325
101325
101325
101325
101325
101325
101325
101325
101325
101325
101325
101325
101325
101325
101325
101325
101325
101325
101325
101325
101325
101325
101325
101325
101325
101325
101325
101325
101325
101325
101325
101325
101325
101325
101325
101325
101325
101325
101325
101325
101325
101325
101325
101325
101325
101325
101325
101325
101325
101325
101325
101325
101325
101325
101325
101325
101325
101325
101325
101325
101325
101325
101325
101325
101325
101325
101325
101325
101325
101325
101325
101325
101325
101325
101325
101325
101325
101325
101325
101325
101325
101325
101325
101325
101325
101325
101325
101325
101325
101325
101325
101325
101325
101325
101325
101325
101325
101325
101325
101325
101325
101325
101325
101325
101325
101325
101325
101325
101325
101325
101325
101325
101325
101325
101325
101325
101325
101325
101325
101325
101325
101325
101325
101325
101325
101325
101325
101325
101325
101325
101325
101325
101325
101325
101325
101325
101325
101325
101325
101325
101325
101325
101325
101325
101325
101325
101325
101325
101325
101325
101325
101325
101325
101325
101325
101325
101325
101325
101325
101325
101325
101325
101325
101325
101325
101325
101325
101325
101325
101325
101325
101325
101325
101325
101325
101325
101325
101325
101325
101325
101325
101325
101325
101325
101325
101325
101325
101325
101325
101325
101325
101325
101325
101325
101325
101325
101325
101325
101325
101325
101325
101325
101325
101325
101325
101325
101325
101325
101325
101325
101325
101325
101325
101325
101325
101325
101325
101325
101325
101325
101325
101325
101325
101325
101325
101325
101325
101325
101325
101325
101325
101325
101325
101325
101325
101325
101325
101325
101325
101325
101325
101325
101325
101325
101325
101325
101325
101325
101325
101325
101325
101325
101325
101325
101325
101325
101325
101325
101325
101325
101325
101325
101325
101325
101325
101325
101325
101325
101325
101325
101325
101325
101325
101325
101325
101325
101325
101325
101325
101325
101325
101325
101325
101325
101325
101325
101325
101325
101325
101325
101325
101325
101325
101325
101325
101325
101325
101325
101325
101325
101325
101325
101325
101325
101325
101325
101325
101325
101325
101325
101325
101325
101325
101325
101325
101325
101325
101325
101325
101325
101325
101325
101325
101325
101325
101325
101325
101325
101325
101325
101325
101325
101325
101325
101325
101325
101325
101325
101325
101325
101325
101325
101325
101325
101325
101325
101325
101325
101325
101325
101325
101325
101325
101325
101325
101325
101325
101325
101325
101325
101325
101325
101325
101325
101325
101325
101325
101325
101325
101325
101325
101325
101325
101325
101325
101325
101325
101325
101325
101325
101325
101325
101325
101325
101325
101325
101325
101325
101325
101325
101325
101325
101325
101325
101325
101325
101325
101325
101325
101325
101325
101325
101325
101325
101325
101325
101325
101325
101325
101325
101325
101325
101325
101325
101325
101325
101325
101325
101325
101325
101325
101325
101325
101325
101325
101325
101325
101325
101325
101325
101325
101325
101325
101325
101325
101325
101325
101325
101325
101325
101325
101325
101325
101325
101325
101325
101325
101325
101325
101325
101325
101325
101325
101325
101325
101325
101325
101325
101325
101325
101325
101325
101325
101325
101325
101325
101325
101325
101325
101325
101325
101325
101325
101325
101325
101325
101325
101325
101325
101325
101325
101325
101325
101325
101325
101325
101325
101325
101325
101325
101325
101325
101325
101325
101325
101325
101325
101325
101325
101325
101325
101325
101325
101325
101325
101325
101325
101325
101325
101325
101325
101325
101325
101325
101325
101325
101325
101325
101325
101325
101325
101325
101325
101325
101325
101325
101325
101325
101325
101325
101325
101325
101325
101325
101325
101325
101325
101325
101325
101325
101325
101325
101325
101325
101325
101325
101325
101325
101325
101325
101325
101325
101325
101325
101325
101325
101325
101325
101325
101325
101325
101325
101325
101325
101325
101325
101325
101325
101325
101325
101325
101325
101325
101325
101325
101325
101325
101325
101325
101325
101325
101325
101325
101325
101325
101325
101325
101325
101325
101325
101325
101325
101325
101325
101325
101325
101325
101325
101325
101325
101325
101325
101325
101325
101325
101325
101325
101325
101325
101325
101325
101325
101325
101325
101325
101325
101325
101325
101325
101325
101325
101325
101325
101325
101325
101325
101325
101325
101325
101325
101325
101325
101325
101325
101325
101325
101325
101325
101325
101325
101325
101325
101325
101325
101325
101325
101325
101325
101325
101325
101325
101325
101325
101325
101325
101325
101325
101325
101325
101325
101325
101325
101325
101325
101325
101325
101325
101325
101325
101325
101325
101325
101325
101325
101325
101325
101325
101325
101325
101325
101325
101325
101325
101325
101325
101325
101325
101325
101325
101325
101325
101325
101325
101325
101325
101325
101325
101325
101325
101325
101325
101325
101325
101325
101325
101325
101325
101325
101325
101325
101325
101325
101325
101325
101325
101325
101325
101325
101325
101325
101325
101325
101325
101325
101325
101325
101325
101325
101325
101325
101325
101325
101325
101325
101325
101325
101325
101325
101325
101325
101325
101325
101325
101325
101325
101325
101325
101325
101325
101325
101325
101325
101325
101325
101325
101325
101325
101325
101325
101325
101325
101325
101325
101325
101325
101325
101325
101325
101325
101325
101325
101325
101325
101325
101325
101325
101325
101325
101325
101325
101325
101325
101325
101325
101325
101325
101325
101325
101325
101325
101325
101325
101325
101325
101325
101325
101325
101325
101325
101325
101325
101325
101325
101325
101325
101325
101325
101325
101325
101325
101325
101325
101325
101325
101325
101325
101325
101325
101325
101325
101325
101325
101325
101325
101325
101325
101325
101325
101325
101325
101325
101325
101325
101325
101325
101325
101325
101325
101325
101325
101325
101325
101325
101325
101325
101325
101325
101325
101325
101325
101325
101325
101325
101325
101325
101325
101325
101325
101325
101325
101325
101325
101325
101325
101325
101325
101325
101325
101325
101325
101325
101325
101325
101325
101325
101325
101325
101325
101325
101325
101325
101325
101325
101325
101325
101325
101325
101325
101325
101325
101325
101325
101325
101325
101325
101325
101325
101325
101325
101325
101325
101325
101325
101325
101325
101325
101325
101325
101325
101325
101325
101325
101325
101325
101325
101325
101325
101325
101325
101325
101325
101325
101325
101325
101325
101325
101325
101325
101325
101325
101325
101325
101325
101325
101325
101325
101325
101325
101325
101325
101325
101325
101325
101325
101325
101325
101325
101325
101325
101325
101325
101325
101325
101325
101325
101325
101325
101325
101325
101325
101325
101325
101325
101325
101325
101325
101325
101325
101325
101325
101325
101325
101325
101325
101325
101325
101325
101325
101325
101325
101325
101325
101325
101325
101325
101325
101325
101325
101325
101325
101325
101325
101325
101325
101325
101325
101325
101325
101325
101325
101325
101325
101325
101325
101325
101325
101325
101325
101325
101325
101325
101325
101325
101325
101325
101325
101325
101325
101325
101325
101325
101325
101325
101325
101325
101325
101325
101325
101325
101325
101325
101325
101325
101325
101325
101325
101325
101325
101325
101325
101325
101325
101325
101325
101325
101325
101325
101325
101325
101325
101325
101325
101325
101325
101325
101325
101325
101325
101325
101325
101325
101325
101325
101325
101325
101325
101325
101325
101325
101325
101325
101325
101325
101325
101325
101325
101325
101325
101325
101325
101325
101325
101325
101325
101325
101325
101325
101325
101325
101325
101325
101325
101325
101325
101325
101325
101325
101325
101325
101325
101325
101325
101325
101325
101325
101325
101325
101325
101325
101325
101325
101325
101325
101325
101325
101325
101325
101325
101325
101325
101325
101325
101325
101325
101325
101325
101325
101325
101325
101325
101325
101325
101325
101325
101325
101325
101325
101325
101325
101325
101325
101325
101325
101325
101325
101325
101325
101325
101325
101325
101325
101325
101325
101325
101325
101325
101325
101325
101325
101325
101325
101325
101325
101325
101325
101325
101325
101325
101325
101325
101325
101325
101325
101325
101325
101325
101325
101325
101325
101325
101325
101325
101325
101325
101325
101325
101325
101325
101325
101325
101325
101325
101325
101325
101325
101325
101325
101325
101325
101325
101325
101325
101325
101325
101325
101325
101325
101325
101325
101325
101325
101325
101325
101325
101325
101325
101325
101325
101325
101325
101325
101325
101325
101325
101325
101325
101325
101325
101325
101325
101325
101325
101325
101325
101325
101325
101325
101325
101325
101325
101325
101325
101325
101325
101325
101325
101325
101325
101325
101325
101325
101325
101325
101325
101325
101325
101325
101325
101325
101325
101325
101325
101325
101325
101325
101325
101325
101325
101325
101325
101325
101325
101325
101325
101325
101325
101325
101325
101325
101325
101325
101325
101325
101325
101325
101325
101325
101325
101325
101325
101325
101325
101325
101325
101325
101325
101325
101325
101325
101325
101325
101325
101325
101325
101325
101325
101325
101325
101325
101325
101325
101325
101325
101325
101325
101325
101325
101325
101325
101325
101325
101325
101325
101325
101325
101325
101325
101325
101325
101325
101325
101325
101325
101325
101325
101325
101325
101325
101325
101325
101325
101325
101325
101325
101325
101325
101325
101325
101325
101325
101325
101325
101325
101325
101325
101325
101325
101325
101325
101325
101325
101325
101325
101325
101325
101325
101325
101325
101325
101325
101325
101325
101325
101325
101325
101325
101325
101325
101325
101325
101325
101325
101325
101325
101325
101325
101325
101325
101325
101325
101325
101325
101325
101325
101325
101325
101325
101325
101325
101325
101325
101325
101325
101325
101325
101325
101325
101325
101325
101325
101325
101325
101325
101325
101325
101325
101325
101325
101325
101325
101325
101325
101325
101325
101325
101325
101325
101325
101325
101325
101325
101325
101325
101325
101325
101325
101325
101325
101325
101325
101325
101325
101325
101325
101325
101325
101325
101325
101325
101325
101325
101325
101325
101325
101325
101325
101325
101325
101325
101325
101325
101325
101325
101325
101325
101325
101325
101325
101325
101325
101325
101325
101325
101325
101325
101325
101325
101325
101325
101325
101325
101325
101325
101325
101325
101325
101325
101325
101325
101325
101325
101325
101325
101325
101325
101325
101325
101325
101325
101325
101325
101325
101325
101325
101325
101325
101325
101325
101325
101325
101325
101325
101325
101325
101325
101325
101325
101325
101325
101325
101325
101325
101325
101325
101325
101325
101325
101325
101325
101325
101325
101325
101325
101325
101325
101325
101325
101325
101325
101325
101325
101325
101325
101325
101325
101325
101325
101325
101325
101325
101325
101325
101325
101325
101325
101325
101325
101325
101325
101325
101325
101325
101325
101325
101325
101325
101325
101325
101325
101325
101325
101325
101325
101325
101325
101325
101325
101325
101325
101325
101325
101325
101325
101325
101325
101325
101325
101325
101325
101325
101325
101325
101325
101325
101325
101325
101325
101325
101325
101325
101325
101325
101325
101325
101325
101325
101325
101325
101325
101325
101325
101325
101325
101325
101325
101325
101325
101325
101325
101325
101325
101325
101325
101325
101325
101325
101325
101325
101325
101325
101325
101325
101325
101325
101325
101325
101325
101325
101325
101325
101325
101325
101325
101325
101325
101325
101325
101325
101325
101325
101325
101325
101325
101325
101325
101325
101325
101325
101325
101325
101325
101325
101325
101325
101325
101325
101325
101325
101325
101325
101325
101325
101325
101325
101325
101325
101325
101325
101325
101325
101325
101325
101325
101325
101325
101325
101325
101325
101325
101325
101325
101325
101325
101325
101325
101325
101325
101325
101325
101325
101325
101325
101325
101325
101325
101325
101325
101325
101325
101325
101325
101325
101325
101325
101325
101325
101325
101325
101325
101325
101325
101325
101325
101325
101325
101325
101325
101325
101325
101325
101325
101325
101325
101325
101325
101325
101324.999
101324.999
101324.999
101324.999
101324.999
101324.999
101324.999
101324.999
101324.999
101324.999
101324.999
101324.999
101324.999
101324.999
101324.999
101324.999
101324.999
101324.999
101324.999
101324.998
101324.998
101324.998
101324.998
101324.998
101324.998
101324.998
101324.998
101324.998
101324.997
101324.997
101324.997
101324.997
101324.997
101324.997
101324.997
101324.996
101324.996
101324.996
101324.996
101324.995
101324.995
101324.995
101324.995
101324.994
101324.994
101324.994
101324.993
101324.993
101324.993
101324.992
101324.992
101324.991
101324.991
101324.99
101324.99
101324.989
101324.989
101324.988
101324.988
101324.987
101324.986
101324.986
101324.985
101324.984
101324.983
101324.982
101324.981
101324.98
101324.979
101324.978
101324.977
101324.976
101324.975
101324.974
101324.972
101324.971
101324.97
101324.968
101324.966
101324.965
101324.963
101324.961
101324.959
101324.957
101324.955
101324.953
101324.951
101324.948
101324.946
101324.943
101324.941
101324.938
101324.935
101324.932
101324.928
101324.925
101324.921
101324.918
101324.914
101324.91
101324.906
101324.901
101324.897
101324.892
101324.887
101324.882
101324.877
101324.871
101324.865
101324.859
101324.853
101324.846
101324.84
101324.832
101324.825
101324.817
101324.809
101324.801
101324.792
101324.783
101324.774
101324.764
101324.754
101324.743
101324.733
101324.721
101324.709
101324.697
101324.685
101324.671
101324.658
101324.643
101324.629
101324.614
101324.598
101324.581
101324.564
101324.547
101324.528
101324.51
101324.49
101324.47
101324.449
101324.427
101324.404
101324.381
101324.357
101324.332
101324.306
101324.28
101324.252
101324.224
101324.194
101324.164
101324.133
101324.1
101324.067
101324.032
101323.997
101323.96
101323.922
101323.883
101323.843
101323.801
101323.758
101323.714
101323.668
101323.621
101323.573
101323.523
101323.472
101323.419
101323.365
101323.309
101323.252
101323.193
101323.132
101323.07
101323.006
101322.94
101322.872
101322.803
101322.731
101322.658
101322.583
101322.506
101322.427
101322.345
101322.262
101322.177
101322.089
101322
101321.908
101321.814
101321.717
101321.619
101321.518
101321.415
101321.309
101321.201
101321.09
101320.978
101320.862
101320.744
101320.624
101320.501
101320.375
101320.247
101320.116
101319.983
101319.847
101319.708
101319.566
101319.422
101319.275
101319.125
101318.973
101318.818
101318.66
101318.499
101318.336
101318.169
101318
101317.829
101317.654
101317.477
101317.297
101317.114
101316.928
101316.74
101316.549
101316.355
101316.159
101315.96
101315.758
101315.554
101315.347
101315.138
101314.926
101314.712
101314.495
101314.276
101314.054
101313.831
101313.605
101313.376
101313.146
101312.914
101312.679
101312.443
101312.204
101311.964
101311.722
101311.479
101311.233
101310.987
101310.738
101310.489
101310.238
101309.986
101309.733
101309.478
101309.223
101308.967
101308.71
101308.453
101308.195
101307.937
101307.678
101307.419
101307.16
101306.901
101306.643
101306.384
101306.126
101305.868
101305.611
101305.354
101305.099
101304.844
101304.59
101304.338
101304.087
101303.837
101303.589
101303.343
101303.098
101302.855
101302.615
101302.376
101302.14
101301.907
101301.675
101301.447
101301.221
101300.999
101300.779
101300.562
101300.349
101300.139
101299.933
101299.73
101299.531
101299.336
101299.144
101298.957
101298.773
101298.594
101298.419
101298.249
101298.083
101297.922
101297.765
101297.613
101297.465
101297.323
101297.185
101297.053
101296.925
101296.803
101296.685
101296.573
101296.466
101296.364
101296.268
101296.176
101296.09
101296.01
101295.935
101295.865
101295.8
101295.741
101295.688
101295.639
101295.596
101295.558
101295.526
101295.499
101295.477
101295.46
101295.449
101295.442
101295.441
101295.445
101295.454
101295.467
101295.486
101295.509
101295.537
101295.57
101295.607
101295.648
101295.694
101295.745
101295.799
101295.858
101295.921
101295.988
101296.058
101296.132
101296.21
101296.292
101296.376
101296.465
101296.556
101296.65
101296.747
101296.848
101296.951
101297.056
101297.164
101297.274
101297.387
101297.502
101297.619
101297.737
101297.858
101297.98
101298.104
101298.229
101298.355
101298.483
101298.612
101298.741
101298.872
101299.003
101299.135
101299.268
101299.401
101299.534
101299.668
101299.802
101299.935
101300.069
101300.203
101300.336
101300.47
101300.602
101300.735
101300.867
101300.998
101301.128
101301.258
101301.387
101301.515
101301.642
101301.769
101301.894
101302.018
101302.141
101302.262
101302.383
101302.502
101302.62
101302.737
101302.852
101302.966
101303.078
101303.189
101303.299
101303.407
101303.514
101303.619
101303.722
101303.825
101303.925
101304.024
101304.122
101304.218
101304.312
101304.405
101304.497
101304.587
101304.675
101304.762
101304.848
101304.932
101305.014
101305.096
101305.175
101305.254
101305.331
101305.407
101305.481
101305.555
101305.626
101305.697
101305.767
101305.835
101305.902
101305.968
101306.033
101306.097
101306.16
101306.222
101306.283
101306.342
101306.401
101306.459
101306.517
101306.573
101306.628
101306.683
101306.737
101306.79
101306.843
101306.894
101306.946
101306.996
101307.046
101307.095
101307.144
101307.192
101307.239
101307.286
101307.333
101307.379
101307.425
101307.47
101307.515
101307.559
101307.603
101307.646
101307.69
101307.732
101307.775
101307.817
101307.859
101307.9
101307.941
101307.982
101308.023
101308.063
101308.103
101308.143
101308.182
101308.221
101308.26
101308.299
101308.337
101308.375
101308.413
101308.45
101308.487
101308.524
101308.561
101308.597
101308.633
101308.669
101308.705
101308.74
101308.775
101308.809
101308.844
101308.878
101308.911
101308.945
101308.978
101309.01
101309.043
101309.075
101309.107
101309.138
101309.169
101309.2
101309.23
101309.26
101309.289
101309.318
101309.347
101309.376
101309.404
101309.431
101309.459
101309.486
101309.512
101309.538
101309.564
101309.59
101309.615
101309.639
101309.664
101309.687
101309.711
101309.734
101309.757
101309.78
101309.802
101309.824
101309.845
101309.866
101309.887
101309.908
101309.928
101309.948
101309.967
101309.987
101310.006
101310.025
101310.044
101310.062
101310.08
101310.098
101310.116
101310.134
101310.151
101310.168
101310.186
101310.203
101310.22
101310.236
101310.253
101310.27
101310.286
101310.303
101310.319
101310.336
101310.352
101310.369
101310.385
101310.402
101310.418
101310.435
101310.451
101310.468
101310.485
101310.501
101310.518
101310.535
101310.552
101310.569
101310.587
101310.604
101310.621
101310.639
101310.657
101310.674
101310.692
101310.711
101310.729
101310.747
101310.766
101310.784
101310.803
101310.822
101310.841
101310.86
101310.879
101310.898
101310.918
101310.937
101310.957
101310.976
101310.996
101311.016
101311.036
101311.056
101311.076
101311.096
101311.116
101311.135
101311.155
101311.175
101311.195
101311.215
101311.235
101311.255
101311.275
101311.294
101311.314
101311.333
101311.353
101311.372
101311.391
101311.41
101311.429
101311.448
101311.466
101311.485
101311.503
101311.521
101311.539
101311.557
101311.574
101311.591
101311.608
101311.625
101311.642
101311.658
101311.675
101311.691
101311.707
101311.722
101311.737
101311.753
101311.768
101311.782
101311.797
101311.811
101311.825
101311.839
101311.853
101311.866
101311.88
101311.893
101311.906
101311.919
101311.931
101311.944
101311.956
101311.968
101311.98
101311.992
101312.004
101312.016
101312.027
101312.039
101312.05
101312.061
101312.072
101312.083
101312.094
101312.105
101312.115
101312.126
101312.136
101312.147
101312.157
101312.168
101312.178
101312.188
101312.198
101312.208
101312.218
101312.228
101312.238
101312.248
101312.258
101312.268
101312.277
101312.287
101312.296
101312.306
101312.316
101312.325
101312.334
101312.344
101312.353
101312.362
101312.372
101312.381
101312.39
101312.399
101312.408
101312.417
101312.426
101312.435
101312.444
101312.453
101312.462
101312.471
101312.48
101312.488
101312.497
101312.506
101312.515
101312.524
101312.532
101312.541
101312.55
101312.559
101312.568
101312.577
101312.586
101312.595
101312.604
101312.613
101312.622
101312.632
101312.641
101312.651
101312.66
101312.67
101312.68
101312.69
101312.7
101312.711
101312.722
101312.733
101312.744
101312.755
101312.767
101312.779
101312.792
101312.804
101312.818
101312.831
101312.845
101312.86
101312.875
101312.891
101312.908
101312.925
101312.943
101312.961
101312.981
101313.002
101313.023
101313.046
101313.07
101313.095
101313.122
101313.15
101313.179
101313.211
101313.244
101313.279
101313.315
101313.354
101313.395
101313.439
101313.485
101313.533
101313.584
101313.638
101313.694
101313.754
101313.816
101313.882
101313.951
101314.022
101314.097
101314.176
101314.257
101314.341
101314.429
101314.519
101314.612
101314.708
101314.806
101314.906
101315.008
101315.112
101315.216
101315.322
101315.429
101315.535
101315.641
101315.745
101315.849
101315.95
101316.05
101316.146
101316.238
101316.327
101316.411
101316.49
101316.564
101316.633
101316.696
101316.753
101316.803
101316.848
101316.887
101316.92
101316.947
101316.969
101316.987
101316.999
101317.009
101317.015
101317.018
101317.019
101317.018
101317.017
101317.015
101317.012
101317.01
101317.009
101317.009
101317.01
101317.013
101317.026
101317.072
101317.045
101317.077
101317.198
101317.146
101316.709
101316.61
101316.579
101316.66
101316.703
101316.783
101316.824
101316.891
101316.922
101316.959
101316.974
101316.989
101316.995
101317
101317.003
101317.004
101317.004
101317.003
101317
101316.997
101316.992
101316.986
101316.979
101316.97
101316.96
101316.949
101316.936
101316.922
101316.906
101316.889
101316.87
101316.849
101316.827
101316.804
101316.779
101316.752
101316.724
101316.694
101316.663
101316.63
101316.596
101316.56
101316.523
101316.484
101316.445
101316.404
101316.362
101316.318
101316.274
101316.229
101316.183
101316.136
101316.088
101316.039
101315.99
101315.94
101315.889
101315.838
101315.786
101315.735
101315.682
101315.63
101315.578
101315.525
101315.472
101315.419
101315.367
101315.314
101315.262
101315.21
101315.158
101315.106
101315.055
101315.004
101314.954
101314.904
101314.854
101314.806
101314.757
101314.709
101314.662
101314.616
101314.57
101314.525
101314.48
101314.437
101314.394
101314.351
101314.31
101314.269
101314.229
101314.19
101314.152
101314.114
101314.077
101314.041
101314.006
101313.971
101313.937
101313.904
101313.872
101313.841
101313.81
101313.78
101313.751
101313.722
101313.695
101313.668
101313.641
101313.615
101313.59
101313.566
101313.542
101313.519
101313.497
101313.475
101313.454
101313.433
101313.413
101313.393
101313.374
101313.356
101313.338
101313.32
101313.303
101313.286
101313.27
101313.254
101313.239
101313.224
101313.21
101313.196
101313.182
101313.169
101313.156
101313.143
101313.131
101313.119
101313.107
101313.096
101313.084
101313.074
101313.063
101313.053
101313.042
101313.033
101313.023
101313.014
101313.004
101312.995
101312.986
101312.978
101312.969
101312.961
101312.953
101312.945
101312.937
101312.929
101312.922
101312.915
101312.907
101312.9
101312.893
101312.886
101312.879
101312.873
101312.866
101312.86
101312.853
101312.847
101312.841
101312.835
101312.829
101312.823
101312.817
101312.811
101312.805
101312.8
101312.794
101312.788
101312.783
101312.777
101312.772
101312.767
101312.761
101312.756
101312.751
101312.746
101312.741
101312.736
101312.731
101312.726
101312.721
101312.716
101312.711
101312.706
101312.701
101312.696
101312.692
101312.687
101312.682
101312.678
101312.673
101312.668
101312.664
101312.659
101312.654
101312.65
101312.645
101312.641
101312.636
101312.632
101312.627
101312.623
101312.619
101312.614
101312.61
101312.605
101312.601
101312.596
101312.592
101312.588
101312.583
101312.579
101312.575
101312.57
101312.566
101312.561
101312.557
101312.553
101312.548
101312.544
101312.54
101312.535
101312.531
101312.527
101312.522
101312.518
101312.513
101312.509
101312.505
101312.5
101312.496
101312.491
101312.487
101312.483
101312.478
101312.474
101312.469
101312.465
101312.46
101312.456
101312.451
101312.447
101312.442
101312.438
101312.433
101312.428
101312.424
101312.419
101312.415
101312.41
101312.405
101312.401
101312.396
101312.391
101312.387
101312.382
101312.377
101312.373
101312.368
101312.363
101312.358
101312.353
101312.349
101312.344
101312.339
101312.334
101312.329
101312.324
101312.319
101312.314
101312.309
101312.304
101312.299
101312.294
101312.289
101312.284
101312.279
101312.274
101312.269
101312.264
101312.259
101312.254
101312.249
101312.243
101312.238
101312.233
101312.228
101312.223
101312.217
101312.212
101312.207
101312.201
101312.196
101312.191
101312.185
101312.18
101312.174
101312.169
101312.163
101312.158
101312.152
101312.147
101312.141
101312.136
101312.13
101312.125
101312.119
101312.113
101312.108
101312.102
101312.096
101312.09
101312.084
101312.079
101312.073
101312.067
101312.061
101312.055
101312.049
101312.043
101312.037
101312.031
101312.025
101312.019
101312.013
101312.007
101312
101311.994
101311.988
101311.981
101311.975
101311.969
101311.962
101311.956
101311.949
101311.943
101311.936
101311.929
101311.923
101311.916
101311.909
101311.903
101311.896
101311.889
101311.882
101311.875
101311.868
101311.861
101311.854
101311.847
101311.839
101311.832
101311.825
101311.818
101311.81
101311.803
101311.795
101311.788
101311.78
101311.772
101311.765
101311.757
101311.749
101311.741
101311.733
101311.725
101311.717
101311.709
101311.701
101311.693
101311.685
101311.677
101311.668
101311.66
101311.652
101311.643
101311.635
101311.626
101311.617
101311.609
101311.6
101311.591
101311.582
101311.573
101311.565
101311.556
101311.547
101311.537
101311.528
101311.519
101311.51
101311.501
101311.491
101311.482
101311.473
101311.463
101311.454
101311.444
101311.435
101311.425
101311.415
101311.406
101311.396
101311.386
101311.377
101311.367
101311.357
101311.347
101311.337
101311.327
101311.317
101311.307
101311.297
101311.287
101311.277
101311.267
101311.257
101311.247
101311.237
101311.227
101311.217
101311.206
101311.196
101311.186
101311.176
101311.166
101311.155
101311.145
101311.135
101311.125
101311.114
101311.104
101311.094
101311.084
101311.073
101311.063
101311.053
101311.043
101311.032
101311.022
101311.012
101311.002
101310.991
101310.981
101310.971
101310.961
101310.951
101310.941
101310.93
101310.92
101310.91
101310.9
101310.89
101310.88
101310.87
101310.86
101310.85
101310.84
101310.83
101310.82
101310.81
101310.801
101310.791
101310.781
101310.771
101310.761
101310.752
101310.742
101310.732
101310.723
101310.713
101310.703
101310.694
101310.684
101310.675
101310.665
101310.656
101310.646
101310.637
101310.627
101310.618
101310.609
101310.599
101310.59
101310.581
101310.572
101310.562
101310.553
101310.544
101310.533
101310.522
101310.511
101310.498
101310.485
101310.471
101310.456
101310.44
101310.423
101310.404
101310.384
101310.363
101310.341
101310.316
101310.29
101310.262
101310.232
101310.2
101310.165
101310.127
101310.085
101310.04
101309.99
101309.936
101309.875
101309.807
101309.731
101309.646
101309.549
101309.44
101309.316
101309.175
101309.015
101308.834
101308.629
101308.399
101308.141
101307.851
101307.524
101307.153
101306.722
101306.207
101305.569
101304.754
101303.689
101302.303
101300.55
101298.483
101296.332
101294.581
101293.937
101295.124
101298.516
101303.811
101309.989
101315.705
101320.001
101322.669
101324.057
101324.668
101324.898
101324.973
101324.994
101324.999
101325
101325.001
101325.001
101325.001
101325.001
101325.001
101325.001
101325.001
101325.001
101325.001
101325
101325
)
;

boundaryField
{
    closed
    {
        type            zeroGradient;
    }
    open
    {
        type            waveTransmissive;
        gamma           1.25;
        fieldInf        101325;
        lInf            1;
        value           uniform 101325;
    }
    sides
    {
        type            empty;
    }
}


// ************************************************************************* //
