/*--------------------------------*- C++ -*----------------------------------*\
| =========                 |                                                 |
| \\      /  F ield         | OpenFOAM: The Open Source CFD Toolbox           |
|  \\    /   O peration     | Version:  2206                                  |
|   \\  /    A nd           | Website:  www.openfoam.com                      |
|    \\/     M anipulation  |                                                 |
\*---------------------------------------------------------------------------*/
FoamFile
{
    version     2.0;
    format      ascii;
    arch        "LSB;label=32;scalar=64";
    class       volScalarField;
    location    "1.76e-05";
    object      PVsourcePV;
}
// * * * * * * * * * * * * * * * * * * * * * * * * * * * * * * * * * * * * * //

dimensions      [1 -3 -1 0 0 0 0];

internalField   nonuniform List<scalar> 
3183
(
0
0
0
0
0
0
0
0
0
0
0
0
0
0
0
0
0
0
0
0
0
0
0
0
0
0
0
0
0
0
0
0
0
0
0
0
0
0
0
0
0
0
0
0
0
0
0
0
0
0
0
0
0
0
0
0
0
0
0
0
0
0
0
0
0
0
0
0
0
0
0
0
0
0
0
0
0
0
0
0
0
0
0
0
0
0
0
0
0
0
0
0
0
0
0
0
0
0
0
0
0
0
0
0
0
0
0
0
0
0
0
0
0
0
0
0
0
0
0
0
0
0
0
0
0
0
0
0
0
0
0
0
0
0
0
0
0
0
0
0
0
0
0
0
0
0
0
0
0
0
0
0
0
0
0
0
0
0
0
0
0
0
0
0
0
0
0
0
0
0
0
0
0
0
0
0
0
0
0
0
0
0
0
0
0
0
0
0
0
0
0
0
0
0
0
0
0
0
0
0
0
0
0
0
0
0
0
0
0
0
0
0
0
0
0
0
0
0
0
0
0
0
0
0
0
0
0
0
0
0
0
0
0
0
0
0
0
0
0
0
0
0
0
0
0
0
0
0
0
0
0
0
0
0
0
0
0
0
0
0
0
0
0
0
0
0
0
0
0
0
0
0
0
0
0
0
0
0
0
0
0
0
0
0
0
0
0
0
0
0
0
0
0
0
0
0
0
0
0
0
0
0
0
0
0
0
0
0
0
0
0
0
0
0
0
0
0
0
0
0
0
0
0
0
0
0
0
0
0
0
0
0
0
0
0
0
0
0
0
0
0
0
0
0
0
0
0
0
0
0
0
0
0
0
0
0
0
0
0
0
0
0
0
0
0
0
0
0
0
0
0
0
0
0
0
0
0
0
0
0
0
0
0
0
0
0
0
0
0
0
0
0
0
0
0
0
0
0
0
0
0
0
0
0
0
0
0
0
0
0
0
0
0
0
0
0
0
0
0
0
0
0
0
0
0
0
0
0
0
0
0
0
0
0
0
0
0
0
0
0
0
0
0
0
0
0
0
0
0
0
0
0
0
0
0
0
0
0
0
0
0
0
0
0
0
0
0
0
0
0
0
0
0
0
0
0
0
0
0
0
0
0
0
0
0
0
0
0
0
0
0
0
0
0
0
0
0
0
0
0
0
0
0
0
0
0
0
0
0
0
0
0
0
0
0
0
0
0
0
0
0
0
0
0
0
0
0
0
0
0
0
0
0
0
0
0
0
0
0
0
0
0
0
0
0
0
0
0
0
0
0
0
0
0
0
0
0
0
0
0
0
0
0
0
0
0
0
0
0
0
0
0
0
0
0
0
0
0
0
0
0
0
0
0
0
0
0
0
0
0
0
0
0
0
0
0
0
0
0
0
0
0
0
0
0
0
0
0
0
0
0
0
0
0
0
0
0
0
0
0
0
0
0
0
0
0
0
0
0
0
0
0
0
0
0
0
0
0
0
0
0
0
0
0
0
0
0
0
0
0
0
0
0
0
0
0
0
0
0
0
0
0
0
0
0
0
0
0
0
0
0
0
0
0
0
0
0
0
0
0
0
0
0
0
0
0
0
0
0
0
0
0
0
0
0
0
0
0
0
0
0
0
0
0
0
0
0
0
0
0
0
0
0
0
0
0
0
0
0
0
0
0
0
0
0
0
0
0
0
0
0
0
0
0
0
0
0
0
0
0
0
0
0
0
0
0
0
0
0
0
0
0
0
0
0
0
0
0
0
0
0
0
0
0
0
0
0
0
0
0
0
0
0
0
0
0
0
0
0
0
0
0
0
0
0
0
0
0
0
0
0
0
0
0
0
0
0
0
0
0
0
0
0
0
0
0
0
0
0
0
0
0
0
0
0
0
0
0
0
0
0
0
0
0
0
0
0
0
0
0
0
0
0
0
0
0
0
0
0
0
0
0
0
0
0
0
0
0
0
0
0
0
0
0
0
0
0
0
0
0
0
0
0
0
0
0
0
0
0
0
0
0
0
0
0
0
0
0
0
0
0
0
0
0
0
0
0
0
0
0
0
0
0
0
0
0
0
0
0
0
0
0
0
0
0
0
0
0
0
0
0
0
0
0
0
0
0
0
0
0
0
0
0
0
0
0
0
0
0
0
0
0
0
0
0
0
0
0
0
0
0
0
0
0
0
0
0
0
0
0
0
0
0
0
0
0
0
0
0
0
0
0
0
0
0
0
0
0
0
0
0
0
0
0
0
0
0
0
0
0
0
0
0
0
0
0
0
0
0
0
0
0
0
0
0
0
0
0
0
0
0
0
0
0
0
0
0
0
0
0
0
0
0
0
0
0
0
0
0
0
0
0
0
0
0
0
0
0
0
0
0
0
0
0
0
0
0
0
0
0
0
0
0
0
0
0
0
0
0
0
0
0
0
0
0
0
0
0
0
0
0
0
0
0
0
0
0
0
0
0
0
0
0
0
0
0
0
0
0
0
0
0
0
0
0
0
0
0
0
0
0
0
0
0
0
0
0
0
0
0
0
0
0
0
0
0
0
0
0
0
0
0
0
0
0
0
0
0
0
0
0
0
0
0
0
0
0
0
0
0
0
0
0
0
0
0
0
0
0
0
0
0
0
0
0
0
0
0
0
0
0
0
0
0
0
0
0
0
0
0
0
0
0
0
0
0
0
0
0
0
0
0
0
0
0
0
0
0
0
0
0
0
0
0
0
0
0
0
0
0
0
0
0
0
0
0
0
0
0
0
0
0
0
0
0
0
0
0
0
0
0
0
0
0
0
0
0
0
0
0
0
0
0
0
0
0
0
0
0
0
0
0
0
0
0
0
0
0
0
0
0
0
0
0
0
0
0
0
0
0
0
0
0
0
0
0
0
0
0
0
0
0
0
0
0
0
0
0
0
0
0
0
0
0
0
0
0
0
0
0
0
0
0
0
0
0
0
0
0
0
0
0
0
0
0
0
0
0
0
0
0
0
0
0
0
0
0
0
0
0
0
0
0
0
0
0
0
0
0
0
0
0
0
0
0
0
0
0
0
0
0
0
0
0
0
0
0
0
0
0
0
0
0
0
0
0
0
0
0
0
0
0
0
0
0
0
0
0
0
0
0
0
0
0
0
0
0
0
0
0
0
0
0
0
0
0
0
0
0
0
0
0
0
0
0
0
0
0
0
0
0
0
0
0
0
0
0
0
0
0
0
0
0
0
0
0
0
0
0
0
0
0
0
0
0
0
0
0
0
0
0
0
0
0
0
0
0
0
0
0
0
0
0
0
0
0
0
0
0
0
0
0
0
0
0
0
0
0
0
0
0
0
0
0
0
0
0
0
0
0
0
0
0
0
0
0
0
0
0
0
0
0
0
0
0
0
0
0
0
0
0
0
0
0
0
0
0
0
0
0
0
0
0
0
0
0
0
0
0
0
0
0
0
0
0
0
0
0
0
0
0
0
0
0
0
0
0
0
0
0
0
0
0
0
0
0
0
0
0
0
0
0
0
0
0
0
0
0
0
0
0
0
0
0
0
0
0
0
0
0
0
0
0
0
0
0
0
0
0
0
0
0
0
0
0
0
0
0
0
0
0
0
0
0
0
0
0
0
0
0
0
0
0
0
0
0
0
0
0
0
0
0
0
0
0
0
0
0
0
0
0
0
0
0
0
0
0
0
0
0
0
0
0
0
0
0
0
0
0
0
0
0
0
0
0
0
0
0
0
0
0
0
0
0
0
0
0
0
0
0
0
0
0
0
0
0
0
0
0
0
0
0
0
0
0
0
0
0
0
0
0
0
0
0
0
0
0
0
0
0
0
0
0
0
0
0
0
0
0
0
0
0
0
0
0
0
0
0
0
0
0
0
0
0
0
0
0
0
0
0
0
0
0
0
0
0
0
0
0
0
0
0
0
0
0
0
0
0
0
0
0
0
0
0
0
0
0
0
0
0
0
0
0
0
0
0
0
0
0
0
0
0
0
0
0
0
0
0
0
0
0
0
0
0
0
0
0
0
0
0
0
0
0
0
0
0
0
0
0
0
0
0
0
0
0
0
0
0
0
0
0
0
0
0
0
0
0
0
0
0
0
0
0
0
0
0
0
0
0
0
0
0
0
0
0
0
0
0
0
0
0
0
0
0
0
0
0
0
0
0
0
0
0
0
0
0
0
0
0
0
0
0
0
0
0
0
0
0
0
0
0
0
0
0
0
0
0
0
0
0
0
0
0
0
0
0
0
0
0
0
0
0
0
0
0
0
0
0
0
0
0
0
0
0
0
0
0
0
0
0
0
0
0
0
0
0
0
0
0
0
0
0
0
0
0
0
0
0
0
0
0
0
0
0
0
0
0
0
0
0
0
0
0
0
0
0
0
0
0
0
0
0
0
0
0
0
0
0
0
0
0
0
0
0
0
0
0
0
0
0
0
0
0
0
0
0
0
0
0
0
0
0
0
0
0
0
0
0
0
0
0
0
0
0
0
0
0
0
0
0
0
0
0
0
0
0
0
0
0
0
0
0
0
0
0
0
0
0
0
0
0
0
0
0
0
0
0
0
0
0
0
0
0
0
0
0
0
0
0
0
0
0
0
0
0
0
0
0
0
0
0
0
0
0
0
0
0
0
0
0
0
0
0
0
0
0
0
0
0
0
0
0
0
0
0
0
0
0
0
0
0
0
0
0
0
0
0
0
0
0
0
0
0
0
0
0
0
0
0
0
0
0
0
0
0
0
0
0
0
0
0
0
0
0
0
0
0
0
0
0
0
0
0
0
0
0
0
0
0
0
0
0
0
0
0
0
0
0
0
0
0
0
0
0
0
0
0
0
0
0
0
0
0
0
0
0
0
0
0
0
0
0
0
0
0
0
0
0
0
0
0
0
0
0
0
0
0
0
0
0
0
0
0
0
0
0
0
0
0
0
0
0
0
0
0
0
0
0
0
0
0
0
0
0
0
0
0
0
0
0
0
0
0
0
0
0
0
0
0
0
0
0
0
0
0
0
0
0
0
0
0
0
0
0
0
0
0
0
0
0
0
0
0
0
0
0
0
0
0
0
0
0
0
0
0
0
0
0
0
0
0
0
0
0
0
0
0
0
0
0
0
0
0
0
0
0
0
0
0
0
0
0
0
0
0
0
0
0
0
0
0
0
0
0
0
0
0
0
0
0
0
0
0
0
0
0
0
0
0
0
0
0
0
0
0
0
0
0
0
0
0
0
0
0
0
0
0
0
0
0
0
0
0
0
0
0
0
0
0
0
0
0
0
0
0
0
0
0
0
0
0
0
0
0
0
0
0
0
0
0
0
0
0
0
0
0
0
0
0
0
0
0
0
0
0
0
0
0
0
0
0
0
0
0
0
0
0
0
0
2.65931928e-299
1.37010545e-299
1.3583859e-296
7.06557514e-297
6.87603161e-294
3.61047324e-294
3.44912432e-291
1.82809576e-291
1.71446969e-288
9.1716558e-289
8.44488759e-286
4.55938028e-286
4.12186318e-283
2.2457599e-283
1.99352119e-280
1.09601976e-280
9.55360058e-278
5.29986763e-278
4.53652173e-275
2.53907583e-275
2.13441441e-272
1.20524945e-272
9.95001763e-270
5.66826216e-270
4.59565283e-267
2.64048096e-267
2.10298946e-264
1.21903046e-264
9.53413109e-262
5.57511372e-262
4.28219305e-259
2.52639882e-259
1.90536755e-256
1.13367474e-256
8.3985499e-254
5.03923505e-254
3.6671426e-251
2.21878849e-251
1.58611061e-248
9.67669697e-249
6.7952405e-246
4.18005872e-246
2.8835313e-243
1.78840105e-243
1.21192299e-240
7.57804613e-241
5.04472116e-238
3.1801022e-238
2.07965647e-235
1.32159172e-235
8.49020224e-233
5.43883653e-233
3.43237996e-230
2.21639106e-230
1.37404712e-227
8.94327969e-228
5.4464566e-225
3.57301424e-225
2.13751391e-222
1.4133078e-222
8.30542309e-220
5.53450105e-220
3.19482439e-217
2.14552998e-217
1.21657307e-214
8.23339222e-215
4.58572457e-212
3.12740289e-212
1.7109128e-209
1.17576723e-209
6.31783783e-207
4.37483803e-207
2.30886874e-204
1.61092473e-204
8.35004025e-202
5.86988467e-202
2.988159e-199
2.11637293e-199
1.05806106e-196
7.54969144e-197
3.70658977e-194
2.66443676e-194
1.28457277e-191
9.30217299e-192
4.40378014e-189
3.21239132e-189
1.49326289e-186
1.09723188e-186
5.00783786e-184
3.70641316e-184
1.66083223e-181
1.23809146e-181
5.4465247e-179
4.08932527e-179
1.7659831e-176
1.33538223e-176
5.6608351e-174
4.31089952e-174
1.79371414e-171
1.37559394e-171
5.61765242e-169
4.33833002e-169
1.73873637e-166
1.35211305e-166
5.31785278e-164
4.16397124e-164
1.60696744e-161
1.26692522e-161
4.79720742e-159
3.8078951e-159
1.41455844e-156
1.13044579e-156
4.11947971e-154
3.3142333e-154
1.18464628e-151
9.59445799e-152
3.3635138e-149
2.74217305e-149
9.4272868e-147
7.73636168e-147
2.60793845e-144
2.15414003e-144
7.11951475e-142
5.91876789e-142
1.9176453e-139
1.6044674e-139
5.09530638e-137
4.29033889e-137
1.33528056e-134
1.13143354e-134
3.45054425e-132
2.94208669e-132
8.79072282e-130
7.541877e-130
2.20743921e-127
1.90548609e-127
5.46237325e-125
4.7438971e-125
1.33167883e-122
1.16349471e-122
3.19768516e-120
2.810511e-120
7.56097583e-118
6.68475046e-118
1.75998427e-115
1.56511559e-115
4.03186556e-113
3.60616735e-113
9.08743889e-111
8.17438057e-111
2.01456392e-108
1.82237851e-108
4.39120969e-106
3.99444001e-106
9.40813514e-104
8.60515677e-104
1.9805443e-101
1.82134373e-101
4.09510299e-99
3.78610065e-99
8.31330346e-97
7.72659254e-97
1.65627072e-94
1.54738726e-94
3.23704435e-92
3.03973047e-92
6.20334652e-90
5.85457962e-90
1.1650721e-87
1.10501783e-87
2.1434148e-85
2.04282913e-85
3.86056269e-83
3.69698049e-83
6.80355927e-81
6.54581254e-81
1.17245947e-78
1.13322109e-78
1.97448524e-76
1.91697626e-76
3.24716563e-74
3.16641025e-74
5.21110413e-72
5.10319179e-72
8.15433051e-70
8.0184681e-70
1.24312468e-67
1.22725243e-67
1.84466337e-65
1.82785314e-65
2.66179624e-63
2.64613019e-63
3.73108304e-61
3.71810619e-61
5.0746875e-59
5.06155042e-59
6.68914666e-57
6.66113995e-57
8.53390498e-55
8.46115443e-55
1.0522428e-52
1.03749476e-52
1.25194688e-50
1.23316224e-50
1.43478199e-48
1.43404322e-48
1.58070902e-46
1.57487694e-46
1.67108686e-44
1.65892069e-44
1.69102727e-42
1.6730282e-42
1.63372041e-40
1.61164007e-40
1.50250233e-38
1.48017199e-38
1.31108846e-36
1.28655001e-36
1.08149864e-34
1.08189392e-34
8.39474013e-33
8.39064734e-33
6.104689e-31
6.09152293e-31
4.1342168e-29
4.1138091e-29
2.58971186e-27
2.56826724e-27
1.48835844e-25
1.47240198e-25
7.77071977e-24
7.69009405e-24
3.64062838e-22
3.61271125e-22
1.50694919e-20
1.49801078e-20
5.400381e-19
5.36417882e-19
1.62990922e-17
1.62900783e-17
3.98048839e-16
3.98336723e-16
1.32135838e-14
1.33685408e-14
1.61272842e-10
1.61854228e-10
0.00251800152
0.0113432337
0.449089234
0.563825144
0.725321445
0.672915939
0.284288727
0.237236966
0.0548613876
0.0444813501
0.0118257024
0.0106177026
0.00261067893
0.00242507453
0.00051741349
0.00049834451
9.40840965e-05
9.32407076e-05
1.64792879e-05
1.64546804e-05
3.15470011e-06
3.15448669e-06
1.02719625e-06
1.02802587e-06
7.1223208e-07
7.1230666e-07
6.68455336e-07
6.68471661e-07
6.62752427e-07
6.62753717e-07
6.62049769e-07
6.6205106e-07
6.61967373e-07
6.61969172e-07
6.61958008e-07
6.61960163e-07
6.61957907e-07
6.61957752e-07
6.61957999e-07
6.61956591e-07
6.61958211e-07
6.61957195e-07
6.61957778e-07
6.61957749e-07
6.61958541e-07
6.6195731e-07
6.61959054e-07
6.61957391e-07
6.61958682e-07
6.61958081e-07
6.6195865e-07
6.61958518e-07
6.61958752e-07
6.61957992e-07
6.6195878e-07
6.61958136e-07
6.61957743e-07
6.61959637e-07
6.61957285e-07
6.6195867e-07
6.61957978e-07
6.61958344e-07
6.61957087e-07
6.61957803e-07
6.61957373e-07
6.61957769e-07
6.61957296e-07
6.61958852e-07
6.61956976e-07
6.61958617e-07
6.61956895e-07
6.61957974e-07
6.61957512e-07
6.61958483e-07
6.61956816e-07
6.61959184e-07
6.61956921e-07
6.61959227e-07
6.61957806e-07
6.61958639e-07
6.61958121e-07
6.61957384e-07
6.61957853e-07
6.61957471e-07
6.61958567e-07
6.61957544e-07
6.6195809e-07
6.61957307e-07
6.61958367e-07
6.61956825e-07
6.61959887e-07
6.6195689e-07
6.61959113e-07
6.6195722e-07
6.61959761e-07
6.61956608e-07
6.61959076e-07
6.61957861e-07
6.61958644e-07
6.61958046e-07
6.61958699e-07
6.61957697e-07
6.61958633e-07
6.61957445e-07
6.619574e-07
6.61959168e-07
6.61957453e-07
6.61958263e-07
6.61958063e-07
6.61957579e-07
6.61958302e-07
6.61957725e-07
6.61957406e-07
6.61957733e-07
6.61957658e-07
6.61958468e-07
6.61956462e-07
6.61959029e-07
6.6195721e-07
6.61959533e-07
6.61956994e-07
6.61959641e-07
6.6195658e-07
6.61958107e-07
6.61958421e-07
6.61958875e-07
6.61957578e-07
6.61959435e-07
6.61957523e-07
6.6195908e-07
6.6195845e-07
6.61958944e-07
6.61958847e-07
6.61959274e-07
6.61958614e-07
6.61959734e-07
6.61958041e-07
6.61959026e-07
6.61957962e-07
6.61958459e-07
6.61957929e-07
6.61957811e-07
6.61957604e-07
6.6195873e-07
6.61957182e-07
6.61958019e-07
6.61956841e-07
6.61959035e-07
6.61957339e-07
6.61957734e-07
6.61959688e-07
6.61956332e-07
6.61959405e-07
6.61957278e-07
6.61959095e-07
6.61958047e-07
6.61958949e-07
6.61956888e-07
6.61959281e-07
6.61956741e-07
6.6196015e-07
6.61957056e-07
6.61960223e-07
6.61957402e-07
6.6196032e-07
6.61957687e-07
6.61958479e-07
6.61958464e-07
6.61958329e-07
6.6195692e-07
6.61958238e-07
6.61957396e-07
6.61957781e-07
6.61959135e-07
6.61956694e-07
6.61960538e-07
6.61960937e-07
6.61985485e-07
6.61987395e-07
6.6216898e-07
6.62167511e-07
6.61985624e-07
6.61985806e-07
6.61960915e-07
6.61959996e-07
6.61958238e-07
6.61958714e-07
6.61957967e-07
6.61958776e-07
6.61958041e-07
6.61959204e-07
6.61957093e-07
6.61959689e-07
6.61957886e-07
6.61958738e-07
6.61958068e-07
6.61958743e-07
6.61957732e-07
6.61958953e-07
6.61957674e-07
6.61959491e-07
6.61957505e-07
6.61960112e-07
6.61956971e-07
6.61960042e-07
6.61957583e-07
6.61958454e-07
6.61958336e-07
6.61959271e-07
6.61958331e-07
6.61959032e-07
6.61958309e-07
6.61959152e-07
6.61957714e-07
6.61959254e-07
6.61958198e-07
6.61959079e-07
6.61958392e-07
6.61958074e-07
6.61959054e-07
6.61958604e-07
6.61958599e-07
6.6195808e-07
6.61959508e-07
6.61957974e-07
6.61958182e-07
6.61959888e-07
6.61957295e-07
6.61958833e-07
6.61958799e-07
6.61958433e-07
6.61959306e-07
6.61958751e-07
6.61958429e-07
6.61958633e-07
6.6195947e-07
6.61958877e-07
6.61959191e-07
6.61958806e-07
6.61958871e-07
6.61959092e-07
6.61960064e-07
6.61957653e-07
6.61960604e-07
6.61957007e-07
6.61960248e-07
6.61957471e-07
6.61959323e-07
6.61958042e-07
6.61957954e-07
6.61959235e-07
6.61958556e-07
6.61958375e-07
6.61958389e-07
6.61959319e-07
6.61958689e-07
6.61957668e-07
6.61959489e-07
6.61958439e-07
6.61959687e-07
6.61958992e-07
6.61959481e-07
6.61959036e-07
6.6195841e-07
6.61958687e-07
6.61957291e-07
6.61959423e-07
6.61957946e-07
6.61958918e-07
6.6195765e-07
6.61960119e-07
6.61957119e-07
6.61959233e-07
6.61958927e-07
6.61958448e-07
6.61959637e-07
6.61958439e-07
6.61958914e-07
6.61959036e-07
6.6195791e-07
6.61959256e-07
6.6195838e-07
6.61958567e-07
6.61958411e-07
6.61958687e-07
6.6195812e-07
6.61958462e-07
6.61958897e-07
6.61958748e-07
6.6195894e-07
6.61958828e-07
6.61958969e-07
6.61959283e-07
6.61957752e-07
6.61958173e-07
6.61958933e-07
6.61958118e-07
6.61959124e-07
6.61959641e-07
6.61958962e-07
6.61959706e-07
6.6195924e-07
6.61959596e-07
6.61959124e-07
6.61958567e-07
6.61959369e-07
6.61958837e-07
6.61958461e-07
6.61957721e-07
6.61959936e-07
6.61957212e-07
6.61959421e-07
6.61957657e-07
6.61959737e-07
6.61958695e-07
6.61958661e-07
6.61959406e-07
6.61958783e-07
6.61959619e-07
6.61957676e-07
6.61959587e-07
6.61956782e-07
6.61960219e-07
6.61958069e-07
6.61960262e-07
6.61958147e-07
6.61958743e-07
6.61958953e-07
6.61959695e-07
6.61959062e-07
6.61959188e-07
6.61958317e-07
6.61959123e-07
6.61958512e-07
6.61959109e-07
6.61958843e-07
6.61958808e-07
6.6195989e-07
6.61958386e-07
6.61959114e-07
6.61959182e-07
6.6195992e-07
6.61958988e-07
6.61959464e-07
6.61959771e-07
6.61959023e-07
6.61958835e-07
6.6195928e-07
6.61959075e-07
6.61958622e-07
6.6195986e-07
6.61959224e-07
6.61959004e-07
6.61958819e-07
6.61958104e-07
6.61959016e-07
6.61958932e-07
6.61958616e-07
6.61959621e-07
6.6195875e-07
6.61958707e-07
6.61959389e-07
6.61959049e-07
6.61959274e-07
6.61959068e-07
6.61958698e-07
6.61959524e-07
6.61958896e-07
6.61959934e-07
6.61958834e-07
6.619597e-07
6.61959415e-07
6.6195925e-07
6.61959207e-07
6.61960456e-07
6.61958663e-07
6.61959868e-07
6.61958977e-07
6.61960068e-07
6.61959527e-07
6.61959417e-07
6.61958991e-07
6.6195968e-07
6.61959029e-07
6.61959842e-07
6.61959176e-07
6.61958429e-07
6.61960575e-07
6.61957652e-07
6.6195954e-07
6.6195829e-07
6.61959356e-07
6.61958997e-07
6.61959023e-07
6.61959681e-07
6.6195943e-07
6.61958897e-07
6.61959544e-07
6.61959032e-07
6.61959467e-07
6.61959528e-07
6.61958809e-07
6.61958434e-07
6.61960513e-07
6.61956989e-07
6.6196044e-07
6.61957669e-07
6.61960367e-07
6.61958961e-07
6.61959037e-07
6.61959588e-07
6.61959525e-07
6.61960064e-07
6.61959082e-07
6.61958877e-07
6.61959559e-07
6.61959215e-07
6.61959641e-07
6.61959784e-07
6.61960386e-07
6.61959402e-07
6.61959897e-07
6.61958677e-07
6.61961225e-07
6.61958711e-07
6.61960638e-07
6.61959208e-07
6.61960309e-07
6.61959012e-07
6.61959802e-07
6.61959559e-07
6.61959689e-07
6.61959755e-07
6.61959836e-07
6.61960679e-07
6.61958674e-07
6.61960794e-07
6.61958898e-07
6.61960191e-07
6.61959849e-07
6.61959515e-07
6.61960417e-07
6.61958674e-07
6.61960201e-07
6.61959474e-07
6.6195972e-07
6.619595e-07
6.61960212e-07
6.61959423e-07
6.61960042e-07
6.61959495e-07
6.61959718e-07
6.61959646e-07
6.61958782e-07
6.61959188e-07
6.61960308e-07
6.61959386e-07
6.6195943e-07
6.61959591e-07
6.61960056e-07
6.61959405e-07
6.61959855e-07
6.6195887e-07
6.61960388e-07
6.61958898e-07
6.61960968e-07
6.61960158e-07
6.61960201e-07
6.61959473e-07
6.61960727e-07
6.6195884e-07
6.61960186e-07
6.61958803e-07
6.61959165e-07
6.61959682e-07
6.61959938e-07
6.61959469e-07
6.6196062e-07
6.61959789e-07
6.61959271e-07
6.61959357e-07
6.61959641e-07
6.6195945e-07
6.61960184e-07
6.6195908e-07
6.61959596e-07
6.61959389e-07
6.61958898e-07
6.61959645e-07
6.61958742e-07
6.61960775e-07
6.6195888e-07
6.61961701e-07
6.61958755e-07
6.61961198e-07
6.61958315e-07
6.61960927e-07
6.61959223e-07
6.61959602e-07
6.6195987e-07
6.61960036e-07
6.61959979e-07
6.61959818e-07
6.61960368e-07
6.61959747e-07
6.61958597e-07
6.61960635e-07
6.61959265e-07
6.6195988e-07
6.61960163e-07
6.61959926e-07
6.61959471e-07
6.61959834e-07
6.61959749e-07
6.61959911e-07
6.61959717e-07
6.61959951e-07
6.61960124e-07
6.6195974e-07
6.61959821e-07
6.61960097e-07
6.61959981e-07
6.61960083e-07
6.61959872e-07
6.61960107e-07
6.61959941e-07
6.61960045e-07
6.619601e-07
6.61960158e-07
6.61960126e-07
6.61960179e-07
6.61960312e-07
6.61960317e-07
6.61960276e-07
6.61960406e-07
6.61960459e-07
6.61960455e-07
6.6196054e-07
6.61960614e-07
6.61960742e-07
6.61960774e-07
6.61960865e-07
6.61960981e-07
6.6196105e-07
6.61961182e-07
6.61961342e-07
6.61961494e-07
6.61961623e-07
6.61961855e-07
6.61962072e-07
6.61962336e-07
6.61962645e-07
6.61962965e-07
6.61963311e-07
6.61963662e-07
6.61963961e-07
6.61964167e-07
6.61964304e-07
6.61964398e-07
6.61964478e-07
6.61964475e-07
6.619645e-07
6.61964501e-07
6.61964496e-07
6.61964507e-07
6.61964507e-07
6.61964489e-07
6.61964522e-07
6.61964486e-07
6.61964488e-07
6.6196449e-07
6.61964496e-07
6.6196449e-07
6.61964489e-07
6.61964498e-07
6.61964492e-07
6.61964481e-07
6.61964514e-07
)
;

boundaryField
{
    closed
    {
        type            calculated;
        value           uniform 0;
    }
    open
    {
        type            calculated;
        value           uniform 0;
    }
    sides
    {
        type            empty;
    }
}


// ************************************************************************* //
