/*--------------------------------*- C++ -*----------------------------------*\
| =========                 |                                                 |
| \\      /  F ield         | OpenFOAM: The Open Source CFD Toolbox           |
|  \\    /   O peration     | Version:  2206                                  |
|   \\  /    A nd           | Website:  www.openfoam.com                      |
|    \\/     M anipulation  |                                                 |
\*---------------------------------------------------------------------------*/
FoamFile
{
    version     2.0;
    format      ascii;
    arch        "LSB;label=32;scalar=64";
    class       volScalarField;
    location    "1.76e-05";
    object      rho;
}
// * * * * * * * * * * * * * * * * * * * * * * * * * * * * * * * * * * * * * //

dimensions      [1 -3 0 0 0 0 0];

internalField   nonuniform List<scalar> 
3183
(
1.03926466
1.03926466
1.03926466
1.03926466
1.03926466
1.03926466
1.03926466
1.03926466
1.03926466
1.03926466
1.03926466
1.03926466
1.03926466
1.03926466
1.03926466
1.03926466
1.03926466
1.03926466
1.03926466
1.03926466
1.03926466
1.03926466
1.03926466
1.03926466
1.03926466
1.03926466
1.03926466
1.03926466
1.03926466
1.03926466
1.03926466
1.03926466
1.03926466
1.03926466
1.03926466
1.03926466
1.03926466
1.03926466
1.03926466
1.03926466
1.03926466
1.03926466
1.03926466
1.03926466
1.03926466
1.03926466
1.03926466
1.03926466
1.03926466
1.03926466
1.03926466
1.03926466
1.03926466
1.03926466
1.03926466
1.03926466
1.03926466
1.03926466
1.03926466
1.03926466
1.03926466
1.03926466
1.03926466
1.03926466
1.03926466
1.03926466
1.03926466
1.03926466
1.03926466
1.03926466
1.03926466
1.03926466
1.03926466
1.03926466
1.03926466
1.03926466
1.03926466
1.03926466
1.03926466
1.03926466
1.03926466
1.03926466
1.03926466
1.03926466
1.03926466
1.03926466
1.03926466
1.03926466
1.03926466
1.03926466
1.03926466
1.03926466
1.03926466
1.03926466
1.03926466
1.03926466
1.03926466
1.03926466
1.03926466
1.03926466
1.03926466
1.03926466
1.03926466
1.03926466
1.03926466
1.03926466
1.03926466
1.03926466
1.03926466
1.03926466
1.03926466
1.03926466
1.03926466
1.03926466
1.03926466
1.03926466
1.03926466
1.03926466
1.03926466
1.03926466
1.03926466
1.03926466
1.03926466
1.03926466
1.03926466
1.03926466
1.03926466
1.03926466
1.03926466
1.03926466
1.03926466
1.03926466
1.03926466
1.03926466
1.03926466
1.03926466
1.03926466
1.03926466
1.03926466
1.03926466
1.03926466
1.03926466
1.03926466
1.03926466
1.03926466
1.03926466
1.03926466
1.03926466
1.03926466
1.03926466
1.03926466
1.03926466
1.03926466
1.03926466
1.03926466
1.03926466
1.03926466
1.03926466
1.03926466
1.03926466
1.03926466
1.03926466
1.03926466
1.03926466
1.03926466
1.03926466
1.03926466
1.03926466
1.03926466
1.03926466
1.03926466
1.03926466
1.03926466
1.03926466
1.03926466
1.03926466
1.03926466
1.03926466
1.03926466
1.03926466
1.03926466
1.03926466
1.03926466
1.03926466
1.03926466
1.03926466
1.03926466
1.03926466
1.03926466
1.03926466
1.03926466
1.03926466
1.03926466
1.03926466
1.03926466
1.03926466
1.03926466
1.03926466
1.03926466
1.03926466
1.03926466
1.03926466
1.03926466
1.03926466
1.03926466
1.03926466
1.03926466
1.03926466
1.03926466
1.03926466
1.03926466
1.03926466
1.03926466
1.03926466
1.03926466
1.03926466
1.03926466
1.03926466
1.03926466
1.03926466
1.03926466
1.03926466
1.03926466
1.03926466
1.03926466
1.03926466
1.03926466
1.03926466
1.03926466
1.03926466
1.03926466
1.03926466
1.03926466
1.03926466
1.03926466
1.03926466
1.03926466
1.03926466
1.03926466
1.03926466
1.03926466
1.03926466
1.03926466
1.03926466
1.03926466
1.03926466
1.03926466
1.03926466
1.03926466
1.03926466
1.03926466
1.03926466
1.03926466
1.03926466
1.03926466
1.03926466
1.03926466
1.03926466
1.03926466
1.03926466
1.03926466
1.03926466
1.03926466
1.03926466
1.03926466
1.03926466
1.03926466
1.03926466
1.03926466
1.03926466
1.03926466
1.03926466
1.03926466
1.03926466
1.03926466
1.03926466
1.03926466
1.03926466
1.03926466
1.03926466
1.03926466
1.03926466
1.03926466
1.03926466
1.03926466
1.03926466
1.03926466
1.03926466
1.03926466
1.03926466
1.03926466
1.03926466
1.03926466
1.03926466
1.03926466
1.03926466
1.03926466
1.03926466
1.03926466
1.03926466
1.03926466
1.03926466
1.03926466
1.03926466
1.03926466
1.03926466
1.03926466
1.03926466
1.03926466
1.03926466
1.03926466
1.03926466
1.03926466
1.03926466
1.03926466
1.03926466
1.03926466
1.03926466
1.03926466
1.03926466
1.03926466
1.03926466
1.03926466
1.03926466
1.03926466
1.03926466
1.03926466
1.03926466
1.03926466
1.03926466
1.03926466
1.03926466
1.03926466
1.03926466
1.03926466
1.03926466
1.03926466
1.03926466
1.03926466
1.03926466
1.03926466
1.03926466
1.03926466
1.03926466
1.03926466
1.03926466
1.03926466
1.03926466
1.03926466
1.03926466
1.03926466
1.03926466
1.03926466
1.03926466
1.03926466
1.03926466
1.03926466
1.03926466
1.03926466
1.03926466
1.03926466
1.03926466
1.03926466
1.03926466
1.03926466
1.03926466
1.03926466
1.03926466
1.03926466
1.03926466
1.03926466
1.03926466
1.03926466
1.03926466
1.03926466
1.03926466
1.03926466
1.03926466
1.03926466
1.03926466
1.03926466
1.03926466
1.03926466
1.03926466
1.03926466
1.03926466
1.03926466
1.03926466
1.03926466
1.03926466
1.03926466
1.03926466
1.03926466
1.03926466
1.03926466
1.03926466
1.03926466
1.03926466
1.03926466
1.03926466
1.03926466
1.03926466
1.03926466
1.03926466
1.03926466
1.03926466
1.03926466
1.03926466
1.03926466
1.03926466
1.03926466
1.03926466
1.03926466
1.03926466
1.03926466
1.03926466
1.03926466
1.03926466
1.03926466
1.03926466
1.03926466
1.03926466
1.03926466
1.03926466
1.03926466
1.03926466
1.03926466
1.03926466
1.03926466
1.03926466
1.03926466
1.03926466
1.03926466
1.03926466
1.03926466
1.03926466
1.03926466
1.03926466
1.03926466
1.03926466
1.03926466
1.03926466
1.03926466
1.03926466
1.03926466
1.03926466
1.03926466
1.03926466
1.03926466
1.03926466
1.03926466
1.03926466
1.03926466
1.03926466
1.03926466
1.03926466
1.03926466
1.03926466
1.03926466
1.03926466
1.03926466
1.03926466
1.03926466
1.03926466
1.03926466
1.03926466
1.03926466
1.03926466
1.03926466
1.03926466
1.03926466
1.03926466
1.03926466
1.03926466
1.03926466
1.03926466
1.03926466
1.03926466
1.03926466
1.03926466
1.03926466
1.03926466
1.03926466
1.03926466
1.03926466
1.03926466
1.03926466
1.03926466
1.03926466
1.03926466
1.03926466
1.03926466
1.03926466
1.03926466
1.03926466
1.03926466
1.03926466
1.03926466
1.03926466
1.03926466
1.03926466
1.03926466
1.03926466
1.03926466
1.03926466
1.03926466
1.03926466
1.03926466
1.03926466
1.03926466
1.03926466
1.03926466
1.03926466
1.03926466
1.03926466
1.03926466
1.03926466
1.03926466
1.03926466
1.03926466
1.03926466
1.03926466
1.03926466
1.03926466
1.03926466
1.03926466
1.03926466
1.03926466
1.03926466
1.03926466
1.03926466
1.03926466
1.03926466
1.03926466
1.03926466
1.03926466
1.03926466
1.03926466
1.03926466
1.03926466
1.03926466
1.03926466
1.03926466
1.03926466
1.03926466
1.03926466
1.03926466
1.03926466
1.03926466
1.03926466
1.03926466
1.03926466
1.03926466
1.03926466
1.03926466
1.03926466
1.03926466
1.03926466
1.03926466
1.03926466
1.03926466
1.03926466
1.03926466
1.03926466
1.03926466
1.03926466
1.03926466
1.03926466
1.03926466
1.03926466
1.03926466
1.03926466
1.03926466
1.03926466
1.03926466
1.03926466
1.03926466
1.03926466
1.03926466
1.03926466
1.03926466
1.03926466
1.03926466
1.03926466
1.03926466
1.03926466
1.03926466
1.03926466
1.03926466
1.03926466
1.03926466
1.03926466
1.03926466
1.03926466
1.03926466
1.03926466
1.03926466
1.03926466
1.03926466
1.03926466
1.03926466
1.03926466
1.03926466
1.03926466
1.03926466
1.03926466
1.03926466
1.03926466
1.03926466
1.03926466
1.03926466
1.03926466
1.03926466
1.03926466
1.03926466
1.03926466
1.03926466
1.03926466
1.03926466
1.03926466
1.03926466
1.03926466
1.03926466
1.03926466
1.03926466
1.03926466
1.03926466
1.03926466
1.03926466
1.03926466
1.03926466
1.03926466
1.03926466
1.03926466
1.03926466
1.03926466
1.03926466
1.03926466
1.03926466
1.03926466
1.03926466
1.03926466
1.03926466
1.03926466
1.03926466
1.03926466
1.03926466
1.03926466
1.03926466
1.03926466
1.03926466
1.03926466
1.03926466
1.03926466
1.03926466
1.03926466
1.03926466
1.03926466
1.03926466
1.03926466
1.03926466
1.03926466
1.03926466
1.03926466
1.03926466
1.03926466
1.03926466
1.03926466
1.03926466
1.03926466
1.03926466
1.03926466
1.03926466
1.03926466
1.03926466
1.03926466
1.03926466
1.03926466
1.03926466
1.03926466
1.03926466
1.03926466
1.03926466
1.03926466
1.03926466
1.03926466
1.03926466
1.03926466
1.03926466
1.03926466
1.03926466
1.03926466
1.03926466
1.03926466
1.03926466
1.03926466
1.03926466
1.03926466
1.03926466
1.03926466
1.03926466
1.03926466
1.03926466
1.03926466
1.03926466
1.03926466
1.03926466
1.03926466
1.03926466
1.03926466
1.03926466
1.03926466
1.03926466
1.03926466
1.03926466
1.03926466
1.03926466
1.03926466
1.03926466
1.03926466
1.03926466
1.03926466
1.03926466
1.03926466
1.03926466
1.03926466
1.03926466
1.03926466
1.03926466
1.03926466
1.03926466
1.03926466
1.03926466
1.03926466
1.03926466
1.03926466
1.03926466
1.03926466
1.03926466
1.03926466
1.03926466
1.03926466
1.03926466
1.03926466
1.03926466
1.03926466
1.03926466
1.03926466
1.03926466
1.03926466
1.03926466
1.03926466
1.03926466
1.03926466
1.03926466
1.03926466
1.03926466
1.03926466
1.03926466
1.03926466
1.03926466
1.03926466
1.03926466
1.03926466
1.03926466
1.03926466
1.03926466
1.03926466
1.03926466
1.03926466
1.03926466
1.03926466
1.03926466
1.03926466
1.03926466
1.03926466
1.03926466
1.03926466
1.03926466
1.03926466
1.03926466
1.03926466
1.03926466
1.03926466
1.03926466
1.03926466
1.03926466
1.03926466
1.03926466
1.03926466
1.03926466
1.03926466
1.03926466
1.03926466
1.03926466
1.03926466
1.03926466
1.03926466
1.03926466
1.03926466
1.03926466
1.03926466
1.03926466
1.03926466
1.03926466
1.03926466
1.03926466
1.03926466
1.03926466
1.03926466
1.03926466
1.03926466
1.03926466
1.03926466
1.03926466
1.03926466
1.03926466
1.03926466
1.03926466
1.03926466
1.03926466
1.03926466
1.03926466
1.03926466
1.03926466
1.03926466
1.03926466
1.03926466
1.03926466
1.03926466
1.03926466
1.03926466
1.03926466
1.03926466
1.03926466
1.03926466
1.03926466
1.03926466
1.03926466
1.03926466
1.03926466
1.03926466
1.03926466
1.03926466
1.03926466
1.03926466
1.03926466
1.03926466
1.03926466
1.03926466
1.03926466
1.03926466
1.03926466
1.03926466
1.03926466
1.03926466
1.03926466
1.03926466
1.03926466
1.03926466
1.03926466
1.03926466
1.03926466
1.03926466
1.03926466
1.03926466
1.03926466
1.03926466
1.03926466
1.03926466
1.03926466
1.03926466
1.03926466
1.03926466
1.03926466
1.03926466
1.03926466
1.03926466
1.03926466
1.03926466
1.03926466
1.03926466
1.03926466
1.03926466
1.03926466
1.03926466
1.03926466
1.03926466
1.03926466
1.03926466
1.03926466
1.03926466
1.03926466
1.03926466
1.03926466
1.03926466
1.03926466
1.03926466
1.03926466
1.03926466
1.03926466
1.03926466
1.03926466
1.03926466
1.03926466
1.03926466
1.03926466
1.03926466
1.03926466
1.03926466
1.03926466
1.03926466
1.03926466
1.03926466
1.03926466
1.03926466
1.03926466
1.03926466
1.03926466
1.03926466
1.03926466
1.03926466
1.03926466
1.03926466
1.03926466
1.03926466
1.03926466
1.03926466
1.03926466
1.03926466
1.03926466
1.03926466
1.03926466
1.03926466
1.03926466
1.03926466
1.03926466
1.03926466
1.03926466
1.03926466
1.03926466
1.03926466
1.03926466
1.03926466
1.03926466
1.03926466
1.03926466
1.03926466
1.03926466
1.03926466
1.03926466
1.03926466
1.03926466
1.03926466
1.03926466
1.03926466
1.03926466
1.03926466
1.03926466
1.03926466
1.03926466
1.03926466
1.03926466
1.03926466
1.03926466
1.03926466
1.03926466
1.03926466
1.03926466
1.03926466
1.03926466
1.03926466
1.03926466
1.03926466
1.03926466
1.03926466
1.03926466
1.03926466
1.03926466
1.03926466
1.03926466
1.03926466
1.03926466
1.03926466
1.03926466
1.03926466
1.03926466
1.03926466
1.03926466
1.03926466
1.03926466
1.03926466
1.03926466
1.03926466
1.03926466
1.03926466
1.03926466
1.03926466
1.03926466
1.03926466
1.03926466
1.03926466
1.03926466
1.03926466
1.03926466
1.03926466
1.03926466
1.03926466
1.03926466
1.03926466
1.03926466
1.03926466
1.03926466
1.03926466
1.03926466
1.03926466
1.03926466
1.03926466
1.03926466
1.03926466
1.03926466
1.03926466
1.03926466
1.03926466
1.03926466
1.03926466
1.03926466
1.03926466
1.03926466
1.03926466
1.03926466
1.03926466
1.03926466
1.03926466
1.03926466
1.03926466
1.03926466
1.03926466
1.03926466
1.03926466
1.03926466
1.03926466
1.03926466
1.03926466
1.03926466
1.03926466
1.03926466
1.03926466
1.03926466
1.03926466
1.03926466
1.03926466
1.03926466
1.03926466
1.03926466
1.03926466
1.03926466
1.03926466
1.03926466
1.03926466
1.03926466
1.03926466
1.03926466
1.03926466
1.03926466
1.03926466
1.03926466
1.03926466
1.03926466
1.03926466
1.03926466
1.03926466
1.03926466
1.03926466
1.03926466
1.03926466
1.03926466
1.03926466
1.03926466
1.03926466
1.03926466
1.03926466
1.03926466
1.03926466
1.03926466
1.03926466
1.03926466
1.03926466
1.03926466
1.03926466
1.03926466
1.03926466
1.03926466
1.03926466
1.03926466
1.03926466
1.03926466
1.03926466
1.03926466
1.03926466
1.03926466
1.03926466
1.03926466
1.03926466
1.03926466
1.03926466
1.03926466
1.03926466
1.03926466
1.03926466
1.03926466
1.03926466
1.03926466
1.03926466
1.03926466
1.03926466
1.03926466
1.03926466
1.03926466
1.03926466
1.03926466
1.03926466
1.03926466
1.03926466
1.03926466
1.03926466
1.03926466
1.03926466
1.03926466
1.03926466
1.03926466
1.03926466
1.03926466
1.03926466
1.03926466
1.03926466
1.03926466
1.03926466
1.03926466
1.03926466
1.03926466
1.03926466
1.03926466
1.03926466
1.03926466
1.03926466
1.03926466
1.03926466
1.03926466
1.03926466
1.03926466
1.03926466
1.03926466
1.03926466
1.03926466
1.03926466
1.03926466
1.03926466
1.03926466
1.03926466
1.03926466
1.03926466
1.03926466
1.03926466
1.03926466
1.03926466
1.03926466
1.03926466
1.03926466
1.03926466
1.03926466
1.03926466
1.03926466
1.03926466
1.03926466
1.03926466
1.03926466
1.03926466
1.03926466
1.03926466
1.03926466
1.03926466
1.03926466
1.03926466
1.03926466
1.03926466
1.03926466
1.03926466
1.03926466
1.03926466
1.03926466
1.03926466
1.03926466
1.03926466
1.03926466
1.03926466
1.03926466
1.03926466
1.03926466
1.03926466
1.03926466
1.03926466
1.03926466
1.03926466
1.03926466
1.03926466
1.03926466
1.03926466
1.03926466
1.03926466
1.03926466
1.03926466
1.03926466
1.03926466
1.03926466
1.03926466
1.03926466
1.03926466
1.03926466
1.03926466
1.03926466
1.03926466
1.03926466
1.03926466
1.03926466
1.03926466
1.03926466
1.03926466
1.03926466
1.03926466
1.03926466
1.03926466
1.03926466
1.03926466
1.03926466
1.03926466
1.03926466
1.03926466
1.03926466
1.03926466
1.03926466
1.03926466
1.03926466
1.03926466
1.03926466
1.03926466
1.03926466
1.03926466
1.03926466
1.03926466
1.03926466
1.03926466
1.03926466
1.03926466
1.03926466
1.03926466
1.03926466
1.03926466
1.03926466
1.03926466
1.03926466
1.03926466
1.03926466
1.03926466
1.03926466
1.03926466
1.03926466
1.03926466
1.03926466
1.03926466
1.03926466
1.03926466
1.03926466
1.03926466
1.03926466
1.03926466
1.03926466
1.03926466
1.03926466
1.03926466
1.03926466
1.03926466
1.03926466
1.03926466
1.03926466
1.03926466
1.03926466
1.03926466
1.03926466
1.03926466
1.03926466
1.03926466
1.03926466
1.03926466
1.03926466
1.03926466
1.03926466
1.03926466
1.03926466
1.03926466
1.03926466
1.03926466
1.03926466
1.03926466
1.03926466
1.03926466
1.03926466
1.03926466
1.03926466
1.03926466
1.03926466
1.03926466
1.03926466
1.03926466
1.03926466
1.03926466
1.03926466
1.03926466
1.03926466
1.03926466
1.03926466
1.03926466
1.03926466
1.03926466
1.03926466
1.03926466
1.03926466
1.03926466
1.03926466
1.03926466
1.03926466
1.03926466
1.03926466
1.03926466
1.03926466
1.03926466
1.03926466
1.03926466
1.03926466
1.03926466
1.03926466
1.03926466
1.03926466
1.03926466
1.03926466
1.03926466
1.03926466
1.03926466
1.03926466
1.03926466
1.03926466
1.03926466
1.03926466
1.03926466
1.03926466
1.03926466
1.03926466
1.03926466
1.03926466
1.03926466
1.03926466
1.03926466
1.03926466
1.03926466
1.03926466
1.03926466
1.03926466
1.03926466
1.03926466
1.03926466
1.03926466
1.03926466
1.03926466
1.03926466
1.03926466
1.03926466
1.03926466
1.03926466
1.03926466
1.03926466
1.03926466
1.03926466
1.03926466
1.03926466
1.03926466
1.03926466
1.03926466
1.03926466
1.03926466
1.03926466
1.03926466
1.03926466
1.03926466
1.03926466
1.03926466
1.03926466
1.03926466
1.03926466
1.03926466
1.03926466
1.03926466
1.03926466
1.03926466
1.03926466
1.03926466
1.03926466
1.03926466
1.03926466
1.03926466
1.03926466
1.03926466
1.03926466
1.03926466
1.03926466
1.03926466
1.03926466
1.03926466
1.03926466
1.03926466
1.03926466
1.03926466
1.03926466
1.03926466
1.03926466
1.03926466
1.03926466
1.03926466
1.03926466
1.03926466
1.03926466
1.03926466
1.03926466
1.03926466
1.03926466
1.03926466
1.03926466
1.03926466
1.03926466
1.03926466
1.03926466
1.03926466
1.03926466
1.03926466
1.03926466
1.03926466
1.03926466
1.03926466
1.03926466
1.03926466
1.03926466
1.03926466
1.03926466
1.03926466
1.03926466
1.03926466
1.03926466
1.03926466
1.03926466
1.03926466
1.03926466
1.03926466
1.03926466
1.03926466
1.03926466
1.03926466
1.03926466
1.03926466
1.03926466
1.03926466
1.03926466
1.03926466
1.03926466
1.03926466
1.03926466
1.03926466
1.03926466
1.03926466
1.03926466
1.03926466
1.03926466
1.03926466
1.03926466
1.03926466
1.03926466
1.03926466
1.03926466
1.03926466
1.03926466
1.03926466
1.03926466
1.03926466
1.03926466
1.03926466
1.03926466
1.03926466
1.03926466
1.03926466
1.03926466
1.03926466
1.03926466
1.03926466
1.03926466
1.03926466
1.03926466
1.03926466
1.03926466
1.03926466
1.03926466
1.03926466
1.03926466
1.03926466
1.03926466
1.03926466
1.03926466
1.03926466
1.03926466
1.03926466
1.03926466
1.03926466
1.03926466
1.03926466
1.03926466
1.03926466
1.03926466
1.03926466
1.03926466
1.03926466
1.03926466
1.03926466
1.03926466
1.03926466
1.03926466
1.03926466
1.03926466
1.03926466
1.03926466
1.03926466
1.03926466
1.03926466
1.03926466
1.03926466
1.03926466
1.03926466
1.03926466
1.03926466
1.03926466
1.03926466
1.03926466
1.03926466
1.03926466
1.03926466
1.03926466
1.03926466
1.03926466
1.03926466
1.03926466
1.03926466
1.03926466
1.03926466
1.03926466
1.03926466
1.03926466
1.03926466
1.03926466
1.03926466
1.03926466
1.03926466
1.03926466
1.03926466
1.03926466
1.03926466
1.03926466
1.03926466
1.03926466
1.03926466
1.03926466
1.03926466
1.03926466
1.03926466
1.03926466
1.03926466
1.03926466
1.03926466
1.03926466
1.03926466
1.03926466
1.03926466
1.03926466
1.03926466
1.03926466
1.03926466
1.03926466
1.03926466
1.03926466
1.03926466
1.03926466
1.03926466
1.03926466
1.03926466
1.03926466
1.03926466
1.03926466
1.03926466
1.03926466
1.03926466
1.03926466
1.03926466
1.03926466
1.03926466
1.03926466
1.03926466
1.03926466
1.03926466
1.03926466
1.03926466
1.03926466
1.03926466
1.03926466
1.03926466
1.03926466
1.03926466
1.03926466
1.03926466
1.03926466
1.03926466
1.03926466
1.03926466
1.03926466
1.03926466
1.03926466
1.03926466
1.03926466
1.03926466
1.03926466
1.03926466
1.03926466
1.03926466
1.03926466
1.03926466
1.03926466
1.03926466
1.03926466
1.03926466
1.03926466
1.03926466
1.03926466
1.03926466
1.03926466
1.03926466
1.03926466
1.03926466
1.03926466
1.03926466
1.03926466
1.03926466
1.03926466
1.03926466
1.03926466
1.03926466
1.03926466
1.03926466
1.03926466
1.03926466
1.03926466
1.03926466
1.03926466
1.03926466
1.03926466
1.03926466
1.03926466
1.03926466
1.03926466
1.03926466
1.03926466
1.03926466
1.03926466
1.03926466
1.03926466
1.03926466
1.03926466
1.03926466
1.03926466
1.03926466
1.03926466
1.03926466
1.03926466
1.03926466
1.03926466
1.03926466
1.03926466
1.03926466
1.03926466
1.03926466
1.03926466
1.03926466
1.03926466
1.03926466
1.03926466
1.03926466
1.03926466
1.03926466
1.03926466
1.03926466
1.03926466
1.03926466
1.03926466
1.03926466
1.03926466
1.03926466
1.03926466
1.03926466
1.03926466
1.03926466
1.03926466
1.03926466
1.03926466
1.03926466
1.03926466
1.03926466
1.03926466
1.03926466
1.03926466
1.03926466
1.03926466
1.03926466
1.03926466
1.03926466
1.03926466
1.03926466
1.03926466
1.03926466
1.03926466
1.03926466
1.03926466
1.03926466
1.03926466
1.03926466
1.03926466
1.03926466
1.03926466
1.03926466
1.03926466
1.03926466
1.03926466
1.03926466
1.03926466
1.03926466
1.03926466
1.03926466
1.03926466
1.03926466
1.03926466
1.03926466
1.03926466
1.03926466
1.03926466
1.03926466
1.03926466
1.03926466
1.03926466
1.03926466
1.03926466
1.03926466
1.03926466
1.03926465
1.03926465
1.03926465
1.03926465
1.03926465
1.03926465
1.03926465
1.03926465
1.03926465
1.03926465
1.03926465
1.03926465
1.03926465
1.03926465
1.03926465
1.03926464
1.03926464
1.03926464
1.03926464
1.03926464
1.03926464
1.03926464
1.03926464
1.03926463
1.03926463
1.03926463
1.03926463
1.03926463
1.03926463
1.03926462
1.03926462
1.03926462
1.03926462
1.03926462
1.03926461
1.03926461
1.03926461
1.0392646
1.0392646
1.0392646
1.03926459
1.03926459
1.03926459
1.03926458
1.03926458
1.03926457
1.03926457
1.03926456
1.03926456
1.03926455
1.03926455
1.03926454
1.03926454
1.03926453
1.03926452
1.03926451
1.03926451
1.0392645
1.03926449
1.03926448
1.03926447
1.03926446
1.03926445
1.03926444
1.03926443
1.03926442
1.03926441
1.03926439
1.03926438
1.03926436
1.03926435
1.03926433
1.03926432
1.0392643
1.03926428
1.03926426
1.03926424
1.03926422
1.0392642
1.03926418
1.03926416
1.03926413
1.03926411
1.03926408
1.03926405
1.03926402
1.03926399
1.03926396
1.03926393
1.03926389
1.03926386
1.03926382
1.03926378
1.03926374
1.0392637
1.03926365
1.0392636
1.03926356
1.03926351
1.03926345
1.0392634
1.03926334
1.03926328
1.03926322
1.03926315
1.03926309
1.03926302
1.03926294
1.03926287
1.03926279
1.03926271
1.03926262
1.03926253
1.03926244
1.03926234
1.03926224
1.03926214
1.03926203
1.03926192
1.0392618
1.03926168
1.03926156
1.03926143
1.03926129
1.03926115
1.03926101
1.03926085
1.0392607
1.03926054
1.03926037
1.03926019
1.03926001
1.03925983
1.03925963
1.03925943
1.03925922
1.03925901
1.03925878
1.03925855
1.03925831
1.03925807
1.03925781
1.03925755
1.03925728
1.03925699
1.0392567
1.0392564
1.03925609
1.03925577
1.03925543
1.03925509
1.03925474
1.03925437
1.03925399
1.03925361
1.0392532
1.03925279
1.03925236
1.03925192
1.03925147
1.039251
1.03925052
1.03925003
1.03924952
1.03924899
1.03924845
1.03924789
1.03924732
1.03924673
1.03924613
1.03924551
1.03924487
1.03924421
1.03924353
1.03924284
1.03924213
1.03924139
1.03924064
1.03923987
1.03923908
1.03923827
1.03923743
1.03923658
1.0392357
1.03923481
1.03923389
1.03923295
1.03923198
1.03923099
1.03922998
1.03922895
1.03922789
1.0392268
1.0392257
1.03922456
1.0392234
1.03922222
1.03922101
1.03921978
1.03921851
1.03921723
1.03921591
1.03921457
1.0392132
1.0392118
1.03921038
1.03920893
1.03920745
1.03920594
1.03920441
1.03920284
1.03920125
1.03919963
1.03919799
1.03919631
1.0391946
1.03919287
1.03919111
1.03918932
1.0391875
1.03918565
1.03918378
1.03918187
1.03917994
1.03917798
1.039176
1.03917398
1.03917194
1.03916987
1.03916778
1.03916566
1.03916351
1.03916134
1.03915914
1.03915691
1.03915467
1.0391524
1.0391501
1.03914778
1.03914544
1.03914308
1.03914069
1.03913829
1.03913586
1.03913342
1.03913096
1.03912848
1.03912598
1.03912346
1.03912093
1.03911838
1.03911582
1.03911325
1.03911067
1.03910807
1.03910546
1.03910284
1.03910022
1.03909758
1.03909494
1.0390923
1.03908965
1.039087
1.03908434
1.03908169
1.03907903
1.03907637
1.03907372
1.03907107
1.03906843
1.03906579
1.03906316
1.03906054
1.03905793
1.03905533
1.03905274
1.03905016
1.0390476
1.03904505
1.03904253
1.03904002
1.03903753
1.03903506
1.03903262
1.0390302
1.0390278
1.03902543
1.03902309
1.03902077
1.03901849
1.03901623
1.03901401
1.03901182
1.03900967
1.03900755
1.03900547
1.03900343
1.03900143
1.03899946
1.03899754
1.03899566
1.03899383
1.03899203
1.03899028
1.03898858
1.03898693
1.03898532
1.03898376
1.03898225
1.03898079
1.03897937
1.03897801
1.03897671
1.03897545
1.03897424
1.03897309
1.038972
1.03897095
1.03896996
1.03896903
1.03896814
1.03896732
1.03896655
1.03896583
1.03896517
1.03896456
1.03896401
1.03896352
1.03896307
1.03896269
1.03896235
1.03896208
1.03896185
1.03896168
1.03896156
1.0389615
1.03896148
1.03896152
1.03896161
1.03896175
1.03896194
1.03896218
1.03896247
1.0389628
1.03896318
1.03896361
1.03896408
1.0389646
1.03896516
1.03896576
1.03896641
1.03896709
1.03896781
1.03896857
1.03896937
1.03897021
1.03897108
1.03897198
1.03897292
1.03897389
1.03897488
1.03897591
1.03897697
1.03897805
1.03897916
1.03898029
1.03898144
1.03898262
1.03898382
1.03898504
1.03898627
1.03898752
1.03898879
1.03899008
1.03899137
1.03899268
1.038994
1.03899533
1.03899667
1.03899802
1.03899937
1.03900073
1.0390021
1.03900347
1.03900484
1.03900621
1.03900758
1.03900895
1.03901032
1.03901169
1.03901306
1.03901442
1.03901578
1.03901713
1.03901848
1.03901982
1.03902115
1.03902247
1.03902378
1.03902509
1.03902638
1.03902767
1.03902894
1.0390302
1.03903145
1.03903268
1.03903391
1.03903512
1.03903631
1.0390375
1.03903866
1.03903982
1.03904096
1.03904208
1.03904319
1.03904428
1.03904536
1.03904642
1.03904747
1.0390485
1.03904952
1.03905052
1.0390515
1.03905247
1.03905343
1.03905436
1.03905529
1.03905619
1.03905709
1.03905796
1.03905883
1.03905967
1.03906051
1.03906133
1.03906213
1.03906292
1.0390637
1.03906446
1.03906521
1.03906595
1.03906668
1.03906739
1.03906809
1.03906878
1.03906946
1.03907012
1.03907078
1.03907142
1.03907206
1.03907268
1.0390733
1.0390739
1.0390745
1.03907508
1.03907566
1.03907623
1.03907679
1.03907734
1.03907789
1.03907843
1.03907896
1.03907948
1.03908
1.03908051
1.03908102
1.03908152
1.03908201
1.0390825
1.03908298
1.03908346
1.03908393
1.0390844
1.03908486
1.03908532
1.03908577
1.03908622
1.03908667
1.03908711
1.03908755
1.03908799
1.03908842
1.03908885
1.03908927
1.0390897
1.03909012
1.03909053
1.03909094
1.03909135
1.03909176
1.03909217
1.03909257
1.03909297
1.03909336
1.03909375
1.03909414
1.03909453
1.03909492
1.0390953
1.03909568
1.03909605
1.03909642
1.03909679
1.03909716
1.03909753
1.03909789
1.03909824
1.0390986
1.03909895
1.0390993
1.03909965
1.03909999
1.03910033
1.03910066
1.03910099
1.03910132
1.03910165
1.03910197
1.03910229
1.0391026
1.03910291
1.03910322
1.03910352
1.03910382
1.03910412
1.03910441
1.0391047
1.03910498
1.03910526
1.03910554
1.03910581
1.03910608
1.03910634
1.0391066
1.03910686
1.03910711
1.03910736
1.03910761
1.03910785
1.03910808
1.03910832
1.03910855
1.03910878
1.039109
1.03910922
1.03910944
1.03910965
1.03910986
1.03911007
1.03911028
1.03911048
1.03911068
1.03911087
1.03911107
1.03911126
1.03911145
1.03911163
1.03911182
1.039112
1.03911218
1.03911236
1.03911254
1.03911272
1.03911289
1.03911306
1.03911324
1.03911341
1.03911358
1.03911375
1.03911392
1.03911409
1.03911426
1.03911443
1.03911459
1.03911476
1.03911493
1.0391151
1.03911527
1.03911544
1.03911561
1.03911578
1.03911595
1.03911613
1.0391163
1.03911647
1.03911665
1.03911683
1.039117
1.03911718
1.03911736
1.03911755
1.03911773
1.03911791
1.0391181
1.03911829
1.03911847
1.03911866
1.03911885
1.03911905
1.03911924
1.03911943
1.03911963
1.03911983
1.03912002
1.03912022
1.03912042
1.03912062
1.03912083
1.03912103
1.03912123
1.03912143
1.03912164
1.03912184
1.03912205
1.03912225
1.03912246
1.03912266
1.03912287
1.03912307
1.03912328
1.03912348
1.03912368
1.03912389
1.03912409
1.03912429
1.03912449
1.03912469
1.03912488
1.03912508
1.03912528
1.03912547
1.03912566
1.03912585
1.03912604
1.03912623
1.03912641
1.0391266
1.03912678
1.03912696
1.03912713
1.03912731
1.03912748
1.03912765
1.03912782
1.03912799
1.03912815
1.03912831
1.03912847
1.03912863
1.03912879
1.03912894
1.03912909
1.03912924
1.03912939
1.03912953
1.03912968
1.03912982
1.03912996
1.03913009
1.03913023
1.03913036
1.03913049
1.03913062
1.03913075
1.03913088
1.039131
1.03913112
1.03913125
1.03913137
1.03913149
1.0391316
1.03913172
1.03913184
1.03913195
1.03913206
1.03913218
1.03913229
1.0391324
1.03913251
1.03913262
1.03913272
1.03913283
1.03913294
1.03913304
1.03913315
1.03913325
1.03913336
1.03913346
1.03913356
1.03913367
1.03913377
1.03913387
1.03913397
1.03913407
1.03913417
1.03913427
1.03913437
1.03913446
1.03913456
1.03913466
1.03913475
1.03913485
1.03913495
1.03913504
1.03913514
1.03913523
1.03913532
1.03913542
1.03913551
1.0391356
1.0391357
1.03913579
1.03913588
1.03913597
1.03913606
1.03913615
1.03913624
1.03913633
1.03913642
1.03913651
1.03913661
1.0391367
1.03913679
1.03913688
1.03913697
1.03913706
1.03913715
1.03913724
1.03913733
1.03913743
1.03913752
1.03913761
1.03913771
1.0391378
1.0391379
1.039138
1.0391381
1.0391382
1.0391383
1.0391384
1.03913851
1.03913862
1.03913873
1.03913884
1.03913895
1.03913907
1.03913919
1.03913932
1.03913944
1.03913957
1.03913971
1.03913985
1.03914
1.03914015
1.0391403
1.03914046
1.03914063
1.03914081
1.03914099
1.03914119
1.03914139
1.0391416
1.03914182
1.03914205
1.0391423
1.03914256
1.03914283
1.03914312
1.03914342
1.03914374
1.03914408
1.03914444
1.03914482
1.03914521
1.03914564
1.03914608
1.03914655
1.03914705
1.03914757
1.03914812
1.0391487
1.03914931
1.03914996
1.03915063
1.03915133
1.03915207
1.03915284
1.03915364
1.03915447
1.03915534
1.03915623
1.03915716
1.03915811
1.0391591
1.0391601
1.03916113
1.03916218
1.03916324
1.03916432
1.0391654
1.03916649
1.03916758
1.03916867
1.03916974
1.0391708
1.03917184
1.03917286
1.03917385
1.03917479
1.0391757
1.03917657
1.03917738
1.03917814
1.03917884
1.03917949
1.03918007
1.03918059
1.03918105
1.03918145
1.03918178
1.03918207
1.03918229
1.03918247
1.0391826
1.0391827
1.03918276
1.03918279
1.0391828
1.0391828
1.03918278
1.03918277
1.03918274
1.03918304
1.03918303
1.03919269
1.03919269
1.03942673
1.03942705
1.04129476
1.04125205
0.86417113
0.864066744
0.44404724
0.416374733
0.324106248
0.315097743
0.285502284
0.282329106
0.270695226
0.269617228
0.265108152
0.264815072
0.263376563
0.263317838
0.262928363
0.26291935
0.262826564
0.262825642
0.26280598
0.262805939
0.262802201
0.262802194
0.262801538
0.262801526
0.262801407
0.262801388
0.26280135
0.262801324
0.262801293
0.26280126
0.262801222
0.262801181
0.262801136
0.262801087
0.262801034
0.262800977
0.262800916
0.262800851
0.262800781
0.262800708
0.262800631
0.262800549
0.262800464
0.262800375
0.262800283
0.262800187
0.262800087