/*--------------------------------*- C++ -*----------------------------------*\
| =========                 |                                                 |
| \\      /  F ield         | OpenFOAM: The Open Source CFD Toolbox           |
|  \\    /   O peration     | Version:  2206                                  |
|   \\  /    A nd           | Website:  www.openfoam.com                      |
|    \\/     M anipulation  |                                                 |
\*---------------------------------------------------------------------------*/
FoamFile
{
    version     2.0;
    format      ascii;
    arch        "LSB;label=32;scalar=64";
    class       volScalarField;
    location    "1.76e-05";
    object      sourcePV;
}
// * * * * * * * * * * * * * * * * * * * * * * * * * * * * * * * * * * * * * //

dimensions      [1 -3 -1 0 0 0 0];

internalField   nonuniform List<scalar> 
3183
(
0
0
0
0
0
0
0
0
0
0
0
0
0
0
0
0
0
0
0
0
0
0
0
0
0
0
0
0
0
0
0
0
0
0
0
0
0
0
0
0
0
0
0
0
0
0
0
0
0
0
0
0
0
0
0
0
0
0
0
0
0
0
0
0
0
0
0
0
0
0
0
0
0
0
0
0
0
0
0
0
0
0
0
0
0
0
0
0
0
0
0
0
0
0
0
0
0
0
0
0
0
0
0
0
0
0
0
0
0
0
0
0
0
0
0
0
0
0
0
0
0
0
0
0
0
0
0
0
0
0
0
0
0
0
0
0
0
0
0
0
0
0
0
0
0
0
0
0
0
0
0
0
0
0
0
0
0
0
0
0
0
0
0
0
0
0
0
0
0
0
0
0
0
0
0
0
0
0
0
0
0
0
0
0
0
0
0
0
0
0
0
0
0
0
0
0
0
0
0
0
0
0
0
0
0
0
0
0
0
0
0
0
0
0
0
0
0
0
0
0
0
0
0
0
0
0
0
0
0
0
0
0
0
0
0
0
0
0
0
0
0
0
0
0
0
0
0
0
0
0
0
0
0
0
0
0
0
0
0
0
0
0
0
0
0
0
0
0
0
0
0
0
0
0
0
0
0
0
0
0
0
0
0
0
0
0
0
0
0
0
0
0
0
0
0
0
0
0
0
0
0
0
0
0
0
0
0
0
0
0
0
0
0
0
0
0
0
0
0
0
0
0
0
0
0
0
0
0
0
0
0
0
0
0
0
0
0
0
0
0
0
0
0
0
0
0
0
0
0
0
0
0
0
0
0
0
0
0
0
0
0
0
0
0
0
0
0
0
0
0
0
0
0
0
0
0
0
0
0
0
0
0
0
0
0
0
0
0
0
0
0
0
0
0
0
0
0
0
0
0
0
0
0
0
0
0
0
0
0
0
0
0
0
0
0
0
0
0
0
0
0
0
0
0
0
0
0
0
0
0
0
0
0
0
0
0
0
0
0
0
0
0
0
0
0
0
0
0
0
0
0
0
0
0
0
0
0
0
0
0
0
0
0
0
0
0
0
0
0
0
0
0
0
0
0
0
0
0
0
0
0
0
0
0
0
0
0
0
0
0
0
0
0
0
0
0
0
0
0
0
0
0
0
0
0
0
0
0
0
0
0
0
0
0
0
0
0
0
0
0
0
0
0
0
0
0
0
0
0
0
0
0
0
0
0
0
0
0
0
0
0
0
0
0
0
0
0
0
0
0
0
0
0
0
0
0
0
0
0
0
0
0
0
0
0
0
0
0
0
0
0
0
0
0
0
0
0
0
0
0
0
0
0
0
0
0
0
0
0
0
0
0
0
0
0
0
0
0
0
0
0
0
0
0
0
0
0
0
0
0
0
0
0
0
0
0
0
0
0
0
0
0
0
0
0
0
0
0
0
0
0
0
0
0
0
0
0
0
0
0
0
0
0
0
0
0
0
0
0
0
0
0
0
0
0
0
0
0
0
0
0
0
0
0
0
0
0
0
0
0
0
0
0
0
0
0
0
0
0
0
0
0
0
0
0
0
0
0
0
0
0
0
0
0
0
0
0
0
0
0
0
0
0
0
0
0
0
0
0
0
0
0
0
0
0
0
0
0
0
0
0
0
0
0
0
0
0
0
0
0
0
0
0
0
0
0
0
0
0
0
0
0
0
0
0
0
0
0
0
0
0
0
0
0
0
0
0
0
0
0
0
0
0
0
0
0
0
0
0
0
0
0
0
0
0
0
0
0
0
0
0
0
0
0
0
0
0
0
0
0
0
0
0
0
0
0
0
0
0
0
0
0
0
0
0
0
0
0
0
0
0
0
0
0
0
0
0
0
0
0
0
0
0
0
0
0
0
0
0
0
0
0
0
0
0
0
0
0
0
0
0
0
0
0
0
0
0
0
0
0
0
0
0
0
0
0
0
0
0
0
0
0
0
0
0
0
0
0
0
0
0
0
0
0
0
0
0
0
0
0
0
0
0
0
0
0
0
0
0
0
0
0
0
0
0
0
0
0
0
0
0
0
0
0
0
0
0
0
0
0
0
0
0
0
0
0
0
0
0
0
0
0
0
0
0
0
0
0
0
0
0
0
0
0
0
0
0
0
0
0
0
0
0
0
0
0
0
0
0
0
0
0
0
0
0
0
0
0
0
0
0
0
0
0
0
0
0
0
0
0
0
0
0
0
0
0
0
0
0
0
0
0
0
0
0
0
0
0
0
0
0
0
0
0
0
0
0
0
0
0
0
0
0
0
0
0
0
0
0
0
0
0
0
0
0
0
0
0
0
0
0
0
0
0
0
0
0
0
0
0
0
0
0
0
0
0
0
0
0
0
0
0
0
0
0
0
0
0
0
0
0
0
0
0
0
0
0
0
0
0
0
0
0
0
0
0
0
0
0
0
0
0
0
0
0
0
0
0
0
0
0
0
0
0
0
0
0
0
0
0
0
0
0
0
0
0
0
0
0
0
0
0
0
0
0
0
0
0
0
0
0
0
0
0
0
0
0
0
0
0
0
0
0
0
0
0
0
0
0
0
0
0
0
0
0
0
0
0
0
0
0
0
0
0
0
0
0
0
0
0
0
0
0
0
0
0
0
0
0
0
0
0
0
0
0
0
0
0
0
0
0
0
0
0
0
0
0
0
0
0
0
0
0
0
0
0
0
0
0
0
0
0
0
0
0
0
0
0
0
0
0
0
0
0
0
0
0
0
0
0
0
0
0
0
0
0
0
0
0
0
0
0
0
0
0
0
0
0
0
0
0
0
0
0
0
0
0
0
0
0
0
0
0
0
0
0
0
0
0
0
0
0
0
0
0
0
0
0
0
0
0
0
0
0
0
0
0
0
0
0
0
0
0
0
0
0
0
0
0
0
0
0
0
0
0
0
0
0
0
0
0
0
0
0
0
0
0
0
0
0
0
0
0
0
0
0
0
0
0
0
0
0
0
0
0
0
0
0
0
0
0
0
0
0
0
0
0
0
0
0
0
0
0
0
0
0
0
0
0
0
0
0
0
0
0
0
0
0
0
0
0
0
0
0
0
0
0
0
0
0
0
0
0
0
0
0
0
0
0
0
0
0
0
0
0
0
0
0
0
0
0
0
0
0
0
0
0
0
0
0
0
0
0
0
0
0
0
0
0
0
0
0
0
0
0
0
0
0
0
0
0
0
0
0
0
0
0
0
0
0
0
0
0
0
0
0
0
0
0
0
0
0
0
0
0
0
0
0
0
0
0
0
0
0
0
0
0
0
0
0
0
0
0
0
0
0
0
0
0
0
0
0
0
0
0
0
0
0
0
0
0
0
0
0
0
0
0
0
0
0
0
0
0
0
0
0
0
0
0
0
0
0
0
0
0
0
0
0
0
0
0
0
0
0
0
0
0
0
0
0
0
0
0
0
0
0
0
0
0
0
0
0
0
0
0
0
0
0
0
0
0
0
0
0
0
0
0
0
0
0
0
0
0
0
0
0
0
0
0
0
0
0
0
0
0
0
0
0
0
0
0
0
0
0
0
0
0
0
0
0
0
0
0
0
0
0
0
0
0
0
0
0
0
0
0
0
0
0
0
0
0
0
0
0
0
0
0
0
0
0
0
0
0
0
0
0
0
0
0
0
0
0
0
0
0
0
0
0
0
0
0
0
0
0
0
0
0
0
0
0
0
0
0
0
0
0
0
0
0
0
0
0
0
0
0
0
0
0
0
0
0
0
0
0
0
0
0
0
0
0
0
0
0
0
0
0
0
0
0
0
0
0
0
0
0
0
0
0
0
0
0
0
0
0
0
0
0
0
0
0
0
0
0
0
0
0
0
0
0
0
0
0
0
0
0
0
0
0
0
0
0
0
0
0
0
0
0
0
0
0
0
0
0
0
0
0
0
0
0
0
0
0
0
0
0
0
0
0
0
0
0
0
0
0
0
0
0
0
0
0
0
0
0
0
0
0
0
0
0
0
0
0
0
0
0
0
0
0
0
0
0
0
0
0
0
0
0
0
0
0
0
0
0
0
0
0
0
0
0
0
0
0
0
0
0
0
0
0
0
0
0
0
0
0
0
0
0
0
0
0
0
0
0
0
0
0
0
0
0
0
0
0
0
0
0
0
0
0
0
0
0
0
0
0
0
0
0
0
0
0
0
0
0
0
0
0
0
0
0
0
0
0
0
0
0
0
0
0
0
0
0
0
0
0
0
0
0
0
0
0
0
0
0
0
0
0
0
0
0
0
0
0
0
0
0
0
0
0
0
0
0
0
0
0
0
0
0
0
0
0
0
0
0
0
0
0
0
0
0
0
0
0
0
0
0
0
0
0
0
0
0
0
0
0
0
0
0
0
0
0
0
0
0
0
0
0
0
0
0
0
0
0
0
0
0
0
0
0
0
0
0
0
0
0
0
0
0
0
0
0
0
0
0
0
0
0
0
0
0
0
0
0
0
0
0
0
0
0
0
0
0
0
0
0
0
0
0
0
0
0
0
0
0
0
0
0
0
0
0
0
0
0
0
0
0
0
0
0
0
0
0
0
0
0
0
0
0
0
0
0
0
0
0
0
0
0
0
0
0
0
0
0
0
0
0
0
0
0
0
0
0
0
0
0
0
0
0
0
0
0
0
0
0
0
0
0
0
0
0
0
0
0
0
0
0
0
0
0
0
0
0
0
0
0
0
0
0
0
0
0
0
0
0
0
0
0
0
0
0
0
0
0
0
0
0
0
0
0
0
0
0
0
0
0
0
0
0
0
0
0
0
0
0
0
0
0
0
0
0
0
0
0
0
0
0
0
0
0
0
0
0
0
0
0
0
0
0
0
0
0
0
0
0
0
0
0
0
0
0
0
0
0
0
0
0
0
0
0
0
0
0
0
0
0
0
0
0
0
0
0
0
0
0
0
0
0
0
0
0
0
0
0
0
0
0
0
0
0
0
0
0
0
0
0
0
0
0
0
0
0
0
0
0
0
0
0
0
0
0
0
0
0
0
0
0
0
0
0
0
0
0
0
0
0
0
0
0
0
0
0
0
0
0
0
0
0
0
0
0
0
0
0
0
0
0
0
0
0
0
0
0
0
0
0
0
0
0
0
0
0
0
0
0
0
0
0
0
0
0
0
0
0
0
0
0
0
0
0
0
0
0
0
0
0
0
0
0
0
0
0
0
0
0
0
0
0
0
0
0
0
0
0
0
0
0
0
0
0
0
0
0
0
0
0
0
0
0
0
0
0
0
0
0
0
0
0
0
0
0
0
0
0
0
0
0
0
0
0
0
0
0
0
0
0
0
0
0
0
0
0
0
0
0
0
0
0
0
9.00749904e-299
4.59627611e-299
4.64290424e-296
2.39206644e-296
2.37160529e-293
1.23357842e-293
1.20048603e-290
6.3035235e-291
6.02182448e-288
3.19167151e-288
2.9932918e-285
1.60127895e-285
1.47439252e-282
7.96021984e-283
7.19635894e-280
3.92087112e-280
3.48048769e-277
1.91354038e-277
1.66796266e-274
9.25303635e-275
7.9203111e-272
4.43297127e-272
3.72647308e-269
2.10424444e-269
1.7371731e-266
9.89621618e-267
8.02354807e-264
4.61001444e-264
3.67160829e-261
2.1283047e-261
1.66456349e-258
9.73358835e-259
7.47627879e-256
4.41083848e-256
3.32658029e-253
1.97928218e-253
1.46630242e-250
8.79799806e-251
6.40246251e-248
3.87378175e-248
2.76918975e-245
1.68945406e-245
1.18638071e-242
7.29796251e-243
5.03435592e-240
3.12236853e-240
2.11589576e-237
1.32305071e-237
8.80757625e-235
5.5521389e-235
3.63087124e-232
2.30736635e-232
1.482304e-229
9.49566209e-230
5.99259051e-227
3.86959608e-227
2.39894821e-224
1.56140677e-224
9.50896596e-222
6.23812384e-222
3.7318845e-219
2.46749341e-219
1.45004342e-216
9.66268271e-217
5.57784236e-214
3.74587976e-214
2.12401434e-211
1.43746755e-211
8.00621432e-209
5.4601312e-209
2.98708184e-206
2.05277144e-206
1.103031e-203
7.63802761e-204
4.03105282e-201
2.8125127e-201
1.45783312e-198
1.02482288e-198
5.21702537e-196
3.69497448e-196
1.84726829e-193
1.31810026e-193
6.4713333e-191
4.65183886e-191
2.24273498e-188
1.62406593e-188
7.68855762e-186
5.60851246e-186
2.60708697e-183
1.91565661e-183
8.74318171e-181
6.47102495e-181
2.89964619e-178
2.16158328e-178
9.50908485e-176
7.13955102e-176
3.08322905e-173
2.3314432e-173
9.88324928e-171
7.5263974e-171
3.13164465e-168
2.40164881e-168
9.80785665e-166
7.5742883e-166
3.03565899e-163
2.36065352e-163
9.2844366e-161
7.26987538e-161
2.80560368e-158
2.21192414e-158
8.37544212e-156
6.64820222e-156
2.46967689e-153
1.97364476e-153
7.19219764e-151
5.78631832e-151
2.06827337e-148
1.67509596e-148
5.87235713e-146
4.78755861e-146
1.64590955e-143
1.35069101e-143
4.55319848e-141
3.76091204e-141
1.24299574e-138
1.0333574e-138
3.34801601e-136
2.80123887e-136
8.89589295e-134
7.49050061e-134
2.33126568e-131
1.97536928e-131
6.02430354e-129
5.13658774e-129
1.53477187e-126
1.31673594e-126
3.85396706e-124
3.32678726e-124
9.53675483e-122
8.28236767e-122
2.32497742e-119
2.03134485e-119
5.58283698e-117
4.90686981e-117
1.32007041e-114
1.16709026e-114
3.07275569e-112
2.73253455e-112
7.03923214e-110
6.29600584e-110
1.58657552e-107
1.42716471e-107
3.51722618e-105
3.18168977e-105
7.66661088e-103
6.9738909e-103
1.64256586e-100
1.50237391e-100
3.45783134e-98
3.17988314e-98
7.14963834e-96
6.61015129e-96
1.45141925e-93
1.34898542e-93
2.89168225e-91
2.70158268e-91
5.65155417e-89
5.30706396e-89
1.08304197e-86
1.02215077e-86
2.03409882e-84
1.92925009e-84
3.74218687e-82
3.5665744e-82
6.74015453e-80
6.45455646e-80
1.18783308e-77
1.1428331e-77
2.04699643e-75
1.97849016e-75
3.44725282e-73
3.34684792e-73
5.66922491e-71
5.52823413e-71
9.09806419e-69
8.90966009e-69
1.42366417e-66
1.39994396e-66
2.17037079e-64
2.14265943e-64
3.22059689e-62
3.19124791e-62
4.64722878e-60
4.61987743e-60
6.51409609e-58
6.4914398e-58
8.85989446e-56
8.83695844e-56
1.16785779e-53
1.1629681e-53
1.48993406e-51
1.47723254e-51
1.83711019e-49
1.8113616e-49
2.18577345e-47
2.15297736e-47
2.50498519e-45
2.50369537e-45
2.75975912e-43
2.74957688e-43
2.91754974e-41
2.89630884e-41
2.9523637e-39
2.92093912e-39
2.85231168e-37
2.81376162e-37
2.62321809e-35
2.58423156e-35
2.28902871e-33
2.24618704e-33
1.88818795e-31
1.88887807e-31
1.46563728e-29
1.46492272e-29
1.06581736e-27
1.0635187e-27
7.21792712e-26
7.18229733e-26
4.52137669e-24
4.48393654e-24
2.59852429e-22
2.5706659e-22
1.35668959e-20
1.34261315e-20
6.35617134e-19
6.30743083e-19
2.63098187e-17
2.61537631e-17
9.42852258e-16
9.36531722e-16
2.84565772e-14
2.84408399e-14
6.94953276e-13
6.95455893e-13
1.63655248e-11
1.64822194e-11
1.96902849e-08
1.97477728e-08
0.0604953004
0.247114646
6.84289807
8.26054644
9.3003734
8.50663716
3.41985665
2.84111652
0.646573138
0.523359182
0.138894418
0.124706303
0.0306627619
0.0284828138
0.00607708527
0.0058531176
0.00110502613
0.00109512041
0.000193547491
0.000193258473
3.70484634e-05
3.70459567e-05
1.2060652e-05
1.2070396e-05
8.36135661e-06
8.36223256e-06
7.84719303e-06
7.84738476e-06
7.78021162e-06
7.78022676e-06
7.77195881e-06
7.77197396e-06
7.77099105e-06
7.77101218e-06
7.77088106e-06
7.77090636e-06
7.77087986e-06
7.77087805e-06
7.77088095e-06
7.77086441e-06
7.77088344e-06
7.77087151e-06
7.77087835e-06
7.77087801e-06
7.77088732e-06
7.77087285e-06
7.77089334e-06
7.77087381e-06
7.77088897e-06
7.77088192e-06
7.7708886e-06
7.77088705e-06
7.7708898e-06
7.77088087e-06
7.77089013e-06
7.77088256e-06
7.77087795e-06
7.77090019e-06
7.77087257e-06
7.77088884e-06
7.7708807e-06
7.770885e-06
7.77087024e-06
7.77087865e-06
7.77087359e-06
7.77087824e-06
7.77087269e-06
7.77089096e-06
7.77086893e-06
7.77088821e-06
7.77086798e-06
7.77088066e-06
7.77087524e-06
7.77088663e-06
7.77086706e-06
7.77089487e-06
7.77086829e-06
7.77089537e-06
7.77087869e-06
7.77088846e-06
7.77088239e-06
7.77087372e-06
7.77087924e-06
7.77087475e-06
7.77088762e-06
7.77087561e-06
7.77088203e-06
7.77087282e-06
7.77088528e-06
7.77086717e-06
7.77090312e-06
7.77086793e-06
7.77089404e-06
7.77087181e-06
7.77090164e-06
7.77086461e-06
7.7708936e-06
7.77087932e-06
7.77088853e-06
7.77088151e-06
7.77088917e-06
7.77087741e-06
7.7708884e-06
7.77087444e-06
7.77087391e-06
7.77089468e-06
7.77087454e-06
7.77088405e-06
7.77088171e-06
7.77087602e-06
7.77088451e-06
7.77087774e-06
7.77087399e-06
7.77087783e-06
7.77087694e-06
7.77088646e-06
7.7708629e-06
7.77089305e-06
7.77087169e-06
7.77089897e-06
7.77086915e-06
7.77090023e-06
7.77086429e-06
7.77088222e-06
7.7708859e-06
7.77089124e-06
7.77087601e-06
7.77089782e-06
7.77087536e-06
7.77089364e-06
7.77088625e-06
7.77089206e-06
7.77089091e-06
7.77089593e-06
7.77088818e-06
7.77090133e-06
7.77088144e-06
7.77089302e-06
7.77088051e-06
7.77088636e-06
7.77088013e-06
7.77087874e-06
7.77087631e-06
7.77088953e-06
7.77087135e-06
7.77088119e-06
7.77086735e-06
7.77089311e-06
7.7708732e-06
7.77087784e-06
7.77090079e-06
7.77086137e-06
7.77089747e-06
7.77087248e-06
7.77089382e-06
7.77088152e-06
7.77089211e-06
7.77086791e-06
7.77089601e-06
7.77086618e-06
7.77090622e-06
7.77086988e-06
7.77090707e-06
7.77087393e-06
7.77090821e-06
7.77087729e-06
7.77088659e-06
7.77088641e-06
7.77088483e-06
7.77086828e-06
7.77088376e-06
7.77087387e-06
7.77087839e-06
7.77089429e-06
7.77086562e-06
7.77091077e-06
7.77091546e-06
7.77120377e-06
7.77122621e-06
7.77335894e-06
7.77334169e-06
7.77120542e-06
7.77120754e-06
7.7709152e-06
7.7709044e-06
7.77088376e-06
7.77088934e-06
7.77088057e-06
7.77089007e-06
7.77088144e-06
7.77089511e-06
7.77087031e-06
7.7709008e-06
7.77087962e-06
7.77088963e-06
7.77088176e-06
7.77088969e-06
7.77087782e-06
7.77089216e-06
7.77087713e-06
7.77089847e-06
7.77087515e-06
7.77090577e-06
7.77086888e-06
7.77090494e-06
7.77087606e-06
7.77088629e-06
7.77088491e-06
7.77089589e-06
7.77088485e-06
7.77089308e-06
7.77088459e-06
7.77089449e-06
7.77087761e-06
7.77089569e-06
7.77088329e-06
7.77089363e-06
7.77088556e-06
7.77088183e-06
7.77089334e-06
7.77088806e-06
7.770888e-06
7.7708819e-06
7.77089867e-06
7.77088066e-06
7.77088311e-06
7.77090313e-06
7.77087268e-06
7.77089074e-06
7.77089035e-06
7.77088605e-06
7.7708963e-06
7.77088979e-06
7.770886e-06
7.7708884e-06
7.77089823e-06
7.77089126e-06
7.77089495e-06
7.77089042e-06
7.7708912e-06
7.77089379e-06
7.7709052e-06
7.77087689e-06
7.77091154e-06
7.77086929e-06
7.77090737e-06
7.77087475e-06
7.7708965e-06
7.77088145e-06
7.77088043e-06
7.77089547e-06
7.77088749e-06
7.77088536e-06
7.77088553e-06
7.77089645e-06
7.77088906e-06
7.77087706e-06
7.77089845e-06
7.77088612e-06
7.77090078e-06
7.77089262e-06
7.77089836e-06
7.77089314e-06
7.77088577e-06
7.77088903e-06
7.77087263e-06
7.77089768e-06
7.77088033e-06
7.77089175e-06
7.77087686e-06
7.77090584e-06
7.77087062e-06
7.77089544e-06
7.77089185e-06
7.77088623e-06
7.77090019e-06
7.77088611e-06
7.7708917e-06
7.77089314e-06
7.77087991e-06
7.77089571e-06
7.77088543e-06
7.77088762e-06
7.7708858e-06
7.77088903e-06
7.77088238e-06
7.77088639e-06
7.77089149e-06
7.77088975e-06
7.770892e-06
7.77089069e-06
7.77089234e-06
7.77089603e-06
7.77087805e-06
7.77088299e-06
7.77089192e-06
7.77088234e-06
7.77089416e-06
7.77090023e-06
7.77089227e-06
7.770901e-06
7.77089553e-06
7.77089971e-06
7.77089416e-06
7.77088763e-06
7.77089704e-06
7.77089079e-06
7.77088638e-06
7.77087768e-06
7.77090371e-06
7.77087171e-06
7.77089766e-06
7.77087693e-06
7.77090136e-06
7.77088912e-06
7.77088873e-06
7.77089748e-06
7.77089016e-06
7.77089998e-06
7.77087715e-06
7.77089961e-06
7.77086666e-06
7.77090702e-06
7.77088177e-06
7.77090753e-06
7.77088269e-06
7.77088969e-06
7.77089215e-06
7.77090087e-06
7.77089343e-06
7.77089491e-06
7.77088468e-06
7.77089415e-06
7.77088697e-06
7.77089399e-06
7.77089086e-06
7.77089046e-06
7.77090317e-06
7.7708855e-06
7.77089405e-06
7.77089485e-06
7.77090351e-06
7.77089256e-06
7.77089816e-06
7.77090177e-06
7.77089298e-06
7.77089077e-06
7.770896e-06
7.77089359e-06
7.77088826e-06
7.77090281e-06
7.77089534e-06
7.77089275e-06
7.77089058e-06
7.77088218e-06
7.77089289e-06
7.77089191e-06
7.7708882e-06
7.7709e-06
7.77088977e-06
7.77088927e-06
7.77089728e-06
7.77089328e-06
7.77089593e-06
7.77089351e-06
7.77088916e-06
7.77089887e-06
7.77089148e-06
7.77090367e-06
7.77089075e-06
7.77090093e-06
7.77089758e-06
7.77089565e-06
7.77089514e-06
7.77090981e-06
7.77088875e-06
7.7709029e-06
7.77089244e-06
7.77090525e-06
7.7708989e-06
7.77089761e-06
7.77089261e-06
7.7709007e-06
7.77089305e-06
7.77090259e-06
7.77089478e-06
7.770886e-06
7.7709112e-06
7.77087688e-06
7.77089905e-06
7.77088437e-06
7.77089688e-06
7.77089267e-06
7.77089298e-06
7.77090071e-06
7.77089775e-06
7.77089149e-06
7.7708991e-06
7.77089308e-06
7.77089819e-06
7.77089891e-06
7.77089047e-06
7.77088606e-06
7.77091048e-06
7.77086909e-06
7.77090963e-06
7.77087708e-06
7.77090877e-06
7.77089225e-06
7.77089315e-06
7.77089962e-06
7.77089888e-06
7.7709052e-06
7.77089368e-06
7.77089126e-06
7.77089928e-06
7.77089523e-06
7.77090023e-06
7.77090192e-06
7.77090899e-06
7.77089743e-06
7.77090324e-06
7.77088891e-06
7.77091884e-06
7.77088931e-06
7.77091195e-06
7.77089515e-06
7.77090808e-06
7.77089285e-06
7.77090213e-06
7.77089928e-06
7.7709008e-06
7.77090158e-06
7.77090253e-06
7.77091243e-06
7.77088888e-06
7.77091378e-06
7.7708915e-06
7.77090669e-06
7.77090268e-06
7.77089876e-06
7.77090935e-06
7.77088888e-06
7.77090682e-06
7.77089827e-06
7.77090116e-06
7.77089858e-06
7.77090695e-06
7.77089768e-06
7.77090494e-06
7.77089853e-06
7.77090114e-06
7.7709003e-06
7.77089015e-06
7.77089491e-06
7.77090807e-06
7.77089725e-06
7.77089775e-06
7.77089965e-06
7.77090511e-06
7.77089747e-06
7.77090275e-06
7.77089118e-06
7.77090901e-06
7.77089152e-06
7.77091582e-06
7.77090631e-06
7.77090681e-06
7.77089826e-06
7.77091299e-06
7.77089083e-06
7.77090664e-06
7.77089039e-06
7.77089465e-06
7.77090072e-06
7.77090373e-06
7.77089822e-06
7.77091173e-06
7.77090198e-06
7.77089589e-06
7.77089691e-06
7.77090024e-06
7.770898e-06
7.77090662e-06
7.77089364e-06
7.77089971e-06
7.77089728e-06
7.77089152e-06
7.77090028e-06
7.77088968e-06
7.77091356e-06
7.7708913e-06
7.77092443e-06
7.77088983e-06
7.77091852e-06
7.77088466e-06
7.77091535e-06
7.77089533e-06
7.77089978e-06
7.77090292e-06
7.77090488e-06
7.7709042e-06
7.77090232e-06
7.77090878e-06
7.77090148e-06
7.77088798e-06
7.77091191e-06
7.77089583e-06
7.77090305e-06
7.77090636e-06
7.77090359e-06
7.77089824e-06
7.7709025e-06
7.7709015e-06
7.77090341e-06
7.77090113e-06
7.77090388e-06
7.77090591e-06
7.7709014e-06
7.77090235e-06
7.77090559e-06
7.77090424e-06
7.77090543e-06
7.77090295e-06
7.77090571e-06
7.77090376e-06
7.77090498e-06
7.77090562e-06
7.77090631e-06
7.77090593e-06
7.77090655e-06
7.77090812e-06
7.77090818e-06
7.7709077e-06
7.77090922e-06
7.77090985e-06
7.7709098e-06
7.77091079e-06
7.77091166e-06
7.77091316e-06
7.77091354e-06
7.77091461e-06
7.77091598e-06
7.77091679e-06
7.77091833e-06
7.77092022e-06
7.770922e-06
7.77092351e-06
7.77092624e-06
7.77092879e-06
7.77093189e-06
7.77093552e-06
7.77093928e-06
7.77094334e-06
7.77094747e-06
7.77095097e-06
7.7709534e-06
7.770955e-06
7.77095611e-06
7.77095704e-06
7.77095701e-06
7.77095731e-06
7.77095732e-06
7.77095725e-06
7.77095739e-06
7.77095739e-06
7.77095718e-06
7.77095756e-06
7.77095714e-06
7.77095717e-06
7.77095719e-06
7.77095727e-06
7.77095719e-06
7.77095718e-06
7.77095729e-06
7.77095721e-06
7.77095708e-06
7.77095747e-06
)
;

boundaryField
{
    closed
    {
        type            calculated;
        value           uniform 0;
    }
    open
    {
        type            calculated;
        value           uniform 0;
    }
    sides
    {
        type            empty;
    }
}


// ************************************************************************* //
