/*--------------------------------*- C++ -*----------------------------------*\
| =========                 |                                                 |
| \\      /  F ield         | OpenFOAM: The Open Source CFD Toolbox           |
|  \\    /   O peration     | Version:  2206                                  |
|   \\  /    A nd           | Website:  www.openfoam.com                      |
|    \\/     M anipulation  |                                                 |
\*---------------------------------------------------------------------------*/
FoamFile
{
    version     2.0;
    format      ascii;
    arch        "LSB;label=32;scalar=64";
    class       volScalarField;
    location    "1.92e-05";
    object      p;
}
// * * * * * * * * * * * * * * * * * * * * * * * * * * * * * * * * * * * * * //

dimensions      [1 -1 -2 0 0 0 0];

internalField   nonuniform List<scalar> 
3183
(
101325
101325
101325
101325
101325
101325
101325
101325
101325
101325
101325
101325
101325
101325
101325
101325
101325
101325
101325
101325
101325
101325
101325
101325
101325
101325
101325
101325
101325
101325
101325
101325
101325
101325
101325
101325
101325
101325
101325
101325
101325
101325
101325
101325
101325
101325
101325
101325
101325
101325
101325
101325
101325
101325
101325
101325
101325
101325
101325
101325
101325
101325
101325
101325
101325
101325
101325
101325
101325
101325
101325
101325
101325
101325
101325
101325
101325
101325
101325
101325
101325
101325
101325
101325
101325
101325
101325
101325
101325
101325
101325
101325
101325
101325
101325
101325
101325
101325
101325
101325
101325
101325
101325
101325
101325
101325
101325
101325
101325
101325
101325
101325
101325
101325
101325
101325
101325
101325
101325
101325
101325
101325
101325
101325
101325
101325
101325
101325
101325
101325
101325
101325
101325
101325
101325
101325
101325
101325
101325
101325
101325
101325
101325
101325
101325
101325
101325
101325
101325
101325
101325
101325
101325
101325
101325
101325
101325
101325
101325
101325
101325
101325
101325
101325
101325
101325
101325
101325
101325
101325
101325
101325
101325
101325
101325
101325
101325
101325
101325
101325
101325
101325
101325
101325
101325
101325
101325
101325
101325
101325
101325
101325
101325
101325
101325
101325
101325
101325
101325
101325
101325
101325
101325
101325
101325
101325
101325
101325
101325
101325
101325
101325
101325
101325
101325
101325
101325
101325
101325
101325
101325
101325
101325
101325
101325
101325
101325
101325
101325
101325
101325
101325
101325
101325
101325
101325
101325
101325
101325
101325
101325
101325
101325
101325
101325
101325
101325
101325
101325
101325
101325
101325
101325
101325
101325
101325
101325
101325
101325
101325
101325
101325
101325
101325
101325
101325
101325
101325
101325
101325
101325
101325
101325
101325
101325
101325
101325
101325
101325
101325
101325
101325
101325
101325
101325
101325
101325
101325
101325
101325
101325
101325
101325
101325
101325
101325
101325
101325
101325
101325
101325
101325
101325
101325
101325
101325
101325
101325
101325
101325
101325
101325
101325
101325
101325
101325
101325
101325
101325
101325
101325
101325
101325
101325
101325
101325
101325
101325
101325
101325
101325
101325
101325
101325
101325
101325
101325
101325
101325
101325
101325
101325
101325
101325
101325
101325
101325
101325
101325
101325
101325
101325
101325
101325
101325
101325
101325
101325
101325
101325
101325
101325
101325
101325
101325
101325
101325
101325
101325
101325
101325
101325
101325
101325
101325
101325
101325
101325
101325
101325
101325
101325
101325
101325
101325
101325
101325
101325
101325
101325
101325
101325
101325
101325
101325
101325
101325
101325
101325
101325
101325
101325
101325
101325
101325
101325
101325
101325
101325
101325
101325
101325
101325
101325
101325
101325
101325
101325
101325
101325
101325
101325
101325
101325
101325
101325
101325
101325
101325
101325
101325
101325
101325
101325
101325
101325
101325
101325
101325
101325
101325
101325
101325
101325
101325
101325
101325
101325
101325
101325
101325
101325
101325
101325
101325
101325
101325
101325
101325
101325
101325
101325
101325
101325
101325
101325
101325
101325
101325
101325
101325
101325
101325
101325
101325
101325
101325
101325
101325
101325
101325
101325
101325
101325
101325
101325
101325
101325
101325
101325
101325
101325
101325
101325
101325
101325
101325
101325
101325
101325
101325
101325
101325
101325
101325
101325
101325
101325
101325
101325
101325
101325
101325
101325
101325
101325
101325
101325
101325
101325
101325
101325
101325
101325
101325
101325
101325
101325
101325
101325
101325
101325
101325
101325
101325
101325
101325
101325
101325
101325
101325
101325
101325
101325
101325
101325
101325
101325
101325
101325
101325
101325
101325
101325
101325
101325
101325
101325
101325
101325
101325
101325
101325
101325
101325
101325
101325
101325
101325
101325
101325
101325
101325
101325
101325
101325
101325
101325
101325
101325
101325
101325
101325
101325
101325
101325
101325
101325
101325
101325
101325
101325
101325
101325
101325
101325
101325
101325
101325
101325
101325
101325
101325
101325
101325
101325
101325
101325
101325
101325
101325
101325
101325
101325
101325
101325
101325
101325
101325
101325
101325
101325
101325
101325
101325
101325
101325
101325
101325
101325
101325
101325
101325
101325
101325
101325
101325
101325
101325
101325
101325
101325
101325
101325
101325
101325
101325
101325
101325
101325
101325
101325
101325
101325
101325
101325
101325
101325
101325
101325
101325
101325
101325
101325
101325
101325
101325
101325
101325
101325
101325
101325
101325
101325
101325
101325
101325
101325
101325
101325
101325
101325
101325
101325
101325
101325
101325
101325
101325
101325
101325
101325
101325
101325
101325
101325
101325
101325
101325
101325
101325
101325
101325
101325
101325
101325
101325
101325
101325
101325
101325
101325
101325
101325
101325
101325
101325
101325
101325
101325
101325
101325
101325
101325
101325
101325
101325
101325
101325
101325
101325
101325
101325
101325
101325
101325
101325
101325
101325
101325
101325
101325
101325
101325
101325
101325
101325
101325
101325
101325
101325
101325
101325
101325
101325
101325
101325
101325
101325
101325
101325
101325
101325
101325
101325
101325
101325
101325
101325
101325
101325
101325
101325
101325
101325
101325
101325
101325
101325
101325
101325
101325
101325
101325
101325
101325
101325
101325
101325
101325
101325
101325
101325
101325
101325
101325
101325
101325
101325
101325
101325
101325
101325
101325
101325
101325
101325
101325
101325
101325
101325
101325
101325
101325
101325
101325
101325
101325
101325
101325
101325
101325
101325
101325
101325
101325
101325
101325
101325
101325
101325
101325
101325
101325
101325
101325
101325
101325
101325
101325
101325
101325
101325
101325
101325
101325
101325
101325
101325
101325
101325
101325
101325
101325
101325
101325
101325
101325
101325
101325
101325
101325
101325
101325
101325
101325
101325
101325
101325
101325
101325
101325
101325
101325
101325
101325
101325
101325
101325
101325
101325
101325
101325
101325
101325
101325
101325
101325
101325
101325
101325
101325
101325
101325
101325
101325
101325
101325
101325
101325
101325
101325
101325
101325
101325
101325
101325
101325
101325
101325
101325
101325
101325
101325
101325
101325
101325
101325
101325
101325
101325
101325
101325
101325
101325
101325
101325
101325
101325
101325
101325
101325
101325
101325
101325
101325
101325
101325
101325
101325
101325
101325
101325
101325
101325
101325
101325
101325
101325
101325
101325
101325
101325
101325
101325
101325
101325
101325
101325
101325
101325
101325
101325
101325
101325
101325
101325
101325
101325
101325
101325
101325
101325
101325
101325
101325
101325
101325
101325
101325
101325
101325
101325
101325
101325
101325
101325
101325
101325
101325
101325
101325
101325
101325
101325
101325
101325
101325
101325
101325
101325
101325
101325
101325
101325
101325
101325
101325
101325
101325
101325
101325
101325
101325
101325
101325
101325
101325
101325
101325
101325
101325
101325
101325
101325
101325
101325
101325
101325
101325
101325
101325
101325
101325
101325
101325
101325
101325
101325
101325
101325
101325
101325
101325
101325
101325
101325
101325
101325
101325
101325
101325
101325
101325
101325
101325
101325
101325
101325
101325
101325
101325
101325
101325
101325
101325
101325
101325
101325
101325
101325
101325
101325
101325
101325
101325
101325
101325
101325
101325
101325
101325
101325
101325
101325
101325
101325
101325
101325
101325
101325
101325
101325
101325
101325
101325
101325
101325
101325
101325
101325
101325
101325
101325
101325
101325
101325
101325
101325
101325
101325
101325
101325
101325
101325
101325
101325
101325
101325
101325
101325
101325
101325
101325
101325
101325
101325
101325
101325
101325
101325
101325
101325
101325
101325
101325
101325
101325
101325
101325
101325
101325
101325
101325
101325
101325
101325
101325
101325
101325
101325
101325
101325
101325
101325
101325
101325
101325
101325
101325
101325
101325
101325
101325
101325
101325
101325
101325
101325
101325
101325
101325
101325
101325
101325
101325
101325
101325
101325
101325
101325
101325
101325
101325
101325
101325
101325
101325
101325
101325
101325
101325
101325
101325
101325
101325
101325
101325
101325
101325
101325
101325
101325
101325
101325
101325
101325
101325
101325
101325
101325
101325
101325
101325
101325
101325
101325
101325
101325
101325
101325
101325
101325
101325
101325
101325
101325
101325
101325
101325
101325
101325
101325
101325
101325
101325
101325
101325
101325
101325
101325
101325
101325
101325
101325
101325
101325
101325
101325
101325
101325
101325
101325
101325
101325
101325
101325
101325
101325
101325
101325
101325
101325
101325
101325
101325
101325
101325
101325
101325
101325
101325
101325
101325
101325
101325
101325
101325
101325
101325
101325
101325
101325
101325
101325
101325
101325
101325
101325
101325
101325
101325
101325
101325
101325
101325
101325
101325
101325
101325
101325
101325
101325
101325
101325
101325
101325
101325
101325
101325
101325
101325
101325
101325
101325
101325
101325
101325
101325
101325
101325
101325
101325
101325
101325
101325
101325
101325
101325
101325
101325
101325
101325
101325
101325
101325
101325
101325
101325
101325
101325
101325
101325
101325
101325
101325
101325
101325
101325
101325
101325
101325
101325
101325
101325
101325
101325
101325
101325
101325
101325
101325
101325
101325
101325
101325
101325
101325
101325
101325
101325
101325
101325
101325
101325
101325
101325
101325
101325
101325
101325
101325
101325
101325
101325
101325
101325
101325
101325
101325
101325
101325
101325
101325
101325
101325
101325
101325
101325
101325
101325
101325
101325
101325
101325
101325
101325
101325
101325
101325
101325
101325
101325
101325
101325
101325
101325
101325
101325
101325
101325
101325
101325
101325
101325
101325
101325
101325
101325
101325
101325
101325
101325
101325
101325
101325
101325
101325
101325
101325
101325
101325
101325
101325
101325
101325
101325
101325
101325
101325
101325
101325
101325
101325
101325
101325
101325
101325
101325
101325
101325
101325
101325
101325
101325
101325
101325
101325
101325
101325
101325
101325
101325
101325
101325
101325
101325
101325
101325
101325
101325
101325
101325
101325
101325
101325
101325
101325
101325
101325
101325
101325
101325
101325
101325
101325
101325
101325
101325
101325
101325
101325
101325
101325
101325
101325
101325
101325
101325
101325
101325
101325
101325
101325
101325
101325
101325
101325
101325
101325
101325
101325
101325
101325
101325
101325
101325
101325
101325
101325
101325
101325
101325
101325
101325
101325
101325
101325
101325
101325
101325
101325
101325
101325
101325
101325
101325
101325
101325
101325
101325
101325
101325
101325
101325
101325
101325
101325
101325
101325
101325
101325
101325
101325
101325
101325
101325
101325
101325
101325
101325
101325
101325
101325
101325
101325
101325
101325
101325
101325
101325
101325
101325
101325
101325
101325
101325
101325
101325
101325
101325
101325
101325
101325
101325
101325
101325
101325
101325
101325
101325
101325
101325
101325
101325
101325
101325
101325
101325
101325
101325
101325
101325
101325
101325
101325
101325
101325
101325
101325
101325
101325
101325
101325
101325
101325
101325
101325
101325
101325
101325
101325
101325
101325
101325
101325
101325
101325
101325
101325
101325
101325
101325
101325
101325
101325
101325
101325
101325
101325
101325
101325
101325
101325
101325
101325
101325
101325
101325
101325
101325
101325
101325
101325
101325
101325
101325
101325
101325
101325
101325
101325
101325
101325
101325
101325
101325
101325
101325
101325
101325
101325
101325
101325
101325
101325
101325
101325
101325
101325
101325
101325
101325
101325
101325
101325
101325
101324.999
101324.999
101324.999
101324.999
101324.999
101324.999
101324.999
101324.999
101324.999
101324.999
101324.999
101324.999
101324.999
101324.999
101324.999
101324.999
101324.999
101324.999
101324.999
101324.999
101324.998
101324.998
101324.998
101324.998
101324.998
101324.998
101324.998
101324.998
101324.998
101324.997
101324.997
101324.997
101324.997
101324.997
101324.997
101324.997
101324.996
101324.996
101324.996
101324.996
101324.995
101324.995
101324.995
101324.995
101324.994
101324.994
101324.994
101324.993
101324.993
101324.993
101324.992
101324.992
101324.992
101324.991
101324.991
101324.99
101324.99
101324.989
101324.989
101324.988
101324.988
101324.987
101324.986
101324.986
101324.985
101324.984
101324.983
101324.982
101324.982
101324.981
101324.98
101324.979
101324.978
101324.977
101324.975
101324.974
101324.973
101324.972
101324.97
101324.969
101324.967
101324.966
101324.964
101324.962
101324.961
101324.959
101324.957
101324.955
101324.953
101324.95
101324.948
101324.946
101324.943
101324.941
101324.938
101324.935
101324.932
101324.929
101324.926
101324.922
101324.919
101324.915
101324.911
101324.908
101324.903
101324.899
101324.895
101324.89
101324.885
101324.88
101324.875
101324.869
101324.864
101324.858
101324.852
101324.845
101324.839
101324.832
101324.825
101324.817
101324.81
101324.802
101324.793
101324.785
101324.776
101324.766
101324.757
101324.747
101324.736
101324.726
101324.714
101324.703
101324.691
101324.678
101324.666
101324.652
101324.638
101324.624
101324.609
101324.594
101324.578
101324.562
101324.545
101324.527
101324.509
101324.49
101324.47
101324.45
101324.429
101324.408
101324.386
101324.363
101324.339
101324.314
101324.289
101324.263
101324.236
101324.208
101324.18
101324.15
101324.119
101324.088
101324.055
101324.022
101323.987
101323.952
101323.915
101323.878
101323.839
101323.799
101323.758
101323.715
101323.672
101323.627
101323.58
101323.533
101323.484
101323.434
101323.382
101323.329
101323.275
101323.219
101323.162
101323.103
101323.042
101322.98
101322.916
101322.851
101322.784
101322.715
101322.644
101322.572
101322.498
101322.422
101322.344
101322.264
101322.183
101322.099
101322.014
101321.926
101321.837
101321.745
101321.652
101321.556
101321.458
101321.358
101321.256
101321.151
101321.045
101320.936
101320.825
101320.711
101320.596
101320.478
101320.357
101320.235
101320.109
101319.982
101319.852
101319.72
101319.585
101319.448
101319.308
101319.166
101319.021
101318.874
101318.725
101318.573
101318.418
101318.261
101318.102
101317.94
101317.775
101317.608
101317.439
101317.267
101317.093
101316.916
101316.737
101316.555
101316.371
101316.185
101315.996
101315.805
101315.612
101315.416
101315.218
101315.018
101314.816
101314.611
101314.405
101314.196
101313.986
101313.773
101313.558
101313.342
101313.124
101312.904
101312.682
101312.458
101312.233
101312.007
101311.778
101311.549
101311.318
101311.086
101310.852
101310.618
101310.382
101310.145
101309.908
101309.669
101309.43
101309.19
101308.95
101308.709
101308.467
101308.226
101307.984
101307.742
101307.5
101307.258
101307.016
101306.774
101306.533
101306.292
101306.052
101305.812
101305.573
101305.336
101305.099
101304.863
101304.628
101304.394
101304.162
101303.932
101303.703
101303.475
101303.25
101303.027
101302.805
101302.586
101302.368
101302.154
101301.941
101301.731
101301.524
101301.32
101301.118
101300.92
101300.724
101300.531
101300.342
101300.156
101299.973
101299.794
101299.619
101299.447
101299.279
101299.114
101298.954
101298.797
101298.645
101298.496
101298.352
101298.212
101298.076
101297.944
101297.817
101297.695
101297.576
101297.463
101297.354
101297.249
101297.149
101297.054
101296.963
101296.877
101296.796
101296.72
101296.648
101296.581
101296.519
101296.461
101296.409
101296.361
101296.318
101296.279
101296.245
101296.216
101296.192
101296.172
101296.157
101296.146
101296.14
101296.138
101296.141
101296.148
101296.16
101296.175
101296.195
101296.219
101296.248
101296.28
101296.316
101296.356
101296.4
101296.448
101296.5
101296.555
101296.613
101296.675
101296.74
101296.809
101296.88
101296.955
101297.033
101297.114
101297.197
101297.283
101297.372
101297.463
101297.556
101297.652
101297.75
101297.851
101297.953
101298.057
101298.163
101298.271
101298.38
101298.491
101298.603
101298.716
101298.831
101298.947
101299.064
101299.182
101299.3
101299.42
101299.54
101299.661
101299.782
101299.903
101300.025
101300.147
101300.27
101300.392
101300.515
101300.637
101300.759
101300.881
101301.003
101301.124
101301.245
101301.366
101301.486
101301.605
101301.724
101301.842
101301.96
101302.076
101302.192
101302.307
101302.421
101302.534
101302.646
101302.757
101302.866
101302.975
101303.083
101303.19
101303.295
101303.399
101303.502
101303.604
101303.704
101303.804
101303.902
101303.999
101304.094
101304.188
101304.281
101304.373
101304.463
101304.552
101304.64
101304.727
101304.812
101304.896
101304.979
101305.06
101305.141
101305.22
101305.297
101305.374
101305.449
101305.524
101305.597
101305.669
101305.74
101305.81
101305.878
101305.946
101306.013
101306.078
101306.143
101306.206
101306.269
101306.331
101306.392
101306.452
101306.511
101306.569
101306.626
101306.683
101306.738
101306.793
101306.848
101306.901
101306.954
101307.006
101307.057
101307.108
101307.158
101307.208
101307.257
101307.305
101307.353
101307.4
101307.447
101307.493
101307.539
101307.584
101307.629
101307.673
101307.717
101307.76
101307.803
101307.845
101307.888
101307.929
101307.971
101308.011
101308.052
101308.092
101308.132
101308.171
101308.211
101308.249
101308.288
101308.326
101308.364
101308.401
101308.438
101308.475
101308.512
101308.548
101308.584
101308.619
101308.654
101308.689
101308.724
101308.758
101308.792
101308.826
101308.859
101308.892
101308.925
101308.957
101308.989
101309.021
101309.052
101309.083
101309.114
101309.145
101309.175
101309.205
101309.234
101309.263
101309.292
101309.321
101309.349
101309.377
101309.404
101309.432
101309.458
101309.485
101309.511
101309.537
101309.563
101309.588
101309.613
101309.638
101309.662
101309.687
101309.71
101309.734
101309.757
101309.78
101309.803
101309.825
101309.847
101309.869
101309.891
101309.912
101309.933
101309.954
101309.975
101309.995
101310.015
101310.035
101310.055
101310.075
101310.094
101310.113
101310.133
101310.151
101310.17
101310.189
101310.207
101310.226
101310.244
101310.262
101310.28
101310.298
101310.316
101310.334
101310.352
101310.369
101310.387
101310.405
101310.422
101310.44
101310.457
101310.475
101310.492
101310.51
101310.528
101310.545
101310.563
101310.58
101310.598
101310.616
101310.633
101310.651
101310.669
101310.687
101310.705
101310.723
101310.74
101310.759
101310.777
101310.795
101310.813
101310.831
101310.85
101310.868
101310.886
101310.905
101310.923
101310.942
101310.96
101310.979
101310.998
101311.016
101311.035
101311.054
101311.073
101311.091
101311.11
101311.129
101311.148
101311.166
101311.185
101311.204
101311.222
101311.241
101311.26
101311.278
101311.297
101311.315
101311.333
101311.352
101311.37
101311.388
101311.406
101311.424
101311.442
101311.459
101311.477
101311.494
101311.512
101311.529
101311.546
101311.563
101311.58
101311.596
101311.613
101311.629
101311.645
101311.661
101311.677
101311.693
101311.708
101311.724
101311.739
101311.754
101311.769
101311.784
101311.798
101311.812
101311.827
101311.841
101311.855
101311.868
101311.882
101311.895
101311.909
101311.922
101311.935
101311.948
101311.96
101311.973
101311.985
101311.998
101312.01
101312.022
101312.034
101312.045
101312.057
101312.069
101312.08
101312.091
101312.102
101312.114
101312.125
101312.136
101312.146
101312.157
101312.168
101312.178
101312.189
101312.199
101312.21
101312.22
101312.23
101312.241
101312.251
101312.261
101312.271
101312.281
101312.291
101312.301
101312.311
101312.32
101312.33
101312.34
101312.35
101312.36
101312.369
101312.379
101312.389
101312.399
101312.408
101312.418
101312.428
101312.438
101312.447
101312.457
101312.467
101312.477
101312.487
101312.497
101312.507
101312.517
101312.528
101312.538
101312.548
101312.559
101312.569
101312.58
101312.591
101312.602
101312.613
101312.625
101312.636
101312.648
101312.66
101312.672
101312.685
101312.698
101312.711
101312.724
101312.738
101312.752
101312.767
101312.781
101312.797
101312.812
101312.829
101312.845
101312.863
101312.88
101312.899
101312.918
101312.937
101312.958
101312.979
101313
101313.023
101313.046
101313.07
101313.095
101313.121
101313.148
101313.176
101313.205
101313.235
101313.266
101313.298
101313.331
101313.365
101313.401
101313.438
101313.476
101313.515
101313.556
101313.598
101313.641
101313.686
101313.732
101313.78
101313.828
101313.879
101313.931
101313.984
101314.038
101314.094
101314.151
101314.21
101314.27
101314.331
101314.393
101314.457
101314.522
101314.588
101314.654
101314.722
101314.791
101314.86
101314.93
101315.001
101315.072
101315.144
101315.216
101315.288
101315.36
101315.433
101315.505
101315.577
101315.649
101315.72
101315.791
101315.861
101315.931
101315.999
101316.067
101316.134
101316.2
101316.264
101316.328
101316.39
101316.451
101316.511
101316.57
101316.627
101316.683
101316.738
101316.792
101316.844
101316.896
101316.947
101316.996
101317.045
101317.093
101317.141
101317.188
101317.235
101317.281
101317.327
101317.374
101317.42
101317.467
101317.513
101317.56
101317.608
101317.655
101317.703
101317.752
101317.8
101317.849
101317.897
101317.946
101317.994
101318.041
101318.088
101318.133
101318.177
101318.218
101318.257
101318.294
101318.327
101318.356
101318.381
101318.401
101318.416
101318.425
101318.429
101318.427
101318.418
101318.402
101318.38
101318.352
101318.318
101318.278
101318.234
101318.185
101318.132
101318.077
101318.021
101317.964
101317.908
101317.854
101317.804
101317.757
101317.715
101317.678
101317.647
101317.62
101317.598
101317.578
101317.56
101317.55
101317.567
101317.504
101317.739
101317.91
101317.907
101317.508
101317.391
101317.34
101317.395
101317.419
101317.478
101317.505
101317.562
101317.585
101317.619
101317.635
101317.654
101317.666
101317.679
101317.692
101317.707
101317.723
101317.741
101317.76
101317.78
101317.802
101317.825
101317.85
101317.875
101317.9
101317.926
101317.953
101317.979
101318.005
101318.031
101318.057
101318.082
101318.106
101318.129
101318.15
101318.171
101318.19
101318.208
101318.224
101318.239
101318.252
101318.263
101318.273
101318.281
101318.287
101318.291
101318.294
101318.295
101318.294
101318.292
101318.288
101318.283
101318.276
101318.268
101318.258
101318.247
101318.235
101318.222
101318.208
101318.193
101318.176
101318.159
101318.141
101318.123
101318.103
101318.083
101318.063
101318.042
101318.02
101317.998
101317.976
101317.954
101317.931
101317.908
101317.885
101317.861
101317.838
101317.814
101317.79
101317.766
101317.742
101317.719
101317.695
101317.671
101317.647
101317.623
101317.599
101317.576
101317.552
101317.528
101317.505
101317.481
101317.457
101317.434
101317.41
101317.387
101317.363
101317.339
101317.316
101317.292
101317.268
101317.245
101317.221
101317.197
101317.173
101317.149
101317.124
101317.1
101317.076
101317.051
101317.026
101317.001
101316.976
101316.95
101316.924
101316.898
101316.872
101316.846
101316.819
101316.792
101316.765
101316.737
101316.71
101316.682
101316.653
101316.624
101316.595
101316.566
101316.537
101316.507
101316.477
101316.446
101316.415
101316.384
101316.353
101316.321
101316.289
101316.257
101316.225
101316.192
101316.159
101316.126
101316.092
101316.058
101316.024
101315.99
101315.956
101315.921
101315.886
101315.852
101315.816
101315.781
101315.746
101315.71
101315.675
101315.639
101315.603
101315.568
101315.532
101315.496
101315.46
101315.424
101315.388
101315.352
101315.316
101315.281
101315.245
101315.209
101315.173
101315.138
101315.103
101315.067
101315.032
101314.997
101314.962
101314.927
101314.893
101314.858
101314.823
101314.789
101314.754
101314.721
101314.687
101314.654
101314.621
101314.589
101314.556
101314.524
101314.493
101314.461
101314.43
101314.399
101314.369
101314.338
101314.308
101314.279
101314.249
101314.22
101314.192
101314.163
101314.135
101314.107
101314.08
101314.053
101314.026
101314
101313.974
101313.948
101313.923
101313.898
101313.874
101313.849
101313.825
101313.802
101313.779
101313.756
101313.733
101313.711
101313.689
101313.668
101313.647
101313.626
101313.605
101313.585
101313.565
101313.546
101313.527
101313.508
101313.489
101313.471
101313.453
101313.436
101313.418
101313.401
101313.384
101313.368
101313.352
101313.336
101313.32
101313.305
101313.29
101313.275
101313.261
101313.246
101313.232
101313.218
101313.205
101313.192
101313.178
101313.166
101313.153
101313.141
101313.128
101313.116
101313.105
101313.093
101313.082
101313.071
101313.06
101313.049
101313.038
101313.028
101313.018
101313.008
101312.998
101312.988
101312.978
101312.969
101312.96
101312.951
101312.942
101312.933
101312.924
101312.915
101312.907
101312.899
101312.891
101312.882
101312.875
101312.867
101312.859
101312.851
101312.844
101312.836
101312.829
101312.822
101312.815
101312.808
101312.801
101312.794
101312.787
101312.781
101312.774
101312.768
101312.761
101312.755
101312.748
101312.742
101312.736
101312.73
101312.724
101312.718
101312.712
101312.706
101312.7
101312.695
101312.689
101312.683
101312.678
101312.672
101312.666
101312.661
101312.655
101312.65
101312.645
101312.639
101312.634
101312.629
101312.623
101312.618
101312.613
101312.608
101312.603
101312.597
101312.592
101312.587
101312.582
101312.577
101312.572
101312.567
101312.562
101312.557
101312.552
101312.547
101312.542
101312.537
101312.532
101312.528
101312.523
101312.518
101312.513
101312.508
101312.503
101312.498
101312.493
101312.488
101312.484
101312.479
101312.474
101312.469
101312.464
101312.459
101312.454
101312.45
101312.445
101312.44
101312.435
101312.43
101312.425
101312.42
101312.415
101312.41
101312.406
101312.401
101312.396
101312.391
101312.386
101312.381
101312.376
101312.371
101312.366
101312.361
101312.356
101312.351
101312.346
101312.341
101312.336
101312.331
101312.326
101312.321
101312.316
101312.31
101312.305
101312.3
101312.295
101312.29
101312.285
101312.279
101312.274
101312.269
101312.264
101312.258
101312.253
101312.248
101312.243
101312.237
101312.232
101312.226
101312.221
101312.216
101312.21
101312.205
101312.199
101312.194
101312.188
101312.183
101312.177
101312.171
101312.166
101312.16
101312.155
101312.149
101312.143
101312.137
101312.132
101312.126
101312.12
101312.114
101312.108
101312.102
101312.096
101312.09
101312.084
101312.078
101312.072
101312.066
101312.06
101312.054
101312.048
101312.042
101312.035
101312.029
101312.023
101312.016
101312.01
101312.004
101311.997
101311.991
101311.984
101311.978
101311.971
101311.964
101311.958
101311.951
101311.944
101311.938
101311.931
101311.924
101311.917
101311.91
101311.903
101311.896
101311.889
101311.882
101311.875
101311.868
101311.861
101311.853
101311.846
101311.839
101311.831
101311.824
101311.817
101311.809
101311.802
101311.794
101311.786
101311.779
101311.771
101311.763
101311.756
101311.748
101311.74
101311.732
101311.724
101311.716
101311.708
101311.7
101311.692
101311.684
101311.676
101311.667
101311.659
101311.651
101311.642
101311.634
101311.626
101311.617
101311.609
101311.6
101311.592
101311.583
101311.574
101311.566
101311.557
101311.548
101311.54
101311.531
101311.522
101311.513
101311.504
101311.494
101311.483
101311.472
101311.459
101311.446
101311.432
101311.416
101311.4
101311.382
101311.362
101311.342
101311.319
101311.295
101311.269
101311.241
101311.212
101311.179
101311.145
101311.107
101311.068
101311.025
101310.979
101310.93
101310.878
101310.822
101310.763
101310.699
101310.632
101310.56
101310.484
101310.402
101310.313
101310.216
101310.109
101309.99
101309.854
101309.699
101309.518
101309.308
101309.062
101308.774
101308.44
101308.052
101307.6
101307.064
101306.406
101305.563
101304.438
101302.92
101300.938
101298.577
101296.249
101294.774
101295.186
101298.196
101303.618
101310.21
101316.236
101320.558
101323.069
101324.277
101324.766
101324.934
101324.984
101324.997
101325
101325.001
101325.001
101325.001
101325.001
101325.001
101325.001
101325.001
101325.001
101325.001
101325
)
;

boundaryField
{
    closed
    {
        type            zeroGradient;
    }
    open
    {
        type            waveTransmissive;
        gamma           1.25;
        fieldInf        101325;
        lInf            1;
        value           uniform 101325;
    }
    sides
    {
        type            empty;
    }
}


// ************************************************************************* //
