/*--------------------------------*- C++ -*----------------------------------*\
| =========                 |                                                 |
| \\      /  F ield         | OpenFOAM: The Open Source CFD Toolbox           |
|  \\    /   O peration     | Version:  2206                                  |
|   \\  /    A nd           | Website:  www.openfoam.com                      |
|    \\/     M anipulation  |                                                 |
\*---------------------------------------------------------------------------*/
FoamFile
{
    version     2.0;
    format      ascii;
    arch        "LSB;label=32;scalar=64";
    class       volScalarField;
    location    "1.92e-05";
    object      rho;
}
// * * * * * * * * * * * * * * * * * * * * * * * * * * * * * * * * * * * * * //

dimensions      [1 -3 0 0 0 0 0];

internalField   nonuniform List<scalar> 
3183
(
1.03926466
1.03926466
1.03926466
1.03926466
1.03926466
1.03926466
1.03926466
1.03926466
1.03926466
1.03926466
1.03926466
1.03926466
1.03926466
1.03926466
1.03926466
1.03926466
1.03926466
1.03926466
1.03926466
1.03926466
1.03926466
1.03926466
1.03926466
1.03926466
1.03926466
1.03926466
1.03926466
1.03926466
1.03926466
1.03926466
1.03926466
1.03926466
1.03926466
1.03926466
1.03926466
1.03926466
1.03926466
1.03926466
1.03926466
1.03926466
1.03926466
1.03926466
1.03926466
1.03926466
1.03926466
1.03926466
1.03926466
1.03926466
1.03926466
1.03926466
1.03926466
1.03926466
1.03926466
1.03926466
1.03926466
1.03926466
1.03926466
1.03926466
1.03926466
1.03926466
1.03926466
1.03926466
1.03926466
1.03926466
1.03926466
1.03926466
1.03926466
1.03926466
1.03926466
1.03926466
1.03926466
1.03926466
1.03926466
1.03926466
1.03926466
1.03926466
1.03926466
1.03926466
1.03926466
1.03926466
1.03926466
1.03926466
1.03926466
1.03926466
1.03926466
1.03926466
1.03926466
1.03926466
1.03926466
1.03926466
1.03926466
1.03926466
1.03926466
1.03926466
1.03926466
1.03926466
1.03926466
1.03926466
1.03926466
1.03926466
1.03926466
1.03926466
1.03926466
1.03926466
1.03926466
1.03926466
1.03926466
1.03926466
1.03926466
1.03926466
1.03926466
1.03926466
1.03926466
1.03926466
1.03926466
1.03926466
1.03926466
1.03926466
1.03926466
1.03926466
1.03926466
1.03926466
1.03926466
1.03926466
1.03926466
1.03926466
1.03926466
1.03926466
1.03926466
1.03926466
1.03926466
1.03926466
1.03926466
1.03926466
1.03926466
1.03926466
1.03926466
1.03926466
1.03926466
1.03926466
1.03926466
1.03926466
1.03926466
1.03926466
1.03926466
1.03926466
1.03926466
1.03926466
1.03926466
1.03926466
1.03926466
1.03926466
1.03926466
1.03926466
1.03926466
1.03926466
1.03926466
1.03926466
1.03926466
1.03926466
1.03926466
1.03926466
1.03926466
1.03926466
1.03926466
1.03926466
1.03926466
1.03926466
1.03926466
1.03926466
1.03926466
1.03926466
1.03926466
1.03926466
1.03926466
1.03926466
1.03926466
1.03926466
1.03926466
1.03926466
1.03926466
1.03926466
1.03926466
1.03926466
1.03926466
1.03926466
1.03926466
1.03926466
1.03926466
1.03926466
1.03926466
1.03926466
1.03926466
1.03926466
1.03926466
1.03926466
1.03926466
1.03926466
1.03926466
1.03926466
1.03926466
1.03926466
1.03926466
1.03926466
1.03926466
1.03926466
1.03926466
1.03926466
1.03926466
1.03926466
1.03926466
1.03926466
1.03926466
1.03926466
1.03926466
1.03926466
1.03926466
1.03926466
1.03926466
1.03926466
1.03926466
1.03926466
1.03926466
1.03926466
1.03926466
1.03926466
1.03926466
1.03926466
1.03926466
1.03926466
1.03926466
1.03926466
1.03926466
1.03926466
1.03926466
1.03926466
1.03926466
1.03926466
1.03926466
1.03926466
1.03926466
1.03926466
1.03926466
1.03926466
1.03926466
1.03926466
1.03926466
1.03926466
1.03926466
1.03926466
1.03926466
1.03926466
1.03926466
1.03926466
1.03926466
1.03926466
1.03926466
1.03926466
1.03926466
1.03926466
1.03926466
1.03926466
1.03926466
1.03926466
1.03926466
1.03926466
1.03926466
1.03926466
1.03926466
1.03926466
1.03926466
1.03926466
1.03926466
1.03926466
1.03926466
1.03926466
1.03926466
1.03926466
1.03926466
1.03926466
1.03926466
1.03926466
1.03926466
1.03926466
1.03926466
1.03926466
1.03926466
1.03926466
1.03926466
1.03926466
1.03926466
1.03926466
1.03926466
1.03926466
1.03926466
1.03926466
1.03926466
1.03926466
1.03926466
1.03926466
1.03926466
1.03926466
1.03926466
1.03926466
1.03926466
1.03926466
1.03926466
1.03926466
1.03926466
1.03926466
1.03926466
1.03926466
1.03926466
1.03926466
1.03926466
1.03926466
1.03926466
1.03926466
1.03926466
1.03926466
1.03926466
1.03926466
1.03926466
1.03926466
1.03926466
1.03926466
1.03926466
1.03926466
1.03926466
1.03926466
1.03926466
1.03926466
1.03926466
1.03926466
1.03926466
1.03926466
1.03926466
1.03926466
1.03926466
1.03926466
1.03926466
1.03926466
1.03926466
1.03926466
1.03926466
1.03926466
1.03926466
1.03926466
1.03926466
1.03926466
1.03926466
1.03926466
1.03926466
1.03926466
1.03926466
1.03926466
1.03926466
1.03926466
1.03926466
1.03926466
1.03926466
1.03926466
1.03926466
1.03926466
1.03926466
1.03926466
1.03926466
1.03926466
1.03926466
1.03926466
1.03926466
1.03926466
1.03926466
1.03926466
1.03926466
1.03926466
1.03926466
1.03926466
1.03926466
1.03926466
1.03926466
1.03926466
1.03926466
1.03926466
1.03926466
1.03926466
1.03926466
1.03926466
1.03926466
1.03926466
1.03926466
1.03926466
1.03926466
1.03926466
1.03926466
1.03926466
1.03926466
1.03926466
1.03926466
1.03926466
1.03926466
1.03926466
1.03926466
1.03926466
1.03926466
1.03926466
1.03926466
1.03926466
1.03926466
1.03926466
1.03926466
1.03926466
1.03926466
1.03926466
1.03926466
1.03926466
1.03926466
1.03926466
1.03926466
1.03926466
1.03926466
1.03926466
1.03926466
1.03926466
1.03926466
1.03926466
1.03926466
1.03926466
1.03926466
1.03926466
1.03926466
1.03926466
1.03926466
1.03926466
1.03926466
1.03926466
1.03926466
1.03926466
1.03926466
1.03926466
1.03926466
1.03926466
1.03926466
1.03926466
1.03926466
1.03926466
1.03926466
1.03926466
1.03926466
1.03926466
1.03926466
1.03926466
1.03926466
1.03926466
1.03926466
1.03926466
1.03926466
1.03926466
1.03926466
1.03926466
1.03926466
1.03926466
1.03926466
1.03926466
1.03926466
1.03926466
1.03926466
1.03926466
1.03926466
1.03926466
1.03926466
1.03926466
1.03926466
1.03926466
1.03926466
1.03926466
1.03926466
1.03926466
1.03926466
1.03926466
1.03926466
1.03926466
1.03926466
1.03926466
1.03926466
1.03926466
1.03926466
1.03926466
1.03926466
1.03926466
1.03926466
1.03926466
1.03926466
1.03926466
1.03926466
1.03926466
1.03926466
1.03926466
1.03926466
1.03926466
1.03926466
1.03926466
1.03926466
1.03926466
1.03926466
1.03926466
1.03926466
1.03926466
1.03926466
1.03926466
1.03926466
1.03926466
1.03926466
1.03926466
1.03926466
1.03926466
1.03926466
1.03926466
1.03926466
1.03926466
1.03926466
1.03926466
1.03926466
1.03926466
1.03926466
1.03926466
1.03926466
1.03926466
1.03926466
1.03926466
1.03926466
1.03926466
1.03926466
1.03926466
1.03926466
1.03926466
1.03926466
1.03926466
1.03926466
1.03926466
1.03926466
1.03926466
1.03926466
1.03926466
1.03926466
1.03926466
1.03926466
1.03926466
1.03926466
1.03926466
1.03926466
1.03926466
1.03926466
1.03926466
1.03926466
1.03926466
1.03926466
1.03926466
1.03926466
1.03926466
1.03926466
1.03926466
1.03926466
1.03926466
1.03926466
1.03926466
1.03926466
1.03926466
1.03926466
1.03926466
1.03926466
1.03926466
1.03926466
1.03926466
1.03926466
1.03926466
1.03926466
1.03926466
1.03926466
1.03926466
1.03926466
1.03926466
1.03926466
1.03926466
1.03926466
1.03926466
1.03926466
1.03926466
1.03926466
1.03926466
1.03926466
1.03926466
1.03926466
1.03926466
1.03926466
1.03926466
1.03926466
1.03926466
1.03926466
1.03926466
1.03926466
1.03926466
1.03926466
1.03926466
1.03926466
1.03926466
1.03926466
1.03926466
1.03926466
1.03926466
1.03926466
1.03926466
1.03926466
1.03926466
1.03926466
1.03926466
1.03926466
1.03926466
1.03926466
1.03926466
1.03926466
1.03926466
1.03926466
1.03926466
1.03926466
1.03926466
1.03926466
1.03926466
1.03926466
1.03926466
1.03926466
1.03926466
1.03926466
1.03926466
1.03926466
1.03926466
1.03926466
1.03926466
1.03926466
1.03926466
1.03926466
1.03926466
1.03926466
1.03926466
1.03926466
1.03926466
1.03926466
1.03926466
1.03926466
1.03926466
1.03926466
1.03926466
1.03926466
1.03926466
1.03926466
1.03926466
1.03926466
1.03926466
1.03926466
1.03926466
1.03926466
1.03926466
1.03926466
1.03926466
1.03926466
1.03926466
1.03926466
1.03926466
1.03926466
1.03926466
1.03926466
1.03926466
1.03926466
1.03926466
1.03926466
1.03926466
1.03926466
1.03926466
1.03926466
1.03926466
1.03926466
1.03926466
1.03926466
1.03926466
1.03926466
1.03926466
1.03926466
1.03926466
1.03926466
1.03926466
1.03926466
1.03926466
1.03926466
1.03926466
1.03926466
1.03926466
1.03926466
1.03926466
1.03926466
1.03926466
1.03926466
1.03926466
1.03926466
1.03926466
1.03926466
1.03926466
1.03926466
1.03926466
1.03926466
1.03926466
1.03926466
1.03926466
1.03926466
1.03926466
1.03926466
1.03926466
1.03926466
1.03926466
1.03926466
1.03926466
1.03926466
1.03926466
1.03926466
1.03926466
1.03926466
1.03926466
1.03926466
1.03926466
1.03926466
1.03926466
1.03926466
1.03926466
1.03926466
1.03926466
1.03926466
1.03926466
1.03926466
1.03926466
1.03926466
1.03926466
1.03926466
1.03926466
1.03926466
1.03926466
1.03926466
1.03926466
1.03926466
1.03926466
1.03926466
1.03926466
1.03926466
1.03926466
1.03926466
1.03926466
1.03926466
1.03926466
1.03926466
1.03926466
1.03926466
1.03926466
1.03926466
1.03926466
1.03926466
1.03926466
1.03926466
1.03926466
1.03926466
1.03926466
1.03926466
1.03926466
1.03926466
1.03926466
1.03926466
1.03926466
1.03926466
1.03926466
1.03926466
1.03926466
1.03926466
1.03926466
1.03926466
1.03926466
1.03926466
1.03926466
1.03926466
1.03926466
1.03926466
1.03926466
1.03926466
1.03926466
1.03926466
1.03926466
1.03926466
1.03926466
1.03926466
1.03926466
1.03926466
1.03926466
1.03926466
1.03926466
1.03926466
1.03926466
1.03926466
1.03926466
1.03926466
1.03926466
1.03926466
1.03926466
1.03926466
1.03926466
1.03926466
1.03926466
1.03926466
1.03926466
1.03926466
1.03926466
1.03926466
1.03926466
1.03926466
1.03926466
1.03926466
1.03926466
1.03926466
1.03926466
1.03926466
1.03926466
1.03926466
1.03926466
1.03926466
1.03926466
1.03926466
1.03926466
1.03926466
1.03926466
1.03926466
1.03926466
1.03926466
1.03926466
1.03926466
1.03926466
1.03926466
1.03926466
1.03926466
1.03926466
1.03926466
1.03926466
1.03926466
1.03926466
1.03926466
1.03926466
1.03926466
1.03926466
1.03926466
1.03926466
1.03926466
1.03926466
1.03926466
1.03926466
1.03926466
1.03926466
1.03926466
1.03926466
1.03926466
1.03926466
1.03926466
1.03926466
1.03926466
1.03926466
1.03926466
1.03926466
1.03926466
1.03926466
1.03926466
1.03926466
1.03926466
1.03926466
1.03926466
1.03926466
1.03926466
1.03926466
1.03926466
1.03926466
1.03926466
1.03926466
1.03926466
1.03926466
1.03926466
1.03926466
1.03926466
1.03926466
1.03926466
1.03926466
1.03926466
1.03926466
1.03926466
1.03926466
1.03926466
1.03926466
1.03926466
1.03926466
1.03926466
1.03926466
1.03926466
1.03926466
1.03926466
1.03926466
1.03926466
1.03926466
1.03926466
1.03926466
1.03926466
1.03926466
1.03926466
1.03926466
1.03926466
1.03926466
1.03926466
1.03926466
1.03926466
1.03926466
1.03926466
1.03926466
1.03926466
1.03926466
1.03926466
1.03926466
1.03926466
1.03926466
1.03926466
1.03926466
1.03926466
1.03926466
1.03926466
1.03926466
1.03926466
1.03926466
1.03926466
1.03926466
1.03926466
1.03926466
1.03926466
1.03926466
1.03926466
1.03926466
1.03926466
1.03926466
1.03926466
1.03926466
1.03926466
1.03926466
1.03926466
1.03926466
1.03926466
1.03926466
1.03926466
1.03926466
1.03926466
1.03926466
1.03926466
1.03926466
1.03926466
1.03926466
1.03926466
1.03926466
1.03926466
1.03926466
1.03926466
1.03926466
1.03926466
1.03926466
1.03926466
1.03926466
1.03926466
1.03926466
1.03926466
1.03926466
1.03926466
1.03926466
1.03926466
1.03926466
1.03926466
1.03926466
1.03926466
1.03926466
1.03926466
1.03926466
1.03926466
1.03926466
1.03926466
1.03926466
1.03926466
1.03926466
1.03926466
1.03926466
1.03926466
1.03926466
1.03926466
1.03926466
1.03926466
1.03926466
1.03926466
1.03926466
1.03926466
1.03926466
1.03926466
1.03926466
1.03926466
1.03926466
1.03926466
1.03926466
1.03926466
1.03926466
1.03926466
1.03926466
1.03926466
1.03926466
1.03926466
1.03926466
1.03926466
1.03926466
1.03926466
1.03926466
1.03926466
1.03926466
1.03926466
1.03926466
1.03926466
1.03926466
1.03926466
1.03926466
1.03926466
1.03926466
1.03926466
1.03926466
1.03926466
1.03926466
1.03926466
1.03926466
1.03926466
1.03926466
1.03926466
1.03926466
1.03926466
1.03926466
1.03926466
1.03926466
1.03926466
1.03926466
1.03926466
1.03926466
1.03926466
1.03926466
1.03926466
1.03926466
1.03926466
1.03926466
1.03926466
1.03926466
1.03926466
1.03926466
1.03926466
1.03926466
1.03926466
1.03926466
1.03926466
1.03926466
1.03926466
1.03926466
1.03926466
1.03926466
1.03926466
1.03926466
1.03926466
1.03926466
1.03926466
1.03926466
1.03926466
1.03926466
1.03926466
1.03926466
1.03926466
1.03926466
1.03926466
1.03926466
1.03926466
1.03926466
1.03926466
1.03926466
1.03926466
1.03926466
1.03926466
1.03926466
1.03926466
1.03926466
1.03926466
1.03926466
1.03926466
1.03926466
1.03926466
1.03926466
1.03926466
1.03926466
1.03926466
1.03926466
1.03926466
1.03926466
1.03926466
1.03926466
1.03926466
1.03926466
1.03926466
1.03926466
1.03926466
1.03926466
1.03926466
1.03926466
1.03926466
1.03926466
1.03926466
1.03926466
1.03926466
1.03926466
1.03926466
1.03926466
1.03926466
1.03926466
1.03926466
1.03926466
1.03926466
1.03926466
1.03926466
1.03926466
1.03926466
1.03926466
1.03926466
1.03926466
1.03926466
1.03926466
1.03926466
1.03926466
1.03926466
1.03926466
1.03926466
1.03926466
1.03926466
1.03926466
1.03926466
1.03926466
1.03926466
1.03926466
1.03926466
1.03926466
1.03926466
1.03926466
1.03926466
1.03926466
1.03926466
1.03926466
1.03926466
1.03926466
1.03926466
1.03926466
1.03926466
1.03926466
1.03926466
1.03926466
1.03926466
1.03926466
1.03926466
1.03926466
1.03926466
1.03926466
1.03926466
1.03926466
1.03926466
1.03926466
1.03926466
1.03926466
1.03926466
1.03926466
1.03926466
1.03926466
1.03926466
1.03926466
1.03926466
1.03926466
1.03926466
1.03926466
1.03926466
1.03926466
1.03926466
1.03926466
1.03926466
1.03926466
1.03926466
1.03926466
1.03926466
1.03926466
1.03926466
1.03926466
1.03926466
1.03926466
1.03926466
1.03926466
1.03926466
1.03926466
1.03926466
1.03926466
1.03926466
1.03926466
1.03926466
1.03926466
1.03926466
1.03926466
1.03926466
1.03926466
1.03926466
1.03926466
1.03926466
1.03926466
1.03926466
1.03926466
1.03926466
1.03926466
1.03926466
1.03926466
1.03926466
1.03926466
1.03926466
1.03926466
1.03926466
1.03926466
1.03926466
1.03926466
1.03926466
1.03926466
1.03926466
1.03926466
1.03926466
1.03926466
1.03926466
1.03926466
1.03926466
1.03926466
1.03926466
1.03926466
1.03926466
1.03926466
1.03926466
1.03926466
1.03926466
1.03926466
1.03926466
1.03926466
1.03926466
1.03926466
1.03926466
1.03926466
1.03926466
1.03926466
1.03926466
1.03926466
1.03926466
1.03926466
1.03926466
1.03926466
1.03926466
1.03926466
1.03926466
1.03926466
1.03926466
1.03926466
1.03926466
1.03926466
1.03926466
1.03926466
1.03926466
1.03926466
1.03926466
1.03926466
1.03926466
1.03926466
1.03926466
1.03926466
1.03926466
1.03926466
1.03926466
1.03926466
1.03926466
1.03926466
1.03926466
1.03926466
1.03926466
1.03926466
1.03926466
1.03926466
1.03926466
1.03926466
1.03926466
1.03926466
1.03926466
1.03926466
1.03926466
1.03926466
1.03926466
1.03926466
1.03926466
1.03926466
1.03926466
1.03926466
1.03926466
1.03926466
1.03926466
1.03926466
1.03926466
1.03926466
1.03926466
1.03926466
1.03926466
1.03926466
1.03926466
1.03926466
1.03926466
1.03926466
1.03926466
1.03926466
1.03926466
1.03926466
1.03926466
1.03926466
1.03926466
1.03926466
1.03926466
1.03926466
1.03926466
1.03926466
1.03926466
1.03926466
1.03926466
1.03926466
1.03926466
1.03926466
1.03926466
1.03926466
1.03926466
1.03926466
1.03926466
1.03926466
1.03926466
1.03926466
1.03926466
1.03926466
1.03926466
1.03926466
1.03926466
1.03926466
1.03926466
1.03926466
1.03926466
1.03926466
1.03926466
1.03926466
1.03926466
1.03926466
1.03926466
1.03926466
1.03926466
1.03926466
1.03926466
1.03926466
1.03926466
1.03926466
1.03926466
1.03926466
1.03926466
1.03926466
1.03926466
1.03926466
1.03926466
1.03926466
1.03926466
1.03926466
1.03926466
1.03926466
1.03926466
1.03926466
1.03926466
1.03926466
1.03926466
1.03926466
1.03926466
1.03926466
1.03926466
1.03926466
1.03926466
1.03926466
1.03926466
1.03926466
1.03926466
1.03926466
1.03926466
1.03926466
1.03926466
1.03926466
1.03926466
1.03926466
1.03926466
1.03926466
1.03926466
1.03926466
1.03926466
1.03926466
1.03926466
1.03926466
1.03926466
1.03926466
1.03926466
1.03926466
1.03926466
1.03926466
1.03926466
1.03926466
1.03926466
1.03926466
1.03926466
1.03926466
1.03926466
1.03926466
1.03926466
1.03926466
1.03926466
1.03926466
1.03926466
1.03926466
1.03926466
1.03926466
1.03926466
1.03926466
1.03926466
1.03926466
1.03926466
1.03926466
1.03926466
1.03926466
1.03926466
1.03926466
1.03926466
1.03926466
1.03926466
1.03926466
1.03926466
1.03926466
1.03926466
1.03926466
1.03926466
1.03926466
1.03926466
1.03926466
1.03926466
1.03926466
1.03926466
1.03926466
1.03926466
1.03926466
1.03926466
1.03926466
1.03926466
1.03926466
1.03926466
1.03926466
1.03926466
1.03926466
1.03926466
1.03926466
1.03926466
1.03926466
1.03926466
1.03926466
1.03926466
1.03926466
1.03926466
1.03926466
1.03926466
1.03926466
1.03926466
1.03926466
1.03926466
1.03926466
1.03926466
1.03926466
1.03926466
1.03926466
1.03926466
1.03926466
1.03926466
1.03926466
1.03926466
1.03926466
1.03926466
1.03926466
1.03926466
1.03926466
1.03926466
1.03926466
1.03926466
1.03926466
1.03926466
1.03926466
1.03926466
1.03926466
1.03926466
1.03926466
1.03926466
1.03926466
1.03926466
1.03926466
1.03926466
1.03926466
1.03926466
1.03926466
1.03926466
1.03926466
1.03926466
1.03926466
1.03926466
1.03926466
1.03926466
1.03926466
1.03926466
1.03926466
1.03926466
1.03926466
1.03926466
1.03926466
1.03926466
1.03926466
1.03926466
1.03926466
1.03926466
1.03926466
1.03926466
1.03926466
1.03926466
1.03926466
1.03926466
1.03926466
1.03926466
1.03926466
1.03926466
1.03926466
1.03926466
1.03926466
1.03926466
1.03926466
1.03926466
1.03926466
1.03926466
1.03926466
1.03926466
1.03926466
1.03926466
1.03926466
1.03926466
1.03926466
1.03926466
1.03926466
1.03926466
1.03926466
1.03926466
1.03926466
1.03926466
1.03926466
1.03926466
1.03926466
1.03926466
1.03926466
1.03926466
1.03926466
1.03926466
1.03926466
1.03926466
1.03926466
1.03926466
1.03926466
1.03926466
1.03926466
1.03926466
1.03926466
1.03926466
1.03926466
1.03926466
1.03926466
1.03926466
1.03926466
1.03926466
1.03926466
1.03926466
1.03926466
1.03926466
1.03926466
1.03926466
1.03926466
1.03926466
1.03926466
1.03926466
1.03926466
1.03926466
1.03926466
1.03926466
1.03926466
1.03926466
1.03926466
1.03926466
1.03926466
1.03926466
1.03926466
1.03926466
1.03926466
1.03926466
1.03926466
1.03926466
1.03926466
1.03926466
1.03926466
1.03926466
1.03926466
1.03926466
1.03926466
1.03926466
1.03926466
1.03926466
1.03926466
1.03926466
1.03926466
1.03926466
1.03926466
1.03926466
1.03926466
1.03926466
1.03926466
1.03926466
1.03926466
1.03926466
1.03926466
1.03926466
1.03926466
1.03926466
1.03926466
1.03926466
1.03926466
1.03926466
1.03926466
1.03926466
1.03926466
1.03926466
1.03926466
1.03926466
1.03926466
1.03926466
1.03926466
1.03926466
1.03926466
1.03926466
1.03926466
1.03926466
1.03926466
1.03926466
1.03926466
1.03926466
1.03926466
1.03926466
1.03926466
1.03926466
1.03926466
1.03926466
1.03926466
1.03926466
1.03926466
1.03926466
1.03926466
1.03926466
1.03926466
1.03926466
1.03926466
1.03926466
1.03926466
1.03926466
1.03926466
1.03926466
1.03926466
1.03926466
1.03926466
1.03926466
1.03926466
1.03926466
1.03926466
1.03926466
1.03926466
1.03926466
1.03926466
1.03926466
1.03926466
1.03926466
1.03926465
1.03926465
1.03926465
1.03926465
1.03926465
1.03926465
1.03926465
1.03926465
1.03926465
1.03926465
1.03926465
1.03926465
1.03926465
1.03926465
1.03926465
1.03926465
1.03926464
1.03926464
1.03926464
1.03926464
1.03926464
1.03926464
1.03926464
1.03926464
1.03926463
1.03926463
1.03926463
1.03926463
1.03926463
1.03926463
1.03926462
1.03926462
1.03926462
1.03926462
1.03926462
1.03926461
1.03926461
1.03926461
1.03926461
1.0392646
1.0392646
1.0392646
1.03926459
1.03926459
1.03926458
1.03926458
1.03926458
1.03926457
1.03926457
1.03926456
1.03926456
1.03926455
1.03926455
1.03926454
1.03926453
1.03926453
1.03926452
1.03926451
1.03926451
1.0392645
1.03926449
1.03926448
1.03926447
1.03926446
1.03926445
1.03926444
1.03926443
1.03926442
1.03926441
1.0392644
1.03926438
1.03926437
1.03926436
1.03926434
1.03926433
1.03926431
1.03926429
1.03926428
1.03926426
1.03926424
1.03926422
1.0392642
1.03926418
1.03926415
1.03926413
1.03926411
1.03926408
1.03926405
1.03926403
1.039264
1.03926397
1.03926393
1.0392639
1.03926387
1.03926383
1.03926379
1.03926375
1.03926371
1.03926367
1.03926363
1.03926358
1.03926353
1.03926348
1.03926343
1.03926338
1.03926332
1.03926326
1.0392632
1.03926314
1.03926308
1.03926301
1.03926294
1.03926286
1.03926279
1.03926271
1.03926263
1.03926254
1.03926245
1.03926236
1.03926227
1.03926217
1.03926206
1.03926196
1.03926185
1.03926173
1.03926161
1.03926149
1.03926136
1.03926123
1.03926109
1.03926095
1.03926081
1.03926065
1.0392605
1.03926033
1.03926016
1.03925999
1.03925981
1.03925962
1.03925943
1.03925923
1.03925902
1.03925881
1.03925859
1.03925836
1.03925813
1.03925788
1.03925763
1.03925737
1.0392571
1.03925683
1.03925654
1.03925625
1.03925594
1.03925563
1.03925531
1.03925497
1.03925463
1.03925428
1.03925391
1.03925354
1.03925315
1.03925275
1.03925234
1.03925192
1.03925148
1.03925104
1.03925058
1.0392501
1.03924962
1.03924912
1.0392486
1.03924807
1.03924753
1.03924697
1.0392464
1.03924581
1.0392452
1.03924458
1.03924394
1.03924329
1.03924262
1.03924193
1.03924122
1.0392405
1.03923976
1.039239
1.03923822
1.03923742
1.0392366
1.03923577
1.03923491
1.03923403
1.03923314
1.03923222
1.03923128
1.03923032
1.03922934
1.03922833
1.03922731
1.03922626
1.03922519
1.03922409
1.03922298
1.03922184
1.03922067
1.03921949
1.03921828
1.03921704
1.03921578
1.0392145
1.03921319
1.03921186
1.0392105
1.03920912
1.03920772
1.03920628
1.03920483
1.03920334
1.03920183
1.0392003
1.03919874
1.03919716
1.03919555
1.03919391
1.03919225
1.03919056
1.03918885
1.03918711
1.03918535
1.03918356
1.03918175
1.03917991
1.03917805
1.03917616
1.03917425
1.03917231
1.03917035
1.03916837
1.03916636
1.03916433
1.03916228
1.03916021
1.03915811
1.03915599
1.03915385
1.03915169
1.03914951
1.03914731
1.03914509
1.03914285
1.03914059
1.03913832
1.03913603
1.03913372
1.03913139
1.03912905
1.0391267
1.03912433
1.03912195
1.03911955
1.03911715
1.03911473
1.0391123
1.03910986
1.03910742
1.03910497
1.03910251
1.03910004
1.03909757
1.03909509
1.03909261
1.03909013
1.03908765
1.03908517
1.03908268
1.0390802
1.03907773
1.03907525
1.03907278
1.03907032
1.03906786
1.03906541
1.03906297
1.03906054
1.03905812
1.03905571
1.03905332
1.03905094
1.03904857
1.03904622
1.03904389
1.03904158
1.03903929
1.03903701
1.03903476
1.03903254
1.03903033
1.03902816
1.039026
1.03902388
1.03902178
1.03901971
1.03901768
1.03901567
1.03901369
1.03901175
1.03900984
1.03900797
1.03900613
1.03900433
1.03900257
1.03900084
1.03899916
1.03899751
1.03899591
1.03899434
1.03899282
1.03899134
1.0389899
1.03898851
1.03898716
1.03898586
1.0389846
1.03898339
1.03898222
1.0389811
1.03898003
1.038979
1.03897803
1.0389771
1.03897622
1.03897538
1.0389746
1.03897386
1.03897318
1.03897254
1.03897195
1.03897141
1.03897092
1.03897047
1.03897008
1.03896973
1.03896943
1.03896918
1.03896898
1.03896882
1.03896871
1.03896865
1.03896863
1.03896866
1.03896874
1.03896885
1.03896901
1.03896922
1.03896947
1.03896976
1.03897009
1.03897046
1.03897087
1.03897132
1.03897181
1.03897234
1.03897291
1.03897351
1.03897414
1.03897481
1.03897551
1.03897625
1.03897701
1.03897781
1.03897864
1.03897949
1.03898038
1.03898129
1.03898222
1.03898318
1.03898416
1.03898517
1.0389862
1.03898725
1.03898831
1.0389894
1.0389905
1.03899163
1.03899276
1.03899391
1.03899508
1.03899625
1.03899744
1.03899864
1.03899985
1.03900107
1.03900229
1.03900352
1.03900476
1.039006
1.03900725
1.0390085
1.03900976
1.03901101
1.03901227
1.03901352
1.03901478
1.03901603
1.03901728
1.03901853
1.03901978
1.03902102
1.03902225
1.03902348
1.03902471
1.03902593
1.03902714
1.03902834
1.03902954
1.03903072
1.0390319
1.03903307
1.03903423
1.03903538
1.03903652
1.03903764
1.03903876
1.03903986
1.03904096
1.03904204
1.03904311
1.03904416
1.03904521
1.03904624
1.03904726
1.03904826
1.03904926
1.03905024
1.0390512
1.03905216
1.0390531
1.03905402
1.03905494
1.03905584
1.03905672
1.0390576
1.03905846
1.03905931
1.03906015
1.03906097
1.03906178
1.03906258
1.03906336
1.03906414
1.0390649
1.03906565
1.03906639
1.03906712
1.03906783
1.03906854
1.03906923
1.03906991
1.03907059
1.03907125
1.0390719
1.03907254
1.03907318
1.0390738
1.03907442
1.03907502
1.03907562
1.03907621
1.03907679
1.03907736
1.03907792
1.03907848
1.03907903
1.03907957
1.0390801
1.03908063
1.03908115
1.03908166
1.03908217
1.03908267
1.03908317
1.03908366
1.03908414
1.03908462
1.0390851
1.03908557
1.03908603
1.03908649
1.03908694
1.03908739
1.03908784
1.03908828
1.03908871
1.03908914
1.03908957
1.03909
1.03909041
1.03909083
1.03909124
1.03909165
1.03909206
1.03909246
1.03909286
1.03909325
1.03909364
1.03909403
1.03909441
1.03909479
1.03909517
1.03909554
1.03909592
1.03909628
1.03909665
1.03909701
1.03909737
1.03909772
1.03909807
1.03909842
1.03909877
1.03909911
1.03909945
1.03909978
1.03910011
1.03910044
1.03910077
1.03910109
1.03910141
1.03910173
1.03910204
1.03910235
1.03910265
1.03910296
1.03910325
1.03910355
1.03910384
1.03910413
1.03910442
1.0391047
1.03910498
1.03910526
1.03910553
1.0391058
1.03910607
1.03910633
1.03910659
1.03910684
1.0391071
1.03910735
1.0391076
1.03910784
1.03910808
1.03910832
1.03910856
1.03910879
1.03910902
1.03910924
1.03910947
1.03910969
1.03910991
1.03911013
1.03911034
1.03911055
1.03911076
1.03911097
1.03911117
1.03911138
1.03911158
1.03911178
1.03911197
1.03911217
1.03911236
1.03911256
1.03911275
1.03911294
1.03911313
1.03911331
1.0391135
1.03911369
1.03911387
1.03911405
1.03911424
1.03911442
1.0391146
1.03911478
1.03911496
1.03911514
1.03911532
1.0391155
1.03911568
1.03911586
1.03911604
1.03911622
1.0391164
1.03911658
1.03911676
1.03911694
1.03911713
1.03911731
1.03911749
1.03911767
1.03911785
1.03911804
1.03911822
1.03911841
1.03911859
1.03911878
1.03911896
1.03911915
1.03911934
1.03911952
1.03911971
1.0391199
1.03912009
1.03912028
1.03912047
1.03912066
1.03912085
1.03912104
1.03912124
1.03912143
1.03912162
1.03912181
1.039122
1.0391222
1.03912239
1.03912258
1.03912277
1.03912297
1.03912316
1.03912335
1.03912354
1.03912373
1.03912392
1.03912411
1.0391243
1.03912449
1.03912467
1.03912486
1.03912505
1.03912523
1.03912541
1.0391256
1.03912578
1.03912596
1.03912614
1.03912632
1.03912649
1.03912667
1.03912684
1.03912701
1.03912718
1.03912735
1.03912752
1.03912769
1.03912785
1.03912801
1.03912817
1.03912833
1.03912849
1.03912865
1.0391288
1.03912895
1.0391291
1.03912925
1.0391294
1.03912955
1.03912969
1.03912983
1.03912998
1.03913011
1.03913025
1.03913039
1.03913052
1.03913066
1.03913079
1.03913092
1.03913105
1.03913117
1.0391313
1.03913142
1.03913155
1.03913167
1.03913179
1.03913191
1.03913203
1.03913214
1.03913226
1.03913238
1.03913249
1.0391326
1.03913271
1.03913283
1.03913294
1.03913305
1.03913315
1.03913326
1.03913337
1.03913348
1.03913358
1.03913369
1.03913379
1.0391339
1.039134
1.0391341
1.03913421
1.03913431
1.03913441
1.03913451
1.03913461
1.03913471
1.03913481
1.03913491
1.03913501
1.03913511
1.03913521
1.03913531
1.03913541
1.03913551
1.03913561
1.03913571
1.03913581
1.03913591
1.03913601
1.03913612
1.03913622
1.03913632
1.03913642
1.03913653
1.03913663
1.03913674
1.03913684
1.03913695
1.03913706
1.03913716
1.03913728
1.03913739
1.0391375
1.03913762
1.03913773
1.03913785
1.03913797
1.0391381
1.03913822
1.03913835
1.03913848
1.03913862
1.03913875
1.03913889
1.03913904
1.03913919
1.03913934
1.0391395
1.03913966
1.03913982
1.03914
1.03914017
1.03914035
1.03914054
1.03914074
1.03914094
1.03914115
1.03914136
1.03914158
1.03914182
1.03914205
1.0391423
1.03914256
1.03914282
1.0391431
1.03914339
1.03914368
1.03914399
1.0391443
1.03914463
1.03914497
1.03914533
1.03914569
1.03914607
1.03914646
1.03914686
1.03914728
1.03914771
1.03914816
1.03914862
1.03914909
1.03914958
1.03915008
1.0391506
1.03915113
1.03915167
1.03915223
1.0391528
1.03915339
1.03915399
1.03915461
1.03915523
1.03915587
1.03915653
1.03915719
1.03915786
1.03915855
1.03915924
1.03915995
1.03916066
1.03916138
1.0391621
1.03916284
1.03916357
1.03916431
1.03916505
1.03916579
1.03916653
1.03916728
1.03916801
1.03916875
1.03916948
1.03917021
1.03917093
1.03917164
1.03917235
1.03917304
1.03917373
1.0391744
1.03917506
1.03917572
1.03917636
1.03917698
1.0391776
1.0391782
1.03917878
1.03917936
1.03917992
1.03918047
1.03918101
1.03918154
1.03918206
1.03918257
1.03918307
1.03918356
1.03918405
1.03918454
1.03918502
1.03918549
1.03918597
1.03918644
1.03918692
1.03918739
1.03918787
1.03918836
1.03918884
1.03918933
1.03918982
1.03919032
1.03919081
1.03919131
1.03919181
1.03919231
1.0391928
1.03919329
1.03919377
1.03919423
1.03919468
1.0391951
1.03919551
1.03919588
1.03919622
1.03919652
1.03919677
1.03919698
1.03919713
1.03919723
1.03919727
1.03919724
1.03919715
1.03919699
1.03919677
1.03919648
1.03919613
1.03919572
1.03919526
1.03919476
1.03919422
1.03919365
1.03919308
1.03919249
1.03919192
1.03919137
1.03919085
1.03919037
1.03918996
1.03918958
1.03918973
1.03918946
1.03920236
1.03920214
1.03949457
1.03949386
1.03902224
1.03903145
0.853711501
0.852210012
0.451245778
0.423156234
0.328701465
0.319276834
0.288108503
0.284650352
0.272095368
0.270840212
0.265730699
0.265350672
0.263587143
0.263501417
0.262989648
0.262974242
0.262843016
0.262840984
0.262811001
0.262810871
0.262804742
0.262804785
0.262803685
0.262803742
0.262803603
0.262803666
0.262803699
0.262803765
0.262803828
0.262803896
0.262803964
0.262804033
0.2628041
0.262804166
0.26280423
0.262804292
0.262804352
0.262804409
0.262804462
0.262804512
0.262804558
0.2628046
0.262804638
0.262804672
0.262804701
0.262804726