/*--------------------------------*- C++ -*----------------------------------*\
| =========                 |                                                 |
| \\      /  F ield         | OpenFOAM: The Open Source CFD Toolbox           |
|  \\    /   O peration     | Version:  2206                                  |
|   \\  /    A nd           | Website:  www.openfoam.com                      |
|    \\/     M anipulation  |                                                 |
\*---------------------------------------------------------------------------*/
FoamFile
{
    version     2.0;
    format      ascii;
    arch        "LSB;label=32;scalar=64";
    class       volScalarField;
    location    "1.4e-05";
    object      p;
}
// * * * * * * * * * * * * * * * * * * * * * * * * * * * * * * * * * * * * * //

dimensions      [1 -1 -2 0 0 0 0];

internalField   nonuniform List<scalar> 
3183
(
101325
101325
101325
101325
101325
101325
101325
101325
101325
101325
101325
101325
101325
101325
101325
101325
101325
101325
101325
101325
101325
101325
101325
101325
101325
101325
101325
101325
101325
101325
101325
101325
101325
101325
101325
101325
101325
101325
101325
101325
101325
101325
101325
101325
101325
101325
101325
101325
101325
101325
101325
101325
101325
101325
101325
101325
101325
101325
101325
101325
101325
101325
101325
101325
101325
101325
101325
101325
101325
101325
101325
101325
101325
101325
101325
101325
101325
101325
101325
101325
101325
101325
101325
101325
101325
101325
101325
101325
101325
101325
101325
101325
101325
101325
101325
101325
101325
101325
101325
101325
101325
101325
101325
101325
101325
101325
101325
101325
101325
101325
101325
101325
101325
101325
101325
101325
101325
101325
101325
101325
101325
101325
101325
101325
101325
101325
101325
101325
101325
101325
101325
101325
101325
101325
101325
101325
101325
101325
101325
101325
101325
101325
101325
101325
101325
101325
101325
101325
101325
101325
101325
101325
101325
101325
101325
101325
101325
101325
101325
101325
101325
101325
101325
101325
101325
101325
101325
101325
101325
101325
101325
101325
101325
101325
101325
101325
101325
101325
101325
101325
101325
101325
101325
101325
101325
101325
101325
101325
101325
101325
101325
101325
101325
101325
101325
101325
101325
101325
101325
101325
101325
101325
101325
101325
101325
101325
101325
101325
101325
101325
101325
101325
101325
101325
101325
101325
101325
101325
101325
101325
101325
101325
101325
101325
101325
101325
101325
101325
101325
101325
101325
101325
101325
101325
101325
101325
101325
101325
101325
101325
101325
101325
101325
101325
101325
101325
101325
101325
101325
101325
101325
101325
101325
101325
101325
101325
101325
101325
101325
101325
101325
101325
101325
101325
101325
101325
101325
101325
101325
101325
101325
101325
101325
101325
101325
101325
101325
101325
101325
101325
101325
101325
101325
101325
101325
101325
101325
101325
101325
101325
101325
101325
101325
101325
101325
101325
101325
101325
101325
101325
101325
101325
101325
101325
101325
101325
101325
101325
101325
101325
101325
101325
101325
101325
101325
101325
101325
101325
101325
101325
101325
101325
101325
101325
101325
101325
101325
101325
101325
101325
101325
101325
101325
101325
101325
101325
101325
101325
101325
101325
101325
101325
101325
101325
101325
101325
101325
101325
101325
101325
101325
101325
101325
101325
101325
101325
101325
101325
101325
101325
101325
101325
101325
101325
101325
101325
101325
101325
101325
101325
101325
101325
101325
101325
101325
101325
101325
101325
101325
101325
101325
101325
101325
101325
101325
101325
101325
101325
101325
101325
101325
101325
101325
101325
101325
101325
101325
101325
101325
101325
101325
101325
101325
101325
101325
101325
101325
101325
101325
101325
101325
101325
101325
101325
101325
101325
101325
101325
101325
101325
101325
101325
101325
101325
101325
101325
101325
101325
101325
101325
101325
101325
101325
101325
101325
101325
101325
101325
101325
101325
101325
101325
101325
101325
101325
101325
101325
101325
101325
101325
101325
101325
101325
101325
101325
101325
101325
101325
101325
101325
101325
101325
101325
101325
101325
101325
101325
101325
101325
101325
101325
101325
101325
101325
101325
101325
101325
101325
101325
101325
101325
101325
101325
101325
101325
101325
101325
101325
101325
101325
101325
101325
101325
101325
101325
101325
101325
101325
101325
101325
101325
101325
101325
101325
101325
101325
101325
101325
101325
101325
101325
101325
101325
101325
101325
101325
101325
101325
101325
101325
101325
101325
101325
101325
101325
101325
101325
101325
101325
101325
101325
101325
101325
101325
101325
101325
101325
101325
101325
101325
101325
101325
101325
101325
101325
101325
101325
101325
101325
101325
101325
101325
101325
101325
101325
101325
101325
101325
101325
101325
101325
101325
101325
101325
101325
101325
101325
101325
101325
101325
101325
101325
101325
101325
101325
101325
101325
101325
101325
101325
101325
101325
101325
101325
101325
101325
101325
101325
101325
101325
101325
101325
101325
101325
101325
101325
101325
101325
101325
101325
101325
101325
101325
101325
101325
101325
101325
101325
101325
101325
101325
101325
101325
101325
101325
101325
101325
101325
101325
101325
101325
101325
101325
101325
101325
101325
101325
101325
101325
101325
101325
101325
101325
101325
101325
101325
101325
101325
101325
101325
101325
101325
101325
101325
101325
101325
101325
101325
101325
101325
101325
101325
101325
101325
101325
101325
101325
101325
101325
101325
101325
101325
101325
101325
101325
101325
101325
101325
101325
101325
101325
101325
101325
101325
101325
101325
101325
101325
101325
101325
101325
101325
101325
101325
101325
101325
101325
101325
101325
101325
101325
101325
101325
101325
101325
101325
101325
101325
101325
101325
101325
101325
101325
101325
101325
101325
101325
101325
101325
101325
101325
101325
101325
101325
101325
101325
101325
101325
101325
101325
101325
101325
101325
101325
101325
101325
101325
101325
101325
101325
101325
101325
101325
101325
101325
101325
101325
101325
101325
101325
101325
101325
101325
101325
101325
101325
101325
101325
101325
101325
101325
101325
101325
101325
101325
101325
101325
101325
101325
101325
101325
101325
101325
101325
101325
101325
101325
101325
101325
101325
101325
101325
101325
101325
101325
101325
101325
101325
101325
101325
101325
101325
101325
101325
101325
101325
101325
101325
101325
101325
101325
101325
101325
101325
101325
101325
101325
101325
101325
101325
101325
101325
101325
101325
101325
101325
101325
101325
101325
101325
101325
101325
101325
101325
101325
101325
101325
101325
101325
101325
101325
101325
101325
101325
101325
101325
101325
101325
101325
101325
101325
101325
101325
101325
101325
101325
101325
101325
101325
101325
101325
101325
101325
101325
101325
101325
101325
101325
101325
101325
101325
101325
101325
101325
101325
101325
101325
101325
101325
101325
101325
101325
101325
101325
101325
101325
101325
101325
101325
101325
101325
101325
101325
101325
101325
101325
101325
101325
101325
101325
101325
101325
101325
101325
101325
101325
101325
101325
101325
101325
101325
101325
101325
101325
101325
101325
101325
101325
101325
101325
101325
101325
101325
101325
101325
101325
101325
101325
101325
101325
101325
101325
101325
101325
101325
101325
101325
101325
101325
101325
101325
101325
101325
101325
101325
101325
101325
101325
101325
101325
101325
101325
101325
101325
101325
101325
101325
101325
101325
101325
101325
101325
101325
101325
101325
101325
101325
101325
101325
101325
101325
101325
101325
101325
101325
101325
101325
101325
101325
101325
101325
101325
101325
101325
101325
101325
101325
101325
101325
101325
101325
101325
101325
101325
101325
101325
101325
101325
101325
101325
101325
101325
101325
101325
101325
101325
101325
101325
101325
101325
101325
101325
101325
101325
101325
101325
101325
101325
101325
101325
101325
101325
101325
101325
101325
101325
101325
101325
101325
101325
101325
101325
101325
101325
101325
101325
101325
101325
101325
101325
101325
101325
101325
101325
101325
101325
101325
101325
101325
101325
101325
101325
101325
101325
101325
101325
101325
101325
101325
101325
101325
101325
101325
101325
101325
101325
101325
101325
101325
101325
101325
101325
101325
101325
101325
101325
101325
101325
101325
101325
101325
101325
101325
101325
101325
101325
101325
101325
101325
101325
101325
101325
101325
101325
101325
101325
101325
101325
101325
101325
101325
101325
101325
101325
101325
101325
101325
101325
101325
101325
101325
101325
101325
101325
101325
101325
101325
101325
101325
101325
101325
101325
101325
101325
101325
101325
101325
101325
101325
101325
101325
101325
101325
101325
101325
101325
101325
101325
101325
101325
101325
101325
101325
101325
101325
101325
101325
101325
101325
101325
101325
101325
101325
101325
101325
101325
101325
101325
101325
101325
101325
101325
101325
101325
101325
101325
101325
101325
101325
101325
101325
101325
101325
101325
101325
101325
101325
101325
101325
101325
101325
101325
101325
101325
101325
101325
101325
101325
101325
101325
101325
101325
101325
101325
101325
101325
101325
101325
101325
101325
101325
101325
101325
101325
101325
101325
101325
101325
101325
101325
101325
101325
101325
101325
101325
101325
101325
101325
101325
101325
101325
101325
101325
101325
101325
101325
101325
101325
101325
101325
101325
101325
101325
101325
101325
101325
101325
101325
101325
101325
101325
101325
101325
101325
101325
101325
101325
101325
101325
101325
101325
101325
101325
101325
101325
101325
101325
101325
101325
101325
101325
101325
101325
101325
101325
101325
101325
101325
101325
101325
101325
101325
101325
101325
101325
101325
101325
101325
101325
101325
101325
101325
101325
101325
101325
101325
101325
101325
101325
101325
101325
101325
101325
101325
101325
101325
101325
101325
101325
101325
101325
101325
101325
101325
101325
101325
101325
101325
101325
101325
101325
101325
101325
101325
101325
101325
101325
101325
101325
101325
101325
101325
101325
101325
101325
101325
101325
101325
101325
101325
101325
101325
101325
101325
101325
101325
101325
101325
101325
101325
101325
101325
101325
101325
101325
101325
101325
101325
101325
101325
101325
101325
101325
101325
101325
101325
101325
101325
101325
101325
101325
101325
101325
101325
101325
101325
101325
101325
101325
101325
101325
101325
101325
101325
101325
101325
101325
101325
101325
101325
101325
101325
101325
101325
101325
101325
101325
101325
101325
101325
101325
101325
101325
101325
101325
101325
101325
101325
101325
101325
101325
101325
101325
101325
101325
101325
101325
101325
101325
101325
101325
101325
101325
101325
101325
101325
101325
101325
101325
101325
101325
101325
101325
101325
101325
101325
101325
101325
101325
101325
101325
101325
101325
101325
101325
101325
101325
101325
101325
101325
101325
101325
101325
101325
101325
101325
101325
101325
101325
101325
101325
101325
101325
101325
101325
101325
101325
101325
101325
101325
101325
101325
101325
101325
101325
101325
101325
101325
101325
101325
101325
101325
101325
101325
101325
101325
101325
101325
101325
101325
101325
101325
101325
101325
101325
101325
101325
101325
101325
101325
101325
101325
101325
101325
101325
101325
101325
101325
101325
101325
101325
101325
101325
101325
101325
101325
101325
101325
101325
101325
101325
101325
101325
101325
101325
101325
101325
101325
101325
101325
101325
101325
101325
101325
101325
101325
101325
101325
101325
101325
101325
101325
101325
101325
101325
101325
101325
101325
101325
101325
101325
101325
101325
101325
101325
101325
101325
101325
101325
101325
101325
101325
101325
101325
101325
101325
101325
101325
101325
101325
101325
101325
101325
101325
101325
101325
101325
101325
101325
101325
101325
101325
101325
101325
101325
101325
101325
101325
101325
101325
101325
101325
101325
101325
101325
101325
101325
101325
101325
101325
101325
101325
101325
101325
101325
101325
101325
101325
101325
101325
101325
101325
101325
101325
101325
101325
101325
101325
101325
101325
101325
101325
101325
101325
101325
101325
101325
101325
101325
101325
101325
101325
101325
101325
101325
101325
101325
101325
101325
101325
101325
101325
101325
101325
101325
101325
101325
101325
101325
101325
101325
101325
101325
101325
101325
101325
101325
101325
101325
101325
101325
101325
101325
101325
101325
101325
101325
101325
101325
101325
101325
101325
101325
101325
101325
101325
101325
101325
101325
101325
101325
101325
101325
101325
101325
101325
101325
101325
101325
101325
101325
101325
101325
101325
101325
101325
101325
101325
101325
101325
101325
101325
101325
101325
101325
101325
101325
101325
101325
101325
101325
101325
101325
101325
101325
101325
101325
101325
101325
101325
101325
101325
101325
101325
101325
101325
101325
101325
101325
101325
101325
101325
101325
101325
101325
101325
101325
101325
101325
101325
101325
101325
101325
101325
101325
101325
101325
101325
101325
101325
101325
101325
101325
101325
101325
101325
101325
101325
101325
101325
101325
101325
101325
101325
101325
101325
101325
101325
101325
101325
101325
101325
101325
101325
101325
101325
101325
101325
101325
101325
101325
101325
101325
101325
101325
101325
101325
101325
101325
101325
101325
101325
101325
101325
101325
101325
101325
101325
101325
101325
101325
101325
101325
101325
101325
101325
101325
101325
101325
101325
101325
101325
101325
101325
101325
101325
101325
101325
101325
101325
101325
101325
101325
101325
101325
101325
101325
101325
101325
101325
101325
101325
101325
101325
101325
101325
101325
101325
101325
101325
101325
101325
101325
101325
101325
101325
101325
101325
101325
101325
101325
101325
101325
101325
101325
101325
101325
101325
101325
101325
101325
101325
101325
101325
101325
101325
101325
101325
101325
101325
101325
101325
101325
101325
101325
101325
101325
101325
101325
101325
101325
101325
101325
101325
101325
101325
101325
101325
101325
101325
101325
101325
101325
101325
101325
101325
101325
101325
101325
101325
101325
101325
101325
101325
101325
101325
101325
101325
101325
101325
101325
101325
101325
101325
101325
101325
101325
101325
101325
101325
101325
101325
101325
101325
101325
101325
101325
101325
101324.999
101324.999
101324.999
101324.999
101324.999
101324.999
101324.999
101324.999
101324.999
101324.999
101324.999
101324.999
101324.999
101324.999
101324.999
101324.999
101324.999
101324.998
101324.998
101324.998
101324.998
101324.998
101324.998
101324.998
101324.998
101324.998
101324.997
101324.997
101324.997
101324.997
101324.997
101324.996
101324.996
101324.996
101324.996
101324.996
101324.995
101324.995
101324.995
101324.994
101324.994
101324.994
101324.993
101324.993
101324.992
101324.992
101324.992
101324.991
101324.991
101324.99
101324.989
101324.989
101324.988
101324.987
101324.987
101324.986
101324.985
101324.984
101324.983
101324.982
101324.981
101324.98
101324.979
101324.978
101324.977
101324.976
101324.974
101324.973
101324.971
101324.97
101324.968
101324.966
101324.965
101324.963
101324.961
101324.958
101324.956
101324.954
101324.951
101324.949
101324.946
101324.943
101324.94
101324.937
101324.934
101324.93
101324.927
101324.923
101324.919
101324.915
101324.91
101324.906
101324.901
101324.896
101324.891
101324.885
101324.879
101324.873
101324.867
101324.86
101324.853
101324.846
101324.839
101324.831
101324.822
101324.814
101324.805
101324.795
101324.785
101324.775
101324.764
101324.753
101324.742
101324.729
101324.717
101324.704
101324.69
101324.675
101324.66
101324.645
101324.628
101324.612
101324.594
101324.576
101324.556
101324.537
101324.516
101324.494
101324.472
101324.449
101324.425
101324.4
101324.374
101324.347
101324.319
101324.289
101324.259
101324.228
101324.195
101324.161
101324.126
101324.09
101324.053
101324.014
101323.973
101323.931
101323.888
101323.843
101323.797
101323.749
101323.699
101323.648
101323.595
101323.54
101323.484
101323.425
101323.365
101323.303
101323.238
101323.172
101323.103
101323.032
101322.96
101322.884
101322.807
101322.727
101322.645
101322.56
101322.473
101322.384
101322.291
101322.196
101322.099
101321.998
101321.895
101321.789
101321.68
101321.568
101321.454
101321.336
101321.215
101321.091
101320.964
101320.833
101320.7
101320.563
101320.423
101320.279
101320.132
101319.982
101319.828
101319.671
101319.51
101319.346
101319.178
101319.006
101318.831
101318.652
101318.47
101318.284
101318.094
101317.901
101317.704
101317.503
101317.298
101317.09
101316.878
101316.663
101316.444
101316.221
101315.994
101315.764
101315.531
101315.294
101315.053
101314.809
101314.561
101314.31
101314.056
101313.799
101313.538
101313.274
101313.007
101312.737
101312.465
101312.189
101311.91
101311.629
101311.346
101311.059
101310.771
101310.48
101310.187
101309.892
101309.595
101309.296
101308.995
101308.693
101308.39
101308.085
101307.779
101307.472
101307.164
101306.856
101306.547
101306.238
101305.928
101305.619
101305.309
101305
101304.692
101304.384
101304.077
101303.77
101303.466
101303.162
101302.86
101302.56
101302.262
101301.966
101301.672
101301.381
101301.092
101300.807
101300.524
101300.245
101299.969
101299.697
101299.429
101299.165
101298.905
101298.649
101298.398
101298.151
101297.91
101297.673
101297.442
101297.216
101296.995
101296.781
101296.572
101296.369
101296.172
101295.981
101295.797
101295.619
101295.448
101295.283
101295.125
101294.974
101294.83
101294.693
101294.563
101294.44
101294.325
101294.216
101294.115
101294.022
101293.935
101293.857
101293.785
101293.721
101293.664
101293.615
101293.573
101293.538
101293.511
101293.491
101293.478
101293.473
101293.474
101293.482
101293.498
101293.52
101293.549
101293.584
101293.626
101293.675
101293.729
101293.79
101293.857
101293.93
101294.009
101294.093
101294.182
101294.277
101294.377
101294.482
101294.592
101294.707
101294.826
101294.949
101295.076
101295.207
101295.342
101295.48
101295.622
101295.767
101295.915
101296.065
101296.218
101296.374
101296.532
101296.692
101296.853
101297.017
101297.182
101297.348
101297.515
101297.683
101297.852
101298.022
101298.192
101298.362
101298.532
101298.703
101298.873
101299.043
101299.212
101299.381
101299.549
101299.716
101299.882
101300.047
101300.211
101300.373
101300.534
101300.694
101300.852
101301.008
101301.162
101301.315
101301.466
101301.614
101301.761
101301.905
101302.048
101302.188
101302.326
101302.462
101302.595
101302.726
101302.855
101302.981
101303.105
101303.227
101303.346
101303.463
101303.577
101303.689
101303.799
101303.906
101304.011
101304.114
101304.215
101304.313
101304.409
101304.503
101304.594
101304.684
101304.771
101304.857
101304.94
101305.022
101305.101
101305.179
101305.255
101305.329
101305.402
101305.472
101305.542
101305.609
101305.675
101305.74
101305.803
101305.865
101305.925
101305.984
101306.043
101306.099
101306.155
101306.21
101306.263
101306.316
101306.368
101306.419
101306.469
101306.518
101306.567
101306.615
101306.662
101306.709
101306.755
101306.801
101306.846
101306.89
101306.935
101306.979
101307.022
101307.065
101307.108
101307.151
101307.194
101307.236
101307.278
101307.32
101307.362
101307.404
101307.445
101307.487
101307.529
101307.57
101307.612
101307.653
101307.695
101307.736
101307.778
101307.819
101307.861
101307.902
101307.944
101307.986
101308.027
101308.069
101308.11
101308.152
101308.194
101308.235
101308.277
101308.319
101308.36
101308.401
101308.443
101308.484
101308.525
101308.566
101308.607
101308.647
101308.688
101308.728
101308.768
101308.808
101308.847
101308.886
101308.925
101308.963
101309.001
101309.039
101309.076
101309.112
101309.149
101309.184
101309.22
101309.254
101309.288
101309.322
101309.355
101309.387
101309.419
101309.45
101309.481
101309.511
101309.54
101309.568
101309.596
101309.623
101309.65
101309.676
101309.701
101309.725
101309.749
101309.772
101309.794
101309.815
101309.836
101309.857
101309.876
101309.895
101309.914
101309.931
101309.948
101309.965
101309.981
101309.996
101310.011
101310.026
101310.039
101310.053
101310.066
101310.078
101310.091
101310.103
101310.114
101310.125
101310.136
101310.147
101310.158
101310.168
101310.178
101310.188
101310.198
101310.208
101310.218
101310.228
101310.238
101310.248
101310.258
101310.269
101310.279
101310.29
101310.301
101310.312
101310.324
101310.336
101310.348
101310.361
101310.374
101310.387
101310.401
101310.416
101310.431
101310.446
101310.462
101310.479
101310.496
101310.513
101310.531
101310.55
101310.57
101310.59
101310.61
101310.631
101310.653
101310.675
101310.698
101310.721
101310.745
101310.77
101310.794
101310.82
101310.845
101310.871
101310.898
101310.924
101310.951
101310.978
101311.005
101311.033
101311.06
101311.088
101311.115
101311.143
101311.17
101311.197
101311.224
101311.251
101311.277
101311.304
101311.329
101311.355
101311.38
101311.404
101311.428
101311.451
101311.474
101311.496
101311.517
101311.538
101311.559
101311.578
101311.597
101311.616
101311.633
101311.65
101311.667
101311.683
101311.698
101311.713
101311.727
101311.74
101311.754
101311.766
101311.778
101311.79
101311.802
101311.813
101311.824
101311.834
101311.845
101311.855
101311.865
101311.875
101311.885
101311.894
101311.904
101311.913
101311.923
101311.932
101311.942
101311.951
101311.961
101311.971
101311.98
101311.99
101312
101312.01
101312.019
101312.03
101312.04
101312.05
101312.06
101312.071
101312.081
101312.092
101312.102
101312.113
101312.124
101312.135
101312.146
101312.158
101312.169
101312.18
101312.192
101312.204
101312.216
101312.228
101312.24
101312.253
101312.265
101312.278
101312.291
101312.304
101312.317
101312.33
101312.343
101312.356
101312.37
101312.383
101312.396
101312.409
101312.421
101312.434
101312.445
101312.457
101312.467
101312.477
101312.486
101312.494
101312.501
101312.507
101312.511
101312.514
101312.515
101312.515
101312.513
101312.51
101312.505
101312.499
101312.493
101312.487
101312.483
101312.482
101312.485
101312.483
101312.472
101312.806
101312.926
101312.87
101312.252
101312.142
101312.115
101312.217
101312.261
101312.369
101312.405
101312.465
101312.489
101312.515
101312.524
101312.533
101312.538
101312.542
101312.544
101312.547
101312.548
101312.549
101312.55
101312.549
101312.549
101312.548
101312.546
101312.544
101312.542
101312.539
101312.535
101312.532
101312.528
101312.524
101312.519
101312.514
101312.509
101312.504
101312.499
101312.493
101312.488
101312.482
101312.476
101312.47
101312.464
101312.458
101312.452
101312.445
101312.439
101312.432
101312.426
101312.419
101312.413
101312.406
101312.4
101312.393
101312.387
101312.38
101312.374
101312.367
101312.361
101312.354
101312.347
101312.341
101312.334
101312.328
101312.322
101312.315
101312.309
101312.302
101312.296
101312.29
101312.283
101312.277
101312.271
101312.264
101312.258
101312.252
101312.246
101312.24
101312.233
101312.227
101312.221
101312.215
101312.209
101312.203
101312.197
101312.191
101312.185
101312.179
101312.173
101312.167
101312.161
101312.155
101312.149
101312.143
101312.137
101312.131
101312.125
101312.119
101312.114
101312.108
101312.102
101312.096
101312.09
101312.084
101312.078
101312.073
101312.067
101312.061
101312.055
101312.049
101312.044
101312.038
101312.032
101312.026
101312.021
101312.015
101312.009
101312.004
101311.998
101311.992
101311.987
101311.981
101311.975
101311.97
101311.964
101311.958
101311.953
101311.947
101311.941
101311.936
101311.93
101311.925
101311.919
101311.914
101311.908
101311.903
101311.897
101311.891
101311.886
101311.88
101311.875
101311.869
101311.864
101311.858
101311.853
101311.847
101311.841
101311.836
101311.83
101311.824
101311.819
101311.813
101311.807
101311.801
101311.795
101311.789
101311.783
101311.777
101311.771
101311.765
101311.759
101311.753
101311.746
101311.74
101311.733
101311.726
101311.72
101311.713
101311.706
101311.699
101311.692
101311.684
101311.677
101311.67
101311.662
101311.654
101311.646
101311.638
101311.63
101311.622
101311.613
101311.604
101311.595
101311.586
101311.577
101311.568
101311.558
101311.549
101311.539
101311.529
101311.519
101311.509
101311.499
101311.488
101311.478
101311.467
101311.456
101311.445
101311.433
101311.422
101311.41
101311.399
101311.387
101311.375
101311.362
101311.35
101311.338
101311.325
101311.313
101311.3
101311.287
101311.274
101311.261
101311.248
101311.234
101311.221
101311.208
101311.194
101311.181
101311.167
101311.153
101311.139
101311.126
101311.112
101311.098
101311.084
101311.07
101311.056
101311.042
101311.028
101311.014
101311.001
101310.987
101310.973
101310.959
101310.945
101310.931
101310.918
101310.904
101310.89
101310.877
101310.863
101310.85
101310.837
101310.823
101310.81
101310.797
101310.784
101310.771
101310.758
101310.746
101310.733
101310.721
101310.708
101310.696
101310.684
101310.672
101310.66
101310.648
101310.637
101310.625
101310.614
101310.603
101310.592
101310.581
101310.57
101310.559
101310.549
101310.539
101310.528
101310.518
101310.508
101310.499
101310.489
101310.479
101310.47
101310.461
101310.452
101310.443
101310.434
101310.425
101310.416
101310.408
101310.4
101310.391
101310.383
101310.375
101310.368
101310.36
101310.352
101310.345
101310.337
101310.33
101310.323
101310.315
101310.308
101310.301
101310.295
101310.288
101310.281
101310.275
101310.268
101310.261
101310.255
101310.249
101310.242
101310.236
101310.23
101310.224
101310.218
101310.212
101310.206
101310.199
101310.194
101310.188
101310.182
101310.176
101310.17
101310.164
101310.158
101310.152
101310.146
101310.14
101310.134
101310.128
101310.122
101310.116
101310.11
101310.104
101310.098
101310.092
101310.086
101310.079
101310.073
101310.067
101310.06
101310.054
101310.047
101310.041
101310.034
101310.027
101310.021
101310.014
101310.007
101310
101309.992
101309.985
101309.978
101309.97
101309.963
101309.955
101309.947
101309.94
101309.932
101309.923
101309.915
101309.907
101309.898
101309.89
101309.881
101309.872
101309.863
101309.854
101309.845
101309.835
101309.826
101309.816
101309.806
101309.796
101309.786
101309.775
101309.765
101309.754
101309.744
101309.733
101309.722
101309.71
101309.699
101309.687
101309.675
101309.664
101309.651
101309.639
101309.627
101309.614
101309.602
101309.589
101309.576
101309.562
101309.549
101309.535
101309.522
101309.508
101309.494
101309.479
101309.465
101309.45
101309.436
101309.421
101309.406
101309.39
101309.375
101309.359
101309.344
101309.328
101309.312
101309.295
101309.279
101309.263
101309.246
101309.229
101309.212
101309.195
101309.178
101309.16
101309.143
101309.125
101309.107
101309.089
101309.071
101309.053
101309.035
101309.016
101308.998
101308.979
101308.96
101308.941
101308.922
101308.903
101308.884
101308.864
101308.845
101308.825
101308.805
101308.785
101308.766
101308.746
101308.725
101308.705
101308.685
101308.665
101308.644
101308.624
101308.603
101308.583
101308.562
101308.541
101308.52
101308.499
101308.478
101308.457
101308.436
101308.415
101308.394
101308.373
101308.352
101308.33
101308.309
101308.288
101308.266
101308.245
101308.224
101308.202
101308.181
101308.159
101308.138
101308.116
101308.094
101308.073
101308.051
101308.03
101308.008
101307.986
101307.965
101307.943
101307.921
101307.9
101307.878
101307.856
101307.835
101307.813
101307.791
101307.77
101307.748
101307.726
101307.705
101307.683
101307.661
101307.64
101307.618
101307.596
101307.575
101307.553
101307.531
101307.51
101307.488
101307.466
101307.445
101307.423
101307.401
101307.38
101307.358
101307.336
101307.311
101307.286
101307.258
101307.228
101307.196
101307.162
101307.126
101307.086
101307.044
101306.999
101306.95
101306.897
101306.841
101306.78
101306.714
101306.642
101306.565
101306.48
101306.388
101306.286
101306.175
101306.051
101305.914
101305.759
101305.585
101305.386
101305.158
101304.894
101304.586
101304.224
101303.796
101303.287
101302.681
101301.961
101301.108
101300.109
101298.958
101297.663
101296.263
101294.832
101293.496
101292.442
101291.908
101292.162
101293.448
101295.91
101299.517
101304.008
101308.914
101313.654
101317.705
101320.762
101322.792
101323.973
101324.575
101324.844
101324.949
101324.986
101324.997
101325
101325
101325
101325.001
101325.001
101325.001
101325.001
101325.001
101325.001
101325.001
101325.001
101325.001
101325
101325
101325
101325
101325
)
;

boundaryField
{
    closed
    {
        type            zeroGradient;
    }
    open
    {
        type            waveTransmissive;
        gamma           1.25;
        fieldInf        101325;
        lInf            1;
        value           uniform 101325;
    }
    sides
    {
        type            empty;
    }
}


// ************************************************************************* //
