/*--------------------------------*- C++ -*----------------------------------*\
| =========                 |                                                 |
| \\      /  F ield         | OpenFOAM: The Open Source CFD Toolbox           |
|  \\    /   O peration     | Version:  2206                                  |
|   \\  /    A nd           | Website:  www.openfoam.com                      |
|    \\/     M anipulation  |                                                 |
\*---------------------------------------------------------------------------*/
FoamFile
{
    version     2.0;
    format      ascii;
    arch        "LSB;label=32;scalar=64";
    class       volScalarField;
    location    "1.4e-05";
    object      PVsourcePV;
}
// * * * * * * * * * * * * * * * * * * * * * * * * * * * * * * * * * * * * * //

dimensions      [1 -3 -1 0 0 0 0];

internalField   nonuniform List<scalar> 
3183
(
0
0
0
0
0
0
0
0
0
0
0
0
0
0
0
0
0
0
0
0
0
0
0
0
0
0
0
0
0
0
0
0
0
0
0
0
0
0
0
0
0
0
0
0
0
0
0
0
0
0
0
0
0
0
0
0
0
0
0
0
0
0
0
0
0
0
0
0
0
0
0
0
0
0
0
0
0
0
0
0
0
0
0
0
0
0
0
0
0
0
0
0
0
0
0
0
0
0
0
0
0
0
0
0
0
0
0
0
0
0
0
0
0
0
0
0
0
0
0
0
0
0
0
0
0
0
0
0
0
0
0
0
0
0
0
0
0
0
0
0
0
0
0
0
0
0
0
0
0
0
0
0
0
0
0
0
0
0
0
0
0
0
0
0
0
0
0
0
0
0
0
0
0
0
0
0
0
0
0
0
0
0
0
0
0
0
0
0
0
0
0
0
0
0
0
0
0
0
0
0
0
0
0
0
0
0
0
0
0
0
0
0
0
0
0
0
0
0
0
0
0
0
0
0
0
0
0
0
0
0
0
0
0
0
0
0
0
0
0
0
0
0
0
0
0
0
0
0
0
0
0
0
0
0
0
0
0
0
0
0
0
0
0
0
0
0
0
0
0
0
0
0
0
0
0
0
0
0
0
0
0
0
0
0
0
0
0
0
0
0
0
0
0
0
0
0
0
0
0
0
0
0
0
0
0
0
0
0
0
0
0
0
0
0
0
0
0
0
0
0
0
0
0
0
0
0
0
0
0
0
0
0
0
0
0
0
0
0
0
0
0
0
0
0
0
0
0
0
0
0
0
0
0
0
0
0
0
0
0
0
0
0
0
0
0
0
0
0
0
0
0
0
0
0
0
0
0
0
0
0
0
0
0
0
0
0
0
0
0
0
0
0
0
0
0
0
0
0
0
0
0
0
0
0
0
0
0
0
0
0
0
0
0
0
0
0
0
0
0
0
0
0
0
0
0
0
0
0
0
0
0
0
0
0
0
0
0
0
0
0
0
0
0
0
0
0
0
0
0
0
0
0
0
0
0
0
0
0
0
0
0
0
0
0
0
0
0
0
0
0
0
0
0
0
0
0
0
0
0
0
0
0
0
0
0
0
0
0
0
0
0
0
0
0
0
0
0
0
0
0
0
0
0
0
0
0
0
0
0
0
0
0
0
0
0
0
0
0
0
0
0
0
0
0
0
0
0
0
0
0
0
0
0
0
0
0
0
0
0
0
0
0
0
0
0
0
0
0
0
0
0
0
0
0
0
0
0
0
0
0
0
0
0
0
0
0
0
0
0
0
0
0
0
0
0
0
0
0
0
0
0
0
0
0
0
0
0
0
0
0
0
0
0
0
0
0
0
0
0
0
0
0
0
0
0
0
0
0
0
0
0
0
0
0
0
0
0
0
0
0
0
0
0
0
0
0
0
0
0
0
0
0
0
0
0
0
0
0
0
0
0
0
0
0
0
0
0
0
0
0
0
0
0
0
0
0
0
0
0
0
0
0
0
0
0
0
0
0
0
0
0
0
0
0
0
0
0
0
0
0
0
0
0
0
0
0
0
0
0
0
0
0
0
0
0
0
0
0
0
0
0
0
0
0
0
0
0
0
0
0
0
0
0
0
0
0
0
0
0
0
0
0
0
0
0
0
0
0
0
0
0
0
0
0
0
0
0
0
0
0
0
0
0
0
0
0
0
0
0
0
0
0
0
0
0
0
0
0
0
0
0
0
0
0
0
0
0
0
0
0
0
0
0
0
0
0
0
0
0
0
0
0
0
0
0
0
0
0
0
0
0
0
0
0
0
0
0
0
0
0
0
0
0
0
0
0
0
0
0
0
0
0
0
0
0
0
0
0
0
0
0
0
0
0
0
0
0
0
0
0
0
0
0
0
0
0
0
0
0
0
0
0
0
0
0
0
0
0
0
0
0
0
0
0
0
0
0
0
0
0
0
0
0
0
0
0
0
0
0
0
0
0
0
0
0
0
0
0
0
0
0
0
0
0
0
0
0
0
0
0
0
0
0
0
0
0
0
0
0
0
0
0
0
0
0
0
0
0
0
0
0
0
0
0
0
0
0
0
0
0
0
0
0
0
0
0
0
0
0
0
0
0
0
0
0
0
0
0
0
0
0
0
0
0
0
0
0
0
0
0
0
0
0
0
0
0
0
0
0
0
0
0
0
0
0
0
0
0
0
0
0
0
0
0
0
0
0
0
0
0
0
0
0
0
0
0
0
0
0
0
0
0
0
0
0
0
0
0
0
0
0
0
0
0
0
0
0
0
0
0
0
0
0
0
0
0
0
0
0
0
0
0
0
0
0
0
0
0
0
0
0
0
0
0
0
0
0
0
0
0
0
0
0
0
0
0
0
0
0
0
0
0
0
0
0
0
0
0
0
0
0
0
0
0
0
0
0
0
0
0
0
0
0
0
0
0
0
0
0
0
0
0
0
0
0
0
0
0
0
0
0
0
0
0
0
0
0
0
0
0
0
0
0
0
0
0
0
0
0
0
0
0
0
0
0
0
0
0
0
0
0
0
0
0
0
0
0
0
0
0
0
0
0
0
0
0
0
0
0
0
0
0
0
0
0
0
0
0
0
0
0
0
0
0
0
0
0
0
0
0
0
0
0
0
0
0
0
0
0
0
0
0
0
0
0
0
0
0
0
0
0
0
0
0
0
0
0
0
0
0
0
0
0
0
0
0
0
0
0
0
0
0
0
0
0
0
0
0
0
0
0
0
0
0
0
0
0
0
0
0
0
0
0
0
0
0
0
0
0
0
0
0
0
0
0
0
0
0
0
0
0
0
0
0
0
0
0
0
0
0
0
0
0
0
0
0
0
0
0
0
0
0
0
0
0
0
0
0
0
0
0
0
0
0
0
0
0
0
0
0
0
0
0
0
0
0
0
0
0
0
0
0
0
0
0
0
0
0
0
0
0
0
0
0
0
0
0
0
0
0
0
0
0
0
0
0
0
0
0
0
0
0
0
0
0
0
0
0
0
0
0
0
0
0
0
0
0
0
0
0
0
0
0
0
0
0
0
0
0
0
0
0
0
0
0
0
0
0
0
0
0
0
0
0
0
0
0
0
0
0
0
0
0
0
0
0
0
0
0
0
0
0
0
0
0
0
0
0
0
0
0
0
0
0
0
0
0
0
0
0
0
0
0
0
0
0
0
0
0
0
0
0
0
0
0
0
0
0
0
0
0
0
0
0
0
0
0
0
0
0
0
0
0
0
0
0
0
0
0
0
0
0
0
0
0
0
0
0
0
0
0
0
0
0
0
0
0
0
0
0
0
0
0
0
0
0
0
0
0
0
0
0
0
0
0
0
0
0
0
0
0
0
0
0
0
0
0
0
0
0
0
0
0
0
0
0
0
0
0
0
0
0
0
0
0
0
0
0
0
0
0
0
0
0
0
0
0
0
0
0
0
0
0
0
0
0
0
0
0
0
0
0
0
0
0
0
0
0
0
0
0
0
0
0
0
0
0
0
0
0
0
0
0
0
0
0
0
0
0
0
0
0
0
0
0
0
0
0
0
0
0
0
0
0
0
0
0
0
0
0
0
0
0
0
0
0
0
0
0
0
0
0
0
0
0
0
0
0
0
0
0
0
0
0
0
0
0
0
0
0
0
0
0
0
0
0
0
0
0
0
0
0
0
0
0
0
0
0
0
0
0
0
0
0
0
0
0
0
0
0
0
0
0
0
0
0
0
0
0
0
0
0
0
0
0
0
0
0
0
0
0
0
0
0
0
0
0
0
0
0
0
0
0
0
0
0
0
0
0
0
0
0
0
0
0
0
0
0
0
0
0
0
0
0
0
0
0
0
0
0
0
0
0
0
0
0
0
0
0
0
0
0
0
0
0
0
0
0
0
0
0
0
0
0
0
0
0
0
0
0
0
0
0
0
0
0
0
0
0
0
0
0
0
0
0
0
0
0
0
0
0
0
0
0
0
0
0
0
0
0
0
0
0
0
0
0
0
0
0
0
0
0
0
0
0
0
0
0
0
0
0
0
0
0
0
0
0
0
0
0
0
0
0
0
0
0
0
0
0
0
0
0
0
0
0
0
0
0
0
0
0
0
0
0
0
0
0
0
0
0
0
0
0
0
0
0
0
0
0
0
0
0
0
0
0
0
0
0
0
0
0
0
0
0
0
0
0
0
0
0
0
0
0
0
0
0
0
0
0
0
0
0
0
0
0
0
0
0
0
0
0
0
0
0
0
0
0
0
0
0
0
0
0
0
0
0
0
0
0
0
0
0
0
0
0
0
0
0
0
0
0
0
0
0
0
0
0
0
0
0
0
0
0
0
0
0
0
0
0
0
0
0
0
0
0
0
0
0
0
0
0
0
0
0
0
0
0
0
0
0
0
0
0
0
0
0
0
0
0
0
0
0
0
0
0
0
0
0
0
0
0
0
0
0
0
0
0
0
0
0
0
0
0
0
0
0
0
0
0
0
0
0
0
0
0
0
0
0
0
0
0
0
0
0
0
0
0
0
0
0
0
0
0
0
0
0
0
0
0
0
0
0
0
0
0
0
0
0
0
0
0
0
0
0
0
0
0
0
0
0
0
0
0
0
0
0
0
0
0
0
0
0
0
0
0
0
0
0
0
0
0
0
0
0
0
0
0
0
0
0
0
0
0
0
0
0
0
0
0
0
0
0
0
0
0
0
0
0
0
0
0
0
0
0
0
0
0
0
0
0
0
0
0
0
0
0
0
0
0
0
0
0
0
0
0
0
0
0
0
0
0
0
0
0
0
0
0
0
0
0
0
0
0
0
0
0
0
0
0
0
0
0
0
0
0
0
0
0
0
0
0
0
0
0
0
0
0
0
0
0
0
0
0
0
0
0
0
0
0
0
0
0
0
0
0
0
0
0
0
0
0
0
0
0
0
0
0
0
0
0
0
0
0
0
0
0
0
0
0
0
0
0
0
0
0
0
0
0
0
0
0
0
0
0
0
0
0
0
0
0
0
0
0
0
0
0
0
0
0
0
0
0
0
0
0
0
0
0
0
0
0
0
0
0
0
0
0
0
0
0
0
0
0
0
0
0
0
0
0
0
0
0
0
0
0
0
0
0
0
0
0
0
0
0
0
0
0
0
0
0
0
0
0
0
0
0
0
0
0
0
0
0
0
0
0
0
0
0
0
0
0
0
0
0
0
0
0
0
0
0
0
0
0
0
0
0
0
0
0
0
0
0
0
0
0
0
0
0
0
0
0
0
0
0
0
0
0
0
0
0
0
0
0
0
0
0
0
0
0
0
0
0
0
0
0
0
0
0
0
0
0
0
0
0
0
0
0
0
0
0
0
0
0
0
0
0
0
2.18355694e-299
7.37881806e-300
1.41720518e-296
4.89117174e-297
9.09286677e-294
3.20284676e-294
5.76743557e-291
2.07213857e-291
3.61652326e-288
1.32463181e-288
2.24201214e-285
8.36605107e-286
1.3741473e-282
5.22209469e-283
8.32696162e-280
3.22143636e-280
4.98891345e-277
1.96298812e-277
2.95527963e-274
1.18308699e-274
1.73089357e-271
7.04645056e-272
1.00236568e-268
4.15035465e-269
5.73944405e-266
2.41424704e-266
3.24940598e-263
1.38813837e-263
1.81898971e-260
7.88947562e-261
1.00681379e-257
4.43236951e-258
5.51010876e-255
2.46151623e-255
2.9816843e-252
1.35130466e-252
1.59533141e-249
7.33315782e-250
8.43964452e-247
3.93385019e-247
4.41444902e-244
2.08609454e-244
2.28297948e-241
1.09354947e-241
1.16732989e-238
5.66667888e-239
5.90123806e-236
2.90268903e-236
2.94945193e-233
1.4697679e-233
1.45739665e-230
7.35642019e-231
7.11935968e-228
3.63953255e-228
3.4380971e-225
1.77982122e-225
1.64132855e-222
8.60295852e-223
7.74565331e-220
4.11005403e-220
3.61317913e-217
1.94071453e-217
1.66598995e-214
9.05680381e-215
7.59255596e-212
4.17706049e-212
3.41992346e-209
1.90384223e-209
1.52242624e-206
8.57503615e-207
6.69768969e-204
3.81649526e-204
2.91178109e-201
1.67839707e-201
1.25086952e-198
7.29292674e-199
5.30955505e-196
3.13083747e-196
2.22673657e-193
1.32783323e-193
9.22602067e-191
5.56316678e-191
3.77627484e-188
2.3023201e-188
1.52680471e-185
9.41114068e-186
6.09732859e-183
3.79942512e-183
2.40489281e-180
1.51480568e-180
9.36728882e-178
5.96378387e-178
3.60291818e-175
2.3183203e-175
1.36828183e-172
8.8975462e-173
5.13019433e-170
3.37107975e-170
1.89881907e-167
1.26073667e-167
6.93708771e-165
4.65359737e-165
2.50129419e-162
1.69516718e-162
8.90008678e-160
6.09317318e-160
3.12472012e-157
2.16086338e-157
1.08232704e-154
7.55974159e-155
3.69808525e-152
2.60869255e-152
1.24624723e-149
8.87795408e-150
4.1416694e-147
2.97928365e-147
1.35713396e-144
9.85715823e-145
4.38404636e-142
3.21485492e-142
1.39591362e-139
1.03339515e-139
4.38021494e-137
3.2733245e-137
1.35426828e-134
1.02152251e-134
4.12478774e-132
3.14020451e-132
1.2373638e-129
9.50670372e-130
3.65509989e-127
2.83381024e-127
1.06294286e-124
8.31539141e-125
3.04247889e-122
2.40139412e-122
8.56930278e-120
6.82347768e-120
2.37438842e-117
1.90720443e-117
6.47036859e-115
5.24227596e-115
1.7336205e-112
1.41660843e-112
4.56559503e-110
3.76233077e-110
1.18147095e-107
9.81758289e-108
3.00322549e-105
2.51622094e-105
7.49620501e-103
6.33195932e-103
1.83664371e-100
1.56391466e-100
4.41540971e-98
3.78970426e-98
1.04112562e-95
9.00611161e-96
2.40677068e-93
2.09807704e-93
5.4521576e-91
4.78915816e-91
1.20974892e-88
1.07063254e-88
2.6278085e-86
2.34283896e-86
5.58507049e-84
5.01566731e-84
1.16078055e-81
1.04990007e-81
2.35771895e-79
2.14749745e-79
4.67703614e-77
4.2894105e-77
9.05489216e-75
8.36061689e-75
1.70964394e-72
1.58901898e-72
3.14550682e-70
2.94252973e-70
5.63462821e-68
5.30443182e-68
9.81811951e-66
9.29993353e-66
1.66244397e-63
1.58419564e-63
2.73245809e-61
2.61912028e-61
4.35452377e-59
4.19768336e-59
6.7198142e-57
6.51353135e-57
1.00277235e-54
9.7716859e-55
1.4448362e-52
1.41514932e-52
2.00670977e-50
1.97504345e-50
2.68166957e-48
2.65133863e-48
3.44113101e-46
3.41605297e-46
4.23053206e-44
4.21363725e-44
4.97044311e-42
4.96093935e-42
5.56513949e-40
5.55538587e-40
5.91906838e-38
5.89395634e-38
5.95869341e-36
5.90282543e-36
5.65402216e-34
5.56878652e-34
5.0322848e-32
4.95206505e-32
4.17726002e-30
4.14751202e-30
3.21218838e-28
3.21082999e-28
2.27021648e-26
2.26208444e-26
1.46045639e-24
1.45124112e-24
8.44727346e-23
8.37818834e-23
4.32519114e-21
4.28971951e-21
1.92079872e-19
1.89492079e-19
7.19602427e-18
7.16812261e-18
2.18311305e-16
2.17190494e-16
5.03743947e-15
5.0563635e-15
6.6571267e-11
6.75379495e-11
0.00610849
0.0269030855
0.588606687
0.686712932
0.607814605
0.533451572
0.156319969
0.127578862
0.024238706
0.0214238693
0.0049796174
0.0045763744
0.00090225879
0.000864928304
0.000147722496
0.000146625444
2.30090592e-05
2.30388624e-05
3.81049147e-06
3.81580653e-06
1.07662181e-06
1.07808518e-06
7.18468105e-07
7.18486771e-07
6.7452245e-07
6.74534356e-07
6.69508559e-07
6.69510205e-07
6.68969566e-07
6.68971053e-07
6.68914829e-07
6.68915441e-07
6.68909739e-07
6.68911184e-07
6.68908014e-07
6.68910532e-07
6.68908817e-07
6.68908609e-07
6.6890904e-07
6.68907797e-07
6.6891031e-07
6.68908127e-07
6.68910713e-07
6.68908264e-07
6.68909587e-07
6.68909167e-07
6.68909707e-07
6.68909201e-07
6.68909536e-07
6.68909551e-07
6.68909676e-07
6.68909244e-07
6.68909708e-07
6.68909516e-07
6.68909706e-07
6.68909676e-07
6.6890876e-07
6.68910808e-07
6.68908811e-07
6.68909567e-07
6.6890972e-07
6.68910258e-07
6.68909699e-07
6.68908732e-07
6.68909496e-07
6.68908646e-07
6.68909628e-07
6.68909543e-07
6.6890928e-07
6.68908872e-07
6.68909039e-07
6.68909462e-07
6.68908442e-07
6.68909115e-07
6.68908886e-07
6.68909493e-07
6.68909557e-07
6.68909689e-07
6.68909462e-07
6.68910519e-07
6.68908567e-07
6.68910056e-07
6.6890932e-07
6.68909627e-07
6.68909766e-07
6.68908091e-07
6.68910578e-07
6.68908434e-07
6.6891013e-07
6.68907715e-07
6.68910781e-07
6.68908459e-07
6.68910462e-07
6.68909007e-07
6.68910005e-07
6.68908923e-07
6.68909715e-07
6.68909549e-07
6.68910414e-07
6.68909926e-07
6.68909222e-07
6.68909665e-07
6.68909663e-07
6.68909611e-07
6.68909794e-07
6.68909343e-07
6.6890972e-07
6.68909618e-07
6.68909642e-07
6.68910146e-07
6.68908539e-07
6.68909959e-07
6.68909224e-07
6.68909131e-07
6.68909406e-07
6.68909085e-07
6.6890829e-07
6.68910578e-07
6.68907931e-07
6.68910283e-07
6.68909559e-07
6.68910028e-07
6.68908353e-07
6.68909347e-07
6.68909351e-07
6.68909593e-07
6.68909128e-07
6.68910247e-07
6.68909181e-07
6.68910228e-07
6.68909711e-07
6.68909336e-07
6.6891079e-07
6.68910241e-07
6.68909705e-07
6.6890996e-07
6.68910165e-07
6.68909762e-07
6.68909336e-07
6.68909447e-07
6.68909128e-07
6.68909651e-07
6.6890858e-07
6.68909918e-07
6.68908881e-07
6.68909623e-07
6.68908779e-07
6.68909438e-07
6.68910392e-07
6.68908495e-07
6.68910197e-07
6.68908437e-07
6.68910276e-07
6.68909224e-07
6.68910085e-07
6.68909547e-07
6.68910174e-07
6.68910233e-07
6.6890918e-07
6.68909296e-07
6.68911739e-07
6.68908669e-07
6.68911669e-07
6.6890877e-07
6.68911569e-07
6.68908947e-07
6.68910308e-07
6.68909549e-07
6.68909135e-07
6.68909288e-07
6.68908928e-07
6.68909841e-07
6.6890843e-07
6.6891001e-07
6.68909279e-07
6.6891033e-07
6.68909769e-07
6.68910637e-07
6.68910155e-07
6.68910688e-07
6.68910288e-07
6.68911079e-07
6.68910279e-07
6.68910978e-07
6.68909567e-07
6.6890942e-07
6.68910251e-07
6.689091e-07
6.68910829e-07
6.68909966e-07
6.68910322e-07
6.68908809e-07
6.68910568e-07
6.68909727e-07
6.68910931e-07
6.68909392e-07
6.68909388e-07
6.68909505e-07
6.68910203e-07
6.68909107e-07
6.68910945e-07
6.68908536e-07
6.68911463e-07
6.6890892e-07
6.68910268e-07
6.68910201e-07
6.68909331e-07
6.68910317e-07
6.68911027e-07
6.68910375e-07
6.6891068e-07
6.68910077e-07
6.68910242e-07
6.68910211e-07
6.68910435e-07
6.68910217e-07
6.68909617e-07
6.68910158e-07
6.68909356e-07
6.68910289e-07
6.6891022e-07
6.68909592e-07
6.6891023e-07
6.68910334e-07
6.68910143e-07
6.68909998e-07
6.6891156e-07
6.68909287e-07
6.6891045e-07
6.68910477e-07
6.68910391e-07
6.68909772e-07
6.68910371e-07
6.6891033e-07
6.68910171e-07
6.68911093e-07
6.6891017e-07
6.68910813e-07
6.68909974e-07
6.68910846e-07
6.68910119e-07
6.68911874e-07
6.68909293e-07
6.68912441e-07
6.68908591e-07
6.68911511e-07
6.68910022e-07
6.68909113e-07
6.68910901e-07
6.68908519e-07
6.68911165e-07
6.68910128e-07
6.68910588e-07
6.68909889e-07
6.68910553e-07
6.68910324e-07
6.68910067e-07
6.68910226e-07
6.68910417e-07
6.689109e-07
6.68910519e-07
6.68910081e-07
6.68911012e-07
6.68909703e-07
6.68911003e-07
6.68909455e-07
6.68910415e-07
6.68909788e-07
6.68910598e-07
6.68908637e-07
6.68911145e-07
6.68909338e-07
6.68910367e-07
6.68910303e-07
6.68909853e-07
6.68911405e-07
6.68909857e-07
6.68910529e-07
6.68910578e-07
6.68910103e-07
6.68910332e-07
6.68910263e-07
6.68909952e-07
6.68910299e-07
6.6891005e-07
6.68910361e-07
6.6890989e-07
6.68910751e-07
6.68910188e-07
6.6891069e-07
6.68910151e-07
6.68910062e-07
6.68911169e-07
6.68909115e-07
6.68909275e-07
6.68910958e-07
6.68909787e-07
6.68911201e-07
6.68910726e-07
6.68910866e-07
6.68910783e-07
6.68910229e-07
6.68911235e-07
6.68910131e-07
6.68910747e-07
6.68910165e-07
6.68910144e-07
6.6891043e-07
6.689094e-07
6.68910775e-07
6.68909829e-07
6.68911341e-07
6.68909541e-07
6.68911802e-07
6.68909963e-07
6.68910302e-07
6.6891028e-07
6.68910819e-07
6.68910641e-07
6.68909281e-07
6.68911847e-07
6.68909121e-07
6.68911855e-07
6.68909378e-07
6.68911086e-07
6.68909996e-07
6.68910108e-07
6.68911063e-07
6.68910028e-07
6.68910934e-07
6.68910034e-07
6.68910977e-07
6.68910089e-07
6.68910675e-07
6.68909969e-07
6.68910751e-07
6.68910523e-07
6.68910966e-07
6.68909778e-07
6.68910926e-07
6.68910481e-07
6.68911352e-07
6.68911096e-07
6.68910647e-07
6.68910744e-07
6.68910909e-07
6.68909868e-07
6.68911053e-07
6.68911175e-07
6.68909773e-07
6.68911303e-07
6.68910774e-07
6.6891036e-07
6.68909982e-07
6.68910782e-07
6.68910269e-07
6.68911235e-07
6.68910122e-07
6.68911191e-07
6.68910972e-07
6.68910438e-07
6.68910301e-07
6.68910663e-07
6.68910883e-07
6.68911353e-07
6.68910489e-07
6.6891099e-07
6.68910991e-07
6.68911557e-07
6.68911237e-07
6.68911895e-07
6.68911158e-07
6.68910905e-07
6.68910956e-07
6.68911385e-07
6.68910346e-07
6.68910909e-07
6.689109e-07
6.68910889e-07
6.68911139e-07
6.68910948e-07
6.68910378e-07
6.68911282e-07
6.68910534e-07
6.68911112e-07
6.68911288e-07
6.68909863e-07
6.68911937e-07
6.68909491e-07
6.68911054e-07
6.68910202e-07
6.68911267e-07
6.68910034e-07
6.68910737e-07
6.6891095e-07
6.68910813e-07
6.68911599e-07
6.68911089e-07
6.68911085e-07
6.68910714e-07
6.68910821e-07
6.68910569e-07
6.68910114e-07
6.6891195e-07
6.68909596e-07
6.68911798e-07
6.68909764e-07
6.6891172e-07
6.68910768e-07
6.689108e-07
6.68910993e-07
6.68911845e-07
6.68911119e-07
6.68911285e-07
6.68911293e-07
6.68910454e-07
6.68911289e-07
6.68911179e-07
6.68911314e-07
6.68911046e-07
6.68911375e-07
6.68911715e-07
6.68910413e-07
6.68913047e-07
6.68910893e-07
6.68912034e-07
6.68910985e-07
6.68912131e-07
6.68910682e-07
6.68912312e-07
6.6891077e-07
6.68912154e-07
6.68911837e-07
6.68910738e-07
6.68912028e-07
6.68910943e-07
6.68911488e-07
6.68911823e-07
6.68910854e-07
6.68912189e-07
6.68910931e-07
6.68911844e-07
6.68910914e-07
6.68911155e-07
6.68910635e-07
6.6891234e-07
6.68910894e-07
6.68912093e-07
6.68911006e-07
6.68911215e-07
6.68911874e-07
6.68910871e-07
6.68911911e-07
6.68910979e-07
6.68910782e-07
6.68911964e-07
6.68910507e-07
6.68911324e-07
6.68911713e-07
6.6891071e-07
6.68912217e-07
6.68911194e-07
6.68911027e-07
6.68912013e-07
6.68910597e-07
6.68912485e-07
6.68911367e-07
6.68911877e-07
6.68911233e-07
6.6891141e-07
6.68911055e-07
6.68911237e-07
6.68910959e-07
6.68911011e-07
6.68910934e-07
6.68911642e-07
6.68911249e-07
6.68911936e-07
6.68910731e-07
6.68911319e-07
6.68910774e-07
6.68911556e-07
6.68910113e-07
6.68911509e-07
6.68910746e-07
6.68911125e-07
6.68911101e-07
6.68910512e-07
6.6891222e-07
6.6891042e-07
6.68911911e-07
6.68910495e-07
6.68912499e-07
6.68910454e-07
6.68912579e-07
6.6890921e-07
6.6891344e-07
6.68909531e-07
6.68913085e-07
6.68909775e-07
6.68911911e-07
6.68910768e-07
6.68911602e-07
6.68911814e-07
6.68911989e-07
6.68910808e-07
6.68912385e-07
6.68911102e-07
6.68911337e-07
6.68911459e-07
6.6891156e-07
6.68911216e-07
6.6891165e-07
6.68911565e-07
6.68911926e-07
6.68911602e-07
6.68911569e-07
6.68911901e-07
6.68911525e-07
6.6891145e-07
6.68911796e-07
6.68911812e-07
6.68911798e-07
6.68911717e-07
6.68911811e-07
6.68911697e-07
6.68911896e-07
6.68911879e-07
6.68911927e-07
6.68911964e-07
6.68911992e-07
6.68912115e-07
6.68912179e-07
6.68912155e-07
6.68912284e-07
6.6891237e-07
6.68912408e-07
6.68912507e-07
6.68912639e-07
6.68912792e-07
6.68912886e-07
6.68913043e-07
6.68913239e-07
6.68913388e-07
6.68913609e-07
6.68913846e-07
6.68914077e-07
6.68914252e-07
6.68914502e-07
6.6891468e-07
6.68914824e-07
6.68914956e-07
6.68915034e-07
6.68915085e-07
6.68915128e-07
6.68915138e-07
6.68915141e-07
6.68915117e-07
6.68915114e-07
6.68915151e-07
6.68915134e-07
6.68915139e-07
6.68915138e-07
6.68915139e-07
6.68915148e-07
6.68915147e-07
6.68915139e-07
6.68915158e-07
6.68915135e-07
6.68915145e-07
6.68915138e-07
6.68915139e-07
6.68915141e-07
6.68915138e-07
6.68915148e-07
6.68915133e-07
6.68915122e-07
6.68915165e-07
)
;

boundaryField
{
    closed
    {
        type            calculated;
        value           uniform 0;
    }
    open
    {
        type            calculated;
        value           uniform 0;
    }
    sides
    {
        type            empty;
    }
}


// ************************************************************************* //
