/*--------------------------------*- C++ -*----------------------------------*\
| =========                 |                                                 |
| \\      /  F ield         | OpenFOAM: The Open Source CFD Toolbox           |
|  \\    /   O peration     | Version:  2206                                  |
|   \\  /    A nd           | Website:  www.openfoam.com                      |
|    \\/     M anipulation  |                                                 |
\*---------------------------------------------------------------------------*/
FoamFile
{
    version     2.0;
    format      ascii;
    arch        "LSB;label=32;scalar=64";
    class       volScalarField;
    location    "1.4e-05";
    object      rho;
}
// * * * * * * * * * * * * * * * * * * * * * * * * * * * * * * * * * * * * * //

dimensions      [1 -3 0 0 0 0 0];

internalField   nonuniform List<scalar> 
3183
(
1.03926466
1.03926466
1.03926466
1.03926466
1.03926466
1.03926466
1.03926466
1.03926466
1.03926466
1.03926466
1.03926466
1.03926466
1.03926466
1.03926466
1.03926466
1.03926466
1.03926466
1.03926466
1.03926466
1.03926466
1.03926466
1.03926466
1.03926466
1.03926466
1.03926466
1.03926466
1.03926466
1.03926466
1.03926466
1.03926466
1.03926466
1.03926466
1.03926466
1.03926466
1.03926466
1.03926466
1.03926466
1.03926466
1.03926466
1.03926466
1.03926466
1.03926466
1.03926466
1.03926466
1.03926466
1.03926466
1.03926466
1.03926466
1.03926466
1.03926466
1.03926466
1.03926466
1.03926466
1.03926466
1.03926466
1.03926466
1.03926466
1.03926466
1.03926466
1.03926466
1.03926466
1.03926466
1.03926466
1.03926466
1.03926466
1.03926466
1.03926466
1.03926466
1.03926466
1.03926466
1.03926466
1.03926466
1.03926466
1.03926466
1.03926466
1.03926466
1.03926466
1.03926466
1.03926466
1.03926466
1.03926466
1.03926466
1.03926466
1.03926466
1.03926466
1.03926466
1.03926466
1.03926466
1.03926466
1.03926466
1.03926466
1.03926466
1.03926466
1.03926466
1.03926466
1.03926466
1.03926466
1.03926466
1.03926466
1.03926466
1.03926466
1.03926466
1.03926466
1.03926466
1.03926466
1.03926466
1.03926466
1.03926466
1.03926466
1.03926466
1.03926466
1.03926466
1.03926466
1.03926466
1.03926466
1.03926466
1.03926466
1.03926466
1.03926466
1.03926466
1.03926466
1.03926466
1.03926466
1.03926466
1.03926466
1.03926466
1.03926466
1.03926466
1.03926466
1.03926466
1.03926466
1.03926466
1.03926466
1.03926466
1.03926466
1.03926466
1.03926466
1.03926466
1.03926466
1.03926466
1.03926466
1.03926466
1.03926466
1.03926466
1.03926466
1.03926466
1.03926466
1.03926466
1.03926466
1.03926466
1.03926466
1.03926466
1.03926466
1.03926466
1.03926466
1.03926466
1.03926466
1.03926466
1.03926466
1.03926466
1.03926466
1.03926466
1.03926466
1.03926466
1.03926466
1.03926466
1.03926466
1.03926466
1.03926466
1.03926466
1.03926466
1.03926466
1.03926466
1.03926466
1.03926466
1.03926466
1.03926466
1.03926466
1.03926466
1.03926466
1.03926466
1.03926466
1.03926466
1.03926466
1.03926466
1.03926466
1.03926466
1.03926466
1.03926466
1.03926466
1.03926466
1.03926466
1.03926466
1.03926466
1.03926466
1.03926466
1.03926466
1.03926466
1.03926466
1.03926466
1.03926466
1.03926466
1.03926466
1.03926466
1.03926466
1.03926466
1.03926466
1.03926466
1.03926466
1.03926466
1.03926466
1.03926466
1.03926466
1.03926466
1.03926466
1.03926466
1.03926466
1.03926466
1.03926466
1.03926466
1.03926466
1.03926466
1.03926466
1.03926466
1.03926466
1.03926466
1.03926466
1.03926466
1.03926466
1.03926466
1.03926466
1.03926466
1.03926466
1.03926466
1.03926466
1.03926466
1.03926466
1.03926466
1.03926466
1.03926466
1.03926466
1.03926466
1.03926466
1.03926466
1.03926466
1.03926466
1.03926466
1.03926466
1.03926466
1.03926466
1.03926466
1.03926466
1.03926466
1.03926466
1.03926466
1.03926466
1.03926466
1.03926466
1.03926466
1.03926466
1.03926466
1.03926466
1.03926466
1.03926466
1.03926466
1.03926466
1.03926466
1.03926466
1.03926466
1.03926466
1.03926466
1.03926466
1.03926466
1.03926466
1.03926466
1.03926466
1.03926466
1.03926466
1.03926466
1.03926466
1.03926466
1.03926466
1.03926466
1.03926466
1.03926466
1.03926466
1.03926466
1.03926466
1.03926466
1.03926466
1.03926466
1.03926466
1.03926466
1.03926466
1.03926466
1.03926466
1.03926466
1.03926466
1.03926466
1.03926466
1.03926466
1.03926466
1.03926466
1.03926466
1.03926466
1.03926466
1.03926466
1.03926466
1.03926466
1.03926466
1.03926466
1.03926466
1.03926466
1.03926466
1.03926466
1.03926466
1.03926466
1.03926466
1.03926466
1.03926466
1.03926466
1.03926466
1.03926466
1.03926466
1.03926466
1.03926466
1.03926466
1.03926466
1.03926466
1.03926466
1.03926466
1.03926466
1.03926466
1.03926466
1.03926466
1.03926466
1.03926466
1.03926466
1.03926466
1.03926466
1.03926466
1.03926466
1.03926466
1.03926466
1.03926466
1.03926466
1.03926466
1.03926466
1.03926466
1.03926466
1.03926466
1.03926466
1.03926466
1.03926466
1.03926466
1.03926466
1.03926466
1.03926466
1.03926466
1.03926466
1.03926466
1.03926466
1.03926466
1.03926466
1.03926466
1.03926466
1.03926466
1.03926466
1.03926466
1.03926466
1.03926466
1.03926466
1.03926466
1.03926466
1.03926466
1.03926466
1.03926466
1.03926466
1.03926466
1.03926466
1.03926466
1.03926466
1.03926466
1.03926466
1.03926466
1.03926466
1.03926466
1.03926466
1.03926466
1.03926466
1.03926466
1.03926466
1.03926466
1.03926466
1.03926466
1.03926466
1.03926466
1.03926466
1.03926466
1.03926466
1.03926466
1.03926466
1.03926466
1.03926466
1.03926466
1.03926466
1.03926466
1.03926466
1.03926466
1.03926466
1.03926466
1.03926466
1.03926466
1.03926466
1.03926466
1.03926466
1.03926466
1.03926466
1.03926466
1.03926466
1.03926466
1.03926466
1.03926466
1.03926466
1.03926466
1.03926466
1.03926466
1.03926466
1.03926466
1.03926466
1.03926466
1.03926466
1.03926466
1.03926466
1.03926466
1.03926466
1.03926466
1.03926466
1.03926466
1.03926466
1.03926466
1.03926466
1.03926466
1.03926466
1.03926466
1.03926466
1.03926466
1.03926466
1.03926466
1.03926466
1.03926466
1.03926466
1.03926466
1.03926466
1.03926466
1.03926466
1.03926466
1.03926466
1.03926466
1.03926466
1.03926466
1.03926466
1.03926466
1.03926466
1.03926466
1.03926466
1.03926466
1.03926466
1.03926466
1.03926466
1.03926466
1.03926466
1.03926466
1.03926466
1.03926466
1.03926466
1.03926466
1.03926466
1.03926466
1.03926466
1.03926466
1.03926466
1.03926466
1.03926466
1.03926466
1.03926466
1.03926466
1.03926466
1.03926466
1.03926466
1.03926466
1.03926466
1.03926466
1.03926466
1.03926466
1.03926466
1.03926466
1.03926466
1.03926466
1.03926466
1.03926466
1.03926466
1.03926466
1.03926466
1.03926466
1.03926466
1.03926466
1.03926466
1.03926466
1.03926466
1.03926466
1.03926466
1.03926466
1.03926466
1.03926466
1.03926466
1.03926466
1.03926466
1.03926466
1.03926466
1.03926466
1.03926466
1.03926466
1.03926466
1.03926466
1.03926466
1.03926466
1.03926466
1.03926466
1.03926466
1.03926466
1.03926466
1.03926466
1.03926466
1.03926466
1.03926466
1.03926466
1.03926466
1.03926466
1.03926466
1.03926466
1.03926466
1.03926466
1.03926466
1.03926466
1.03926466
1.03926466
1.03926466
1.03926466
1.03926466
1.03926466
1.03926466
1.03926466
1.03926466
1.03926466
1.03926466
1.03926466
1.03926466
1.03926466
1.03926466
1.03926466
1.03926466
1.03926466
1.03926466
1.03926466
1.03926466
1.03926466
1.03926466
1.03926466
1.03926466
1.03926466
1.03926466
1.03926466
1.03926466
1.03926466
1.03926466
1.03926466
1.03926466
1.03926466
1.03926466
1.03926466
1.03926466
1.03926466
1.03926466
1.03926466
1.03926466
1.03926466
1.03926466
1.03926466
1.03926466
1.03926466
1.03926466
1.03926466
1.03926466
1.03926466
1.03926466
1.03926466
1.03926466
1.03926466
1.03926466
1.03926466
1.03926466
1.03926466
1.03926466
1.03926466
1.03926466
1.03926466
1.03926466
1.03926466
1.03926466
1.03926466
1.03926466
1.03926466
1.03926466
1.03926466
1.03926466
1.03926466
1.03926466
1.03926466
1.03926466
1.03926466
1.03926466
1.03926466
1.03926466
1.03926466
1.03926466
1.03926466
1.03926466
1.03926466
1.03926466
1.03926466
1.03926466
1.03926466
1.03926466
1.03926466
1.03926466
1.03926466
1.03926466
1.03926466
1.03926466
1.03926466
1.03926466
1.03926466
1.03926466
1.03926466
1.03926466
1.03926466
1.03926466
1.03926466
1.03926466
1.03926466
1.03926466
1.03926466
1.03926466
1.03926466
1.03926466
1.03926466
1.03926466
1.03926466
1.03926466
1.03926466
1.03926466
1.03926466
1.03926466
1.03926466
1.03926466
1.03926466
1.03926466
1.03926466
1.03926466
1.03926466
1.03926466
1.03926466
1.03926466
1.03926466
1.03926466
1.03926466
1.03926466
1.03926466
1.03926466
1.03926466
1.03926466
1.03926466
1.03926466
1.03926466
1.03926466
1.03926466
1.03926466
1.03926466
1.03926466
1.03926466
1.03926466
1.03926466
1.03926466
1.03926466
1.03926466
1.03926466
1.03926466
1.03926466
1.03926466
1.03926466
1.03926466
1.03926466
1.03926466
1.03926466
1.03926466
1.03926466
1.03926466
1.03926466
1.03926466
1.03926466
1.03926466
1.03926466
1.03926466
1.03926466
1.03926466
1.03926466
1.03926466
1.03926466
1.03926466
1.03926466
1.03926466
1.03926466
1.03926466
1.03926466
1.03926466
1.03926466
1.03926466
1.03926466
1.03926466
1.03926466
1.03926466
1.03926466
1.03926466
1.03926466
1.03926466
1.03926466
1.03926466
1.03926466
1.03926466
1.03926466
1.03926466
1.03926466
1.03926466
1.03926466
1.03926466
1.03926466
1.03926466
1.03926466
1.03926466
1.03926466
1.03926466
1.03926466
1.03926466
1.03926466
1.03926466
1.03926466
1.03926466
1.03926466
1.03926466
1.03926466
1.03926466
1.03926466
1.03926466
1.03926466
1.03926466
1.03926466
1.03926466
1.03926466
1.03926466
1.03926466
1.03926466
1.03926466
1.03926466
1.03926466
1.03926466
1.03926466
1.03926466
1.03926466
1.03926466
1.03926466
1.03926466
1.03926466
1.03926466
1.03926466
1.03926466
1.03926466
1.03926466
1.03926466
1.03926466
1.03926466
1.03926466
1.03926466
1.03926466
1.03926466
1.03926466
1.03926466
1.03926466
1.03926466
1.03926466
1.03926466
1.03926466
1.03926466
1.03926466
1.03926466
1.03926466
1.03926466
1.03926466
1.03926466
1.03926466
1.03926466
1.03926466
1.03926466
1.03926466
1.03926466
1.03926466
1.03926466
1.03926466
1.03926466
1.03926466
1.03926466
1.03926466
1.03926466
1.03926466
1.03926466
1.03926466
1.03926466
1.03926466
1.03926466
1.03926466
1.03926466
1.03926466
1.03926466
1.03926466
1.03926466
1.03926466
1.03926466
1.03926466
1.03926466
1.03926466
1.03926466
1.03926466
1.03926466
1.03926466
1.03926466
1.03926466
1.03926466
1.03926466
1.03926466
1.03926466
1.03926466
1.03926466
1.03926466
1.03926466
1.03926466
1.03926466
1.03926466
1.03926466
1.03926466
1.03926466
1.03926466
1.03926466
1.03926466
1.03926466
1.03926466
1.03926466
1.03926466
1.03926466
1.03926466
1.03926466
1.03926466
1.03926466
1.03926466
1.03926466
1.03926466
1.03926466
1.03926466
1.03926466
1.03926466
1.03926466
1.03926466
1.03926466
1.03926466
1.03926466
1.03926466
1.03926466
1.03926466
1.03926466
1.03926466
1.03926466
1.03926466
1.03926466
1.03926466
1.03926466
1.03926466
1.03926466
1.03926466
1.03926466
1.03926466
1.03926466
1.03926466
1.03926466
1.03926466
1.03926466
1.03926466
1.03926466
1.03926466
1.03926466
1.03926466
1.03926466
1.03926466
1.03926466
1.03926466
1.03926466
1.03926466
1.03926466
1.03926466
1.03926466
1.03926466
1.03926466
1.03926466
1.03926466
1.03926466
1.03926466
1.03926466
1.03926466
1.03926466
1.03926466
1.03926466
1.03926466
1.03926466
1.03926466
1.03926466
1.03926466
1.03926466
1.03926466
1.03926466
1.03926466
1.03926466
1.03926466
1.03926466
1.03926466
1.03926466
1.03926466
1.03926466
1.03926466
1.03926466
1.03926466
1.03926466
1.03926466
1.03926466
1.03926466
1.03926466
1.03926466
1.03926466
1.03926466
1.03926466
1.03926466
1.03926466
1.03926466
1.03926466
1.03926466
1.03926466
1.03926466
1.03926466
1.03926466
1.03926466
1.03926466
1.03926466
1.03926466
1.03926466
1.03926466
1.03926466
1.03926466
1.03926466
1.03926466
1.03926466
1.03926466
1.03926466
1.03926466
1.03926466
1.03926466
1.03926466
1.03926466
1.03926466
1.03926466
1.03926466
1.03926466
1.03926466
1.03926466
1.03926466
1.03926466
1.03926466
1.03926466
1.03926466
1.03926466
1.03926466
1.03926466
1.03926466
1.03926466
1.03926466
1.03926466
1.03926466
1.03926466
1.03926466
1.03926466
1.03926466
1.03926466
1.03926466
1.03926466
1.03926466
1.03926466
1.03926466
1.03926466
1.03926466
1.03926466
1.03926466
1.03926466
1.03926466
1.03926466
1.03926466
1.03926466
1.03926466
1.03926466
1.03926466
1.03926466
1.03926466
1.03926466
1.03926466
1.03926466
1.03926466
1.03926466
1.03926466
1.03926466
1.03926466
1.03926466
1.03926466
1.03926466
1.03926466
1.03926466
1.03926466
1.03926466
1.03926466
1.03926466
1.03926466
1.03926466
1.03926466
1.03926466
1.03926466
1.03926466
1.03926466
1.03926466
1.03926466
1.03926466
1.03926466
1.03926466
1.03926466
1.03926466
1.03926466
1.03926466
1.03926466
1.03926466
1.03926466
1.03926466
1.03926466
1.03926466
1.03926466
1.03926466
1.03926466
1.03926466
1.03926466
1.03926466
1.03926466
1.03926466
1.03926466
1.03926466
1.03926466
1.03926466
1.03926466
1.03926466
1.03926466
1.03926466
1.03926466
1.03926466
1.03926466
1.03926466
1.03926466
1.03926466
1.03926466
1.03926466
1.03926466
1.03926466
1.03926466
1.03926466
1.03926466
1.03926466
1.03926466
1.03926466
1.03926466
1.03926466
1.03926466
1.03926466
1.03926466
1.03926466
1.03926466
1.03926466
1.03926466
1.03926466
1.03926466
1.03926466
1.03926466
1.03926466
1.03926466
1.03926466
1.03926466
1.03926466
1.03926466
1.03926466
1.03926466
1.03926466
1.03926466
1.03926466
1.03926466
1.03926466
1.03926466
1.03926466
1.03926466
1.03926466
1.03926466
1.03926466
1.03926466
1.03926466
1.03926466
1.03926466
1.03926466
1.03926466
1.03926466
1.03926466
1.03926466
1.03926466
1.03926466
1.03926466
1.03926466
1.03926466
1.03926466
1.03926466
1.03926466
1.03926466
1.03926466
1.03926466
1.03926466
1.03926466
1.03926466
1.03926466
1.03926466
1.03926466
1.03926466
1.03926466
1.03926466
1.03926466
1.03926466
1.03926466
1.03926466
1.03926466
1.03926466
1.03926466
1.03926466
1.03926466
1.03926466
1.03926466
1.03926466
1.03926466
1.03926466
1.03926466
1.03926466
1.03926466
1.03926466
1.03926466
1.03926466
1.03926466
1.03926466
1.03926466
1.03926466
1.03926466
1.03926466
1.03926466
1.03926466
1.03926466
1.03926466
1.03926466
1.03926466
1.03926466
1.03926466
1.03926466
1.03926466
1.03926466
1.03926466
1.03926466
1.03926466
1.03926466
1.03926466
1.03926466
1.03926466
1.03926466
1.03926466
1.03926466
1.03926466
1.03926466
1.03926466
1.03926466
1.03926466
1.03926466
1.03926466
1.03926466
1.03926466
1.03926466
1.03926466
1.03926466
1.03926466
1.03926466
1.03926466
1.03926466
1.03926466
1.03926466
1.03926466
1.03926466
1.03926466
1.03926466
1.03926466
1.03926466
1.03926466
1.03926466
1.03926466
1.03926466
1.03926466
1.03926466
1.03926466
1.03926466
1.03926466
1.03926466
1.03926466
1.03926466
1.03926466
1.03926466
1.03926466
1.03926466
1.03926466
1.03926466
1.03926466
1.03926466
1.03926466
1.03926466
1.03926466
1.03926466
1.03926466
1.03926466
1.03926466
1.03926466
1.03926466
1.03926466
1.03926466
1.03926466
1.03926466
1.03926466
1.03926466
1.03926466
1.03926466
1.03926466
1.03926466
1.03926466
1.03926466
1.03926466
1.03926466
1.03926466
1.03926466
1.03926466
1.03926466
1.03926466
1.03926466
1.03926466
1.03926466
1.03926466
1.03926466
1.03926466
1.03926466
1.03926466
1.03926466
1.03926466
1.03926466
1.03926466
1.03926466
1.03926466
1.03926466
1.03926466
1.03926466
1.03926466
1.03926466
1.03926466
1.03926466
1.03926466
1.03926466
1.03926466
1.03926466
1.03926466
1.03926466
1.03926466
1.03926466
1.03926466
1.03926466
1.03926466
1.03926466
1.03926466
1.03926466
1.03926466
1.03926466
1.03926466
1.03926466
1.03926466
1.03926466
1.03926466
1.03926466
1.03926466
1.03926466
1.03926466
1.03926466
1.03926466
1.03926466
1.03926466
1.03926466
1.03926466
1.03926466
1.03926466
1.03926466
1.03926466
1.03926466
1.03926466
1.03926466
1.03926466
1.03926466
1.03926466
1.03926466
1.03926466
1.03926466
1.03926466
1.03926466
1.03926466
1.03926466
1.03926466
1.03926466
1.03926466
1.03926466
1.03926466
1.03926466
1.03926466
1.03926466
1.03926466
1.03926466
1.03926466
1.03926466
1.03926466
1.03926466
1.03926466
1.03926466
1.03926466
1.03926466
1.03926466
1.03926466
1.03926466
1.03926466
1.03926466
1.03926466
1.03926466
1.03926466
1.03926466
1.03926466
1.03926466
1.03926466
1.03926466
1.03926466
1.03926466
1.03926466
1.03926466
1.03926466
1.03926466
1.03926466
1.03926466
1.03926466
1.03926466
1.03926466
1.03926466
1.03926466
1.03926466
1.03926466
1.03926466
1.03926466
1.03926466
1.03926466
1.03926466
1.03926466
1.03926466
1.03926466
1.03926466
1.03926466
1.03926466
1.03926466
1.03926466
1.03926466
1.03926466
1.03926466
1.03926466
1.03926466
1.03926466
1.03926466
1.03926466
1.03926466
1.03926466
1.03926466
1.03926466
1.03926466
1.03926466
1.03926466
1.03926466
1.03926466
1.03926466
1.03926466
1.03926466
1.03926466
1.03926466
1.03926466
1.03926466
1.03926466
1.03926466
1.03926466
1.03926466
1.03926466
1.03926466
1.03926466
1.03926466
1.03926466
1.03926466
1.03926466
1.03926466
1.03926466
1.03926466
1.03926466
1.03926466
1.03926466
1.03926466
1.03926466
1.03926466
1.03926466
1.03926466
1.03926466
1.03926466
1.03926466
1.03926466
1.03926466
1.03926466
1.03926466
1.03926466
1.03926466
1.03926466
1.03926466
1.03926466
1.03926466
1.03926466
1.03926466
1.03926466
1.03926466
1.03926466
1.03926466
1.03926466
1.03926466
1.03926466
1.03926466
1.03926466
1.03926466
1.03926466
1.03926466
1.03926466
1.03926466
1.03926466
1.03926466
1.03926466
1.03926466
1.03926466
1.03926466
1.03926466
1.03926466
1.03926466
1.03926466
1.03926466
1.03926466
1.03926466
1.03926466
1.03926466
1.03926466
1.03926466
1.03926466
1.03926466
1.03926466
1.03926466
1.03926466
1.03926466
1.03926466
1.03926466
1.03926466
1.03926466
1.03926466
1.03926466
1.03926466
1.03926466
1.03926466
1.03926466
1.03926466
1.03926466
1.03926466
1.03926466
1.03926466
1.03926466
1.03926466
1.03926466
1.03926466
1.03926466
1.03926466
1.03926466
1.03926466
1.03926466
1.03926466
1.03926466
1.03926466
1.03926466
1.03926466
1.03926466
1.03926466
1.03926466
1.03926466
1.03926466
1.03926466
1.03926466
1.03926466
1.03926466
1.03926466
1.03926466
1.03926466
1.03926466
1.03926466
1.03926466
1.03926466
1.03926466
1.03926466
1.03926466
1.03926466
1.03926466
1.03926466
1.03926466
1.03926466
1.03926466
1.03926466
1.03926466
1.03926466
1.03926466
1.03926466
1.03926466
1.03926466
1.03926466
1.03926466
1.03926466
1.03926466
1.03926466
1.03926466
1.03926466
1.03926466
1.03926466
1.03926466
1.03926466
1.03926466
1.03926466
1.03926466
1.03926466
1.03926466
1.03926466
1.03926466
1.03926466
1.03926466
1.03926466
1.03926466
1.03926466
1.03926466
1.03926466
1.03926466
1.03926466
1.03926466
1.03926466
1.03926466
1.03926466
1.03926466
1.03926466
1.03926466
1.03926466
1.03926466
1.03926466
1.03926466
1.03926466
1.03926466
1.03926466
1.03926466
1.03926466
1.03926466
1.03926466
1.03926466
1.03926466
1.03926466
1.03926466
1.03926466
1.03926466
1.03926466
1.03926466
1.03926466
1.03926466
1.03926466
1.03926466
1.03926466
1.03926466
1.03926466
1.03926466
1.03926466
1.03926466
1.03926466
1.03926466
1.03926466
1.03926466
1.03926466
1.03926466
1.03926466
1.03926466
1.03926466
1.03926466
1.03926466
1.03926466
1.03926466
1.03926466
1.03926466
1.03926466
1.03926466
1.03926466
1.03926466
1.03926466
1.03926466
1.03926466
1.03926466
1.03926466
1.03926466
1.03926466
1.03926466
1.03926466
1.03926466
1.03926466
1.03926466
1.03926466
1.03926466
1.03926466
1.03926466
1.03926466
1.03926466
1.03926466
1.03926466
1.03926466
1.03926466
1.03926466
1.03926466
1.03926466
1.03926466
1.03926466
1.03926466
1.03926466
1.03926466
1.03926466
1.03926466
1.03926466
1.03926466
1.03926466
1.03926466
1.03926466
1.03926466
1.03926466
1.03926466
1.03926466
1.03926466
1.03926466
1.03926466
1.03926466
1.03926466
1.03926466
1.03926466
1.03926466
1.03926466
1.03926466
1.03926466
1.03926466
1.03926466
1.03926466
1.03926466
1.03926466
1.03926466
1.03926466
1.03926466
1.03926466
1.03926466
1.03926466
1.03926466
1.03926466
1.03926466
1.03926466
1.03926466
1.03926466
1.03926466
1.03926466
1.03926466
1.03926466
1.03926466
1.03926466
1.03926466
1.03926466
1.03926466
1.03926466
1.03926466
1.03926466
1.03926466
1.03926466
1.03926466
1.03926466
1.03926466
1.03926466
1.03926466
1.03926466
1.03926466
1.03926466
1.03926466
1.03926466
1.03926466
1.03926466
1.03926466
1.03926466
1.03926466
1.03926466
1.03926466
1.03926466
1.03926466
1.03926466
1.03926466
1.03926466
1.03926466
1.03926466
1.03926466
1.03926466
1.03926466
1.03926466
1.03926466
1.03926466
1.03926466
1.03926466
1.03926466
1.03926466
1.03926466
1.03926466
1.03926466
1.03926466
1.03926466
1.03926466
1.03926466
1.03926466
1.03926466
1.03926466
1.03926466
1.03926466
1.03926466
1.03926466
1.03926466
1.03926466
1.03926466
1.03926466
1.03926466
1.03926466
1.03926466
1.03926466
1.03926466
1.03926466
1.03926466
1.03926466
1.03926466
1.03926466
1.03926466
1.03926466
1.03926466
1.03926466
1.03926466
1.03926466
1.03926466
1.03926466
1.03926466
1.03926466
1.03926466
1.03926466
1.03926466
1.03926466
1.03926466
1.03926466
1.03926466
1.03926466
1.03926466
1.03926466
1.03926466
1.03926466
1.03926466
1.03926466
1.03926466
1.03926466
1.03926466
1.03926466
1.03926466
1.03926466
1.03926466
1.03926466
1.03926466
1.03926466
1.03926466
1.03926466
1.03926466
1.03926466
1.03926466
1.03926466
1.03926466
1.03926466
1.03926466
1.03926466
1.03926466
1.03926466
1.03926466
1.03926466
1.03926466
1.03926466
1.03926466
1.03926466
1.03926466
1.03926466
1.03926466
1.03926466
1.03926466
1.03926466
1.03926466
1.03926466
1.03926466
1.03926466
1.03926466
1.03926466
1.03926466
1.03926466
1.03926466
1.03926466
1.03926466
1.03926466
1.03926466
1.03926466
1.03926466
1.03926466
1.03926466
1.03926466
1.03926466
1.03926466
1.03926466
1.03926466
1.03926466
1.03926466
1.03926466
1.03926466
1.03926466
1.03926466
1.03926466
1.03926466
1.03926466
1.03926466
1.03926466
1.03926466
1.03926466
1.03926466
1.03926466
1.03926466
1.03926466
1.03926466
1.03926466
1.03926466
1.03926466
1.03926466
1.03926466
1.03926466
1.03926466
1.03926466
1.03926466
1.03926466
1.03926466
1.03926466
1.03926466
1.03926465
1.03926465
1.03926465
1.03926465
1.03926465
1.03926465
1.03926465
1.03926465
1.03926465
1.03926465
1.03926465
1.03926465
1.03926465
1.03926465
1.03926464
1.03926464
1.03926464
1.03926464
1.03926464
1.03926464
1.03926464
1.03926464
1.03926463
1.03926463
1.03926463
1.03926463
1.03926463
1.03926462
1.03926462
1.03926462
1.03926462
1.03926461
1.03926461
1.03926461
1.0392646
1.0392646
1.0392646
1.03926459
1.03926459
1.03926458
1.03926458
1.03926458
1.03926457
1.03926457
1.03926456
1.03926455
1.03926455
1.03926454
1.03926453
1.03926453
1.03926452
1.03926451
1.0392645
1.03926449
1.03926448
1.03926447
1.03926446
1.03926445
1.03926444
1.03926443
1.03926441
1.0392644
1.03926438
1.03926437
1.03926435
1.03926434
1.03926432
1.0392643
1.03926428
1.03926426
1.03926424
1.03926421
1.03926419
1.03926416
1.03926414
1.03926411
1.03926408
1.03926405
1.03926402
1.03926398
1.03926395
1.03926391
1.03926387
1.03926383
1.03926379
1.03926374
1.0392637
1.03926365
1.03926359
1.03926354
1.03926348
1.03926342
1.03926336
1.0392633
1.03926323
1.03926316
1.03926308
1.03926301
1.03926293
1.03926284
1.03926275
1.03926266
1.03926256
1.03926246
1.03926236
1.03926225
1.03926213
1.03926201
1.03926189
1.03926176
1.03926162
1.03926148
1.03926133
1.03926118
1.03926102
1.03926085
1.03926068
1.0392605
1.03926031
1.03926011
1.03925991
1.0392597
1.03925948
1.03925925
1.03925901
1.03925876
1.03925851
1.03925824
1.03925796
1.03925767
1.03925737
1.03925706
1.03925674
1.03925641
1.03925606
1.0392557
1.03925533
1.03925494
1.03925454
1.03925413
1.0392537
1.03925326
1.0392528
1.03925232
1.03925183
1.03925132
1.0392508
1.03925025
1.03924969
1.03924911
1.03924851
1.03924789
1.03924725
1.03924659
1.03924591
1.03924521
1.03924448
1.03924373
1.03924296
1.03924217
1.03924135
1.03924051
1.03923964
1.03923875
1.03923783
1.03923688
1.03923591
1.0392349
1.03923387
1.03923282
1.03923173
1.03923061
1.03922947
1.03922829
1.03922708
1.03922584
1.03922457
1.03922326
1.03922193
1.03922056
1.03921915
1.03921771
1.03921624
1.03921474
1.03921319
1.03921162
1.03921
1.03920835
1.03920667
1.03920494
1.03920318
1.03920139
1.03919956
1.03919768
1.03919578
1.03919383
1.03919185
1.03918982
1.03918776
1.03918567
1.03918353
1.03918136
1.03917915
1.0391769
1.03917462
1.03917229
1.03916993
1.03916754
1.03916511
1.03916264
1.03916013
1.0391576
1.03915502
1.03915242
1.03914977
1.0391471
1.03914439
1.03914166
1.03913889
1.03913609
1.03913326
1.03913041
1.03912752
1.03912461
1.03912168
1.03911872
1.03911573
1.03911273
1.0391097
1.03910665
1.03910359
1.03910051
1.03909741
1.03909429
1.03909117
1.03908803
1.03908488
1.03908173
1.03907856
1.03907539
1.03907222
1.03906905
1.03906587
1.0390627
1.03905953
1.03905636
1.03905321
1.03905006
1.03904692
1.03904379
1.03904068
1.03903758
1.0390345
1.03903144
1.03902841
1.03902539
1.03902241
1.03901945
1.03901652
1.03901362
1.03901076
1.03900793
1.03900514
1.03900239
1.03899968
1.03899701
1.03899439
1.03899181
1.03898928
1.0389868
1.03898438
1.038982
1.03897969
1.03897743
1.03897522
1.03897308
1.038971
1.03896898
1.03896702
1.03896513
1.03896331
1.03896155
1.03895986
1.03895824
1.03895669
1.03895522
1.03895381
1.03895248
1.03895122
1.03895003
1.03894892
1.03894789
1.03894693
1.03894604
1.03894523
1.0389445
1.03894384
1.03894326
1.03894275
1.03894232
1.03894197
1.03894169
1.03894148
1.03894135
1.03894129
1.03894131
1.03894139
1.03894155
1.03894178
1.03894207
1.03894244
1.03894287
1.03894337
1.03894393
1.03894455
1.03894524
1.03894599
1.03894679
1.03894765
1.03894857
1.03894955
1.03895057
1.03895165
1.03895278
1.03895395
1.03895517
1.03895643
1.03895774
1.03895908
1.03896047
1.03896189
1.03896334
1.03896483
1.03896634
1.03896789
1.03896946
1.03897105
1.03897267
1.03897431
1.03897597
1.03897765
1.03897934
1.03898104
1.03898275
1.03898448
1.03898621
1.03898795
1.0389897
1.03899144
1.03899319
1.03899494
1.03899668
1.03899842
1.03900016
1.03900189
1.03900361
1.03900533
1.03900703
1.03900873
1.03901041
1.03901207
1.03901372
1.03901536
1.03901698
1.03901858
1.03902017
1.03902173
1.03902328
1.0390248
1.03902631
1.03902779
1.03902925
1.03903069
1.0390321
1.03903349
1.03903486
1.0390362
1.03903752
1.03903882
1.03904009
1.03904134
1.03904256
1.03904376
1.03904493
1.03904608
1.03904721
1.03904831
1.03904939
1.03905044
1.03905147
1.03905248
1.03905346
1.03905443
1.03905537
1.03905629
1.03905718
1.03905806
1.03905892
1.03905975
1.03906057
1.03906137
1.03906214
1.0390629
1.03906365
1.03906437
1.03906508
1.03906578
1.03906645
1.03906712
1.03906776
1.0390684
1.03906902
1.03906963
1.03907022
1.0390708
1.03907138
1.03907194
1.03907249
1.03907303
1.03907356
1.03907408
1.03907459
1.0390751
1.0390756
1.03907609
1.03907658
1.03907705
1.03907753
1.039078
1.03907846
1.03907892
1.03907937
1.03907982
1.03908027
1.03908071
1.03908115
1.03908159
1.03908203
1.03908246
1.03908289
1.03908332
1.03908375
1.03908418
1.03908461
1.03908504
1.03908546
1.03908589
1.03908631
1.03908674
1.03908717
1.03908759
1.03908802
1.03908844
1.03908887
1.0390893
1.03908972
1.03909015
1.03909058
1.039091
1.03909143
1.03909186
1.03909228
1.03909271
1.03909314
1.03909356
1.03909399
1.03909441
1.03909484
1.03909526
1.03909568
1.0390961
1.03909652
1.03909694
1.03909735
1.03909776
1.03909817
1.03909858
1.03909898
1.03909939
1.03909978
1.03910018
1.03910057
1.03910095
1.03910133
1.03910171
1.03910208
1.03910245
1.03910281
1.03910316
1.03910351
1.03910386
1.0391042
1.03910453
1.03910485
1.03910517
1.03910549
1.03910579
1.03910609
1.03910638
1.03910667
1.03910695
1.03910722
1.03910748
1.03910774
1.03910799
1.03910823
1.03910847
1.0391087
1.03910892
1.03910913
1.03910934
1.03910954
1.03910974
1.03910992
1.03911011
1.03911028
1.03911045
1.03911061
1.03911077
1.03911093
1.03911107
1.03911122
1.03911135
1.03911149
1.03911162
1.03911174
1.03911186
1.03911198
1.0391121
1.03911221
1.03911232
1.03911243
1.03911253
1.03911264
1.03911274
1.03911284
1.03911295
1.03911305
1.03911315
1.03911325
1.03911336
1.03911346
1.03911357
1.03911368
1.03911379
1.0391139
1.03911402
1.03911413
1.03911426
1.03911438
1.03911451
1.03911465
1.03911478
1.03911493
1.03911507
1.03911523
1.03911539
1.03911555
1.03911572
1.03911589
1.03911608
1.03911626
1.03911645
1.03911665
1.03911686
1.03911707
1.03911729
1.03911751
1.03911774
1.03911797
1.03911821
1.03911846
1.0391187
1.03911896
1.03911922
1.03911948
1.03911975
1.03912002
1.03912029
1.03912057
1.03912084
1.03912112
1.0391214
1.03912169
1.03912197
1.03912225
1.03912253
1.03912281
1.03912309
1.03912337
1.03912364
1.03912391
1.03912418
1.03912445
1.03912471
1.03912496
1.03912521
1.03912546
1.03912569
1.03912593
1.03912615
1.03912638
1.03912659
1.0391268
1.039127
1.03912719
1.03912738
1.03912756
1.03912774
1.03912791
1.03912807
1.03912823
1.03912838
1.03912852
1.03912866
1.0391288
1.03912893
1.03912905
1.03912917
1.03912929
1.03912941
1.03912952
1.03912963
1.03912973
1.03912984
1.03912994
1.03913004
1.03913014
1.03913024
1.03913034
1.03913044
1.03913053
1.03913063
1.03913073
1.03913083
1.03913092
1.03913102
1.03913112
1.03913122
1.03913132
1.03913142
1.03913152
1.03913163
1.03913173
1.03913184
1.03913194
1.03913205
1.03913216
1.03913226
1.03913237
1.03913248
1.0391326
1.03913271
1.03913282
1.03913294
1.03913306
1.03913318
1.0391333
1.03913342
1.03913354
1.03913366
1.03913379
1.03913392
1.03913405
1.03913418
1.03913431
1.03913444
1.03913457
1.03913471
1.03913484
1.03913498
1.03913512
1.03913525
1.03913538
1.03913552
1.03913565
1.03913577
1.03913589
1.03913601
1.03913612
1.03913622
1.03913631
1.0391364
1.03913647
1.03913652
1.03913657
1.0391366
1.03913661
1.03913661
1.03913659
1.03913655
1.0391365
1.03913656
1.0391365
1.03914073
1.03914067
1.03927009
1.03926943
1.04222401
1.0422355
0.891269221
0.890896719
0.427995139
0.398977479
0.313174149
0.30516838
0.279533458
0.277053497
0.267732783
0.267041143
0.263968704
0.263831839
0.263031989
0.263012397
0.262833697
0.262831892
0.262797015
0.262796968
0.26279096
0.262790966
0.262790033
0.262790034
0.262789901
0.262789899
0.262789879
0.262789875
0.262789867
0.262789861
0.262789853
0.262789844
0.262789835
0.262789825
0.262789814
0.262789802
0.26278979
0.262789777
0.262789764
0.26278975
0.262789736
0.262789721
0.262789706
0.262789691
0.262789675
0.262789659