/*--------------------------------*- C++ -*----------------------------------*\
| =========                 |                                                 |
| \\      /  F ield         | OpenFOAM: The Open Source CFD Toolbox           |
|  \\    /   O peration     | Version:  2206                                  |
|   \\  /    A nd           | Website:  www.openfoam.com                      |
|    \\/     M anipulation  |                                                 |
\*---------------------------------------------------------------------------*/
FoamFile
{
    version     2.0;
    format      ascii;
    arch        "LSB;label=32;scalar=64";
    class       volScalarField;
    location    "1.4e-05";
    object      sourcePV;
}
// * * * * * * * * * * * * * * * * * * * * * * * * * * * * * * * * * * * * * //

dimensions      [1 -3 -1 0 0 0 0];

internalField   nonuniform List<scalar> 
3183
(
0
0
0
0
0
0
0
0
0
0
0
0
0
0
0
0
0
0
0
0
0
0
0
0
0
0
0
0
0
0
0
0
0
0
0
0
0
0
0
0
0
0
0
0
0
0
0
0
0
0
0
0
0
0
0
0
0
0
0
0
0
0
0
0
0
0
0
0
0
0
0
0
0
0
0
0
0
0
0
0
0
0
0
0
0
0
0
0
0
0
0
0
0
0
0
0
0
0
0
0
0
0
0
0
0
0
0
0
0
0
0
0
0
0
0
0
0
0
0
0
0
0
0
0
0
0
0
0
0
0
0
0
0
0
0
0
0
0
0
0
0
0
0
0
0
0
0
0
0
0
0
0
0
0
0
0
0
0
0
0
0
0
0
0
0
0
0
0
0
0
0
0
0
0
0
0
0
0
0
0
0
0
0
0
0
0
0
0
0
0
0
0
0
0
0
0
0
0
0
0
0
0
0
0
0
0
0
0
0
0
0
0
0
0
0
0
0
0
0
0
0
0
0
0
0
0
0
0
0
0
0
0
0
0
0
0
0
0
0
0
0
0
0
0
0
0
0
0
0
0
0
0
0
0
0
0
0
0
0
0
0
0
0
0
0
0
0
0
0
0
0
0
0
0
0
0
0
0
0
0
0
0
0
0
0
0
0
0
0
0
0
0
0
0
0
0
0
0
0
0
0
0
0
0
0
0
0
0
0
0
0
0
0
0
0
0
0
0
0
0
0
0
0
0
0
0
0
0
0
0
0
0
0
0
0
0
0
0
0
0
0
0
0
0
0
0
0
0
0
0
0
0
0
0
0
0
0
0
0
0
0
0
0
0
0
0
0
0
0
0
0
0
0
0
0
0
0
0
0
0
0
0
0
0
0
0
0
0
0
0
0
0
0
0
0
0
0
0
0
0
0
0
0
0
0
0
0
0
0
0
0
0
0
0
0
0
0
0
0
0
0
0
0
0
0
0
0
0
0
0
0
0
0
0
0
0
0
0
0
0
0
0
0
0
0
0
0
0
0
0
0
0
0
0
0
0
0
0
0
0
0
0
0
0
0
0
0
0
0
0
0
0
0
0
0
0
0
0
0
0
0
0
0
0
0
0
0
0
0
0
0
0
0
0
0
0
0
0
0
0
0
0
0
0
0
0
0
0
0
0
0
0
0
0
0
0
0
0
0
0
0
0
0
0
0
0
0
0
0
0
0
0
0
0
0
0
0
0
0
0
0
0
0
0
0
0
0
0
0
0
0
0
0
0
0
0
0
0
0
0
0
0
0
0
0
0
0
0
0
0
0
0
0
0
0
0
0
0
0
0
0
0
0
0
0
0
0
0
0
0
0
0
0
0
0
0
0
0
0
0
0
0
0
0
0
0
0
0
0
0
0
0
0
0
0
0
0
0
0
0
0
0
0
0
0
0
0
0
0
0
0
0
0
0
0
0
0
0
0
0
0
0
0
0
0
0
0
0
0
0
0
0
0
0
0
0
0
0
0
0
0
0
0
0
0
0
0
0
0
0
0
0
0
0
0
0
0
0
0
0
0
0
0
0
0
0
0
0
0
0
0
0
0
0
0
0
0
0
0
0
0
0
0
0
0
0
0
0
0
0
0
0
0
0
0
0
0
0
0
0
0
0
0
0
0
0
0
0
0
0
0
0
0
0
0
0
0
0
0
0
0
0
0
0
0
0
0
0
0
0
0
0
0
0
0
0
0
0
0
0
0
0
0
0
0
0
0
0
0
0
0
0
0
0
0
0
0
0
0
0
0
0
0
0
0
0
0
0
0
0
0
0
0
0
0
0
0
0
0
0
0
0
0
0
0
0
0
0
0
0
0
0
0
0
0
0
0
0
0
0
0
0
0
0
0
0
0
0
0
0
0
0
0
0
0
0
0
0
0
0
0
0
0
0
0
0
0
0
0
0
0
0
0
0
0
0
0
0
0
0
0
0
0
0
0
0
0
0
0
0
0
0
0
0
0
0
0
0
0
0
0
0
0
0
0
0
0
0
0
0
0
0
0
0
0
0
0
0
0
0
0
0
0
0
0
0
0
0
0
0
0
0
0
0
0
0
0
0
0
0
0
0
0
0
0
0
0
0
0
0
0
0
0
0
0
0
0
0
0
0
0
0
0
0
0
0
0
0
0
0
0
0
0
0
0
0
0
0
0
0
0
0
0
0
0
0
0
0
0
0
0
0
0
0
0
0
0
0
0
0
0
0
0
0
0
0
0
0
0
0
0
0
0
0
0
0
0
0
0
0
0
0
0
0
0
0
0
0
0
0
0
0
0
0
0
0
0
0
0
0
0
0
0
0
0
0
0
0
0
0
0
0
0
0
0
0
0
0
0
0
0
0
0
0
0
0
0
0
0
0
0
0
0
0
0
0
0
0
0
0
0
0
0
0
0
0
0
0
0
0
0
0
0
0
0
0
0
0
0
0
0
0
0
0
0
0
0
0
0
0
0
0
0
0
0
0
0
0
0
0
0
0
0
0
0
0
0
0
0
0
0
0
0
0
0
0
0
0
0
0
0
0
0
0
0
0
0
0
0
0
0
0
0
0
0
0
0
0
0
0
0
0
0
0
0
0
0
0
0
0
0
0
0
0
0
0
0
0
0
0
0
0
0
0
0
0
0
0
0
0
0
0
0
0
0
0
0
0
0
0
0
0
0
0
0
0
0
0
0
0
0
0
0
0
0
0
0
0
0
0
0
0
0
0
0
0
0
0
0
0
0
0
0
0
0
0
0
0
0
0
0
0
0
0
0
0
0
0
0
0
0
0
0
0
0
0
0
0
0
0
0
0
0
0
0
0
0
0
0
0
0
0
0
0
0
0
0
0
0
0
0
0
0
0
0
0
0
0
0
0
0
0
0
0
0
0
0
0
0
0
0
0
0
0
0
0
0
0
0
0
0
0
0
0
0
0
0
0
0
0
0
0
0
0
0
0
0
0
0
0
0
0
0
0
0
0
0
0
0
0
0
0
0
0
0
0
0
0
0
0
0
0
0
0
0
0
0
0
0
0
0
0
0
0
0
0
0
0
0
0
0
0
0
0
0
0
0
0
0
0
0
0
0
0
0
0
0
0
0
0
0
0
0
0
0
0
0
0
0
0
0
0
0
0
0
0
0
0
0
0
0
0
0
0
0
0
0
0
0
0
0
0
0
0
0
0
0
0
0
0
0
0
0
0
0
0
0
0
0
0
0
0
0
0
0
0
0
0
0
0
0
0
0
0
0
0
0
0
0
0
0
0
0
0
0
0
0
0
0
0
0
0
0
0
0
0
0
0
0
0
0
0
0
0
0
0
0
0
0
0
0
0
0
0
0
0
0
0
0
0
0
0
0
0
0
0
0
0
0
0
0
0
0
0
0
0
0
0
0
0
0
0
0
0
0
0
0
0
0
0
0
0
0
0
0
0
0
0
0
0
0
0
0
0
0
0
0
0
0
0
0
0
0
0
0
0
0
0
0
0
0
0
0
0
0
0
0
0
0
0
0
0
0
0
0
0
0
0
0
0
0
0
0
0
0
0
0
0
0
0
0
0
0
0
0
0
0
0
0
0
0
0
0
0
0
0
0
0
0
0
0
0
0
0
0
0
0
0
0
0
0
0
0
0
0
0
0
0
0
0
0
0
0
0
0
0
0
0
0
0
0
0
0
0
0
0
0
0
0
0
0
0
0
0
0
0
0
0
0
0
0
0
0
0
0
0
0
0
0
0
0
0
0
0
0
0
0
0
0
0
0
0
0
0
0
0
0
0
0
0
0
0
0
0
0
0
0
0
0
0
0
0
0
0
0
0
0
0
0
0
0
0
0
0
0
0
0
0
0
0
0
0
0
0
0
0
0
0
0
0
0
0
0
0
0
0
0
0
0
0
0
0
0
0
0
0
0
0
0
0
0
0
0
0
0
0
0
0
0
0
0
0
0
0
0
0
0
0
0
0
0
0
0
0
0
0
0
0
0
0
0
0
0
0
0
0
0
0
0
0
0
0
0
0
0
0
0
0
0
0
0
0
0
0
0
0
0
0
0
0
0
0
0
0
0
0
0
0
0
0
0
0
0
0
0
0
0
0
0
0
0
0
0
0
0
0
0
0
0
0
0
0
0
0
0
0
0
0
0
0
0
0
0
0
0
0
0
0
0
0
0
0
0
0
0
0
0
0
0
0
0
0
0
0
0
0
0
0
0
0
0
0
0
0
0
0
0
0
0
0
0
0
0
0
0
0
0
0
0
0
0
0
0
0
0
0
0
0
0
0
0
0
0
0
0
0
0
0
0
0
0
0
0
0
0
0
0
0
0
0
0
0
0
0
0
0
0
0
0
0
0
0
0
0
0
0
0
0
0
0
0
0
0
0
0
0
0
0
0
0
0
0
0
0
0
0
0
0
0
0
0
0
0
0
0
0
0
0
0
0
0
0
0
0
0
0
0
0
0
0
0
0
0
0
0
0
0
0
0
0
0
0
0
0
0
0
0
0
0
0
0
0
0
0
0
0
0
0
0
0
0
0
0
0
0
0
0
0
0
0
0
0
0
0
0
0
0
0
0
0
0
0
0
0
0
0
0
0
0
0
0
0
0
0
0
0
0
0
0
0
0
0
0
0
0
0
0
0
0
0
0
0
0
0
0
0
0
0
0
0
0
0
0
0
0
0
0
0
0
0
0
0
0
0
0
0
0
0
0
0
0
0
0
0
0
0
0
0
0
0
0
0
0
0
0
0
0
0
0
0
0
0
0
0
0
0
0
0
0
0
0
0
0
0
0
0
0
0
0
0
0
0
0
0
0
0
0
0
0
0
0
0
0
0
0
0
0
0
0
0
0
0
0
0
0
0
0
0
0
0
0
0
0
0
0
0
0
0
0
0
0
0
0
0
0
0
0
0
0
0
0
0
0
0
0
0
0
0
0
0
0
0
0
0
0
0
0
0
0
0
0
0
0
0
0
0
0
0
0
0
0
0
0
0
0
0
0
0
0
0
0
0
0
0
0
0
0
0
0
0
0
0
0
0
0
0
0
0
0
0
0
0
0
0
0
0
0
0
0
0
0
0
0
0
0
0
0
0
0
0
0
0
0
0
0
0
0
0
0
0
0
0
0
0
0
0
0
0
0
0
0
0
0
0
0
0
0
0
0
0
0
0
0
0
0
0
0
0
0
0
0
0
0
0
0
0
0
0
0
0
0
0
0
0
0
0
0
0
0
0
0
0
0
0
0
0
0
0
0
0
0
0
0
0
0
0
0
0
0
0
0
0
0
0
0
0
0
0
0
0
0
0
0
0
0
0
0
0
0
0
0
0
0
0
0
0
0
0
0
0
0
0
0
0
0
5.80631116e-299
1.91982657e-299
3.812271e-296
1.28826749e-296
2.47429784e-293
8.53949438e-294
1.58752317e-290
5.59184862e-291
1.0069363e-287
3.61774573e-288
6.31408622e-285
2.31267404e-285
3.91432791e-282
1.46062845e-282
2.39912311e-279
9.11725261e-280
1.45380383e-276
5.62430419e-277
8.71014159e-274
3.42718001e-274
5.15962128e-271
2.06555101e-271
3.02196624e-268
1.23023946e-268
1.75002975e-265
7.24610219e-266
1.00204926e-262
4.21503275e-263
5.67313634e-260
2.4235501e-260
3.17577326e-257
1.37742317e-257
1.75779572e-254
7.73847179e-255
9.62009622e-252
4.29756e-252
5.20572118e-249
2.35924216e-249
2.78528833e-246
1.28029567e-246
1.47347713e-243
6.86810715e-244
7.70718442e-241
3.64211146e-241
3.98585278e-238
1.90922749e-238
2.03804069e-235
9.89345193e-236
1.03029687e-232
5.06780338e-233
5.1494467e-230
2.56606706e-230
2.54446811e-227
1.28435705e-227
1.24296866e-224
6.35425813e-225
6.00257207e-222
3.10738901e-222
2.86559472e-219
1.50199011e-219
1.35231324e-216
7.17574135e-217
6.3082477e-214
3.38829256e-214
2.90865106e-211
1.58122694e-211
1.32558398e-208
7.29272791e-209
5.97084272e-206
3.32391723e-206
2.65800323e-203
1.49711515e-203
1.16934932e-200
6.66321724e-201
5.0836772e-198
2.93031264e-198
2.1838925e-195
1.27327173e-195
9.26994961e-193
5.46612763e-193
3.88765831e-190
2.31826341e-190
1.6107705e-187
9.7127302e-188
6.59299643e-185
4.01961955e-185
2.6656476e-182
1.6430906e-182
1.06453231e-179
6.63341448e-180
4.1987012e-177
2.64469851e-177
1.6354345e-174
1.04121674e-174
6.29033312e-172
4.0475543e-172
2.38888259e-169
1.55342216e-169
8.95680381e-167
5.88556652e-167
3.31514729e-164
2.20111955e-164
1.21114581e-161
8.12471341e-162
4.36700832e-159
2.95959157e-159
1.55386572e-156
1.06380681e-156
5.45544736e-154
3.77265034e-154
1.88963426e-151
1.31985492e-151
6.45648526e-149
4.55451507e-149
2.17582244e-146
1.55000158e-146
7.23093861e-144
5.20152989e-144
2.36941952e-141
1.72096078e-141
7.65410442e-139
5.61281365e-139
2.43712492e-136
1.8042041e-136
7.64741516e-134
5.71489567e-134
2.36441633e-131
1.78347565e-131
7.20146493e-129
5.48248154e-129
2.16031285e-126
1.65977494e-126
6.38143714e-124
4.94754794e-124
1.85579143e-121
1.45178379e-121
5.31186243e-119
4.19259284e-119
1.49611416e-116
1.19131064e-116
4.14544361e-114
3.32978729e-114
1.12966134e-111
9.15248708e-112
3.0267272e-109
2.47325598e-109
7.97107016e-107
6.56865148e-107
2.06272956e-104
1.71405132e-104
5.24332994e-102
4.39306892e-102
1.30876207e-99
1.10549647e-99
3.20659538e-97
2.73043786e-97
7.7088617e-95
6.61644283e-95
1.81770072e-92
1.57237659e-92
4.20197977e-90
3.66303169e-90
9.51891934e-88
8.36138893e-88
2.11210006e-85
1.86921683e-85
4.5878896e-83
4.09036141e-83
9.75097187e-81
8.75685114e-81
2.02660621e-78
1.83302003e-78
4.11634038e-76
3.74931476e-76
8.16563514e-74
7.48887973e-74
1.58089319e-71
1.4596797e-71
2.98486654e-69
2.77426747e-69
5.49173884e-67
5.13736123e-67
9.83749468e-65
9.26100497e-65
1.71414501e-62
1.62367495e-62
2.90246012e-60
2.76584641e-60
4.77059726e-58
4.57272084e-58
7.60256095e-56
7.32873336e-56
1.17321204e-53
1.13719712e-53
1.75073977e-51
1.70603817e-51
2.52253882e-49
2.47070853e-49
3.50351362e-47
3.44822741e-47
4.6819256e-45
4.62897084e-45
6.00786897e-43
5.96408524e-43
7.38608389e-41
7.35658724e-41
8.67789423e-39
8.66130163e-39
9.71617436e-37
9.69914551e-37
1.03340986e-34
1.02902555e-34
1.040328e-32
1.03057401e-32
9.87135456e-31
9.7225417e-31
8.78586361e-29
8.64580799e-29
7.29307625e-27
7.24113923e-27
5.60815815e-25
5.60578654e-25
3.96356987e-23
3.94937214e-23
2.5498101e-21
2.53372118e-21
1.47480907e-19
1.4627475e-19
7.55134913e-18
7.48941923e-18
3.35352155e-16
3.30834129e-16
1.25635353e-14
1.25148218e-14
3.81149602e-13
3.79192778e-13
8.79486315e-12
8.8279026e-12
9.59634689e-09
9.70557715e-09
0.138765383
0.550333213
8.5512721
9.62679799
7.58922721
6.58940786
1.85890446
1.51355207
0.284686771
0.251626145
0.0584862542
0.0537501124
0.0105971437
0.0101586922
0.00173501615
0.00172213112
0.00027024051
0.000270590552
4.47508187e-05
4.48132447e-05
1.26411617e-05
1.26583492e-05
8.43459954e-06
8.43481878e-06
7.91845207e-06
7.91859191e-06
7.85956327e-06
7.85958259e-06
7.85323273e-06
7.85325019e-06
7.85258983e-06
7.85259701e-06
7.85253005e-06
7.85254702e-06
7.85250979e-06
7.85253937e-06
7.85251922e-06
7.85251678e-06
7.85252184e-06
7.85250724e-06
7.85253675e-06
7.85251112e-06
7.85254148e-06
7.85251272e-06
7.85252827e-06
7.85252333e-06
7.85252968e-06
7.85252372e-06
7.85252766e-06
7.85252784e-06
7.8525293e-06
7.85252423e-06
7.85252969e-06
7.85252743e-06
7.85252966e-06
7.8525293e-06
7.85251854e-06
7.85254261e-06
7.85251915e-06
7.85252802e-06
7.85252982e-06
7.85253615e-06
7.85252958e-06
7.85251822e-06
7.8525272e-06
7.85251721e-06
7.85252874e-06
7.85252775e-06
7.85252466e-06
7.85251987e-06
7.85252183e-06
7.85252679e-06
7.85251482e-06
7.85252272e-06
7.85252003e-06
7.85252715e-06
7.85252791e-06
7.85252946e-06
7.85252679e-06
7.85253921e-06
7.85251628e-06
7.85253377e-06
7.85252513e-06
7.85252873e-06
7.85253036e-06
7.85251069e-06
7.85253991e-06
7.85251472e-06
7.85253464e-06
7.85250628e-06
7.85254229e-06
7.85251502e-06
7.85253854e-06
7.85252145e-06
7.85253317e-06
7.85252046e-06
7.85252976e-06
7.85252781e-06
7.85253798e-06
7.85253225e-06
7.85252398e-06
7.85252918e-06
7.85252916e-06
7.85252854e-06
7.85253069e-06
7.8525254e-06
7.85252982e-06
7.85252863e-06
7.8525289e-06
7.85253483e-06
7.85251595e-06
7.85253263e-06
7.852524e-06
7.85252291e-06
7.85252614e-06
7.85252237e-06
7.85251303e-06
7.8525399e-06
7.85250881e-06
7.85253643e-06
7.85252794e-06
7.85253345e-06
7.85251377e-06
7.85252544e-06
7.85252549e-06
7.85252833e-06
7.85252288e-06
7.85253601e-06
7.85252349e-06
7.85253579e-06
7.85252972e-06
7.85252531e-06
7.8525424e-06
7.85253595e-06
7.85252964e-06
7.85253264e-06
7.85253506e-06
7.85253032e-06
7.85252531e-06
7.85252661e-06
7.85252288e-06
7.85252901e-06
7.85251644e-06
7.85253215e-06
7.85251997e-06
7.85252869e-06
7.85251877e-06
7.85252651e-06
7.85253771e-06
7.85251544e-06
7.85253543e-06
7.85251475e-06
7.85253636e-06
7.852524e-06
7.85253411e-06
7.85252779e-06
7.85253516e-06
7.85253585e-06
7.85252348e-06
7.85252485e-06
7.85255354e-06
7.85251747e-06
7.85255271e-06
7.85251866e-06
7.85255154e-06
7.85252075e-06
7.85253673e-06
7.85252781e-06
7.85252295e-06
7.85252475e-06
7.85252052e-06
7.85253124e-06
7.85251467e-06
7.85253323e-06
7.85252464e-06
7.85253698e-06
7.8525304e-06
7.85254059e-06
7.85253493e-06
7.85254119e-06
7.8525365e-06
7.85254578e-06
7.85253639e-06
7.8525446e-06
7.85252802e-06
7.8525263e-06
7.85253606e-06
7.85252255e-06
7.85254285e-06
7.85253272e-06
7.8525369e-06
7.85251913e-06
7.85253978e-06
7.85252991e-06
7.85254405e-06
7.85252597e-06
7.85252593e-06
7.8525273e-06
7.8525355e-06
7.85252262e-06
7.85254422e-06
7.85251592e-06
7.8525503e-06
7.85252043e-06
7.85253626e-06
7.85253547e-06
7.85252526e-06
7.85253684e-06
7.85254517e-06
7.85253751e-06
7.8525411e-06
7.85253402e-06
7.85253596e-06
7.85253559e-06
7.85253822e-06
7.85253566e-06
7.85252862e-06
7.85253497e-06
7.85252554e-06
7.85253651e-06
7.85253569e-06
7.85252832e-06
7.85253582e-06
7.85253704e-06
7.85253479e-06
7.85253309e-06
7.85255143e-06
7.85252474e-06
7.8525384e-06
7.85253872e-06
7.8525377e-06
7.85253044e-06
7.85253747e-06
7.85253698e-06
7.85253512e-06
7.85254595e-06
7.85253511e-06
7.85254266e-06
7.85253281e-06
7.85254305e-06
7.85253452e-06
7.85255513e-06
7.85252481e-06
7.85256178e-06
7.85251656e-06
7.85255086e-06
7.85253337e-06
7.8525227e-06
7.8525437e-06
7.85251572e-06
7.85254679e-06
7.85253461e-06
7.85254002e-06
7.8525318e-06
7.85253961e-06
7.85253692e-06
7.8525339e-06
7.85253577e-06
7.85253801e-06
7.85254369e-06
7.85253921e-06
7.85253406e-06
7.852545e-06
7.85252962e-06
7.85254489e-06
7.85252671e-06
7.85253799e-06
7.85253063e-06
7.85254014e-06
7.8525171e-06
7.85254656e-06
7.85252533e-06
7.85253743e-06
7.85253668e-06
7.85253139e-06
7.85254962e-06
7.85253143e-06
7.85253932e-06
7.8525399e-06
7.85253432e-06
7.85253702e-06
7.8525362e-06
7.85253255e-06
7.85253662e-06
7.8525337e-06
7.85253735e-06
7.85253183e-06
7.85254193e-06
7.85253532e-06
7.85254122e-06
7.85253489e-06
7.85253384e-06
7.85254684e-06
7.85252272e-06
7.8525246e-06
7.85254437e-06
7.85253061e-06
7.85254721e-06
7.85254164e-06
7.85254329e-06
7.85254231e-06
7.8525358e-06
7.85254762e-06
7.85253465e-06
7.85254189e-06
7.85253506e-06
7.8525348e-06
7.85253816e-06
7.85252606e-06
7.85254222e-06
7.85253111e-06
7.85254887e-06
7.85252773e-06
7.85255428e-06
7.85253267e-06
7.85253666e-06
7.8525364e-06
7.85254273e-06
7.85254064e-06
7.85252467e-06
7.85255481e-06
7.85252279e-06
7.8525549e-06
7.85252581e-06
7.85254587e-06
7.85253306e-06
7.85253438e-06
7.85254559e-06
7.85253345e-06
7.85254408e-06
7.85253351e-06
7.85254459e-06
7.85253416e-06
7.85254104e-06
7.85253275e-06
7.85254193e-06
7.85253925e-06
7.85254446e-06
7.8525305e-06
7.85254398e-06
7.85253876e-06
7.85254899e-06
7.85254599e-06
7.85254071e-06
7.85254186e-06
7.85254379e-06
7.85253156e-06
7.85254548e-06
7.85254692e-06
7.85253045e-06
7.85254842e-06
7.8525422e-06
7.85253734e-06
7.85253291e-06
7.8525423e-06
7.85253627e-06
7.85254762e-06
7.85253455e-06
7.8525471e-06
7.85254453e-06
7.85253825e-06
7.85253664e-06
7.8525409e-06
7.85254349e-06
7.852549e-06
7.85253886e-06
7.85254474e-06
7.85254475e-06
7.8525514e-06
7.85254764e-06
7.85255537e-06
7.85254672e-06
7.85254374e-06
7.85254434e-06
7.85254939e-06
7.85253717e-06
7.85254379e-06
7.85254369e-06
7.85254355e-06
7.85254649e-06
7.85254425e-06
7.85253756e-06
7.85254817e-06
7.85253939e-06
7.85254618e-06
7.85254824e-06
7.85253151e-06
7.85255587e-06
7.85252713e-06
7.85254549e-06
7.85253549e-06
7.852548e-06
7.85253351e-06
7.85254177e-06
7.85254427e-06
7.85254266e-06
7.8525519e-06
7.8525459e-06
7.85254586e-06
7.8525415e-06
7.85254276e-06
7.8525398e-06
7.85253445e-06
7.85255602e-06
7.85252837e-06
7.85255423e-06
7.85253034e-06
7.85255331e-06
7.85254213e-06
7.85254251e-06
7.85254478e-06
7.85255479e-06
7.85254625e-06
7.85254821e-06
7.85254829e-06
7.85253844e-06
7.85254825e-06
7.85254696e-06
7.85254855e-06
7.85254539e-06
7.85254926e-06
7.85255325e-06
7.85253796e-06
7.85256891e-06
7.8525436e-06
7.852557e-06
7.85254468e-06
7.85255814e-06
7.85254112e-06
7.85256027e-06
7.85254215e-06
7.85255841e-06
7.85255469e-06
7.85254178e-06
7.85255693e-06
7.85254419e-06
7.85255059e-06
7.85255452e-06
7.85254315e-06
7.85255882e-06
7.85254405e-06
7.85255478e-06
7.85254385e-06
7.85254667e-06
7.85254057e-06
7.85256059e-06
7.85254361e-06
7.8525577e-06
7.85254493e-06
7.85254738e-06
7.85255513e-06
7.85254335e-06
7.85255556e-06
7.85254461e-06
7.8525423e-06
7.85255617e-06
7.85253907e-06
7.85254867e-06
7.85255323e-06
7.85254145e-06
7.85255915e-06
7.85254714e-06
7.85254518e-06
7.85255676e-06
7.85254013e-06
7.8525623e-06
7.85254916e-06
7.85255516e-06
7.8525476e-06
7.85254967e-06
7.85254551e-06
7.85254764e-06
7.85254438e-06
7.85254499e-06
7.85254408e-06
7.8525524e-06
7.85254779e-06
7.85255585e-06
7.8525417e-06
7.8525486e-06
7.8525422e-06
7.85255139e-06
7.85253444e-06
7.85255084e-06
7.85254188e-06
7.85254632e-06
7.85254605e-06
7.85253912e-06
7.85255918e-06
7.85253804e-06
7.85255556e-06
7.85253893e-06
7.85256247e-06
7.85253844e-06
7.8525634e-06
7.85252384e-06
7.85257351e-06
7.8525276e-06
7.85256935e-06
7.85253047e-06
7.85255556e-06
7.85254213e-06
7.85255193e-06
7.85255442e-06
7.85255647e-06
7.85254261e-06
7.85256112e-06
7.85254606e-06
7.85254881e-06
7.85255024e-06
7.85255143e-06
7.85254739e-06
7.85255249e-06
7.85255149e-06
7.85255573e-06
7.85255193e-06
7.85255155e-06
7.85255544e-06
7.85255103e-06
7.85255014e-06
7.8525542e-06
7.8525544e-06
7.85255424e-06
7.85255328e-06
7.85255438e-06
7.85255304e-06
7.85255538e-06
7.85255518e-06
7.85255574e-06
7.85255619e-06
7.85255651e-06
7.85255795e-06
7.85255871e-06
7.85255842e-06
7.85255993e-06
7.85256095e-06
7.8525614e-06
7.85256256e-06
7.85256411e-06
7.85256591e-06
7.85256701e-06
7.85256885e-06
7.85257116e-06
7.85257291e-06
7.8525755e-06
7.85257829e-06
7.852581e-06
7.85258305e-06
7.85258599e-06
7.85258809e-06
7.85258977e-06
7.85259133e-06
7.85259224e-06
7.85259284e-06
7.85259334e-06
7.85259346e-06
7.8525935e-06
7.85259321e-06
7.85259318e-06
7.85259361e-06
7.85259341e-06
7.85259348e-06
7.85259346e-06
7.85259347e-06
7.85259358e-06
7.85259356e-06
7.85259348e-06
7.8525937e-06
7.85259342e-06
7.85259354e-06
7.85259346e-06
7.85259348e-06
7.8525935e-06
7.85259346e-06
7.85259357e-06
7.8525934e-06
7.85259328e-06
7.85259377e-06
)
;

boundaryField
{
    closed
    {
        type            calculated;
        value           uniform 0;
    }
    open
    {
        type            calculated;
        value           uniform 0;
    }
    sides
    {
        type            empty;
    }
}


// ************************************************************************* //
