/*--------------------------------*- C++ -*----------------------------------*\
| =========                 |                                                 |
| \\      /  F ield         | OpenFOAM: The Open Source CFD Toolbox           |
|  \\    /   O peration     | Version:  2206                                  |
|   \\  /    A nd           | Website:  www.openfoam.com                      |
|    \\/     M anipulation  |                                                 |
\*---------------------------------------------------------------------------*/
FoamFile
{
    version     2.0;
    format      ascii;
    arch        "LSB;label=32;scalar=64";
    class       volVectorField;
    location    "1.4e-05";
    object      U;
}
// * * * * * * * * * * * * * * * * * * * * * * * * * * * * * * * * * * * * * //

dimensions      [0 1 -1 0 0 0 0];

internalField   nonuniform List<vector> 
3183
(
(4.07518217e-13 0 0)
(1.22534095e-13 0 0)
(-2.84406035e-13 0 0)
(-3.0925827e-13 0 0)
(-1.49059478e-13 0 0)
(-8.71006704e-18 0 0)
(-6.71741275e-19 0 0)
(-5.62948302e-23 0 0)
(7.37713258e-23 0 0)
(9.20983717e-19 0 0)
(1.61307425e-17 0 0)
(2.24969608e-13 0 0)
(6.1213436e-13 0 0)
(2.09221092e-13 0 0)
(1.43313147e-13 0 0)
(5.14788726e-14 0 0)
(-3.05755534e-13 0 0)
(-6.51456502e-13 0 0)
(-8.26472088e-13 0 0)
(-1.39854723e-13 0 0)
(3.60194786e-13 0 0)
(1.63851771e-16 0 0)
(8.41134422e-14 0 0)
(3.15043473e-13 0 0)
(3.95514683e-13 0 0)
(5.69177689e-13 0 0)
(6.95228507e-13 0 0)
(7.31589158e-13 0 0)
(2.0732409e-13 0 0)
(3.44644864e-13 0 0)
(4.09457549e-16 0 0)
(-2.82767273e-13 0 0)
(-7.16802924e-13 0 0)
(-8.3651607e-13 0 0)
(-9.87286008e-13 0 0)
(-9.27638852e-13 0 0)
(-7.07173746e-13 0 0)
(-6.5354052e-13 0 0)
(-6.18056765e-13 0 0)
(-7.74858324e-13 0 0)
(-6.95499708e-13 0 0)
(-3.16566888e-13 0 0)
(2.01270499e-13 0 0)
(-2.12092193e-13 0 0)
(2.24918134e-13 0 0)
(5.7550594e-13 0 0)
(5.17169704e-13 0 0)
(9.0047048e-13 0 0)
(9.69892618e-13 0 0)
(1.37178388e-12 0 0)
(1.5104298e-12 0 0)
(2.04453084e-12 0 0)
(1.60354943e-12 0 0)
(1.9625291e-12 0 0)
(1.78912602e-12 0 0)
(1.47394135e-12 0 0)
(1.12565549e-12 0 0)
(9.35768e-13 0 0)
(4.28926643e-13 0 0)
(3.07120017e-13 0 0)
(-1.45725689e-13 0 0)
(-7.61599336e-13 0 0)
(-9.75904825e-13 0 0)
(-1.38387538e-12 0 0)
(-1.52032326e-12 0 0)
(-1.61173458e-12 0 0)
(-2.20641837e-12 0 0)
(-2.03016202e-12 0 0)
(-2.3388944e-12 0 0)
(-3.28199626e-12 0 0)
(-3.11505563e-12 0 0)
(-3.39265274e-12 0 0)
(-3.53820136e-12 0 0)
(-3.83856401e-12 0 0)
(-4.6148851e-12 0 0)
(-4.32337808e-12 0 0)
(-4.34845862e-12 0 0)
(-4.54209799e-12 0 0)
(-4.6396669e-12 0 0)
(-4.61638835e-12 0 0)
(-5.30858153e-12 0 0)
(-4.8593143e-12 0 0)
(-4.59822779e-12 0 0)
(-5.97545402e-12 0 0)
(-4.55514559e-12 0 0)
(-4.75522933e-12 0 0)
(-5.79592278e-12 0 0)
(-5.80423654e-12 0 0)
(-5.14680077e-12 0 0)
(-5.15579415e-12 0 0)
(-6.25997176e-12 0 0)
(-6.10449433e-12 0 0)
(-5.10517641e-12 0 0)
(-5.98437667e-12 0 0)
(-6.19398664e-12 0 0)
(-6.39800024e-12 0 0)
(-6.61229209e-12 0 0)
(-6.15970925e-12 0 0)
(-5.92107639e-12 0 0)
(-6.26160153e-12 0 0)
(-5.56338124e-12 0 0)
(-6.63218286e-12 0 0)
(-6.88872207e-12 0 0)
(-6.89353025e-12 0 0)
(-6.10202236e-12 0 0)
(-6.74972937e-12 0 0)
(-6.77225349e-12 0 0)
(-6.64133571e-12 0 0)
(-7.25577992e-12 0 0)
(-7.4963902e-12 0 0)
(-6.36516367e-12 0 0)
(-6.25378581e-12 0 0)
(-6.56556682e-12 0 0)
(-6.28375245e-12 0 0)
(-6.87942861e-12 0 0)
(-7.17622584e-12 0 0)
(-6.22826586e-12 0 0)
(-6.32860767e-12 0 0)
(-6.44711738e-12 0 0)
(-8.07670753e-12 0 0)
(-8.24294521e-12 0 0)
(-6.73315693e-12 0 0)
(-7.18900512e-12 0 0)
(-7.91940418e-12 0 0)
(-7.89376567e-12 0 0)
(-7.4181771e-12 0 0)
(-6.77089657e-12 0 0)
(-9.33045264e-12 0 0)
(-7.84663763e-12 0 0)
(-8.19004813e-12 0 0)
(-7.29702804e-12 0 0)
(-7.71249173e-12 0 0)
(-8.33212749e-12 0 0)
(-8.52830872e-12 0 0)
(-7.02395285e-12 0 0)
(-7.41694169e-12 0 0)
(-8.0675366e-12 0 0)
(-7.68771555e-12 0 0)
(-7.94103478e-12 0 0)
(-7.44256291e-12 0 0)
(-6.91644977e-12 0 0)
(-7.96740694e-12 0 0)
(-6.96417574e-12 0 0)
(-7.97966989e-12 0 0)
(-7.34386488e-12 0 0)
(-9.02114434e-12 0 0)
(-7.97424664e-12 0 0)
(-9.6414765e-12 0 0)
(-8.27478652e-12 0 0)
(-8.55607149e-12 0 0)
(-8.35199691e-12 0 0)
(-9.09099056e-12 0 0)
(-9.64570821e-12 0 0)
(-9.01664371e-12 0 0)
(-9.38643378e-12 0 0)
(-8.74633299e-12 0 0)
(-8.99445171e-12 0 0)
(-9.92153893e-12 0 0)
(-8.70508216e-12 0 0)
(-8.47368219e-12 0 0)
(-9.49679213e-12 0 0)
(-9.26254393e-12 0 0)
(-8.87862155e-12 0 0)
(-9.4387797e-12 0 0)
(-1.02544405e-11 0 0)
(-1.00703961e-11 0 0)
(-9.43150837e-12 0 0)
(-9.59713958e-12 0 0)
(-9.71198562e-12 0 0)
(-9.93724874e-12 0 0)
(-1.00036555e-11 0 0)
(-9.6265441e-12 0 0)
(-1.03941457e-11 0 0)
(-1.04335109e-11 0 0)
(-1.11541094e-11 0 0)
(-1.08918534e-11 0 0)
(-1.15714588e-11 0 0)
(-1.11745865e-11 0 0)
(-1.12855238e-11 0 0)
(-1.16683247e-11 0 0)
(-1.13462987e-11 0 0)
(-1.22424032e-11 0 0)
(-1.05310783e-11 0 0)
(-1.15344579e-11 0 0)
(-1.16311924e-11 0 0)
(-1.26983409e-11 0 0)
(-1.07539829e-11 0 0)
(-1.20602823e-11 0 0)
(-1.15874112e-11 0 0)
(-1.11255141e-11 0 0)
(-1.16824964e-11 0 0)
(-1.1516619e-11 0 0)
(-1.15506237e-11 0 0)
(-1.17225004e-11 0 0)
(-1.33709382e-11 0 0)
(-1.17626644e-11 0 0)
(-1.23636652e-11 0 0)
(-1.27185583e-11 0 0)
(-1.27699181e-11 0 0)
(-1.41782977e-11 0 0)
(-1.27203992e-11 0 0)
(-1.2331001e-11 0 0)
(-1.27507996e-11 0 0)
(-1.36471763e-11 0 0)
(-1.35712297e-11 0 0)
(-1.36425217e-11 0 0)
(-1.32359405e-11 0 0)
(-1.33312571e-11 0 0)
(-1.49064738e-11 0 0)
(-1.33408989e-11 0 0)
(-1.33840482e-11 0 0)
(-1.39350791e-11 0 0)
(-1.29415836e-11 0 0)
(-1.45973859e-11 0 0)
(-1.41154343e-11 0 0)
(-1.37999675e-11 0 0)
(-1.38059504e-11 0 0)
(-1.36174502e-11 0 0)
(-1.26851763e-11 0 0)
(-1.41887149e-11 0 0)
(-1.40789694e-11 0 0)
(-1.44508774e-11 0 0)
(-1.46451102e-11 0 0)
(-1.39389914e-11 0 0)
(-1.39826803e-11 0 0)
(-1.42804005e-11 0 0)
(-1.3946846e-11 0 0)
(-1.50755198e-11 0 0)
(-1.52390787e-11 0 0)
(-1.47101904e-11 0 0)
(-1.514623e-11 0 0)
(-1.50318655e-11 0 0)
(-1.4850599e-11 0 0)
(-1.55798019e-11 0 0)
(-1.54031178e-11 0 0)
(-1.39122431e-11 0 0)
(-1.54446499e-11 0 0)
(-1.49325654e-11 0 0)
(-1.59710949e-11 0 0)
(-1.58178386e-11 0 0)
(-1.44872804e-11 0 0)
(-1.5909018e-11 0 0)
(-1.48409744e-11 0 0)
(-1.46318696e-11 0 0)
(-1.50579802e-11 0 0)
(-1.5897385e-11 0 0)
(-1.47350674e-11 0 0)
(-1.47977152e-11 0 0)
(-1.54908715e-11 0 0)
(-1.53958704e-11 0 0)
(-1.44934996e-11 0 0)
(-1.61877242e-11 0 0)
(-1.54138833e-11 0 0)
(-1.63006665e-11 0 0)
(-1.63894178e-11 0 0)
(-1.53563389e-11 0 0)
(-1.55447291e-11 0 0)
(-1.47712178e-11 0 0)
(-1.53646417e-11 0 0)
(-1.55492364e-11 0 0)
(-1.49737854e-11 0 0)
(-1.48780308e-11 0 0)
(-1.50854717e-11 0 0)
(-1.44160139e-11 0 0)
(-1.55864357e-11 0 0)
(-1.53045574e-11 0 0)
(-1.53381377e-11 0 0)
(-1.53386844e-11 0 0)
(-1.41371457e-11 0 0)
(-1.48191796e-11 0 0)
(-1.50356029e-11 0 0)
(-1.49558925e-11 0 0)
(-1.5681406e-11 0 0)
(-1.46443056e-11 0 0)
(-1.51863945e-11 0 0)
(-1.49396082e-11 0 0)
(-1.59258167e-11 0 0)
(-1.59413467e-11 0 0)
(-1.50672925e-11 0 0)
(-1.49532109e-11 0 0)
(-1.54500968e-11 0 0)
(-1.58926709e-11 0 0)
(-1.54542393e-11 0 0)
(-1.52351323e-11 0 0)
(-1.53087437e-11 0 0)
(-1.64174277e-11 0 0)
(-1.55121743e-11 0 0)
(-1.55795831e-11 0 0)
(-1.58754571e-11 0 0)
(-1.59160978e-11 0 0)
(-1.56236402e-11 0 0)
(-1.52706543e-11 0 0)
(-1.59322311e-11 0 0)
(-1.56778253e-11 0 0)
(-1.57516668e-11 0 0)
(-1.53274183e-11 0 0)
(-1.60243062e-11 0 0)
(-1.60585068e-11 0 0)
(-1.50485397e-11 0 0)
(-1.57022337e-11 0 0)
(-1.61345315e-11 0 0)
(-1.56380671e-11 0 0)
(-1.63052994e-11 0 0)
(-1.64223288e-11 0 0)
(-1.74213113e-11 0 0)
(-1.70389852e-11 0 0)
(-1.60514194e-11 0 0)
(-1.64821987e-11 0 0)
(-1.83201295e-11 0 0)
(-1.80677493e-11 0 0)
(-1.79315689e-11 0 0)
(-1.78427855e-11 0 0)
(-1.77370549e-11 0 0)
(-1.83341103e-11 0 0)
(-1.83161953e-11 0 0)
(-1.87153122e-11 0 0)
(-1.89061553e-11 0 0)
(-1.82466515e-11 0 0)
(-1.71403603e-11 0 0)
(-1.90308682e-11 0 0)
(-1.84647466e-11 0 0)
(-1.74886488e-11 0 0)
(-1.87186142e-11 0 0)
(-1.82225313e-11 0 0)
(-1.88955461e-11 0 0)
(-1.8640986e-11 0 0)
(-1.81241301e-11 0 0)
(-1.91052503e-11 0 0)
(-1.82057103e-11 0 0)
(-1.93990861e-11 0 0)
(-1.7827981e-11 0 0)
(-1.86753519e-11 0 0)
(-1.85933563e-11 0 0)
(-1.7878384e-11 0 0)
(-1.70863491e-11 0 0)
(-1.72467311e-11 0 0)
(-1.76731584e-11 0 0)
(-1.88542359e-11 0 0)
(-1.77644083e-11 0 0)
(-1.91859156e-11 0 0)
(-1.73834321e-11 0 0)
(-1.83257634e-11 0 0)
(-1.70072948e-11 0 0)
(-1.63132083e-11 0 0)
(-1.77573935e-11 0 0)
(-1.77257902e-11 0 0)
(-1.84322418e-11 0 0)
(-1.74969411e-11 0 0)
(-1.68973444e-11 0 0)
(-1.84410185e-11 0 0)
(-1.74659643e-11 0 0)
(-1.70006375e-11 0 0)
(-1.75470169e-11 0 0)
(-1.73398624e-11 0 0)
(-1.67630084e-11 0 0)
(-1.71753066e-11 0 0)
(-1.80736297e-11 0 0)
(-1.76385573e-11 0 0)
(-1.80296137e-11 0 0)
(-1.69340221e-11 0 0)
(-1.68932104e-11 0 0)
(-1.74268658e-11 0 0)
(-1.75866974e-11 0 0)
(-1.72616486e-11 0 0)
(-1.61569828e-11 0 0)
(-1.79669993e-11 0 0)
(-1.68964996e-11 0 0)
(-1.69371801e-11 0 0)
(-1.69179503e-11 0 0)
(-1.75408404e-11 0 0)
(-1.67598149e-11 0 0)
(-1.6893662e-11 0 0)
(-1.66839872e-11 0 0)
(-1.65204235e-11 0 0)
(-1.66868289e-11 0 0)
(-1.90252648e-11 0 0)
(-1.71098709e-11 0 0)
(-1.74340225e-11 0 0)
(-1.72767409e-11 0 0)
(-1.729444e-11 0 0)
(-1.73385389e-11 0 0)
(-1.64029507e-11 0 0)
(-1.70002081e-11 0 0)
(-1.70702675e-11 0 0)
(-1.64398809e-11 0 0)
(-1.59573202e-11 0 0)
(-1.51091672e-11 0 0)
(-1.65225102e-11 0 0)
(-1.56565047e-11 0 0)
(-1.56857745e-11 0 0)
(-1.52073815e-11 0 0)
(-1.5995729e-11 0 0)
(-1.48377034e-11 0 0)
(-1.59390629e-11 0 0)
(-1.5844757e-11 0 0)
(-1.53948999e-11 0 0)
(-1.54938753e-11 0 0)
(-1.6279184e-11 0 0)
(-1.61665599e-11 0 0)
(-1.4592041e-11 0 0)
(-1.54362223e-11 0 0)
(-1.55169333e-11 0 0)
(-1.53970684e-11 0 0)
(-1.56564066e-11 0 0)
(-1.48527991e-11 0 0)
(-1.61753348e-11 0 0)
(-1.39964513e-11 0 0)
(-1.51248457e-11 0 0)
(-1.46837295e-11 0 0)
(-1.45104155e-11 0 0)
(-1.41669068e-11 0 0)
(-1.42798889e-11 0 0)
(-1.49998676e-11 0 0)
(-1.53052829e-11 0 0)
(-1.5556308e-11 0 0)
(-1.4302172e-11 0 0)
(-1.39301619e-11 0 0)
(-1.52410519e-11 0 0)
(-1.5067644e-11 0 0)
(-1.54258256e-11 0 0)
(-1.41197515e-11 0 0)
(-1.35403413e-11 0 0)
(-1.47144727e-11 0 0)
(-1.4832327e-11 0 0)
(-1.56377831e-11 0 0)
(-1.48553167e-11 0 0)
(-1.45857202e-11 0 0)
(-1.36399076e-11 0 0)
(-1.38391767e-11 0 0)
(-1.30641725e-11 0 0)
(-1.31548774e-11 0 0)
(-1.40630828e-11 0 0)
(-1.38980485e-11 0 0)
(-1.35848789e-11 0 0)
(-1.30604479e-11 0 0)
(-1.33159387e-11 0 0)
(-1.34973698e-11 0 0)
(-1.33661602e-11 0 0)
(-1.14468267e-11 0 0)
(-1.22317366e-11 0 0)
(-1.23301136e-11 0 0)
(-1.29554387e-11 0 0)
(-1.15799317e-11 0 0)
(-1.14523816e-11 0 0)
(-1.1422359e-11 0 0)
(-1.14763775e-11 0 0)
(-1.11326138e-11 0 0)
(-1.15038967e-11 0 0)
(-1.12673165e-11 0 0)
(-1.04065164e-11 0 0)
(-1.07408242e-11 0 0)
(-1.10742011e-11 0 0)
(-1.21564986e-11 0 0)
(-1.08062616e-11 0 0)
(-1.02781479e-11 0 0)
(-1.03997253e-11 0 0)
(-1.01234655e-11 0 0)
(-9.9003622e-12 0 0)
(-1.02776514e-11 0 0)
(-8.8342356e-12 0 0)
(-1.00433722e-11 0 0)
(-1.09357674e-11 0 0)
(-9.13631025e-12 0 0)
(-9.11838981e-12 0 0)
(-9.49496595e-12 0 0)
(-8.96052536e-12 0 0)
(-8.817984e-12 0 0)
(-8.99415998e-12 0 0)
(-9.24664403e-12 0 0)
(-8.93629671e-12 0 0)
(-8.68257399e-12 0 0)
(-7.97693099e-12 0 0)
(-8.65706116e-12 0 0)
(-8.17822506e-12 0 0)
(-8.83136067e-12 0 0)
(-8.24363368e-12 0 0)
(-8.03077828e-12 0 0)
(-8.01784825e-12 0 0)
(-7.73950672e-12 0 0)
(-8.08684908e-12 0 0)
(-7.1691627e-12 0 0)
(-7.38224446e-12 0 0)
(-7.75018917e-12 0 0)
(-6.97311149e-12 0 0)
(-6.93397242e-12 0 0)
(-6.64848211e-12 0 0)
(-6.89038994e-12 0 0)
(-7.1833874e-12 0 0)
(-6.51737345e-12 0 0)
(-7.08464423e-12 0 0)
(-7.70430972e-12 0 0)
(-7.61534923e-12 0 0)
(-6.88572823e-12 0 0)
(-7.65538806e-12 0 0)
(-7.50610507e-12 0 0)
(-7.22291855e-12 0 0)
(-7.34989567e-12 0 0)
(-6.64752454e-12 0 0)
(-6.70316571e-12 0 0)
(-6.23914428e-12 0 0)
(-6.81905633e-12 0 0)
(-5.49007587e-12 0 0)
(-4.95642523e-12 0 0)
(-6.03845807e-12 0 0)
(-5.79817478e-12 0 0)
(-5.62230901e-12 0 0)
(-5.6831473e-12 0 0)
(-5.56297249e-12 0 0)
(-5.54056261e-12 0 0)
(-4.86973868e-12 0 0)
(-4.86645476e-12 0 0)
(-5.04522943e-12 0 0)
(-5.1423848e-12 0 0)
(-5.32717129e-12 0 0)
(-5.79781358e-12 0 0)
(-4.79124621e-12 0 0)
(-6.315247e-12 0 0)
(-4.7310096e-12 0 0)
(-5.48125499e-12 0 0)
(-5.54117581e-12 0 0)
(-6.2046408e-12 0 0)
(-6.37712961e-12 0 0)
(-5.14378307e-12 0 0)
(-6.50915585e-12 0 0)
(-5.74953392e-12 0 0)
(-5.52526212e-12 0 0)
(-6.25216507e-12 0 0)
(-5.48591971e-12 0 0)
(-5.94493161e-12 0 0)
(-4.58732413e-12 0 0)
(-5.94389403e-12 0 0)
(-4.19318238e-12 0 0)
(-4.67662578e-12 0 0)
(-4.77140885e-12 0 0)
(-3.67735511e-12 0 0)
(-4.91069081e-12 0 0)
(-4.35266904e-12 0 0)
(-3.99122571e-12 0 0)
(-4.50851042e-12 0 0)
(-4.70295136e-12 0 0)
(-4.02303836e-12 0 0)
(-3.29260263e-12 0 0)
(-4.81080317e-12 0 0)
(-2.82126108e-12 0 0)
(-3.35834869e-12 0 0)
(-3.00375897e-12 0 0)
(-3.7113346e-12 0 0)
(-2.47837668e-12 0 0)
(-2.91001168e-12 0 0)
(-3.42415097e-12 0 0)
(-2.52534277e-12 0 0)
(-2.77192085e-12 0 0)
(-2.53698632e-12 0 0)
(-3.50027208e-12 0 0)
(-3.22899543e-12 0 0)
(-1.94849985e-12 0 0)
(-1.44974068e-12 0 0)
(-2.62388183e-12 0 0)
(-2.83608361e-12 0 0)
(-2.13457514e-12 0 0)
(-2.56928508e-12 0 0)
(-3.66783096e-12 0 0)
(-2.92117784e-12 0 0)
(-2.79887727e-12 0 0)
(-4.00481127e-12 0 0)
(-2.30825758e-12 0 0)
(-2.54795801e-12 0 0)
(-3.36245668e-12 0 0)
(-2.33000252e-12 0 0)
(-2.71273235e-12 0 0)
(-2.20443597e-12 0 0)
(-1.97439339e-12 0 0)
(-1.6971595e-12 0 0)
(-1.14987758e-12 0 0)
(-1.72893608e-12 0 0)
(-1.85849693e-12 0 0)
(-2.75804961e-12 0 0)
(-1.60144907e-12 0 0)
(-2.66690354e-12 0 0)
(-1.58213757e-12 0 0)
(-1.79000245e-12 0 0)
(-7.43555647e-13 0 0)
(-1.47449844e-12 0 0)
(1.45432723e-13 0 0)
(-1.72449454e-12 0 0)
(-1.09643535e-12 0 0)
(-1.17407901e-12 0 0)
(-9.73850671e-13 0 0)
(-7.57628457e-13 0 0)
(-1.62448391e-12 0 0)
(-8.24994026e-13 0 0)
(-4.25913889e-13 0 0)
(-2.02903716e-12 0 0)
(-5.05561035e-13 0 0)
(-2.09667331e-13 0 0)
(-7.46677187e-13 0 0)
(3.14444327e-14 0 0)
(1.16824498e-13 0 0)
(-1.05411776e-12 0 0)
(5.76633381e-13 0 0)
(-9.02930824e-13 0 0)
(-1.01949299e-12 0 0)
(7.45846827e-13 0 0)
(-1.26302053e-13 0 0)
(6.05075847e-13 0 0)
(4.47117697e-14 0 0)
(4.89466681e-13 0 0)
(4.79447741e-13 0 0)
(4.50091226e-13 0 0)
(8.11077599e-15 0 0)
(1.14735052e-12 0 0)
(1.40923913e-12 0 0)
(-3.76777381e-13 0 0)
(2.59593652e-13 0 0)
(2.74050167e-13 0 0)
(9.27588984e-13 0 0)
(6.97853048e-13 0 0)
(1.58137926e-12 0 0)
(1.08566713e-12 0 0)
(4.42220384e-13 0 0)
(1.99147095e-12 0 0)
(6.29499851e-13 0 0)
(1.41547733e-12 0 0)
(1.86625152e-12 0 0)
(7.88520084e-13 0 0)
(2.25719398e-12 0 0)
(1.26525136e-12 0 0)
(1.88434279e-12 0 0)
(1.98406989e-12 0 0)
(2.37386334e-12 0 0)
(1.38380961e-12 0 0)
(1.63992023e-12 0 0)
(1.92544628e-12 0 0)
(2.84231865e-12 0 0)
(2.71859906e-12 0 0)
(2.49552388e-12 0 0)
(2.95498696e-12 0 0)
(2.80572013e-12 0 0)
(2.06762254e-12 0 0)
(3.11937489e-12 0 0)
(2.33562017e-12 0 0)
(3.00053741e-12 0 0)
(3.03850993e-12 0 0)
(2.45281924e-12 0 0)
(2.85022058e-12 0 0)
(2.40100961e-12 0 0)
(2.61839862e-12 0 0)
(2.58950748e-12 0 0)
(2.7174972e-12 0 0)
(3.27760746e-12 0 0)
(2.24753287e-12 0 0)
(3.49972194e-12 0 0)
(2.43722287e-12 0 0)
(3.22590628e-12 0 0)
(3.25708189e-12 0 0)
(3.53630968e-12 0 0)
(2.52010051e-12 0 0)
(2.03351537e-12 0 0)
(2.40884152e-12 0 0)
(2.01576096e-12 0 0)
(3.16272642e-12 0 0)
(3.72637841e-12 0 0)
(3.11403922e-12 0 0)
(2.76729554e-12 0 0)
(4.12122516e-12 0 0)
(2.87471208e-12 0 0)
(3.41719406e-12 0 0)
(4.07542549e-12 0 0)
(4.19549595e-12 0 0)
(3.28524501e-12 0 0)
(3.59208601e-12 0 0)
(3.2923266e-12 0 0)
(4.19249704e-12 0 0)
(3.73772254e-12 0 0)
(4.21638879e-12 0 0)
(3.73431036e-12 0 0)
(4.44512634e-12 0 0)
(3.97544012e-12 0 0)
(3.34757897e-12 0 0)
(4.07901783e-12 0 0)
(4.37973403e-12 0 0)
(4.97607319e-12 0 0)
(4.8960153e-12 0 0)
(4.9737372e-12 0 0)
(5.68309639e-12 0 0)
(5.14339298e-12 0 0)
(5.73078559e-12 0 0)
(5.41915257e-12 0 0)
(5.33489113e-12 0 0)
(6.2367087e-12 0 0)
(5.81890298e-12 0 0)
(5.42253824e-12 0 0)
(6.16239985e-12 0 0)
(5.67051907e-12 0 0)
(6.73216146e-12 0 0)
(5.60721563e-12 0 0)
(5.96825293e-12 0 0)
(6.0517275e-12 0 0)
(6.78804293e-12 0 0)
(7.22077691e-12 0 0)
(7.47529804e-12 0 0)
(6.35714126e-12 0 0)
(7.34330779e-12 0 0)
(7.56677508e-12 0 0)
(8.08581555e-12 0 0)
(6.68824747e-12 0 0)
(7.6198754e-12 0 0)
(7.37063864e-12 0 0)
(7.01434864e-12 0 0)
(6.25880936e-12 0 0)
(8.42107814e-12 0 0)
(6.86596631e-12 0 0)
(7.37543223e-12 0 0)
(7.74286308e-12 0 0)
(7.51095067e-12 0 0)
(8.09201531e-12 0 0)
(7.61787593e-12 0 0)
(8.85471624e-12 0 0)
(8.15446729e-12 0 0)
(8.38163977e-12 0 0)
(8.61938329e-12 0 0)
(9.08751603e-12 0 0)
(9.08789317e-12 0 0)
(9.88232591e-12 0 0)
(9.43353996e-12 0 0)
(9.27266564e-12 0 0)
(8.64298854e-12 0 0)
(9.26799557e-12 0 0)
(1.00679743e-11 0 0)
(9.31128783e-12 0 0)
(9.65320468e-12 0 0)
(9.27382046e-12 0 0)
(9.96118562e-12 0 0)
(8.89083832e-12 0 0)
(9.53793818e-12 0 0)
(9.85507067e-12 0 0)
(1.00942177e-11 0 0)
(9.81853658e-12 0 0)
(1.03821285e-11 0 0)
(1.0211225e-11 0 0)
(1.0720695e-11 0 0)
(9.64869726e-12 0 0)
(1.01002764e-11 0 0)
(9.61643577e-12 0 0)
(1.04058302e-11 0 0)
(1.01560674e-11 0 0)
(1.08535297e-11 0 0)
(1.09700199e-11 0 0)
(1.07186331e-11 0 0)
(1.11752492e-11 0 0)
(1.142139e-11 0 0)
(1.08632639e-11 0 0)
(1.15701739e-11 0 0)
(1.1544295e-11 0 0)
(1.05661145e-11 0 0)
(1.07822387e-11 0 0)
(1.13907063e-11 0 0)
(1.03069135e-11 0 0)
(1.0035928e-11 0 0)
(9.97676909e-12 0 0)
(1.07309317e-11 0 0)
(9.51998424e-12 0 0)
(9.79523226e-12 0 0)
(1.01864881e-11 0 0)
(1.06197029e-11 0 0)
(1.07470366e-11 0 0)
(9.78876506e-12 0 0)
(1.01420696e-11 0 0)
(1.0513205e-11 0 0)
(1.0186136e-11 0 0)
(1.1258832e-11 0 0)
(1.04671916e-11 0 0)
(9.73537074e-12 0 0)
(1.10556819e-11 0 0)
(1.08534373e-11 0 0)
(1.12212839e-11 0 0)
(1.16533428e-11 0 0)
(1.19411881e-11 0 0)
(1.26070935e-11 0 0)
(1.11441349e-11 0 0)
(1.16736967e-11 0 0)
(1.19298497e-11 0 0)
(1.14862646e-11 0 0)
(1.25791769e-11 0 0)
(1.19969164e-11 0 0)
(1.17291422e-11 0 0)
(1.20104922e-11 0 0)
(1.17956442e-11 0 0)
(1.0852711e-11 0 0)
(1.10896754e-11 0 0)
(1.25933508e-11 0 0)
(1.29919021e-11 0 0)
(1.14003323e-11 0 0)
(1.20616547e-11 0 0)
(1.04539534e-11 0 0)
(1.08644243e-11 0 0)
(1.09805361e-11 0 0)
(1.06348598e-11 0 0)
(1.15387694e-11 0 0)
(1.02178552e-11 0 0)
(1.06700677e-11 0 0)
(1.01319709e-11 0 0)
(1.01862579e-11 0 0)
(1.00063192e-11 0 0)
(1.06822193e-11 0 0)
(1.02698594e-11 0 0)
(1.07024191e-11 0 0)
(1.02984519e-11 0 0)
(9.61854908e-12 0 0)
(9.55851625e-12 0 0)
(1.05873804e-11 0 0)
(9.33892048e-12 0 0)
(9.51290831e-12 0 0)
(9.6550728e-12 0 0)
(1.00728991e-11 0 0)
(9.32314009e-12 0 0)
(1.01137728e-11 0 0)
(1.0266003e-11 0 0)
(9.6620011e-12 0 0)
(9.75638688e-12 0 0)
(8.93348937e-12 0 0)
(9.13332339e-12 0 0)
(8.64389219e-12 0 0)
(9.23128206e-12 0 0)
(9.87818996e-12 0 0)
(9.03584099e-12 0 0)
(9.00123736e-12 0 0)
(9.98618232e-12 0 0)
(9.79627768e-12 0 0)
(9.85193511e-12 0 0)
(8.43993447e-12 0 0)
(1.02905305e-11 0 0)
(9.9182719e-12 0 0)
(9.26601205e-12 0 0)
(9.73398578e-12 0 0)
(9.4682384e-12 0 0)
(8.86185634e-12 0 0)
(9.16628954e-12 0 0)
(9.53326806e-12 0 0)
(9.36737631e-12 0 0)
(9.64406209e-12 0 0)
(9.39037357e-12 0 0)
(9.789959e-12 0 0)
(9.61526617e-12 0 0)
(9.76482898e-12 0 0)
(1.00756048e-11 0 0)
(9.49337585e-12 0 0)
(9.62385229e-12 0 0)
(9.39757837e-12 0 0)
(9.62399572e-12 0 0)
(1.01087045e-11 0 0)
(1.01308921e-11 0 0)
(9.77715192e-12 0 0)
(1.01269366e-11 0 0)
(1.02099867e-11 0 0)
(9.49927708e-12 0 0)
(9.04475148e-12 0 0)
(1.09924211e-11 0 0)
(1.03354265e-11 0 0)
(9.40732175e-12 0 0)
(9.65196583e-12 0 0)
(9.58257725e-12 0 0)
(1.05600869e-11 0 0)
(1.03657127e-11 0 0)
(9.59910516e-12 0 0)
(9.25507602e-12 0 0)
(9.78598972e-12 0 0)
(9.81142002e-12 0 0)
(9.27838785e-12 0 0)
(9.42848057e-12 0 0)
(9.67466642e-12 0 0)
(9.85912151e-12 0 0)
(9.5295635e-12 0 0)
(9.47542867e-12 0 0)
(1.08280493e-11 0 0)
(9.13821585e-12 0 0)
(9.98172419e-12 0 0)
(9.90554354e-12 0 0)
(1.01896215e-11 0 0)
(9.54814806e-12 0 0)
(9.86164903e-12 0 0)
(1.00836523e-11 0 0)
(9.43712651e-12 0 0)
(9.87468786e-12 0 0)
(9.08769699e-12 0 0)
(9.15831422e-12 0 0)
(9.68927313e-12 0 0)
(9.10417906e-12 0 0)
(9.04552053e-12 0 0)
(9.83751169e-12 0 0)
(8.9638303e-12 0 0)
(9.39428572e-12 0 0)
(9.39507287e-12 0 0)
(9.03771845e-12 0 0)
(8.65284971e-12 0 0)
(9.2728405e-12 0 0)
(8.20745535e-12 0 0)
(9.43301811e-12 0 0)
(8.20230188e-12 0 0)
(7.96686784e-12 0 0)
(8.7153359e-12 0 0)
(9.34280848e-12 0 0)
(8.74825898e-12 0 0)
(8.76544765e-12 0 0)
(9.01242397e-12 0 0)
(1.01996811e-11 0 0)
(8.4980869e-12 0 0)
(8.74277717e-12 0 0)
(8.68419688e-12 0 0)
(8.82746372e-12 0 0)
(8.87794875e-12 0 0)
(8.67714325e-12 0 0)
(9.53965134e-12 0 0)
(8.76112149e-12 0 0)
(8.45142068e-12 0 0)
(9.67111995e-12 0 0)
(9.1781167e-12 0 0)
(8.94804657e-12 0 0)
(8.49083615e-12 0 0)
(9.09882718e-12 0 0)
(9.57755591e-12 0 0)
(8.91295586e-12 0 0)
(9.20157184e-12 0 0)
(1.00233216e-11 0 0)
(8.93759928e-12 0 0)
(9.26913359e-12 0 0)
(8.8042405e-12 0 0)
(8.37496228e-12 0 0)
(9.12791395e-12 0 0)
(8.63211533e-12 0 0)
(9.31303131e-12 0 0)
(8.34601715e-12 0 0)
(9.17588219e-12 0 0)
(8.96018637e-12 0 0)
(8.12455827e-12 0 0)
(9.43100695e-12 0 0)
(8.99273193e-12 0 0)
(7.72872912e-12 0 0)
(8.31125161e-12 0 0)
(7.89368442e-12 0 0)
(9.03364901e-12 0 0)
(8.39615657e-12 0 0)
(8.49704404e-12 0 0)
(8.57785429e-12 0 0)
(9.12998887e-12 0 0)
(8.2940875e-12 0 0)
(7.77957658e-12 0 0)
(7.79873935e-12 0 0)
(8.34921792e-12 0 0)
(8.51963457e-12 0 0)
(6.92499102e-12 0 0)
(8.05155187e-12 0 0)
(7.78618533e-12 0 0)
(8.02235832e-12 0 0)
(7.49827421e-12 0 0)
(7.86520731e-12 0 0)
(7.81803239e-12 0 0)
(7.46466215e-12 0 0)
(7.8882106e-12 0 0)
(8.41675451e-12 0 0)
(7.44755911e-12 0 0)
(8.00220818e-12 0 0)
(9.30908725e-12 0 0)
(8.01716848e-12 0 0)
(8.53185089e-12 0 0)
(7.64752437e-12 0 0)
(8.31599081e-12 0 0)
(7.4092341e-12 0 0)
(8.26209015e-12 0 0)
(7.94838429e-12 0 0)
(8.43192098e-12 0 0)
(8.77398248e-12 0 0)
(9.15226049e-12 0 0)
(9.21822588e-12 0 0)
(8.49885312e-12 0 0)
(9.22647507e-12 0 0)
(7.56825283e-12 0 0)
(8.44466572e-12 0 0)
(8.18370318e-12 0 0)
(8.23249901e-12 0 0)
(8.42581292e-12 0 0)
(7.52324608e-12 0 0)
(7.40109058e-12 0 0)
(9.17489672e-12 0 0)
(7.27525559e-12 0 0)
(8.29002928e-12 0 0)
(7.39574152e-12 0 0)
(8.01031201e-12 0 0)
(8.52409359e-12 0 0)
(7.82489542e-12 0 0)
(7.42814654e-12 0 0)
(8.4875715e-12 0 0)
(7.29472414e-12 0 0)
(8.13245629e-12 0 0)
(7.49994675e-12 0 0)
(8.32713661e-12 0 0)
(7.45634408e-12 0 0)
(7.85823501e-12 0 0)
(8.00864466e-12 0 0)
(7.49615101e-12 0 0)
(8.9601725e-12 0 0)
(7.28263448e-12 0 0)
(7.85934573e-12 0 0)
(7.64328489e-12 0 0)
(8.70643825e-12 0 0)
(7.7029718e-12 0 0)
(7.01650092e-12 0 0)
(8.01848568e-12 0 0)
(6.5246334e-12 0 0)
(7.88836228e-12 0 0)
(6.66461382e-12 0 0)
(7.11011931e-12 0 0)
(7.29240545e-12 0 0)
(6.12687852e-12 0 0)
(7.24167693e-12 0 0)
(6.1586417e-12 0 0)
(7.03396277e-12 0 0)
(6.54943104e-12 0 0)
(6.67286328e-12 0 0)
(6.01770064e-12 0 0)
(6.56642349e-12 0 0)
(6.74878128e-12 0 0)
(5.47686298e-12 0 0)
(5.73464233e-12 0 0)
(6.36373356e-12 0 0)
(4.98677515e-12 0 0)
(6.03196586e-12 0 0)
(5.62876462e-12 0 0)
(5.59130325e-12 0 0)
(4.55608668e-12 0 0)
(4.91466539e-12 0 0)
(4.82784727e-12 0 0)
(4.21355497e-12 0 0)
(4.62771133e-12 0 0)
(3.62000247e-12 0 0)
(4.0925375e-12 0 0)
(4.06813798e-12 0 0)
(4.57863277e-12 0 0)
(3.096694e-12 0 0)
(3.79697658e-12 0 0)
(3.8450345e-12 0 0)
(3.93490383e-12 0 0)
(4.5308681e-12 0 0)
(4.47628426e-12 0 0)
(4.06123009e-12 0 0)
(4.76575742e-12 0 0)
(4.49995426e-12 0 0)
(4.962131e-12 0 0)
(4.20822766e-12 0 0)
(4.0393533e-12 0 0)
(4.56193502e-12 0 0)
(3.69586543e-12 0 0)
(3.33301186e-12 0 0)
(3.84338793e-12 0 0)
(3.82686888e-12 0 0)
(3.83078611e-12 0 0)
(4.60442356e-12 0 0)
(3.91523365e-12 0 0)
(3.91217265e-12 0 0)
(3.13963189e-12 0 0)
(3.25556776e-12 0 0)
(3.03539582e-12 0 0)
(3.85437723e-12 0 0)
(3.06905221e-12 0 0)
(3.42439012e-12 0 0)
(3.25274711e-12 0 0)
(2.33201992e-12 0 0)
(2.7669676e-12 0 0)
(2.59789454e-12 0 0)
(2.50207663e-12 0 0)
(3.16637667e-12 0 0)
(4.23977939e-12 0 0)
(3.83352108e-12 0 0)
(3.75429855e-12 0 0)
(3.82186074e-12 0 0)
(3.84083803e-12 0 0)
(2.80831591e-12 0 0)
(3.25754465e-12 0 0)
(3.11675633e-12 0 0)
(2.18531987e-12 0 0)
(1.68399053e-12 0 0)
(4.4015044e-12 0 0)
(3.24447325e-12 0 0)
(3.24822536e-12 0 0)
(3.13553856e-12 0 0)
(3.51831787e-12 0 0)
(2.77969795e-12 0 0)
(3.17651416e-12 0 0)
(3.29778938e-12 0 0)
(3.10814403e-12 0 0)
(2.73473468e-12 0 0)
(3.31589879e-12 0 0)
(2.65579497e-12 0 0)
(3.23059631e-12 0 0)
(4.18009947e-12 0 0)
(1.97616947e-12 0 0)
(2.0335292e-12 0 0)
(3.46784963e-12 0 0)
(2.42599917e-12 0 0)
(2.2879765e-12 0 0)
(3.16143422e-12 0 0)
(2.16539966e-12 0 0)
(1.8882033e-12 0 0)
(2.52178977e-12 0 0)
(2.05199922e-12 0 0)
(2.98232132e-12 0 0)
(1.42123812e-12 0 0)
(1.58677839e-12 0 0)
(1.49884181e-12 0 0)
(2.02883891e-12 0 0)
(1.3352384e-12 0 0)
(6.40757703e-13 0 0)
(6.74441536e-13 0 0)
(6.87175404e-14 0 0)
(5.26702714e-13 0 0)
(-1.6119297e-13 0 0)
(3.6042163e-13 0 0)
(-1.10434547e-13 0 0)
(-8.43747562e-13 0 0)
(2.71702306e-13 0 0)
(-8.90565227e-13 0 0)
(-7.72582855e-13 0 0)
(-1.10595288e-13 0 0)
(-1.7097501e-12 0 0)
(-7.24492137e-14 0 0)
(-1.80801561e-12 0 0)
(-1.55475546e-12 0 0)
(-2.72188949e-12 0 0)
(-2.33445564e-12 0 0)
(-2.25407626e-12 0 0)
(-2.28526178e-12 0 0)
(-2.91761474e-12 0 0)
(-3.93141068e-12 0 0)
(-2.91418556e-12 0 0)
(-3.59229347e-12 0 0)
(-3.73159665e-12 0 0)
(-2.5871284e-12 0 0)
(-3.30414564e-12 0 0)
(-3.10030762e-12 0 0)
(-2.8410321e-12 0 0)
(-3.26341434e-12 0 0)
(-2.90161238e-12 0 0)
(-3.83518727e-12 0 0)
(-3.31180312e-12 0 0)
(-3.49755333e-12 0 0)
(-3.69983216e-12 0 0)
(-3.30438722e-12 0 0)
(-4.28749118e-12 0 0)
(-3.62032126e-12 0 0)
(-3.20193005e-12 0 0)
(-3.74467288e-12 0 0)
(-4.49956341e-12 0 0)
(-4.77729366e-12 0 0)
(-4.26379934e-12 0 0)
(-5.15911849e-12 0 0)
(-4.03351227e-12 0 0)
(-3.65275966e-12 0 0)
(-4.98269555e-12 0 0)
(-3.54395003e-12 0 0)
(-5.33307027e-12 0 0)
(-4.0761917e-12 0 0)
(-4.12918819e-12 0 0)
(-4.92878029e-12 0 0)
(-4.01419869e-12 0 0)
(-5.28650881e-12 0 0)
(-5.4330413e-12 0 0)
(-4.61430585e-12 0 0)
(-4.13694064e-12 0 0)
(-5.42266298e-12 0 0)
(-4.88548683e-12 0 0)
(-3.87014154e-12 0 0)
(-4.25554524e-12 0 0)
(-4.33229585e-12 0 0)
(-5.01505141e-12 0 0)
(-5.01821985e-12 0 0)
(-5.53621893e-12 0 0)
(-5.43810274e-12 0 0)
(-5.71468363e-12 0 0)
(-6.4372556e-12 0 0)
(-6.29140147e-12 0 0)
(-5.79306752e-12 0 0)
(-6.17703002e-12 0 0)
(-7.10047827e-12 0 0)
(-5.94513138e-12 0 0)
(-6.54068227e-12 0 0)
(-6.3834366e-12 0 0)
(-6.31941864e-12 0 0)
(-6.61255699e-12 0 0)
(-7.17618106e-12 0 0)
(-7.39021479e-12 0 0)
(-7.44654914e-12 0 0)
(-6.61834094e-12 0 0)
(-8.06187674e-12 0 0)
(-6.71950811e-12 0 0)
(-6.0444318e-12 0 0)
(-8.02525254e-12 0 0)
(-9.48336078e-12 0 0)
(-8.93534962e-12 0 0)
(-8.90076217e-12 0 0)
(-9.61694855e-12 0 0)
(-9.28985014e-12 0 0)
(-9.26716606e-12 0 0)
(-9.4294615e-12 0 0)
(-1.10213783e-11 0 0)
(-1.00943451e-11 0 0)
(-1.02294909e-11 0 0)
(-9.97874665e-12 0 0)
(-1.00517895e-11 0 0)
(-1.03617244e-11 0 0)
(-1.0943796e-11 0 0)
(-1.02497185e-11 0 0)
(-1.14732826e-11 0 0)
(-9.70833409e-12 0 0)
(-1.09971714e-11 0 0)
(-1.08423372e-11 0 0)
(-1.05228966e-11 0 0)
(-9.76945023e-12 0 0)
(-9.97096588e-12 0 0)
(-9.87333422e-12 0 0)
(-1.01348222e-11 0 0)
(-9.62605886e-12 0 0)
(-9.94920166e-12 0 0)
(-1.01429962e-11 0 0)
(-1.02576666e-11 0 0)
(-9.7741151e-12 0 0)
(-1.05347205e-11 0 0)
(-1.06685325e-11 0 0)
(-9.47560675e-12 0 0)
(-1.0601783e-11 0 0)
(-1.02142004e-11 0 0)
(-1.02752926e-11 0 0)
(-9.57266722e-12 0 0)
(-9.82568717e-12 0 0)
(-1.00311886e-11 0 0)
(-1.07338209e-11 0 0)
(-9.73107012e-12 0 0)
(-9.93864441e-12 0 0)
(-9.75745882e-12 0 0)
(-9.98628892e-12 0 0)
(-9.33437082e-12 0 0)
(-9.54285448e-12 0 0)
(-1.05550782e-11 0 0)
(-9.72089146e-12 0 0)
(-1.03380467e-11 0 0)
(-9.17367859e-12 0 0)
(-8.73384653e-12 0 0)
(-8.77682576e-12 0 0)
(-8.74520149e-12 0 0)
(-9.38359641e-12 0 0)
(-9.65465896e-12 0 0)
(-7.98371182e-12 0 0)
(-8.49269928e-12 0 0)
(-8.5389616e-12 0 0)
(-8.76057632e-12 0 0)
(-8.1596969e-12 0 0)
(-8.47662344e-12 0 0)
(-8.61308986e-12 0 0)
(-8.890715e-12 0 0)
(-7.92718664e-12 0 0)
(-8.62005584e-12 0 0)
(-8.23317644e-12 0 0)
(-7.74234076e-12 0 0)
(-9.06306451e-12 0 0)
(-8.95097895e-12 0 0)
(-9.03016378e-12 0 0)
(-9.29867493e-12 0 0)
(-8.50087171e-12 0 0)
(-9.82028906e-12 0 0)
(-9.31204063e-12 0 0)
(-9.56251058e-12 0 0)
(-1.05525578e-11 0 0)
(-9.59215322e-12 0 0)
(-1.01204879e-11 0 0)
(-9.92947103e-12 0 0)
(-9.44373107e-12 0 0)
(-9.8625109e-12 0 0)
(-9.59924944e-12 0 0)
(-9.07387741e-12 0 0)
(-9.12603032e-12 0 0)
(-8.4957022e-12 0 0)
(-9.06262309e-12 0 0)
(-9.34706623e-12 0 0)
(-9.12668609e-12 0 0)
(-9.35376758e-12 0 0)
(-9.16876439e-12 0 0)
(-8.95811685e-12 0 0)
(-9.38700936e-12 0 0)
(-9.28379299e-12 0 0)
(-9.57907066e-12 0 0)
(-9.97627757e-12 0 0)
(-9.21012675e-12 0 0)
(-9.46708026e-12 0 0)
(-8.75399594e-12 0 0)
(-9.65484188e-12 0 0)
(-9.84883833e-12 0 0)
(-9.57205288e-12 0 0)
(-9.8182909e-12 0 0)
(-9.07521036e-12 0 0)
(-9.83444909e-12 0 0)
(-8.93744514e-12 0 0)
(-9.75006294e-12 0 0)
(-9.73889362e-12 0 0)
(-9.96023133e-12 0 0)
(-9.94025854e-12 0 0)
(-1.13915771e-11 0 0)
(-1.02420473e-11 0 0)
(-1.10201213e-11 0 0)
(-1.11280018e-11 0 0)
(-1.0489485e-11 0 0)
(-1.05336671e-11 0 0)
(-1.06430688e-11 0 0)
(-1.12739085e-11 0 0)
(-1.01791901e-11 0 0)
(-1.0787542e-11 0 0)
(-1.06920664e-11 0 0)
(-1.00244897e-11 0 0)
(-9.98789179e-12 0 0)
(-9.96358309e-12 0 0)
(-1.10832909e-11 0 0)
(-9.1294965e-12 0 0)
(-9.91536226e-12 0 0)
(-1.0791537e-11 0 0)
(-1.09538359e-11 0 0)
(-1.11051763e-11 0 0)
(-1.00244158e-11 0 0)
(-1.00709445e-11 0 0)
(-1.02416041e-11 0 0)
(-1.11114926e-11 0 0)
(-1.064471e-11 0 0)
(-1.01955021e-11 0 0)
(-1.11203052e-11 0 0)
(-1.02784049e-11 0 0)
(-9.93340565e-12 0 0)
(-1.00568266e-11 0 0)
(-1.0259201e-11 0 0)
(-9.12901204e-12 0 0)
(-1.02178339e-11 0 0)
(-9.28650119e-12 0 0)
(-9.50279041e-12 0 0)
(-9.85275309e-12 0 0)
(-1.01501055e-11 0 0)
(-1.0354102e-11 0 0)
(-1.05006537e-11 0 0)
(-9.70859979e-12 0 0)
(-1.00625063e-11 0 0)
(-1.00778612e-11 0 0)
(-9.11033091e-12 0 0)
(-9.44898649e-12 0 0)
(-1.00132908e-11 0 0)
(-9.59066063e-12 0 0)
(-9.70041319e-12 0 0)
(-1.05598864e-11 0 0)
(-9.93453984e-12 0 0)
(-1.01955322e-11 0 0)