/*--------------------------------*- C++ -*----------------------------------*\
| =========                 |                                                 |
| \\      /  F ield         | OpenFOAM: The Open Source CFD Toolbox           |
|  \\    /   O peration     | Version:  2206                                  |
|   \\  /    A nd           | Website:  www.openfoam.com                      |
|    \\/     M anipulation  |                                                 |
\*---------------------------------------------------------------------------*/
FoamFile
{
    version     2.0;
    format      ascii;
    arch        "LSB;label=32;scalar=64";
    class       volScalarField;
    location    "1.64e-05";
    object      p;
}
// * * * * * * * * * * * * * * * * * * * * * * * * * * * * * * * * * * * * * //

dimensions      [1 -1 -2 0 0 0 0];

internalField   nonuniform List<scalar> 
3183
(
101325
101325
101325
101325
101325
101325
101325
101325
101325
101325
101325
101325
101325
101325
101325
101325
101325
101325
101325
101325
101325
101325
101325
101325
101325
101325
101325
101325
101325
101325
101325
101325
101325
101325
101325
101325
101325
101325
101325
101325
101325
101325
101325
101325
101325
101325
101325
101325
101325
101325
101325
101325
101325
101325
101325
101325
101325
101325
101325
101325
101325
101325
101325
101325
101325
101325
101325
101325
101325
101325
101325
101325
101325
101325
101325
101325
101325
101325
101325
101325
101325
101325
101325
101325
101325
101325
101325
101325
101325
101325
101325
101325
101325
101325
101325
101325
101325
101325
101325
101325
101325
101325
101325
101325
101325
101325
101325
101325
101325
101325
101325
101325
101325
101325
101325
101325
101325
101325
101325
101325
101325
101325
101325
101325
101325
101325
101325
101325
101325
101325
101325
101325
101325
101325
101325
101325
101325
101325
101325
101325
101325
101325
101325
101325
101325
101325
101325
101325
101325
101325
101325
101325
101325
101325
101325
101325
101325
101325
101325
101325
101325
101325
101325
101325
101325
101325
101325
101325
101325
101325
101325
101325
101325
101325
101325
101325
101325
101325
101325
101325
101325
101325
101325
101325
101325
101325
101325
101325
101325
101325
101325
101325
101325
101325
101325
101325
101325
101325
101325
101325
101325
101325
101325
101325
101325
101325
101325
101325
101325
101325
101325
101325
101325
101325
101325
101325
101325
101325
101325
101325
101325
101325
101325
101325
101325
101325
101325
101325
101325
101325
101325
101325
101325
101325
101325
101325
101325
101325
101325
101325
101325
101325
101325
101325
101325
101325
101325
101325
101325
101325
101325
101325
101325
101325
101325
101325
101325
101325
101325
101325
101325
101325
101325
101325
101325
101325
101325
101325
101325
101325
101325
101325
101325
101325
101325
101325
101325
101325
101325
101325
101325
101325
101325
101325
101325
101325
101325
101325
101325
101325
101325
101325
101325
101325
101325
101325
101325
101325
101325
101325
101325
101325
101325
101325
101325
101325
101325
101325
101325
101325
101325
101325
101325
101325
101325
101325
101325
101325
101325
101325
101325
101325
101325
101325
101325
101325
101325
101325
101325
101325
101325
101325
101325
101325
101325
101325
101325
101325
101325
101325
101325
101325
101325
101325
101325
101325
101325
101325
101325
101325
101325
101325
101325
101325
101325
101325
101325
101325
101325
101325
101325
101325
101325
101325
101325
101325
101325
101325
101325
101325
101325
101325
101325
101325
101325
101325
101325
101325
101325
101325
101325
101325
101325
101325
101325
101325
101325
101325
101325
101325
101325
101325
101325
101325
101325
101325
101325
101325
101325
101325
101325
101325
101325
101325
101325
101325
101325
101325
101325
101325
101325
101325
101325
101325
101325
101325
101325
101325
101325
101325
101325
101325
101325
101325
101325
101325
101325
101325
101325
101325
101325
101325
101325
101325
101325
101325
101325
101325
101325
101325
101325
101325
101325
101325
101325
101325
101325
101325
101325
101325
101325
101325
101325
101325
101325
101325
101325
101325
101325
101325
101325
101325
101325
101325
101325
101325
101325
101325
101325
101325
101325
101325
101325
101325
101325
101325
101325
101325
101325
101325
101325
101325
101325
101325
101325
101325
101325
101325
101325
101325
101325
101325
101325
101325
101325
101325
101325
101325
101325
101325
101325
101325
101325
101325
101325
101325
101325
101325
101325
101325
101325
101325
101325
101325
101325
101325
101325
101325
101325
101325
101325
101325
101325
101325
101325
101325
101325
101325
101325
101325
101325
101325
101325
101325
101325
101325
101325
101325
101325
101325
101325
101325
101325
101325
101325
101325
101325
101325
101325
101325
101325
101325
101325
101325
101325
101325
101325
101325
101325
101325
101325
101325
101325
101325
101325
101325
101325
101325
101325
101325
101325
101325
101325
101325
101325
101325
101325
101325
101325
101325
101325
101325
101325
101325
101325
101325
101325
101325
101325
101325
101325
101325
101325
101325
101325
101325
101325
101325
101325
101325
101325
101325
101325
101325
101325
101325
101325
101325
101325
101325
101325
101325
101325
101325
101325
101325
101325
101325
101325
101325
101325
101325
101325
101325
101325
101325
101325
101325
101325
101325
101325
101325
101325
101325
101325
101325
101325
101325
101325
101325
101325
101325
101325
101325
101325
101325
101325
101325
101325
101325
101325
101325
101325
101325
101325
101325
101325
101325
101325
101325
101325
101325
101325
101325
101325
101325
101325
101325
101325
101325
101325
101325
101325
101325
101325
101325
101325
101325
101325
101325
101325
101325
101325
101325
101325
101325
101325
101325
101325
101325
101325
101325
101325
101325
101325
101325
101325
101325
101325
101325
101325
101325
101325
101325
101325
101325
101325
101325
101325
101325
101325
101325
101325
101325
101325
101325
101325
101325
101325
101325
101325
101325
101325
101325
101325
101325
101325
101325
101325
101325
101325
101325
101325
101325
101325
101325
101325
101325
101325
101325
101325
101325
101325
101325
101325
101325
101325
101325
101325
101325
101325
101325
101325
101325
101325
101325
101325
101325
101325
101325
101325
101325
101325
101325
101325
101325
101325
101325
101325
101325
101325
101325
101325
101325
101325
101325
101325
101325
101325
101325
101325
101325
101325
101325
101325
101325
101325
101325
101325
101325
101325
101325
101325
101325
101325
101325
101325
101325
101325
101325
101325
101325
101325
101325
101325
101325
101325
101325
101325
101325
101325
101325
101325
101325
101325
101325
101325
101325
101325
101325
101325
101325
101325
101325
101325
101325
101325
101325
101325
101325
101325
101325
101325
101325
101325
101325
101325
101325
101325
101325
101325
101325
101325
101325
101325
101325
101325
101325
101325
101325
101325
101325
101325
101325
101325
101325
101325
101325
101325
101325
101325
101325
101325
101325
101325
101325
101325
101325
101325
101325
101325
101325
101325
101325
101325
101325
101325
101325
101325
101325
101325
101325
101325
101325
101325
101325
101325
101325
101325
101325
101325
101325
101325
101325
101325
101325
101325
101325
101325
101325
101325
101325
101325
101325
101325
101325
101325
101325
101325
101325
101325
101325
101325
101325
101325
101325
101325
101325
101325
101325
101325
101325
101325
101325
101325
101325
101325
101325
101325
101325
101325
101325
101325
101325
101325
101325
101325
101325
101325
101325
101325
101325
101325
101325
101325
101325
101325
101325
101325
101325
101325
101325
101325
101325
101325
101325
101325
101325
101325
101325
101325
101325
101325
101325
101325
101325
101325
101325
101325
101325
101325
101325
101325
101325
101325
101325
101325
101325
101325
101325
101325
101325
101325
101325
101325
101325
101325
101325
101325
101325
101325
101325
101325
101325
101325
101325
101325
101325
101325
101325
101325
101325
101325
101325
101325
101325
101325
101325
101325
101325
101325
101325
101325
101325
101325
101325
101325
101325
101325
101325
101325
101325
101325
101325
101325
101325
101325
101325
101325
101325
101325
101325
101325
101325
101325
101325
101325
101325
101325
101325
101325
101325
101325
101325
101325
101325
101325
101325
101325
101325
101325
101325
101325
101325
101325
101325
101325
101325
101325
101325
101325
101325
101325
101325
101325
101325
101325
101325
101325
101325
101325
101325
101325
101325
101325
101325
101325
101325
101325
101325
101325
101325
101325
101325
101325
101325
101325
101325
101325
101325
101325
101325
101325
101325
101325
101325
101325
101325
101325
101325
101325
101325
101325
101325
101325
101325
101325
101325
101325
101325
101325
101325
101325
101325
101325
101325
101325
101325
101325
101325
101325
101325
101325
101325
101325
101325
101325
101325
101325
101325
101325
101325
101325
101325
101325
101325
101325
101325
101325
101325
101325
101325
101325
101325
101325
101325
101325
101325
101325
101325
101325
101325
101325
101325
101325
101325
101325
101325
101325
101325
101325
101325
101325
101325
101325
101325
101325
101325
101325
101325
101325
101325
101325
101325
101325
101325
101325
101325
101325
101325
101325
101325
101325
101325
101325
101325
101325
101325
101325
101325
101325
101325
101325
101325
101325
101325
101325
101325
101325
101325
101325
101325
101325
101325
101325
101325
101325
101325
101325
101325
101325
101325
101325
101325
101325
101325
101325
101325
101325
101325
101325
101325
101325
101325
101325
101325
101325
101325
101325
101325
101325
101325
101325
101325
101325
101325
101325
101325
101325
101325
101325
101325
101325
101325
101325
101325
101325
101325
101325
101325
101325
101325
101325
101325
101325
101325
101325
101325
101325
101325
101325
101325
101325
101325
101325
101325
101325
101325
101325
101325
101325
101325
101325
101325
101325
101325
101325
101325
101325
101325
101325
101325
101325
101325
101325
101325
101325
101325
101325
101325
101325
101325
101325
101325
101325
101325
101325
101325
101325
101325
101325
101325
101325
101325
101325
101325
101325
101325
101325
101325
101325
101325
101325
101325
101325
101325
101325
101325
101325
101325
101325
101325
101325
101325
101325
101325
101325
101325
101325
101325
101325
101325
101325
101325
101325
101325
101325
101325
101325
101325
101325
101325
101325
101325
101325
101325
101325
101325
101325
101325
101325
101325
101325
101325
101325
101325
101325
101325
101325
101325
101325
101325
101325
101325
101325
101325
101325
101325
101325
101325
101325
101325
101325
101325
101325
101325
101325
101325
101325
101325
101325
101325
101325
101325
101325
101325
101325
101325
101325
101325
101325
101325
101325
101325
101325
101325
101325
101325
101325
101325
101325
101325
101325
101325
101325
101325
101325
101325
101325
101325
101325
101325
101325
101325
101325
101325
101325
101325
101325
101325
101325
101325
101325
101325
101325
101325
101325
101325
101325
101325
101325
101325
101325
101325
101325
101325
101325
101325
101325
101325
101325
101325
101325
101325
101325
101325
101325
101325
101325
101325
101325
101325
101325
101325
101325
101325
101325
101325
101325
101325
101325
101325
101325
101325
101325
101325
101325
101325
101325
101325
101325
101325
101325
101325
101325
101325
101325
101325
101325
101325
101325
101325
101325
101325
101325
101325
101325
101325
101325
101325
101325
101325
101325
101325
101325
101325
101325
101325
101325
101325
101325
101325
101325
101325
101325
101325
101325
101325
101325
101325
101325
101325
101325
101325
101325
101325
101325
101325
101325
101325
101325
101325
101325
101325
101325
101325
101325
101325
101325
101325
101325
101325
101325
101325
101325
101325
101325
101325
101325
101325
101325
101325
101325
101325
101325
101325
101325
101325
101325
101325
101325
101325
101325
101325
101325
101325
101325
101325
101325
101325
101325
101325
101325
101325
101325
101325
101325
101325
101325
101325
101325
101325
101325
101325
101325
101325
101325
101325
101325
101325
101325
101325
101325
101325
101325
101325
101325
101325
101325
101325
101325
101325
101325
101325
101325
101325
101325
101325
101325
101325
101325
101325
101325
101325
101325
101325
101325
101325
101325
101325
101325
101325
101325
101325
101325
101325
101325
101325
101325
101325
101325
101325
101325
101325
101325
101325
101325
101325
101325
101325
101325
101325
101325
101325
101325
101325
101325
101325
101325
101325
101325
101325
101325
101325
101325
101325
101325
101325
101325
101325
101325
101325
101325
101325
101325
101325
101325
101325
101325
101325
101325
101325
101325
101325
101325
101325
101325
101325
101325
101325
101325
101325
101325
101325
101325
101325
101325
101325
101325
101325
101325
101325
101325
101325
101325
101325
101325
101325
101325
101325
101325
101325
101325
101325
101325
101325
101325
101325
101325
101325
101325
101325
101325
101325
101325
101325
101325
101325
101325
101325
101325
101325
101325
101325
101325
101325
101325
101325
101325
101325
101325
101325
101325
101325
101325
101325
101325
101325
101325
101325
101325
101325
101325
101325
101325
101325
101325
101325
101325
101325
101325
101325
101325
101325
101325
101325
101325
101325
101325
101325
101325
101325
101325
101325
101325
101325
101325
101325
101325
101325
101325
101325
101325
101325
101325
101325
101325
101325
101325
101325
101325
101325
101325
101325
101325
101325
101325
101325
101325
101325
101325
101325
101325
101325
101325
101325
101325
101325
101325
101325
101325
101325
101325
101325
101325
101325
101325
101325
101325
101325
101325
101325
101325
101325
101324.999
101324.999
101324.999
101324.999
101324.999
101324.999
101324.999
101324.999
101324.999
101324.999
101324.999
101324.999
101324.999
101324.999
101324.999
101324.999
101324.999
101324.999
101324.999
101324.998
101324.998
101324.998
101324.998
101324.998
101324.998
101324.998
101324.998
101324.998
101324.997
101324.997
101324.997
101324.997
101324.997
101324.997
101324.996
101324.996
101324.996
101324.996
101324.995
101324.995
101324.995
101324.995
101324.994
101324.994
101324.994
101324.993
101324.993
101324.993
101324.992
101324.992
101324.991
101324.991
101324.99
101324.99
101324.989
101324.989
101324.988
101324.987
101324.987
101324.986
101324.985
101324.984
101324.984
101324.983
101324.982
101324.981
101324.98
101324.979
101324.978
101324.976
101324.975
101324.974
101324.973
101324.971
101324.97
101324.968
101324.967
101324.965
101324.963
101324.961
101324.959
101324.957
101324.955
101324.953
101324.95
101324.948
101324.945
101324.943
101324.94
101324.937
101324.934
101324.93
101324.927
101324.923
101324.92
101324.916
101324.912
101324.908
101324.903
101324.899
101324.894
101324.889
101324.884
101324.878
101324.872
101324.866
101324.86
101324.854
101324.847
101324.84
101324.833
101324.825
101324.817
101324.809
101324.8
101324.791
101324.782
101324.772
101324.762
101324.751
101324.74
101324.729
101324.717
101324.705
101324.692
101324.679
101324.665
101324.651
101324.636
101324.62
101324.604
101324.587
101324.57
101324.552
101324.533
101324.514
101324.494
101324.473
101324.452
101324.429
101324.406
101324.382
101324.357
101324.332
101324.305
101324.277
101324.249
101324.219
101324.189
101324.157
101324.125
101324.091
101324.056
101324.02
101323.983
101323.944
101323.904
101323.863
101323.821
101323.777
101323.732
101323.686
101323.638
101323.588
101323.537
101323.485
101323.431
101323.375
101323.317
101323.258
101323.197
101323.134
101323.07
101323.003
101322.935
101322.865
101322.793
101322.719
101322.642
101322.564
101322.483
101322.401
101322.316
101322.229
101322.14
101322.048
101321.954
101321.858
101321.759
101321.658
101321.554
101321.448
101321.339
101321.228
101321.114
101320.997
101320.878
101320.756
101320.631
101320.504
101320.373
101320.24
101320.104
101319.965
101319.823
101319.679
101319.531
101319.381
101319.227
101319.071
101318.911
101318.749
101318.583
101318.415
101318.243
101318.069
101317.891
101317.711
101317.527
101317.34
101317.151
101316.958
101316.762
101316.564
101316.362
101316.158
101315.95
101315.74
101315.527
101315.31
101315.092
101314.87
101314.646
101314.419
101314.189
101313.957
101313.722
101313.485
101313.245
101313.003
101312.758
101312.512
101312.263
101312.012
101311.759
101311.504
101311.247
101310.988
101310.728
101310.466
101310.203
101309.938
101309.672
101309.404
101309.136
101308.866
101308.595
101308.324
101308.052
101307.78
101307.507
101307.233
101306.96
101306.686
101306.413
101306.139
101305.866
101305.594
101305.322
101305.05
101304.78
101304.51
101304.242
101303.975
101303.709
101303.445
101303.183
101302.922
101302.663
101302.407
101302.152
101301.9
101301.651
101301.404
101301.16
101300.919
101300.681
101300.447
101300.215
101299.988
101299.763
101299.543
101299.326
101299.114
101298.905
101298.701
101298.501
101298.306
101298.115
101297.928
101297.747
101297.57
101297.399
101297.232
101297.071
101296.915
101296.764
101296.619
101296.479
101296.345
101296.216
101296.093
101295.975
101295.863
101295.757
101295.657
101295.563
101295.475
101295.392
101295.316
101295.245
101295.18
101295.121
101295.068
101295.022
101294.98
101294.945
101294.916
101294.892
101294.874
101294.862
101294.856
101294.855
101294.86
101294.87
101294.886
101294.907
101294.934
101294.965
101295.002
101295.044
101295.091
101295.142
101295.199
101295.26
101295.325
101295.395
101295.47
101295.548
101295.631
101295.717
101295.808
101295.902
101295.999
101296.1
101296.205
101296.312
101296.423
101296.537
101296.653
101296.772
101296.893
101297.017
101297.143
101297.272
101297.402
101297.534
101297.667
101297.803
101297.939
101298.077
101298.216
101298.357
101298.498
101298.64
101298.782
101298.925
101299.069
101299.212
101299.356
101299.5
101299.644
101299.788
101299.932
101300.075
101300.218
101300.36
101300.502
101300.643
101300.783
101300.923
101301.061
101301.199
101301.335
101301.47
101301.604
101301.737
101301.868
101301.998
101302.127
101302.254
101302.38
101302.504
101302.626
101302.747
101302.866
101302.984
101303.1
101303.214
101303.327
101303.437
101303.546
101303.654
101303.759
101303.863
101303.965
101304.065
101304.163
101304.26
101304.355
101304.449
101304.54
101304.63
101304.718
101304.805
101304.89
101304.974
101305.055
101305.136
101305.215
101305.292
101305.368
101305.442
101305.515
101305.587
101305.657
101305.726
101305.794
101305.86
101305.926
101305.99
101306.053
101306.115
101306.176
101306.235
101306.294
101306.352
101306.409
101306.465
101306.52
101306.575
101306.628
101306.681
101306.733
101306.784
101306.835
101306.885
101306.934
101306.983
101307.032
101307.079
101307.126
101307.173
101307.219
101307.265
101307.311
101307.356
101307.4
101307.445
101307.489
101307.532
101307.575
101307.618
101307.661
101307.703
101307.746
101307.787
101307.829
101307.87
101307.912
101307.953
101307.993
101308.034
101308.074
101308.114
101308.154
101308.194
101308.233
101308.272
101308.311
101308.35
101308.389
101308.427
101308.465
101308.503
101308.54
101308.578
101308.615
101308.652
101308.689
101308.725
101308.761
101308.797
101308.832
101308.867
101308.902
101308.937
101308.971
101309.005
101309.038
101309.071
101309.104
101309.137
101309.169
101309.2
101309.231
101309.262
101309.293
101309.323
101309.352
101309.381
101309.41
101309.438
101309.466
101309.493
101309.52
101309.547
101309.573
101309.598
101309.624
101309.648
101309.672
101309.696
101309.72
101309.743
101309.765
101309.787
101309.809
101309.83
101309.851
101309.871
101309.891
101309.911
101309.93
101309.949
101309.968
101309.986
101310.004
101310.022
101310.039
101310.057
101310.073
101310.09
101310.107
101310.123
101310.139
101310.155
101310.17
101310.186
101310.201
101310.217
101310.232
101310.247
101310.262
101310.277
101310.292
101310.307
101310.323
101310.338
101310.353
101310.368
101310.383
101310.399
101310.414
101310.43
101310.445
101310.461
101310.477
101310.493
101310.51
101310.526
101310.543
101310.56
101310.577
101310.594
101310.612
101310.629
101310.647
101310.666
101310.684
101310.703
101310.721
101310.74
101310.76
101310.779
101310.799
101310.818
101310.838
101310.859
101310.879
101310.9
101310.92
101310.941
101310.962
101310.983
101311.004
101311.025
101311.047
101311.068
101311.089
101311.111
101311.132
101311.154
101311.175
101311.196
101311.218
101311.239
101311.26
101311.281
101311.302
101311.323
101311.344
101311.364
101311.385
101311.405
101311.425
101311.444
101311.464
101311.483
101311.502
101311.521
101311.54
101311.558
101311.576
101311.594
101311.611
101311.629
101311.645
101311.662
101311.678
101311.695
101311.71
101311.726
101311.741
101311.756
101311.771
101311.785
101311.8
101311.814
101311.827
101311.841
101311.854
101311.867
101311.88
101311.893
101311.905
101311.917
101311.929
101311.941
101311.953
101311.965
101311.976
101311.988
101311.999
101312.01
101312.021
101312.032
101312.043
101312.054
101312.064
101312.075
101312.086
101312.096
101312.107
101312.117
101312.128
101312.138
101312.148
101312.158
101312.169
101312.179
101312.189
101312.199
101312.209
101312.219
101312.229
101312.239
101312.249
101312.259
101312.269
101312.279
101312.289
101312.298
101312.308
101312.317
101312.327
101312.336
101312.346
101312.355
101312.364
101312.373
101312.382
101312.391
101312.4
101312.409
101312.418
101312.427
101312.435
101312.444
101312.452
101312.461
101312.469
101312.477
101312.485
101312.494
101312.502
101312.51
101312.518
101312.526
101312.534
101312.542
101312.55
101312.558
101312.566
101312.574
101312.582
101312.59
101312.599
101312.607
101312.615
101312.624
101312.632
101312.641
101312.65
101312.658
101312.667
101312.676
101312.685
101312.695
101312.704
101312.713
101312.723
101312.732
101312.742
101312.752
101312.761
101312.771
101312.781
101312.79
101312.8
101312.81
101312.819
101312.829
101312.838
101312.847
101312.856
101312.865
101312.874
101312.883
101312.891
101312.9
101312.908
101312.916
101312.925
101312.933
101312.941
101312.95
101312.959
101312.969
101312.979
101312.99
101313.002
101313.015
101313.031
101313.048
101313.068
101313.091
101313.118
101313.149
101313.185
101313.228
101313.278
101313.336
101313.404
101313.484
101313.577
101313.686
101313.813
101313.961
101314.133
101314.333
101314.565
101314.835
101315.148
101315.511
101315.933
101316.429
101317.009
101316.941
101316.502
101316.033
101315.576
101314.819
101314.517
101314.326
101314.263
101314.171
101314.129
101314.053
101314.01
101313.941
101313.885
101313.816
101313.755
101313.694
101313.638
101313.586
101313.538
101313.494
101313.454
101313.417
101313.384
101313.352
101313.324
101313.297
101313.273
101313.251
101313.23
101313.211
101313.193
101313.177
101313.161
101313.147
101313.134
101313.122
101313.11
101313.1
101313.09
101313.081
101313.072
101313.064
101313.057
101313.05
101313.043
101313.037
101313.031
101313.025
101313.02
101313.015
101313.01
101313.005
101313.001
101312.997
101312.992
101312.988
101312.984
101312.981
101312.977
101312.973
101312.97
101312.966
101312.962
101312.959
101312.955
101312.952
101312.948
101312.945
101312.941
101312.937
101312.934
101312.93
101312.926
101312.922
101312.919
101312.915
101312.911
101312.907
101312.903
101312.899
101312.894
101312.89
101312.886
101312.882
101312.877
101312.873
101312.869
101312.864
101312.859
101312.855
101312.85
101312.846
101312.841
101312.836
101312.831
101312.827
101312.822
101312.817
101312.812
101312.807
101312.802
101312.797
101312.792
101312.788
101312.783
101312.778
101312.773
101312.768
101312.763
101312.758
101312.753
101312.748
101312.743
101312.739
101312.734
101312.729
101312.724
101312.719
101312.715
101312.71
101312.705
101312.701
101312.696
101312.691
101312.687
101312.682
101312.678
101312.673
101312.669
101312.664
101312.66
101312.655
101312.651
101312.647
101312.642
101312.638
101312.634
101312.629
101312.625
101312.621
101312.617
101312.613
101312.609
101312.604
101312.6
101312.596
101312.592
101312.588
101312.584
101312.58
101312.576
101312.572
101312.568
101312.564
101312.56
101312.556
101312.552
101312.548
101312.544
101312.54
101312.536
101312.532
101312.528
101312.524
101312.52
101312.516
101312.512
101312.508
101312.504
101312.5
101312.496
101312.492
101312.487
101312.483
101312.479
101312.475
101312.471
101312.467
101312.462
101312.458
101312.454
101312.449
101312.445
101312.441
101312.436
101312.432
101312.428
101312.423
101312.419
101312.414
101312.41
101312.405
101312.401
101312.396
101312.392
101312.387
101312.382
101312.378
101312.373
101312.368
101312.364
101312.359
101312.354
101312.349
101312.345
101312.34
101312.335
101312.33
101312.325
101312.32
101312.315
101312.31
101312.305
101312.3
101312.295
101312.29
101312.285
101312.28
101312.275
101312.27
101312.265
101312.259
101312.254
101312.249
101312.244
101312.239
101312.233
101312.228
101312.223
101312.217
101312.212
101312.207
101312.201
101312.196
101312.191
101312.185
101312.18
101312.175
101312.169
101312.164
101312.158
101312.153
101312.147
101312.142
101312.136
101312.131
101312.125
101312.119
101312.114
101312.108
101312.103
101312.097
101312.091
101312.086
101312.08
101312.074
101312.069
101312.063
101312.057
101312.051
101312.045
101312.04
101312.034
101312.028
101312.022
101312.016
101312.01
101312.004
101311.998
101311.992
101311.986
101311.98
101311.974
101311.968
101311.961
101311.955
101311.949
101311.943
101311.936
101311.93
101311.924
101311.917
101311.911
101311.904
101311.898
101311.891
101311.884
101311.878
101311.871
101311.864
101311.857
101311.85
101311.844
101311.837
101311.829
101311.822
101311.815
101311.808
101311.801
101311.793
101311.786
101311.779
101311.771
101311.764
101311.756
101311.748
101311.741
101311.733
101311.725
101311.717
101311.709
101311.701
101311.693
101311.685
101311.676
101311.668
101311.66
101311.651
101311.643
101311.634
101311.625
101311.617
101311.608
101311.599
101311.59
101311.581
101311.572
101311.563
101311.554
101311.544
101311.535
101311.526
101311.516
101311.507
101311.497
101311.487
101311.478
101311.468
101311.458
101311.448
101311.438
101311.428
101311.418
101311.408
101311.398
101311.388
101311.378
101311.367
101311.357
101311.346
101311.336
101311.326
101311.315
101311.305
101311.294
101311.283
101311.273
101311.262
101311.251
101311.241
101311.23
101311.219
101311.208
101311.197
101311.186
101311.176
101311.165
101311.154
101311.143
101311.132
101311.121
101311.11
101311.099
101311.088
101311.077
101311.066
101311.055
101311.044
101311.034
101311.023
101311.012
101311.001
101310.99
101310.979
101310.968
101310.958
101310.947
101310.936
101310.925
101310.914
101310.904
101310.893
101310.882
101310.872
101310.861
101310.851
101310.84
101310.83
101310.819
101310.809
101310.799
101310.788
101310.778
101310.768
101310.758
101310.747
101310.737
101310.727
101310.717
101310.707
101310.697
101310.688
101310.678
101310.668
101310.658
101310.649
101310.639
101310.629
101310.62
101310.61
101310.601
101310.592
101310.582
101310.573
101310.564
101310.554
101310.545
101310.536
101310.527
101310.518
101310.509
101310.5
101310.491
101310.482
101310.473
101310.465
101310.456
101310.447
101310.439
101310.43
101310.421
101310.413
101310.404
101310.396
101310.387
101310.379
101310.37
101310.362
101310.353
101310.345
101310.337
101310.328
101310.32
101310.312
101310.303
101310.295
101310.287
101310.278
101310.27
101310.262
101310.254
101310.245
101310.237
101310.229
101310.22
101310.212
101310.204
101310.195
101310.187
101310.179
101310.17
101310.162
101310.153
101310.145
101310.136
101310.128
101310.119
101310.111
101310.102
101310.093
101310.085
101310.076
101310.067
101310.058
101310.049
101310.04
101310.031
101310.022
101310.013
101310.004
101309.995
101309.985
101309.976
101309.967
101309.957
101309.948
101309.938
101309.928
101309.919
101309.909
101309.899
101309.889
101309.879
101309.868
101309.857
101309.845
101309.831
101309.817
101309.801
101309.784
101309.765
101309.745
101309.723
101309.699
101309.673
101309.645
101309.614
101309.58
101309.542
101309.501
101309.455
101309.405
101309.35
101309.29
101309.222
101309.148
101309.066
101308.975
101308.875
101308.764
101308.642
101308.507
101308.36
101308.197
101308.019
101307.824
101307.609
101307.373
101307.111
101306.816
101306.478
101306.083
101305.608
101305.022
101304.285
101303.345
101302.154
101300.673
101298.914
101296.978
101295.108
101293.72
101293.361
101294.57
101297.638
101302.388
101308.111
101313.757
101318.394
101321.595
101323.464
101324.394
101324.791
101324.937
101324.983
101324.997
101325
101325
101325.001
101325.001
101325.001
101325.001
101325.001
101325.001
101325.001
101325.001
101325.001
101325
101325
101325
)
;

boundaryField
{
    closed
    {
        type            zeroGradient;
    }
    open
    {
        type            waveTransmissive;
        gamma           1.25;
        fieldInf        101325;
        lInf            1;
        value           uniform 101325;
    }
    sides
    {
        type            empty;
    }
}


// ************************************************************************* //
