/*--------------------------------*- C++ -*----------------------------------*\
| =========                 |                                                 |
| \\      /  F ield         | OpenFOAM: The Open Source CFD Toolbox           |
|  \\    /   O peration     | Version:  2206                                  |
|   \\  /    A nd           | Website:  www.openfoam.com                      |
|    \\/     M anipulation  |                                                 |
\*---------------------------------------------------------------------------*/
FoamFile
{
    version     2.0;
    format      ascii;
    arch        "LSB;label=32;scalar=64";
    class       surfaceScalarField;
    location    "1.64e-05";
    object      phi;
}
// * * * * * * * * * * * * * * * * * * * * * * * * * * * * * * * * * * * * * //

dimensions      [1 0 -1 0 0 0 0];

oriented        oriented;

internalField   nonuniform List<scalar> 
3182
(
5.83036136e-18
-2.06380248e-18
-2.62714766e-18
-2.23354376e-18
-8.1202758e-21
-4.15720336e-23
-2.91525953e-24
1.42222235e-25
7.17732852e-24
1.39184962e-22
1.77817979e-19
4.45976343e-18
3.69033982e-18
1.1828324e-18
1.22508856e-18
-1.3467815e-18
-5.02343909e-18
-4.70043788e-18
-5.25805055e-18
4.19434926e-18
7.56700515e-20
3.18809708e-21
1.50315167e-18
2.52508117e-18
4.24086502e-18
5.31883215e-18
6.09085982e-18
2.59517026e-18
-2.88057594e-19
-4.85077843e-19
-5.57213299e-19
-1.42008531e-18
-5.64811975e-18
-6.42707883e-18
-2.99595131e-18
-5.88584512e-18
-8.10029017e-18
-7.75562347e-18
-7.81392717e-18
-4.99642952e-18
-2.04906871e-18
-8.21465256e-20
2.60505788e-18
6.46737419e-18
8.82161549e-18
9.97702468e-18
1.16971307e-17
1.12639634e-17
1.09457387e-17
9.33630022e-18
6.62393803e-18
3.18477684e-18
1.09247352e-18
-2.69707457e-18
-6.71233521e-18
-9.94848015e-18
-1.34316728e-17
-1.68925242e-17
-1.9301786e-17
-2.1920393e-17
-2.55979961e-17
-2.75988939e-17
-2.91659007e-17
-3.17181095e-17
-3.2958206e-17
-3.38313521e-17
-3.40607477e-17
-3.55531388e-17
-3.64346367e-17
-3.69618459e-17
-3.77683633e-17
-3.92919211e-17
-3.98571624e-17
-3.96231381e-17
-4.09391697e-17
-4.17921118e-17
-4.2286342e-17
-4.31651353e-17
-4.15183354e-17
-4.31444283e-17
-4.28144394e-17
-4.3555451e-17
-4.57118946e-17
-4.66010007e-17
-4.80060933e-17
-4.83900969e-17
-4.70820973e-17
-4.99051369e-17
-5.13639704e-17
-5.46938709e-17
-5.6814299e-17
-5.81157354e-17
-6.03807586e-17
-5.86798085e-17
-6.13117978e-17
-6.20563666e-17
-6.2463621e-17
-6.10140923e-17
-6.18104717e-17
-6.06969866e-17
-6.23235375e-17
-6.00136485e-17
-6.22033968e-17
-6.06401795e-17
-6.46984896e-17
-6.09889336e-17
-6.36717262e-17
-6.40514938e-17
-6.25125758e-17
-6.10398872e-17
-6.22724136e-17
-6.54752661e-17
-6.42434852e-17
-6.35404079e-17
-6.76658087e-17
-6.79801962e-17
-6.64566445e-17
-6.61168321e-17
-6.75399979e-17
-6.82784577e-17
-6.93943769e-17
-7.2273664e-17
-7.12414073e-17
-7.20691928e-17
-7.05823028e-17
-7.02807406e-17
-7.12204874e-17
-7.30021191e-17
-7.30851756e-17
-7.01285065e-17
-7.24231294e-17
-7.33877665e-17
-7.62686363e-17
-7.5293693e-17
-7.64343459e-17
-7.43890828e-17
-7.63516542e-17
-7.63007191e-17
-7.8669899e-17
-7.80435115e-17
-7.60593105e-17
-7.72420532e-17
-7.61876579e-17
-7.73256519e-17
-8.01580003e-17
-7.91432795e-17
-8.30824927e-17
-8.05914516e-17
-8.25036861e-17
-7.9918309e-17
-7.87782899e-17
-8.04724874e-17
-7.97305354e-17
-7.97735934e-17
-7.9128773e-17
-7.91853454e-17
-7.88353168e-17
-7.96366928e-17
-8.17877105e-17
-8.75519335e-17
-8.65166149e-17
-8.99213091e-17
-8.71577045e-17
-8.69683607e-17
-8.57226751e-17
-8.73839728e-17
-8.30483289e-17
-8.77794814e-17
-8.53980782e-17
-8.85977697e-17
-8.74477031e-17
-8.69891777e-17
-8.6581878e-17
-8.74288398e-17
-8.59836075e-17
-8.77238332e-17
-8.71198106e-17
-8.55007703e-17
-8.91101433e-17
-8.54039371e-17
-8.70073143e-17
-8.49277646e-17
-8.79504575e-17
-8.76162422e-17
-8.38697619e-17
-8.34135772e-17
-8.68627723e-17
-8.54487085e-17
-8.677685e-17
-8.68636743e-17
-8.8498112e-17
-8.78466301e-17
-9.37828587e-17
-9.00980703e-17
-9.34482678e-17
-9.26253377e-17
-9.10604571e-17
-9.00438894e-17
-9.39658385e-17
-9.16450251e-17
-9.32985758e-17
-9.39988798e-17
-9.1143447e-17
-9.58567784e-17
-9.66352184e-17
-9.59580002e-17
-9.4698579e-17
-9.53981537e-17
-9.4783843e-17
-9.29861608e-17
-9.78392306e-17
-9.25747853e-17
-9.43130258e-17
-9.19327176e-17
-9.11049184e-17
-9.17300125e-17
-9.43010491e-17
-9.36975313e-17
-9.22617005e-17
-9.55829688e-17
-9.61730992e-17
-9.68271187e-17
-9.57151282e-17
-9.6061718e-17
-9.70857582e-17
-9.73208367e-17
-1.02363894e-16
-1.00121294e-16
-9.72997464e-17
-9.87376392e-17
-9.97668556e-17
-9.87378352e-17
-9.84524841e-17
-9.89896419e-17
-9.77441043e-17
-9.92822692e-17
-1.00537442e-16
-9.99901851e-17
-1.00826776e-16
-1.0271953e-16
-1.04005369e-16
-1.0563432e-16
-1.05539786e-16
-1.1028055e-16
-1.08848379e-16
-1.08707187e-16
-1.09807273e-16
-1.09664877e-16
-1.08051591e-16
-1.11186901e-16
-1.13162413e-16
-1.1564046e-16
-1.16057229e-16
-1.16863281e-16
-1.15798079e-16
-1.18309045e-16
-1.17666087e-16
-1.16741467e-16
-1.14736454e-16
-1.17177075e-16
-1.15910365e-16
-1.17769432e-16
-1.15390509e-16
-1.15534296e-16
-1.13408767e-16
-1.16663557e-16
-1.16363914e-16
-1.1947838e-16
-1.16667225e-16
-1.21989019e-16
-1.19253041e-16
-1.17372667e-16
-1.20692655e-16
-1.23404361e-16
-1.23682622e-16
-1.20212724e-16
-1.21113379e-16
-1.21243347e-16
-1.22844898e-16
-1.20393243e-16
-1.21146275e-16
-1.24622142e-16
-1.26123359e-16
-1.2994138e-16
-1.29300299e-16
-1.30508028e-16
-1.28594665e-16
-1.26807536e-16
-1.27336355e-16
-1.2924492e-16
-1.26300484e-16
-1.27466237e-16
-1.28070725e-16
-1.28870247e-16
-1.24538334e-16
-1.26332643e-16
-1.23598017e-16
-1.24900635e-16
-1.25546541e-16
-1.26932746e-16
-1.24476862e-16
-1.23287588e-16
-1.27032862e-16
-1.25559651e-16
-1.26173391e-16
-1.28927889e-16
-1.28303322e-16
-1.30247072e-16
-1.28956882e-16
-1.29398777e-16
-1.28924109e-16
-1.32803285e-16
-1.31139243e-16
-1.33218206e-16
-1.3164008e-16
-1.29875923e-16
-1.29404127e-16
-1.29511026e-16
-1.29498812e-16
-1.30676053e-16
-1.28067175e-16
-1.30269466e-16
-1.30404259e-16
-1.28595823e-16
-1.27163944e-16
-1.2658185e-16
-1.25503445e-16
-1.27273828e-16
-1.27007114e-16
-1.24823078e-16
-1.21325869e-16
-1.24934771e-16
-1.24584138e-16
-1.21197728e-16
-1.20661171e-16
-1.23290215e-16
-1.2347356e-16
-1.24007343e-16
-1.23317015e-16
-1.24471409e-16
-1.24347577e-16
-1.2386379e-16
-1.23668904e-16
-1.20433011e-16
-1.21747625e-16
-1.2366156e-16
-1.2254736e-16
-1.24260093e-16
-1.2694967e-16
-1.2478385e-16
-1.22312784e-16
-1.24479218e-16
-1.24547137e-16
-1.24026083e-16
-1.26111563e-16
-1.27529034e-16
-1.27877946e-16
-1.30043213e-16
-1.29250105e-16
-1.25952193e-16
-1.23289057e-16
-1.21741935e-16
-1.21607245e-16
-1.24806571e-16
-1.24152952e-16
-1.21858989e-16
-1.19491384e-16
-1.20106968e-16
-1.18964639e-16
-1.20386688e-16
-1.15982664e-16
-1.15484247e-16
-1.14964338e-16
-1.15972352e-16
-1.14320054e-16
-1.15961517e-16
-1.17697425e-16
-1.1763668e-16
-1.16335855e-16
-1.15985248e-16
-1.17924684e-16
-1.17320071e-16
-1.16941169e-16
-1.16752907e-16
-1.1385441e-16
-1.14978826e-16
-1.12494236e-16
-1.14902759e-16
-1.14218083e-16
-1.13528533e-16
-1.08369554e-16
-1.07037459e-16
-1.03337152e-16
-9.8443699e-17
-9.61643479e-17
-9.18271197e-17
-9.82559403e-17
-9.61572049e-17
-9.82863625e-17
-9.6492829e-17
-9.54134836e-17
-9.65207604e-17
-9.77578916e-17
-9.9269288e-17
-9.79213777e-17
-9.87045281e-17
-9.98304099e-17
-9.34061894e-17
-9.15173922e-17
-9.16118037e-17
-9.12540561e-17
-9.16640925e-17
-8.80246445e-17
-8.8619103e-17
-9.17132778e-17
-8.98515909e-17
-8.95676666e-17
-8.73778674e-17
-8.7405119e-17
-8.92434418e-17
-8.97767363e-17
-8.649722e-17
-8.87166543e-17
-8.96937559e-17
-9.56390856e-17
-9.34964162e-17
-8.96407078e-17
-8.67199761e-17
-8.68310197e-17
-8.63858901e-17
-8.82370784e-17
-9.09378658e-17
-9.21016969e-17
-9.05050241e-17
-9.21434737e-17
-9.15596218e-17
-9.00243647e-17
-8.89905447e-17
-8.89408439e-17
-8.52521676e-17
-8.7312515e-17
-8.65324747e-17
-8.71639891e-17
-8.54525827e-17
-8.09428448e-17
-8.38455041e-17
-8.2125013e-17
-8.03752441e-17
-8.29646007e-17
-8.14945844e-17
-7.97332514e-17
-8.07384485e-17
-8.12084616e-17
-7.944415e-17
-8.22231764e-17
-8.05143334e-17
-7.99268884e-17
-8.34747819e-17
-8.20915193e-17
-8.35998917e-17
-8.48396971e-17
-8.26382381e-17
-8.2945329e-17
-8.41120732e-17
-8.28860404e-17
-8.03507316e-17
-7.56779705e-17
-7.76884541e-17
-7.47247023e-17
-7.10519288e-17
-6.8095892e-17
-6.92141459e-17
-7.06112425e-17
-7.06306803e-17
-7.01328532e-17
-6.70653275e-17
-6.7468832e-17
-6.44703115e-17
-6.45272272e-17
-6.31982224e-17
-6.5268626e-17
-6.32360779e-17
-6.22843588e-17
-6.03842881e-17
-5.96810501e-17
-6.06437763e-17
-6.23549284e-17
-6.20675792e-17
-6.45514215e-17
-6.23884869e-17
-5.89833447e-17
-5.82546508e-17
-6.23678091e-17
-5.8876181e-17
-5.6969836e-17
-6.07372736e-17
-5.7143591e-17
-5.63387748e-17
-6.06963553e-17
-5.68417453e-17
-5.77185041e-17
-5.71787854e-17
-5.9078793e-17
-5.63013118e-17
-5.28200356e-17
-4.79671737e-17
-5.0242256e-17
-5.06028013e-17
-5.33370411e-17
-5.43084334e-17
-5.61705351e-17
-5.66924054e-17
-5.51698761e-17
-5.70592119e-17
-5.38882368e-17
-5.26786024e-17
-5.39348833e-17
-4.92800724e-17
-4.76381514e-17
-4.8523141e-17
-4.85647562e-17
-4.73529968e-17
-4.78674432e-17
-5.08239985e-17
-4.99262537e-17
-4.55198683e-17
-4.28163595e-17
-4.01682742e-17
-4.24483644e-17
-3.9589051e-17
-4.2196241e-17
-4.38707396e-17
-4.39694309e-17
-4.25750338e-17
-4.4327568e-17
-4.13819963e-17
-4.11135947e-17
-4.27276994e-17
-3.88595465e-17
-3.92994151e-17
-3.70807314e-17
-3.78703263e-17
-3.71316196e-17
-3.60306898e-17
-3.32631989e-17
-3.24723638e-17
-3.33421287e-17
-2.96087168e-17
-3.03860498e-17
-3.24767315e-17
-2.73006686e-17
-2.90330791e-17
-2.57914522e-17
-2.66362157e-17
-2.30078727e-17
-2.34115374e-17
-2.52570456e-17
-2.42300685e-17
-2.42895791e-17
-2.2646333e-17
-2.25669331e-17
-2.14368805e-17
-1.7174752e-17
-1.46408683e-17
-1.45896857e-17
-1.39765346e-17
-1.23902634e-17
-9.57325586e-18
-1.19046055e-17
-1.07126529e-17
-8.65986289e-18
-9.07115759e-18
-8.85736619e-18
-6.82108963e-18
-6.13519619e-18
-9.52099533e-18
-8.26878892e-18
-1.33109383e-17
-1.35395442e-17
-1.48167704e-17
-1.31067981e-17
-1.24237429e-17
-9.18192617e-18
-1.10250459e-17
-9.77335211e-18
-8.74865191e-18
-8.84903312e-18
-7.33907616e-18
-6.98667391e-18
-4.78497906e-18
-1.79781334e-18
1.07193016e-18
1.5598515e-18
1.37803112e-18
-1.06712832e-18
-2.1024531e-18
9.84754927e-20
2.31348824e-18
5.08401313e-18
4.36085564e-18
5.10667521e-18
8.03259199e-18
6.82596726e-18
6.61623229e-19
3.12400045e-19
5.95389351e-19
3.02364359e-18
8.50352009e-19
9.99567068e-19
2.42803956e-18
6.26982198e-19
1.73806571e-18
4.5460335e-18
3.19668874e-18
1.76532012e-18
2.83442238e-18
2.99840075e-18
2.2927236e-18
4.29637343e-18
8.15578208e-18
6.39631603e-18
3.99301578e-18
4.38034857e-18
7.98074828e-18
6.64194476e-18
7.65435448e-18
7.52013457e-18
7.67147331e-18
4.08744335e-18
2.62282766e-18
5.67736934e-18
9.35731816e-18
9.06317796e-18
6.38880982e-18
7.04406364e-18
8.65203372e-18
7.82852599e-18
7.46653148e-18
9.00062599e-18
1.10914353e-17
9.38144876e-18
8.63977696e-18
1.25490739e-17
1.6649108e-17
1.36968041e-17
1.23496608e-17
1.39329426e-17
1.29649811e-17
1.43863658e-17
1.9671285e-17
1.45181891e-17
1.59391772e-17
1.39197758e-17
1.35384485e-17
1.23505858e-17
1.23974129e-17
1.16450562e-17
1.24408391e-17
1.32268372e-17
1.82192418e-17
1.80802221e-17
1.88493079e-17
1.89878297e-17
1.71626489e-17
1.53368506e-17
1.84690864e-17
2.06038615e-17
2.32056764e-17
2.245995e-17
2.36502843e-17
2.29804925e-17
2.64169362e-17
2.45877949e-17
2.53551206e-17
2.53733659e-17
2.27149329e-17
2.33106584e-17
2.5133606e-17
2.61855616e-17
2.64698117e-17
2.75832771e-17
2.91691502e-17
3.09383215e-17
3.42438494e-17
3.32916821e-17
3.11842978e-17
3.55871376e-17
3.3089414e-17
3.62987614e-17
3.98717243e-17
4.0998667e-17
3.97671385e-17
3.98677594e-17
4.10505765e-17
4.0100429e-17
4.12460044e-17
4.39415053e-17
4.49938366e-17
4.72225677e-17
4.61413631e-17
4.4724172e-17
4.91597834e-17
4.93901221e-17
5.30699658e-17
4.94317421e-17
5.03754021e-17
5.55535773e-17
5.45717123e-17
5.7270292e-17
5.9895952e-17
6.07644687e-17
5.97377625e-17
6.06931771e-17
6.02930045e-17
5.98653507e-17
6.15358831e-17
6.24829905e-17
6.20489552e-17
5.74943265e-17
6.1289016e-17
5.99958995e-17
6.10124775e-17
5.9081265e-17
5.69459793e-17
5.40206475e-17
5.27728194e-17
5.60801583e-17
5.68791197e-17
5.58351543e-17
5.50498246e-17
5.44536198e-17
5.57371874e-17
5.55572825e-17
5.38074617e-17
5.13303906e-17
5.25386223e-17
5.6719279e-17
5.29622048e-17
5.3263351e-17
5.33631331e-17
5.64042981e-17
5.56438617e-17
5.68373618e-17
5.3573745e-17
5.49871937e-17
5.39326582e-17
5.32859043e-17
5.63184363e-17
5.39689193e-17
5.20574978e-17
5.11821994e-17
5.14793821e-17
5.2547534e-17
5.33596667e-17
5.40737532e-17
5.17180406e-17
5.0249749e-17
5.12465379e-17
5.04232792e-17
4.97151758e-17
4.97602495e-17
5.07565277e-17
5.16234465e-17
5.21455433e-17
5.15771841e-17
5.31058678e-17
5.50600776e-17
5.48138391e-17
5.55619547e-17
5.45691166e-17
5.45328735e-17
5.5000834e-17
5.70589714e-17
5.73649884e-17
5.39018081e-17
5.99165217e-17
5.98762986e-17
5.83626618e-17
5.92806514e-17
5.98679861e-17
5.90713706e-17
5.94276923e-17
6.00308714e-17
6.27630844e-17
5.97917628e-17
6.1491097e-17
6.36269528e-17
6.35086762e-17
6.15931118e-17
6.25930468e-17
6.22134721e-17
6.25797057e-17
5.76511943e-17
5.79142927e-17
5.98194893e-17
6.43408289e-17
5.92136368e-17
6.17720847e-17
6.26258939e-17
5.7108498e-17
6.40140877e-17
6.25663867e-17
6.38198479e-17
6.32380361e-17
6.32996353e-17
5.90256294e-17
5.9744283e-17
6.2444459e-17
6.26735751e-17
6.23130792e-17
6.38085902e-17
6.19203667e-17
6.08714861e-17
6.31002531e-17
5.91524969e-17
6.05468776e-17
5.85068117e-17
5.68394737e-17
5.666825e-17
5.94436349e-17
5.88328365e-17
6.25659068e-17
6.61476126e-17
6.75494474e-17
6.67390719e-17
6.81237722e-17
6.55504262e-17
6.60851856e-17
6.76937228e-17
6.88475641e-17
6.85721112e-17
6.6462531e-17
6.59238685e-17
6.89787102e-17
6.86555387e-17
7.17019305e-17
7.04696819e-17
7.19286389e-17
7.19318321e-17
7.12312497e-17
7.02633886e-17
6.79501996e-17
7.26930077e-17
7.17715135e-17
7.41634462e-17
7.43065114e-17
7.34337854e-17
7.31993653e-17
7.28689417e-17
7.2336046e-17
7.3004511e-17
6.91708978e-17
6.74400089e-17
6.84036074e-17
7.11096835e-17
6.86353275e-17
7.32591454e-17
7.40786369e-17
7.37536946e-17
7.55370499e-17
7.39928365e-17
7.44931804e-17
7.48018834e-17
7.15564964e-17
7.17988408e-17
7.11983427e-17
6.99976348e-17
6.75447823e-17
6.64957882e-17
6.78544906e-17
6.83118515e-17
6.57827326e-17
6.90034084e-17
6.80914397e-17
6.60811761e-17
6.58809636e-17
6.76016002e-17
6.62334903e-17
6.60505135e-17
6.35505985e-17
6.29914797e-17
6.05128556e-17
5.88394989e-17
5.6907226e-17
5.50070036e-17
5.59474508e-17
5.78365368e-17
5.88018816e-17
6.28100183e-17
6.16711499e-17
5.89190448e-17
5.73259552e-17
5.72188213e-17
5.61233388e-17
5.76531061e-17
5.66142303e-17
5.7456899e-17
5.61587019e-17
5.49326503e-17
5.96156815e-17
5.8310899e-17
6.26143024e-17
6.07394255e-17
6.28779854e-17
6.31553741e-17
6.28027971e-17
6.07136074e-17
6.31736306e-17
6.19314103e-17
6.20415319e-17
6.17326113e-17
6.15817932e-17
6.39083122e-17
5.95192285e-17
5.9278893e-17
5.86636885e-17
5.53925034e-17
5.55612199e-17
5.56539292e-17
5.79916276e-17
5.99374786e-17
6.05788375e-17
6.0743777e-17
6.01235553e-17
6.30902922e-17
6.09824994e-17
6.03426106e-17
6.07319247e-17
5.9756841e-17
6.04242301e-17
6.23987079e-17
6.00502718e-17
6.47875513e-17
6.29196953e-17
6.09627105e-17
5.84918344e-17
6.17223257e-17
5.95770908e-17
6.32137554e-17
6.12354463e-17
6.14006778e-17
6.15948906e-17
6.3856286e-17
6.3828351e-17
6.32392828e-17
6.60412425e-17
6.95997563e-17
6.64002271e-17
6.86153371e-17
6.94991786e-17
6.8467445e-17
7.01476263e-17
6.92926667e-17
6.56574941e-17
6.3353713e-17
6.22673366e-17
6.48010505e-17
6.57738903e-17
6.79610178e-17
6.49476862e-17
6.89449797e-17
6.78191164e-17
6.78145778e-17
6.67081185e-17
6.87381983e-17
6.64216086e-17
6.4081731e-17
6.34710634e-17
6.60841272e-17
6.70901307e-17
6.77942126e-17
6.94519952e-17
6.88507937e-17
6.73660673e-17
6.42147097e-17
6.42660389e-17
5.95874062e-17
6.06995565e-17
5.70299063e-17
5.65137849e-17
5.49422891e-17
5.66345908e-17
5.64490277e-17
5.56994164e-17
5.78306123e-17
5.85035871e-17
6.12898759e-17
6.32993071e-17
6.15627295e-17
6.05055165e-17
6.02654667e-17
6.15652048e-17
6.08628845e-17
5.67718258e-17
5.71445659e-17
5.90096265e-17
5.77636002e-17
5.47503022e-17
5.43086123e-17
5.22729938e-17
5.51629151e-17
5.43232859e-17
5.43756289e-17
5.05947733e-17
5.16577229e-17
5.05029738e-17
5.04420214e-17
5.13497439e-17
4.88979206e-17
4.71246858e-17
4.63736675e-17
4.81110705e-17
4.84789079e-17
4.75897686e-17
4.79229242e-17
4.42902993e-17
4.58737036e-17
4.33516228e-17
4.26957814e-17
4.23245753e-17
4.48122569e-17
4.46321886e-17
4.24911266e-17
4.01981079e-17
4.24923363e-17
4.15113051e-17
4.28583629e-17
4.2007541e-17
4.21432863e-17
4.1146881e-17
3.77431574e-17
3.34853509e-17
3.62732407e-17
3.69906724e-17
3.56694573e-17
3.62657342e-17
3.5448255e-17
3.27746185e-17
3.31816846e-17
3.18651094e-17
3.04920615e-17
3.29759167e-17
3.15257379e-17
2.82069996e-17
2.70219408e-17
2.73688747e-17
2.73989133e-17
2.75965617e-17
2.64675826e-17
2.54790721e-17
2.64961851e-17
2.53261106e-17
2.38439324e-17
2.59902294e-17
2.09921741e-17
2.32109122e-17
2.370475e-17
2.16164197e-17
2.21760587e-17
1.94945304e-17
2.00197605e-17
2.30720708e-17
2.13719531e-17
1.96200259e-17
2.05824853e-17
1.67691065e-17
1.50273651e-17
1.90164787e-17
1.66269246e-17
1.84427414e-17
2.28947169e-17
2.35476874e-17
2.44179192e-17
2.35823989e-17
2.24317944e-17
1.93573394e-17
1.87235473e-17
1.70479323e-17
1.83475569e-17
1.87121073e-17
1.72706046e-17
1.79829008e-17
1.86376175e-17
1.91042598e-17
1.92675434e-17
1.71470285e-17
1.47992528e-17
1.51946446e-17
1.61937818e-17
1.470498e-17
1.47686296e-17
1.18613596e-17
8.84092971e-18
9.66154571e-18
8.02372734e-18
7.64886482e-18
9.07263941e-18
9.21564401e-18
7.62876848e-18
5.60345029e-18
3.27681914e-18
1.45016169e-18
9.73016246e-20
1.37355367e-19
-3.7135767e-19
6.89377767e-19
2.45413233e-18
-1.6747114e-18
-4.50673638e-18
-1.57526024e-18
-3.79083664e-18
-6.08502666e-18
-6.80944772e-18
-8.75628478e-18
-8.49115005e-18
-9.07609814e-18
-9.65214226e-18
-1.03830313e-17
-1.33276073e-17
-1.44116607e-17
-1.26538725e-17
-1.52849986e-17
-1.75308004e-17
-1.62367355e-17
-1.43338089e-17
-1.5160516e-17
-1.43085257e-17
-1.46766563e-17
-1.86735685e-17
-2.23071972e-17
-2.1631638e-17
-2.02254397e-17
-2.18070297e-17
-2.27513861e-17
-2.18923619e-17
-1.92714961e-17
-1.97315648e-17
-2.01747072e-17
-2.03774632e-17
-2.1941333e-17
-2.46763977e-17
-2.34178747e-17
-2.36711273e-17
-2.11658735e-17
-2.3525088e-17
-2.29307135e-17
-2.41552204e-17
-2.58817433e-17
-2.30867585e-17
-1.96010863e-17
-2.33740956e-17
-2.07572278e-17
-2.22954954e-17
-1.91944058e-17
-2.17428054e-17
-2.21090639e-17
-2.10556493e-17
-2.06458375e-17
-2.28834158e-17
-2.27974778e-17
-2.24398873e-17
-2.27365675e-17
-2.32730748e-17
-2.7731632e-17
-2.93854174e-17
-2.93760942e-17
-2.8416632e-17
-2.6695672e-17
-2.85608602e-17
-2.79934238e-17
-2.72121909e-17
-3.14473804e-17
-2.90842965e-17
-2.87427864e-17
-3.02833933e-17
-3.13276657e-17
-3.04538483e-17
-3.11703446e-17
-3.04106954e-17
-3.5230502e-17
-3.21428842e-17
-3.36286542e-17
-3.86405855e-17
-3.92922872e-17
-4.08929742e-17
-3.95682672e-17
-4.00963838e-17
-4.49878557e-17
-4.61305764e-17
-4.6740478e-17
-5.07290375e-17
-4.86994418e-17
-4.98270594e-17
-4.63296623e-17
-4.44837635e-17
-4.46226214e-17
-4.66704047e-17
-4.82261831e-17
-5.12837378e-17
-5.45924623e-17
-5.44952322e-17
-5.78377735e-17
-5.68487291e-17
-5.52530355e-17
-5.94248966e-17
-5.66570591e-17
-5.91546549e-17
-5.8304958e-17
-5.85225987e-17
-6.01383069e-17
-5.85404777e-17
-6.24088e-17
-6.03346653e-17
-6.33375996e-17
-6.29068715e-17
-6.27337268e-17
-6.46218306e-17
-6.47866442e-17
-6.36947139e-17
-6.42374304e-17
-6.44005597e-17
-6.17956997e-17
-6.47326683e-17
-6.75568436e-17
-6.94778093e-17
-7.03758886e-17
-7.13303618e-17
-6.96402525e-17
-7.22301393e-17
-7.31038157e-17
-7.29856525e-17
-7.08673487e-17
-7.12821164e-17
-7.0972615e-17
-7.04703255e-17
-6.9497782e-17
-7.03521951e-17
-7.30182357e-17
-7.2761254e-17
-7.19530919e-17
-7.45840583e-17
-7.22081823e-17
-7.48697706e-17
-7.29489983e-17
-7.40945195e-17
-7.81292785e-17
-7.49307291e-17
-7.76059309e-17
-7.83414884e-17
-7.79357557e-17
-7.90040946e-17
-7.6840289e-17
-7.89913568e-17
-7.68870967e-17
-7.5656302e-17
-7.93585353e-17
-8.01085054e-17
-8.0097628e-17
-8.11429589e-17
-8.21093296e-17
-7.98727984e-17
-8.03124626e-17
-7.80819893e-17
-8.06178957e-17
-7.72415142e-17
-7.72899153e-17
-7.87784606e-17
-7.87731398e-17
-7.695699e-17
-7.67202137e-17
-7.56627209e-17
-7.60588203e-17
-8.04663103e-17
-7.94642409e-17
-8.08634686e-17
-8.00563963e-17
-8.0540541e-17
-8.19263434e-17
-8.1155447e-17
-8.05526062e-17
-8.28994349e-17
-8.26386229e-17
-8.34982508e-17
-8.28991408e-17
-8.1438907e-17
-8.30034656e-17
-8.43750909e-17
-8.43046568e-17
-8.49140453e-17
-8.3023893e-17
-8.45335497e-17
-8.35595642e-17
-8.02683838e-17
-7.90578384e-17
-7.71711307e-17
-7.57893677e-17
-7.82680964e-17
-7.66246286e-17
-7.90097162e-17
-8.34961202e-17
-8.2541506e-17
-8.17543517e-17
-8.13332471e-17
-8.06866971e-17
-7.98007391e-17
-7.66572732e-17
-7.9220565e-17
-8.24888127e-17
-8.08658259e-17
-8.11470695e-17
-7.99932279e-17
-7.84040643e-17
-7.97791026e-17
-8.2768791e-17
-8.08557011e-17
-8.36459146e-17
-8.04391051e-17
-8.0525401e-17
-7.94806475e-17
-8.07693941e-17
-7.79876794e-17
-7.99852809e-17
-7.95242625e-17
-7.75301878e-17
-7.79700608e-17
-7.70780066e-17
-7.63603556e-17
-7.61160259e-17
-7.60133356e-17
-7.92838283e-17
-7.83800569e-17
-7.5963619e-17
-7.55073337e-17
-7.39279238e-17
-7.67952256e-17
-7.51525493e-17
-7.63330362e-17
-7.54308778e-17
-7.44456242e-17
-7.226386e-17
-7.30683674e-17
-7.24722127e-17
-7.28647663e-17
-7.19570749e-17
-7.32830259e-17
-7.04972828e-17
-7.17630062e-17
-7.28750685e-17
-7.13361567e-17
-7.09291958e-17
-6.92937737e-17
-6.95850051e-17
-6.97618172e-17
-6.81418728e-17
-6.25631566e-17
-6.45678735e-17
-6.2946354e-17
-6.35009423e-17
-6.29704637e-17
-6.27783318e-17
-6.27630739e-17
-6.37673514e-17
-6.22972278e-17
-6.20833098e-17
-5.75594033e-17
-6.03054038e-17
-6.05744113e-17
-6.08615787e-17
-6.19813004e-17
-5.62388067e-17
-5.52734538e-17
-5.53494843e-17
-5.67537346e-17
-5.71476338e-17
-5.8409295e-17
-5.849674e-17
-5.85567403e-17
-5.98996208e-17
-6.23971078e-17
-5.93667759e-17
-5.95511502e-17
-6.20956779e-17
-6.49007435e-17
-7.12062713e-17
-6.89339017e-17
-6.79510939e-17
-6.91660497e-17
-6.82615989e-17
-6.51691866e-17
-6.59631702e-17
-6.21331008e-17
-6.27042906e-17
-6.54880191e-17
-6.33343475e-17
-6.51929784e-17
-6.50566173e-17
-6.35463835e-17
-6.4873509e-17
-6.11266469e-17
-6.30193582e-17
-6.19103381e-17
-6.10440679e-17
-5.89666985e-17
-5.65576957e-17
-5.57819037e-17
-5.71671364e-17
-5.86686261e-17
-5.52213896e-17
-5.48253331e-17
-5.40971666e-17
-5.74129027e-17
-5.7932459e-17
-5.89873392e-17
-5.88986043e-17
-5.95269582e-17
-5.69626328e-17
-5.81451734e-17
-5.92928347e-17
-6.00523184e-17
-6.07418759e-17
-5.86494713e-17
-6.12268927e-17
-5.80096976e-17
-5.70242304e-17
-5.87496381e-17
-5.97353287e-17
-5.83157154e-17
-6.27480238e-17
-6.13020295e-17
-5.87393872e-17
-5.83269017e-17
-6.1260442e-17
-6.03260733e-17
-6.0271821e-17
-5.86037505e-17
-5.8167761e-17
-5.84514341e-17
-5.97662794e-17
-6.2082182e-17
-6.46235156e-17
-6.25013484e-17
-6.07143782e-17
-6.08606564e-17
-5.61767134e-17
-5.71954115e-17
-5.91262455e-17
-5.93420573e-17
-6.01949953e-17
-6.14933597e-17
-6.28582602e-17
-6.42493102e-17
-6.29575263e-17
-6.51470551e-17
-6.23891945e-17
-6.13808045e-17
-6.01989956e-17
-5.6712539e-17
-5.57748162e-17
-5.53131832e-17
-5.47257474e-17
-5.2371647e-17
-5.44449854e-17
-5.71556169e-17
-5.59377451e-17
-5.60233151e-17
-5.52970467e-17
-5.22751993e-17
-5.57356855e-17
-5.86478426e-17
-6.21635693e-17
-6.26925668e-17
-6.37987161e-17
-6.23930472e-17
-6.32533643e-17
-6.14615016e-17
-6.22330569e-17
-5.89557363e-17
-6.32105406e-17
-6.10585589e-17
-5.80138605e-17
-5.83302159e-17
-5.97421909e-17
-5.82784368e-17
-5.53018029e-17
-5.90266575e-17
-6.00747698e-17
-5.90840843e-17
-5.83279807e-17
-5.73322516e-17
-5.62807015e-17
-5.57167297e-17
-6.19173785e-17
-6.04694418e-17
-6.28356371e-17
-6.02392214e-17
-5.67840818e-17
-5.51260677e-17
-5.60506894e-17
-5.82793668e-17
-5.45859174e-17
-5.33346558e-17
-5.406952e-17
-5.00743131e-17
-4.90604307e-17
-4.91273293e-17
-4.75408878e-17
-4.42589383e-17
-4.2294827e-17
-4.39781363e-17
-4.31073093e-17
-4.13961699e-17
-3.90947842e-17
-4.03772707e-17
-4.23259271e-17
-4.03867583e-17
-3.87518822e-17
-3.69637532e-17
-3.5965632e-17
-3.50885116e-17
-3.38550939e-17
-2.85620723e-17
-2.8443667e-17
-2.87837009e-17
-2.79686236e-17
-2.56877322e-17
-2.91385137e-17
-2.94156905e-17
-2.58093533e-17
-2.54078795e-17
-2.40568684e-17
-2.53561769e-17
-2.22797698e-17
-2.09198975e-17
-1.76150876e-17
-1.66269224e-17
-1.60553591e-17
-1.43146548e-17
-1.28570565e-17
-1.26119544e-17
-1.54044041e-17
-1.27064265e-17
-1.13359458e-17
-1.0991579e-17
-1.07005584e-17
-7.66259053e-18
-8.56697522e-18
-1.03355155e-17
-1.01040611e-17
-1.00159676e-17
-9.99750837e-18
-7.23371105e-18
-9.33266336e-18
-7.47527978e-18
-6.28915711e-18
-7.07206795e-18
-1.18583408e-17
-9.41371009e-18
-6.48770545e-18
-5.82241023e-18
-6.49238145e-18
-2.9320729e-18
-3.11703926e-18
3.66893163e-19
-9.12547394e-19
-3.88507821e-18
-3.3420809e-18
-1.38220296e-18
-1.82378987e-18
-1.87356629e-19
-1.56041062e-18
-2.65452131e-18
-2.085316e-18
-3.88824747e-18
-3.64412183e-18
-3.96139301e-18
-7.73022875e-19
-4.23135337e-18
-1.88709859e-18
-1.34695695e-18
2.32932848e-18
-1.32898204e-18
2.3029591e-18
3.97701843e-18
3.93604007e-18
4.80549093e-18
5.39238098e-18
4.15904904e-18
6.27091681e-18
5.7626813e-18
4.02873765e-18
1.01827668e-17
1.16823037e-17
1.34596104e-17
1.22349263e-17
1.48510765e-17
1.8212774e-17
2.01945915e-17
1.87965081e-17
1.69654901e-17
2.07085438e-17
2.01160587e-17
1.99157852e-17
1.87967038e-17
2.30351254e-17
2.26315345e-17
2.48430633e-17
2.25025022e-17
2.33144313e-17
2.34940949e-17
2.5617219e-17
2.47804553e-17
2.48465507e-17
2.81262328e-17
3.17379001e-17
3.12342975e-17
3.43035332e-17
3.08121998e-17
3.20011251e-17
3.42075723e-17
3.64261698e-17
4.28649199e-17
4.53464528e-17
4.61606715e-17
5.08461188e-17
5.15808959e-17
5.48606138e-17
5.98254912e-17
6.24855952e-17
6.3954236e-17
7.13114777e-17
7.63799303e-17
8.42931999e-17
8.75267206e-17
9.66410184e-17
9.86449577e-17
1.04957393e-16
1.11494859e-16
1.20015541e-16
1.27271263e-16
1.36664487e-16
1.46961595e-16
1.6169556e-16
1.72389166e-16
1.87507759e-16
2.01378776e-16
2.16579801e-16
2.34013687e-16
2.47205355e-16
2.67433155e-16
2.84196453e-16
3.05000601e-16
3.26385649e-16
3.51120555e-16
3.76034594e-16
4.05179253e-16
4.37468393e-16
4.70552911e-16
5.07163539e-16
5.46599996e-16
5.87559545e-16
6.33280854e-16
6.80974544e-16
7.26721224e-16
7.81996264e-16
8.40482135e-16
9.03502146e-16
9.68672961e-16
1.04138824e-15
1.12135835e-15
1.20421682e-15
1.2933041e-15
1.39197221e-15
1.49608698e-15
1.60882645e-15
1.73106667e-15
1.8643663e-15
2.00036057e-15
2.15183136e-15
2.3105493e-15
2.48522641e-15
2.67177757e-15
2.87268134e-15
3.08844694e-15
3.31779876e-15
3.56312061e-15
3.8285445e-15
4.11333049e-15
4.41952722e-15
4.74785789e-15
5.10153563e-15
5.48125214e-15
5.88816492e-15
6.3266851e-15
6.79650022e-15
7.30016105e-15
7.84202499e-15
8.41936051e-15
9.03665472e-15
9.70200253e-15
1.04189352e-14
1.11857384e-14
1.20099273e-14
1.28873881e-14
1.38314403e-14
1.48466469e-14
1.593388e-14
1.70941786e-14
1.8342452e-14
1.96798472e-14
2.11122295e-14
2.26446705e-14
2.42865917e-14
2.60513164e-14
2.79393238e-14
2.99583667e-14
3.21150456e-14
3.44274339e-14
3.69029381e-14
3.95543735e-14
4.23927309e-14
4.54320583e-14
4.86790665e-14
5.21636977e-14
5.58889551e-14
5.98677884e-14
6.4132607e-14
6.86889971e-14
7.35645319e-14
7.87794146e-14
8.43564538e-14
9.03171364e-14
9.66883001e-14
1.03501239e-13
1.10777244e-13
1.18553813e-13
1.26867852e-13
1.35752273e-13
1.45237995e-13
1.55374287e-13
1.66197541e-13
1.77762501e-13
1.90106855e-13
2.03291759e-13
2.17362138e-13
2.32389897e-13
2.48428284e-13
2.65544144e-13
2.83810248e-13
3.03298466e-13
3.24091897e-13
3.46278769e-13
3.69936398e-13
3.95173136e-13
4.22087789e-13
4.5078257e-13
4.81376461e-13
5.1399397e-13
5.48759498e-13
5.8581478e-13
6.25305052e-13
6.67384397e-13
7.12214092e-13
7.5997088e-13
8.1084848e-13
8.6503171e-13
9.22737747e-13
9.84179568e-13
1.04959703e-12
1.11923587e-12
1.19336532e-12
1.27226144e-12
1.35622009e-12
1.44555744e-12
1.54060021e-12
1.6417146e-12
1.74926013e-12
1.86364815e-12
1.98528333e-12
2.11461607e-12
2.2521199e-12
2.39828741e-12
2.55364739e-12
2.71875907e-12
2.89420697e-12
3.08062844e-12
3.27866747e-12
3.48903472e-12
3.71246697e-12
3.94974973e-12
4.20170299e-12
4.46920165e-12
4.75317159e-12
5.05458654e-12
5.37447955e-12
5.71393998e-12
6.07411566e-12
6.45622841e-12
6.86156009e-12
7.29146314e-12
7.7473731e-12
8.2307978e-12
8.7433361e-12
9.28666551e-12
9.86255931e-12
1.04728937e-11
1.11196458e-11
1.18048928e-11
1.25308325e-11
1.32997879e-11
1.41141893e-11
1.49766168e-11
1.58897744e-11
1.68565258e-11
1.78798685e-11
1.89629836e-11
2.01091984e-11
2.132203e-11
2.26051745e-11
2.39625252e-11
2.53981813e-11
2.69164458e-11
2.85218613e-11
3.02191967e-11
3.20134668e-11
3.39099479e-11
3.59141859e-11
3.80320085e-11
4.02695397e-11
4.26332311e-11
4.51298296e-11
4.77664482e-11
5.05505537e-11
5.34899709e-11
5.65929333e-11
5.98680743e-11
6.33244628e-11
6.6971606e-11
7.08194829e-11
7.48785575e-11
7.91598057e-11
8.36747458e-11
8.84354434e-11
9.34545495e-11
9.87453171e-11
1.04321636e-10
1.10198072e-10
1.1638986e-10
1.22912965e-10
1.29784109e-10
1.37020787e-10
1.44641326e-10
1.52664879e-10
1.61111505e-10
1.70002193e-10
1.7935887e-10
1.89204492e-10
1.99563047e-10
2.10459598e-10
2.21920349e-10
2.33972687e-10
2.46645213e-10
2.59967798e-10
2.73971635e-10
2.88689298e-10
3.0415478e-10
3.20403559e-10
3.37472663e-10
3.55400701e-10
3.74227953e-10
3.93996427e-10
4.14749901e-10
4.36534022e-10
4.59396355e-10
4.83386452e-10
5.08555937e-10
5.34958573e-10
5.62650336e-10
5.916895e-10
6.22136712e-10
6.54055086e-10
6.87510272e-10
7.2257056e-10