/*--------------------------------*- C++ -*----------------------------------*\
| =========                 |                                                 |
| \\      /  F ield         | OpenFOAM: The Open Source CFD Toolbox           |
|  \\    /   O peration     | Version:  2206                                  |
|   \\  /    A nd           | Website:  www.openfoam.com                      |
|    \\/     M anipulation  |                                                 |
\*---------------------------------------------------------------------------*/
FoamFile
{
    version     2.0;
    format      ascii;
    arch        "LSB;label=32;scalar=64";
    class       volVectorField;
    location    "1.64e-05";
    object      U;
}
// * * * * * * * * * * * * * * * * * * * * * * * * * * * * * * * * * * * * * //

dimensions      [0 1 -1 0 0 0 0];

internalField   nonuniform List<vector> 
3183
(
(4.89698828e-13 0 0)
(2.09023609e-13 0 0)
(-3.52659774e-13 0 0)
(-4.28966795e-13 0 0)
(-1.74254237e-13 0 0)
(-1.2165817e-17 0 0)
(-9.21002187e-19 0 0)
(-8.84955476e-23 0 0)
(4.27881985e-20 0 0)
(2.11442442e-18 0 0)
(3.42269482e-14 0 0)
(2.96953869e-13 0 0)
(7.25711155e-13 0 0)
(2.8893349e-13 0 0)
(1.85242726e-13 0 0)
(7.33926022e-15 0 0)
(-3.98614181e-13 0 0)
(-7.0030236e-13 0 0)
(-9.80627638e-13 0 0)
(-2.48061342e-13 0 0)
(3.60107383e-13 0 0)
(2.09540996e-16 0 0)
(1.47162355e-13 0 0)
(3.81352745e-13 0 0)
(4.6533131e-13 0 0)
(8.62919481e-13 0 0)
(9.20573696e-13 0 0)
(7.31480107e-13 0 0)
(1.71809713e-13 0 0)
(1.04478979e-13 0 0)
(-3.90433221e-14 0 0)
(7.87348775e-15 0 0)
(-6.20538376e-13 0 0)
(-8.82401953e-13 0 0)
(-6.96894511e-13 0 0)
(-7.44344095e-13 0 0)
(-1.13587514e-12 0 0)
(-1.26260664e-12 0 0)
(-1.23513522e-12 0 0)
(-1.08681149e-12 0 0)
(-6.03348968e-13 0 0)
(-9.52319083e-14 0 0)
(4.47921336e-13 0 0)
(4.62251308e-13 0 0)
(1.19155627e-12 0 0)
(1.67693003e-12 0 0)
(1.53453249e-12 0 0)
(1.74473203e-12 0 0)
(1.58269044e-12 0 0)
(1.5787985e-12 0 0)
(1.13902836e-12 0 0)
(9.84048192e-13 0 0)
(1.52062196e-13 0 0)
(5.02059493e-14 0 0)
(-5.44554257e-13 0 0)
(-1.29075559e-12 0 0)
(-1.6950357e-12 0 0)
(-2.22092262e-12 0 0)
(-2.82406383e-12 0 0)
(-3.04981659e-12 0 0)
(-3.56876213e-12 0 0)
(-4.35921746e-12 0 0)
(-4.24439109e-12 0 0)
(-5.06918526e-12 0 0)
(-4.73696515e-12 0 0)
(-5.18326842e-12 0 0)
(-5.50896733e-12 0 0)
(-5.05357182e-12 0 0)
(-5.29749301e-12 0 0)
(-5.86233087e-12 0 0)
(-5.78468286e-12 0 0)
(-5.99985185e-12 0 0)
(-5.69564828e-12 0 0)
(-6.03847785e-12 0 0)
(-6.74140153e-12 0 0)
(-6.20523571e-12 0 0)
(-6.48669631e-12 0 0)
(-6.3628446e-12 0 0)
(-6.37303396e-12 0 0)
(-6.3685646e-12 0 0)
(-7.46026962e-12 0 0)
(-6.07648446e-12 0 0)
(-6.66011011e-12 0 0)
(-7.61939873e-12 0 0)
(-7.20394157e-12 0 0)
(-7.01195349e-12 0 0)
(-7.39501264e-12 0 0)
(-7.89022363e-12 0 0)
(-7.07672914e-12 0 0)
(-7.82981111e-12 0 0)
(-9.2397703e-12 0 0)
(-9.02789019e-12 0 0)
(-8.70869325e-12 0 0)
(-9.16722109e-12 0 0)
(-9.47238646e-12 0 0)
(-1.00551471e-11 0 0)
(-9.63485861e-12 0 0)
(-8.73304834e-12 0 0)
(-9.98972063e-12 0 0)
(-9.37456622e-12 0 0)
(-9.29933096e-12 0 0)
(-9.49669175e-12 0 0)
(-9.49235729e-12 0 0)
(-9.69139685e-12 0 0)
(-9.55102217e-12 0 0)
(-9.37449887e-12 0 0)
(-9.02186364e-12 0 0)
(-1.01982365e-11 0 0)
(-1.06426662e-11 0 0)
(-1.00896508e-11 0 0)
(-9.29543759e-12 0 0)
(-9.25595121e-12 0 0)
(-9.30451892e-12 0 0)
(-9.89073192e-12 0 0)
(-1.02826228e-11 0 0)
(-1.1043022e-11 0 0)
(-9.87789613e-12 0 0)
(-9.65934037e-12 0 0)
(-1.00780379e-11 0 0)
(-1.13563072e-11 0 0)
(-1.10267194e-11 0 0)
(-1.04215437e-11 0 0)
(-1.03395473e-11 0 0)
(-1.07747428e-11 0 0)
(-1.09392659e-11 0 0)
(-1.05830416e-11 0 0)
(-1.09238881e-11 0 0)
(-1.19025021e-11 0 0)
(-1.05982408e-11 0 0)
(-1.12606199e-11 0 0)
(-1.06103419e-11 0 0)
(-1.05131145e-11 0 0)
(-1.21063993e-11 0 0)
(-1.21723896e-11 0 0)
(-1.0785717e-11 0 0)
(-1.20442396e-11 0 0)
(-1.2273934e-11 0 0)
(-1.1627016e-11 0 0)
(-1.18862956e-11 0 0)
(-1.18055609e-11 0 0)
(-1.22219156e-11 0 0)
(-1.17572957e-11 0 0)
(-1.19337775e-11 0 0)
(-1.21243353e-11 0 0)
(-1.15456057e-11 0 0)
(-1.23395221e-11 0 0)
(-1.23160584e-11 0 0)
(-1.32470257e-11 0 0)
(-1.29854854e-11 0 0)
(-1.24456439e-11 0 0)
(-1.19225274e-11 0 0)
(-1.30865369e-11 0 0)
(-1.26802641e-11 0 0)
(-1.16109841e-11 0 0)
(-1.28118249e-11 0 0)
(-1.15519993e-11 0 0)
(-1.27701727e-11 0 0)
(-1.25437932e-11 0 0)
(-1.21469703e-11 0 0)
(-1.31239822e-11 0 0)
(-1.39621127e-11 0 0)
(-1.33051473e-11 0 0)
(-1.31292452e-11 0 0)
(-1.33522576e-11 0 0)
(-1.39341361e-11 0 0)
(-1.31932451e-11 0 0)
(-1.3015958e-11 0 0)
(-1.25389466e-11 0 0)
(-1.3231974e-11 0 0)
(-1.42675356e-11 0 0)
(-1.32329847e-11 0 0)
(-1.28744451e-11 0 0)
(-1.38518553e-11 0 0)
(-1.28898579e-11 0 0)
(-1.37330095e-11 0 0)
(-1.32505691e-11 0 0)
(-1.40293286e-11 0 0)
(-1.30690576e-11 0 0)
(-1.29163614e-11 0 0)
(-1.48591752e-11 0 0)
(-1.27741164e-11 0 0)
(-1.32958729e-11 0 0)
(-1.266969e-11 0 0)
(-1.35614116e-11 0 0)
(-1.31924519e-11 0 0)
(-1.31390131e-11 0 0)
(-1.33695354e-11 0 0)
(-1.30828507e-11 0 0)
(-1.34098994e-11 0 0)
(-1.2840462e-11 0 0)
(-1.28282718e-11 0 0)
(-1.38279949e-11 0 0)
(-1.40083581e-11 0 0)
(-1.44551918e-11 0 0)
(-1.47414766e-11 0 0)
(-1.40368893e-11 0 0)
(-1.37641854e-11 0 0)
(-1.3796501e-11 0 0)
(-1.45265949e-11 0 0)
(-1.47425813e-11 0 0)
(-1.38317305e-11 0 0)
(-1.43438551e-11 0 0)
(-1.39758541e-11 0 0)
(-1.52439017e-11 0 0)
(-1.50150471e-11 0 0)
(-1.4579353e-11 0 0)
(-1.39040749e-11 0 0)
(-1.4424063e-11 0 0)
(-1.60375439e-11 0 0)
(-1.40155313e-11 0 0)
(-1.41642809e-11 0 0)
(-1.48388786e-11 0 0)
(-1.4174485e-11 0 0)
(-1.49406242e-11 0 0)
(-1.41045046e-11 0 0)
(-1.49888765e-11 0 0)
(-1.41681202e-11 0 0)
(-1.43054635e-11 0 0)
(-1.34310212e-11 0 0)
(-1.48619543e-11 0 0)
(-1.45086432e-11 0 0)
(-1.54168476e-11 0 0)
(-1.5021684e-11 0 0)
(-1.49686091e-11 0 0)
(-1.44526013e-11 0 0)
(-1.49614024e-11 0 0)
(-1.46754688e-11 0 0)
(-1.60983108e-11 0 0)
(-1.53762127e-11 0 0)
(-1.52322881e-11 0 0)
(-1.46384218e-11 0 0)
(-1.55173365e-11 0 0)
(-1.58401219e-11 0 0)
(-1.52047185e-11 0 0)
(-1.49166868e-11 0 0)
(-1.48225275e-11 0 0)
(-1.47431758e-11 0 0)
(-1.60324847e-11 0 0)
(-1.59337464e-11 0 0)
(-1.54064689e-11 0 0)
(-1.62809334e-11 0 0)
(-1.68199249e-11 0 0)
(-1.51800399e-11 0 0)
(-1.64433105e-11 0 0)
(-1.6874566e-11 0 0)
(-1.6597227e-11 0 0)
(-1.64667646e-11 0 0)
(-1.6630486e-11 0 0)
(-1.70958861e-11 0 0)
(-1.66342135e-11 0 0)
(-1.70711803e-11 0 0)
(-1.79766436e-11 0 0)
(-1.81106108e-11 0 0)
(-1.75563788e-11 0 0)
(-1.89634286e-11 0 0)
(-1.72784395e-11 0 0)
(-1.83760712e-11 0 0)
(-1.75736695e-11 0 0)
(-1.77334037e-11 0 0)
(-1.74285318e-11 0 0)
(-1.81230162e-11 0 0)
(-1.82891338e-11 0 0)
(-1.82616674e-11 0 0)
(-1.73600322e-11 0 0)
(-1.81522857e-11 0 0)
(-1.77454068e-11 0 0)
(-1.81453523e-11 0 0)
(-1.83562697e-11 0 0)
(-1.78610216e-11 0 0)
(-1.81110054e-11 0 0)
(-1.8343805e-11 0 0)
(-1.87982507e-11 0 0)
(-1.87549201e-11 0 0)
(-1.8317446e-11 0 0)
(-1.92112675e-11 0 0)
(-1.78901688e-11 0 0)
(-1.89583176e-11 0 0)
(-1.92463958e-11 0 0)
(-1.8423977e-11 0 0)
(-1.87347587e-11 0 0)
(-1.79634345e-11 0 0)
(-1.88871859e-11 0 0)
(-1.93980356e-11 0 0)
(-1.97407603e-11 0 0)
(-1.98447365e-11 0 0)
(-1.98730566e-11 0 0)
(-1.95131228e-11 0 0)
(-1.95822834e-11 0 0)
(-2.01406101e-11 0 0)
(-1.952674e-11 0 0)
(-1.95010124e-11 0 0)
(-1.95855883e-11 0 0)
(-1.98872542e-11 0 0)
(-1.92135169e-11 0 0)
(-1.92734514e-11 0 0)
(-1.88534484e-11 0 0)
(-1.90772007e-11 0 0)
(-1.9803496e-11 0 0)
(-1.90301411e-11 0 0)
(-1.9641891e-11 0 0)
(-1.88548592e-11 0 0)
(-1.97805255e-11 0 0)
(-1.86651978e-11 0 0)
(-1.96472602e-11 0 0)
(-1.99871911e-11 0 0)
(-2.04577392e-11 0 0)
(-1.87265571e-11 0 0)
(-1.95012095e-11 0 0)
(-2.05858843e-11 0 0)
(-1.95129964e-11 0 0)
(-2.01575944e-11 0 0)
(-2.01411845e-11 0 0)
(-1.98577361e-11 0 0)
(-2.01413138e-11 0 0)
(-2.01356083e-11 0 0)
(-2.06828156e-11 0 0)
(-2.00541796e-11 0 0)
(-2.0303985e-11 0 0)
(-1.98725781e-11 0 0)
(-1.98477924e-11 0 0)
(-2.02578614e-11 0 0)
(-1.99577897e-11 0 0)
(-1.97200875e-11 0 0)
(-1.95648967e-11 0 0)
(-2.01008479e-11 0 0)
(-1.9405941e-11 0 0)
(-2.00907668e-11 0 0)
(-1.87443108e-11 0 0)
(-1.9776481e-11 0 0)
(-1.96402285e-11 0 0)
(-1.8787173e-11 0 0)
(-1.90995299e-11 0 0)
(-1.93899633e-11 0 0)
(-1.89095057e-11 0 0)
(-1.84706984e-11 0 0)
(-1.86526293e-11 0 0)
(-1.83726014e-11 0 0)
(-1.98036302e-11 0 0)
(-1.88389257e-11 0 0)
(-1.93821805e-11 0 0)
(-1.88099775e-11 0 0)
(-1.97914919e-11 0 0)
(-1.86409209e-11 0 0)
(-1.75861353e-11 0 0)
(-1.92787244e-11 0 0)
(-1.90471723e-11 0 0)
(-1.96221075e-11 0 0)
(-1.85637923e-11 0 0)
(-1.88238885e-11 0 0)
(-2.01442516e-11 0 0)
(-1.89114031e-11 0 0)
(-1.91259786e-11 0 0)
(-1.94003218e-11 0 0)
(-1.91579167e-11 0 0)
(-1.8645651e-11 0 0)
(-1.96161161e-11 0 0)
(-2.00415433e-11 0 0)
(-1.98515623e-11 0 0)
(-2.05532512e-11 0 0)
(-1.82924129e-11 0 0)
(-1.95100767e-11 0 0)
(-1.9598248e-11 0 0)
(-1.86899133e-11 0 0)
(-1.91947696e-11 0 0)
(-1.83902252e-11 0 0)
(-1.90064758e-11 0 0)
(-1.85061878e-11 0 0)
(-1.85571847e-11 0 0)
(-1.84503154e-11 0 0)
(-1.86933397e-11 0 0)
(-1.78877685e-11 0 0)
(-1.78850154e-11 0 0)
(-1.82412208e-11 0 0)
(-1.69260367e-11 0 0)
(-1.76154454e-11 0 0)
(-1.85794387e-11 0 0)
(-1.78424593e-11 0 0)
(-1.8238366e-11 0 0)
(-1.79615859e-11 0 0)
(-1.82794784e-11 0 0)
(-1.84061279e-11 0 0)
(-1.75390102e-11 0 0)
(-1.81935672e-11 0 0)
(-1.77473375e-11 0 0)
(-1.77778867e-11 0 0)
(-1.77733596e-11 0 0)
(-1.74517444e-11 0 0)
(-1.82769232e-11 0 0)
(-1.76847427e-11 0 0)
(-1.71437621e-11 0 0)
(-1.66109682e-11 0 0)
(-1.67967419e-11 0 0)
(-1.63541009e-11 0 0)
(-1.51936439e-11 0 0)
(-1.52487396e-11 0 0)
(-1.42971526e-11 0 0)
(-1.47924511e-11 0 0)
(-1.52665323e-11 0 0)
(-1.49520507e-11 0 0)
(-1.42809356e-11 0 0)
(-1.50340604e-11 0 0)
(-1.5060133e-11 0 0)
(-1.47834082e-11 0 0)
(-1.50936203e-11 0 0)
(-1.52680191e-11 0 0)
(-1.47834038e-11 0 0)
(-1.5555658e-11 0 0)
(-1.53816059e-11 0 0)
(-1.32925593e-11 0 0)
(-1.46260657e-11 0 0)
(-1.43694182e-11 0 0)
(-1.39403716e-11 0 0)
(-1.35110353e-11 0 0)
(-1.34635353e-11 0 0)
(-1.414817e-11 0 0)
(-1.4303232e-11 0 0)
(-1.37194691e-11 0 0)
(-1.31532173e-11 0 0)
(-1.40537842e-11 0 0)
(-1.41567636e-11 0 0)
(-1.36295093e-11 0 0)
(-1.36818721e-11 0 0)
(-1.26374024e-11 0 0)
(-1.36949272e-11 0 0)
(-1.43685545e-11 0 0)
(-1.43222417e-11 0 0)
(-1.37990375e-11 0 0)
(-1.38227471e-11 0 0)
(-1.37924761e-11 0 0)
(-1.27084244e-11 0 0)
(-1.33756419e-11 0 0)
(-1.41495238e-11 0 0)
(-1.4296771e-11 0 0)
(-1.41259489e-11 0 0)
(-1.36759724e-11 0 0)
(-1.38218465e-11 0 0)
(-1.42411502e-11 0 0)
(-1.45385288e-11 0 0)
(-1.29125969e-11 0 0)
(-1.38287488e-11 0 0)
(-1.30688652e-11 0 0)
(-1.37163389e-11 0 0)
(-1.36069504e-11 0 0)
(-1.26766604e-11 0 0)
(-1.32199244e-11 0 0)
(-1.2455188e-11 0 0)
(-1.32798885e-11 0 0)
(-1.24984833e-11 0 0)
(-1.24923988e-11 0 0)
(-1.21804265e-11 0 0)
(-1.23571515e-11 0 0)
(-1.24463891e-11 0 0)
(-1.31640334e-11 0 0)
(-1.24161449e-11 0 0)
(-1.20828065e-11 0 0)
(-1.21884514e-11 0 0)
(-1.29915413e-11 0 0)
(-1.24378594e-11 0 0)
(-1.29259355e-11 0 0)
(-1.16970009e-11 0 0)
(-1.33596132e-11 0 0)
(-1.34202867e-11 0 0)
(-1.26396254e-11 0 0)
(-1.28539291e-11 0 0)
(-1.25471467e-11 0 0)
(-1.29436028e-11 0 0)
(-1.23271448e-11 0 0)
(-1.13557386e-11 0 0)
(-1.0895568e-11 0 0)
(-1.20284757e-11 0 0)
(-1.05661635e-11 0 0)
(-1.02752641e-11 0 0)
(-1.0594778e-11 0 0)
(-1.09709271e-11 0 0)
(-1.11291234e-11 0 0)
(-1.07783088e-11 0 0)
(-9.95743942e-12 0 0)
(-1.08898675e-11 0 0)
(-9.72580136e-12 0 0)
(-1.01375965e-11 0 0)
(-9.63601013e-12 0 0)
(-1.02033779e-11 0 0)
(-1.00591427e-11 0 0)
(-9.10695958e-12 0 0)
(-9.40039068e-12 0 0)
(-9.59457568e-12 0 0)
(-9.3526862e-12 0 0)
(-1.02194897e-11 0 0)
(-9.63532771e-12 0 0)
(-9.29131734e-12 0 0)
(-9.24321032e-12 0 0)
(-9.36992217e-12 0 0)
(-9.25267113e-12 0 0)
(-1.00440005e-11 0 0)
(-8.64958804e-12 0 0)
(-9.1228913e-12 0 0)
(-9.10268764e-12 0 0)
(-9.09253341e-12 0 0)
(-8.51157863e-12 0 0)
(-8.69385962e-12 0 0)
(-9.35222374e-12 0 0)
(-8.26213081e-12 0 0)
(-8.86803191e-12 0 0)
(-9.30434417e-12 0 0)
(-7.64228511e-12 0 0)
(-8.152225e-12 0 0)
(-8.08574405e-12 0 0)
(-6.98870634e-12 0 0)
(-7.92344211e-12 0 0)
(-8.21415897e-12 0 0)
(-8.97308591e-12 0 0)
(-8.68331456e-12 0 0)
(-8.89663896e-12 0 0)
(-8.18320644e-12 0 0)
(-8.97857246e-12 0 0)
(-7.53976192e-12 0 0)
(-8.93609893e-12 0 0)
(-6.99455761e-12 0 0)
(-7.31356943e-12 0 0)
(-7.54623245e-12 0 0)
(-8.92421743e-12 0 0)
(-7.06885111e-12 0 0)
(-6.97682863e-12 0 0)
(-8.11326141e-12 0 0)
(-7.7655118e-12 0 0)
(-7.18135919e-12 0 0)
(-6.95300042e-12 0 0)
(-6.12848177e-12 0 0)
(-6.4329576e-12 0 0)
(-6.71929454e-12 0 0)
(-6.68302243e-12 0 0)
(-5.80631538e-12 0 0)
(-6.4722893e-12 0 0)
(-7.75274142e-12 0 0)
(-6.29094325e-12 0 0)
(-6.86526731e-12 0 0)
(-5.78079033e-12 0 0)
(-6.19701238e-12 0 0)
(-6.49160052e-12 0 0)
(-6.79758406e-12 0 0)
(-5.69918219e-12 0 0)
(-5.0874865e-12 0 0)
(-5.58236727e-12 0 0)
(-6.31317524e-12 0 0)
(-5.30967712e-12 0 0)
(-4.41978695e-12 0 0)
(-5.71541669e-12 0 0)
(-4.39592387e-12 0 0)
(-4.72979013e-12 0 0)
(-5.32672318e-12 0 0)
(-3.66573783e-12 0 0)
(-4.18085045e-12 0 0)
(-4.49805741e-12 0 0)
(-4.23758152e-12 0 0)
(-4.57435796e-12 0 0)
(-3.34828952e-12 0 0)
(-3.42128266e-12 0 0)
(-3.12895365e-12 0 0)
(-4.10896185e-12 0 0)
(-2.99253182e-12 0 0)
(-3.15212798e-12 0 0)
(-3.58217177e-12 0 0)
(-3.30232251e-12 0 0)
(-2.43360035e-12 0 0)
(-2.84686643e-12 0 0)
(-1.86051176e-12 0 0)
(-1.00500902e-12 0 0)
(-1.81803026e-12 0 0)
(-9.22002392e-13 0 0)
(-2.18444829e-12 0 0)
(-2.01341755e-12 0 0)
(-1.12990461e-12 0 0)
(-1.44297883e-12 0 0)
(-1.45440675e-12 0 0)
(-9.85899499e-13 0 0)
(-1.39394354e-12 0 0)
(-1.62044118e-12 0 0)
(-1.40487254e-12 0 0)
(-1.74024604e-12 0 0)
(-2.38959309e-12 0 0)
(-2.80099116e-12 0 0)
(-1.95759241e-12 0 0)
(-7.0114431e-13 0 0)
(-1.80286094e-12 0 0)
(-2.00598127e-12 0 0)
(-1.13186491e-12 0 0)
(-1.25852166e-12 0 0)
(-1.64944106e-12 0 0)
(-5.90534361e-13 0 0)
(-1.64048244e-12 0 0)
(-4.52554229e-13 0 0)
(-3.99203233e-13 0 0)
(4.6939103e-13 0 0)
(8.43376046e-13 0 0)
(-4.72292749e-13 0 0)
(-6.06716926e-14 0 0)
(-1.64773719e-13 0 0)
(6.04781781e-13 0 0)
(3.23765391e-13 0 0)
(1.0544027e-12 0 0)
(8.17823888e-13 0 0)
(8.57359266e-13 0 0)
(4.56247892e-13 0 0)
(7.98775168e-13 0 0)
(6.33555103e-13 0 0)
(-9.80639315e-14 0 0)
(7.40956197e-13 0 0)
(1.74381925e-13 0 0)
(-3.17043564e-13 0 0)
(6.32123322e-14 0 0)
(2.4074663e-13 0 0)
(8.63409884e-13 0 0)
(6.46736513e-13 0 0)
(-7.66265649e-15 0 0)
(2.06111392e-13 0 0)
(7.99846596e-13 0 0)
(6.96595133e-14 0 0)
(7.2420688e-13 0 0)
(4.22975093e-13 0 0)
(9.68645891e-13 0 0)
(1.31019423e-12 0 0)
(4.65175966e-13 0 0)
(6.80211523e-13 0 0)
(1.46797644e-12 0 0)
(7.83053371e-13 0 0)
(7.59470407e-13 0 0)
(1.11961939e-12 0 0)
(1.18308655e-12 0 0)
(1.53340212e-12 0 0)
(6.54583551e-13 0 0)
(3.89301026e-13 0 0)
(8.95599632e-13 0 0)
(1.74533525e-12 0 0)
(1.21766284e-12 0 0)
(1.19222503e-12 0 0)
(9.56162413e-13 0 0)
(1.51570621e-12 0 0)
(1.12090562e-12 0 0)
(1.27423912e-12 0 0)
(1.18572697e-12 0 0)
(1.33436007e-12 0 0)
(1.82316277e-12 0 0)
(2.07595001e-12 0 0)
(1.93956258e-12 0 0)
(2.23118078e-12 0 0)
(1.76980402e-12 0 0)
(2.90017137e-12 0 0)
(2.08245286e-12 0 0)
(1.24189563e-12 0 0)
(3.2942761e-12 0 0)
(1.77839521e-12 0 0)
(2.63825861e-12 0 0)
(2.50789449e-12 0 0)
(2.46883851e-12 0 0)
(1.30748231e-12 0 0)
(2.26584406e-12 0 0)
(2.60069384e-12 0 0)
(1.709249e-12 0 0)
(1.97314232e-12 0 0)
(1.84949036e-12 0 0)
(2.25246907e-12 0 0)
(3.38024597e-12 0 0)
(3.37484797e-12 0 0)
(2.10293017e-12 0 0)
(2.77537721e-12 0 0)
(2.49687953e-12 0 0)
(2.91693809e-12 0 0)
(3.47268317e-12 0 0)
(3.69131126e-12 0 0)
(3.27802373e-12 0 0)
(4.41301723e-12 0 0)
(3.28838382e-12 0 0)
(3.73808285e-12 0 0)
(3.17585736e-12 0 0)
(4.19598696e-12 0 0)
(3.63766002e-12 0 0)
(4.06888566e-12 0 0)
(3.30175928e-12 0 0)
(4.35573959e-12 0 0)
(3.95313313e-12 0 0)
(3.58920519e-12 0 0)
(4.72890589e-12 0 0)
(4.73592686e-12 0 0)
(5.7218439e-12 0 0)
(4.7193165e-12 0 0)
(4.78667163e-12 0 0)
(4.88896239e-12 0 0)
(5.99579533e-12 0 0)
(4.6323581e-12 0 0)
(6.30839665e-12 0 0)
(6.56346369e-12 0 0)
(6.04494602e-12 0 0)
(6.13755045e-12 0 0)
(5.93178749e-12 0 0)
(6.74037718e-12 0 0)
(6.60331653e-12 0 0)
(6.60085349e-12 0 0)
(6.25632669e-12 0 0)
(6.89613359e-12 0 0)
(7.62298252e-12 0 0)
(7.18064931e-12 0 0)
(6.88509361e-12 0 0)
(8.31299875e-12 0 0)
(7.41183833e-12 0 0)
(8.25431959e-12 0 0)
(7.68409078e-12 0 0)
(8.76694351e-12 0 0)
(8.30472516e-12 0 0)
(7.98412886e-12 0 0)
(9.21274598e-12 0 0)
(9.39206669e-12 0 0)
(8.80707858e-12 0 0)
(9.20645762e-12 0 0)
(9.71165679e-12 0 0)
(9.23707824e-12 0 0)
(9.2288645e-12 0 0)
(9.58002431e-12 0 0)
(9.68588349e-12 0 0)
(9.52455298e-12 0 0)
(8.73862806e-12 0 0)
(9.19449926e-12 0 0)
(9.22335833e-12 0 0)
(9.31811659e-12 0 0)
(9.57630677e-12 0 0)
(8.13746819e-12 0 0)
(9.17370649e-12 0 0)
(8.0775017e-12 0 0)
(8.14374036e-12 0 0)
(8.63663712e-12 0 0)
(9.17331852e-12 0 0)
(8.07253153e-12 0 0)
(8.24462288e-12 0 0)
(8.26610816e-12 0 0)
(7.91688787e-12 0 0)
(8.16455497e-12 0 0)
(7.85730144e-12 0 0)
(8.70686741e-12 0 0)
(7.89310497e-12 0 0)
(8.79960493e-12 0 0)
(8.08339564e-12 0 0)
(8.90021502e-12 0 0)
(8.31937791e-12 0 0)
(8.55665659e-12 0 0)
(9.07053128e-12 0 0)
(8.1328338e-12 0 0)
(8.06249467e-12 0 0)
(8.48760305e-12 0 0)
(7.94331873e-12 0 0)
(8.66660026e-12 0 0)
(8.52026904e-12 0 0)
(7.80194904e-12 0 0)
(7.6750919e-12 0 0)
(8.30874791e-12 0 0)
(7.75526134e-12 0 0)
(7.9652835e-12 0 0)
(8.59384071e-12 0 0)
(7.88969596e-12 0 0)
(7.26976291e-12 0 0)
(8.03240169e-12 0 0)
(7.58004384e-12 0 0)
(7.94235603e-12 0 0)
(7.84569782e-12 0 0)
(7.70152017e-12 0 0)
(7.67902261e-12 0 0)
(7.99088263e-12 0 0)
(8.70386693e-12 0 0)
(7.7133806e-12 0 0)
(8.3925074e-12 0 0)
(9.14603559e-12 0 0)
(8.25035603e-12 0 0)
(8.71495843e-12 0 0)
(7.69081769e-12 0 0)
(8.51605807e-12 0 0)
(8.86350217e-12 0 0)
(8.50452201e-12 0 0)
(8.69877969e-12 0 0)
(9.33085384e-12 0 0)
(9.67544763e-12 0 0)
(8.94617081e-12 0 0)
(9.0183416e-12 0 0)
(9.20689866e-12 0 0)
(8.69102199e-12 0 0)
(9.47376005e-12 0 0)
(9.12910309e-12 0 0)
(9.43792418e-12 0 0)
(9.57816277e-12 0 0)
(9.62834286e-12 0 0)
(9.88383541e-12 0 0)
(9.05749006e-12 0 0)
(9.77418981e-12 0 0)
(9.37915659e-12 0 0)
(1.02238652e-11 0 0)
(8.61826586e-12 0 0)
(8.51551375e-12 0 0)
(9.36439594e-12 0 0)
(9.96012464e-12 0 0)
(9.33512366e-12 0 0)
(9.08478895e-12 0 0)
(9.55859512e-12 0 0)
(8.65042515e-12 0 0)
(9.43571146e-12 0 0)
(9.56609577e-12 0 0)
(1.01089449e-11 0 0)
(9.22658856e-12 0 0)
(9.76875712e-12 0 0)
(9.61373163e-12 0 0)
(9.6450199e-12 0 0)
(9.24918767e-12 0 0)
(8.9663982e-12 0 0)
(9.58301405e-12 0 0)
(1.01183961e-11 0 0)
(9.55212722e-12 0 0)
(9.39092845e-12 0 0)
(1.01969558e-11 0 0)
(8.87864487e-12 0 0)
(8.95115556e-12 0 0)
(9.56375102e-12 0 0)
(9.1691955e-12 0 0)
(8.46030225e-12 0 0)
(8.83575095e-12 0 0)
(9.21224704e-12 0 0)
(8.95678771e-12 0 0)
(1.00436253e-11 0 0)
(1.05383939e-11 0 0)
(1.04953243e-11 0 0)
(1.01737195e-11 0 0)
(1.03278378e-11 0 0)
(1.02257931e-11 0 0)
(1.02384028e-11 0 0)
(1.09175978e-11 0 0)
(1.00604866e-11 0 0)
(1.09973381e-11 0 0)
(9.32231894e-12 0 0)
(1.06243419e-11 0 0)
(1.07251509e-11 0 0)
(1.0758441e-11 0 0)
(1.02752391e-11 0 0)
(1.07399908e-11 0 0)
(1.08691783e-11 0 0)
(1.15994191e-11 0 0)
(1.06301638e-11 0 0)
(1.04601294e-11 0 0)
(1.12967528e-11 0 0)
(1.11067083e-11 0 0)
(1.09048988e-11 0 0)
(1.17925368e-11 0 0)
(1.10777071e-11 0 0)
(1.16367437e-11 0 0)
(1.13133947e-11 0 0)
(1.13319764e-11 0 0)
(1.07565187e-11 0 0)
(1.14328236e-11 0 0)
(1.028846e-11 0 0)
(1.09620307e-11 0 0)
(1.06079406e-11 0 0)
(1.02977785e-11 0 0)
(1.06445875e-11 0 0)
(1.23077451e-11 0 0)
(1.18829113e-11 0 0)
(1.08515473e-11 0 0)
(1.12285676e-11 0 0)
(1.09113853e-11 0 0)
(1.22259497e-11 0 0)
(1.17150779e-11 0 0)
(1.09961968e-11 0 0)
(1.04921651e-11 0 0)
(1.13144628e-11 0 0)
(1.06071599e-11 0 0)
(1.00701132e-11 0 0)
(1.05661188e-11 0 0)
(1.03882457e-11 0 0)
(1.05294027e-11 0 0)
(1.07157299e-11 0 0)
(1.07232499e-11 0 0)
(1.00090771e-11 0 0)
(9.70739442e-12 0 0)
(1.05151951e-11 0 0)
(1.05520535e-11 0 0)
(9.9549801e-12 0 0)
(9.90790392e-12 0 0)
(9.87034489e-12 0 0)
(9.37221867e-12 0 0)
(8.74107335e-12 0 0)
(9.44423961e-12 0 0)
(8.79475666e-12 0 0)
(8.24121536e-12 0 0)
(9.1210101e-12 0 0)
(8.82187531e-12 0 0)
(9.20093451e-12 0 0)
(9.43257331e-12 0 0)
(9.18124242e-12 0 0)
(8.53625114e-12 0 0)
(9.45060654e-12 0 0)
(9.29136487e-12 0 0)
(8.15256643e-12 0 0)
(9.32859553e-12 0 0)
(7.93561267e-12 0 0)
(9.54423825e-12 0 0)
(9.00547841e-12 0 0)
(8.08864548e-12 0 0)
(8.91799464e-12 0 0)
(9.18533407e-12 0 0)
(9.14991112e-12 0 0)
(9.61639908e-12 0 0)
(1.01716723e-11 0 0)
(9.77337867e-12 0 0)
(9.74117183e-12 0 0)
(9.05965666e-12 0 0)
(9.80036464e-12 0 0)
(9.53908218e-12 0 0)
(9.0255872e-12 0 0)
(9.24516147e-12 0 0)
(1.0165039e-11 0 0)
(8.63651181e-12 0 0)
(9.59273951e-12 0 0)
(8.65491948e-12 0 0)
(9.74024466e-12 0 0)
(8.51005564e-12 0 0)
(7.87196208e-12 0 0)
(9.30188326e-12 0 0)
(9.31406456e-12 0 0)
(8.87677153e-12 0 0)
(8.85543927e-12 0 0)
(9.93643446e-12 0 0)
(9.46907963e-12 0 0)
(9.45272031e-12 0 0)
(8.91959703e-12 0 0)
(9.52557946e-12 0 0)
(9.50350417e-12 0 0)
(8.29568828e-12 0 0)
(1.05135722e-11 0 0)
(8.87636653e-12 0 0)
(9.15085768e-12 0 0)
(9.92888003e-12 0 0)
(9.94558661e-12 0 0)
(9.26744626e-12 0 0)
(8.57914681e-12 0 0)
(9.27063365e-12 0 0)
(9.9608815e-12 0 0)
(9.28840729e-12 0 0)
(8.67974307e-12 0 0)
(9.63359439e-12 0 0)
(1.0275775e-11 0 0)
(1.06622688e-11 0 0)
(9.34501256e-12 0 0)
(1.02303192e-11 0 0)
(1.04515258e-11 0 0)
(1.04357043e-11 0 0)
(1.01457726e-11 0 0)
(1.08914828e-11 0 0)
(1.04745525e-11 0 0)
(1.01568055e-11 0 0)
(1.12311846e-11 0 0)
(1.01286129e-11 0 0)
(9.84171298e-12 0 0)
(9.95152987e-12 0 0)
(1.01521328e-11 0 0)
(9.91818855e-12 0 0)
(9.88195245e-12 0 0)
(9.73024162e-12 0 0)
(9.97434246e-12 0 0)
(1.15679363e-11 0 0)
(1.03521835e-11 0 0)
(1.11180238e-11 0 0)
(9.92904556e-12 0 0)
(9.87210693e-12 0 0)
(9.84060365e-12 0 0)
(9.84635553e-12 0 0)
(1.06335632e-11 0 0)
(1.05620163e-11 0 0)
(9.97962148e-12 0 0)
(1.0712311e-11 0 0)
(1.06760071e-11 0 0)
(1.06782588e-11 0 0)
(1.04932032e-11 0 0)
(9.68990207e-12 0 0)
(9.39856229e-12 0 0)
(8.5973179e-12 0 0)
(9.1168051e-12 0 0)
(8.86310347e-12 0 0)
(8.75256715e-12 0 0)
(8.48101207e-12 0 0)
(9.03629215e-12 0 0)
(8.8756867e-12 0 0)
(8.62357667e-12 0 0)
(8.69766986e-12 0 0)
(9.52222444e-12 0 0)
(9.81205368e-12 0 0)
(9.25852844e-12 0 0)
(9.44574481e-12 0 0)
(8.23536059e-12 0 0)
(1.01494486e-11 0 0)
(9.59854858e-12 0 0)
(8.38389304e-12 0 0)
(9.0052732e-12 0 0)
(9.40964893e-12 0 0)
(8.9459023e-12 0 0)
(8.41698055e-12 0 0)
(8.82842309e-12 0 0)
(7.74251719e-12 0 0)
(8.60358292e-12 0 0)
(7.74716227e-12 0 0)
(8.62385237e-12 0 0)
(7.9021805e-12 0 0)
(8.07414551e-12 0 0)
(7.82714202e-12 0 0)
(7.31954987e-12 0 0)
(8.46044741e-12 0 0)
(7.48770699e-12 0 0)
(7.6505613e-12 0 0)
(6.83391681e-12 0 0)
(7.30464448e-12 0 0)
(7.47274146e-12 0 0)
(7.52843827e-12 0 0)
(7.02526368e-12 0 0)
(7.07192036e-12 0 0)
(7.55393223e-12 0 0)
(6.86585272e-12 0 0)
(7.02172647e-12 0 0)
(6.48809199e-12 0 0)
(7.02203622e-12 0 0)
(6.94161299e-12 0 0)
(6.74238125e-12 0 0)
(5.65647676e-12 0 0)
(7.09830602e-12 0 0)
(5.42414663e-12 0 0)
(6.45061413e-12 0 0)
(7.66967223e-12 0 0)
(5.63844586e-12 0 0)
(6.61635093e-12 0 0)
(6.66245769e-12 0 0)
(5.02432001e-12 0 0)
(5.65135926e-12 0 0)
(5.57640858e-12 0 0)
(6.32343429e-12 0 0)
(4.91721052e-12 0 0)
(6.06928555e-12 0 0)
(5.28839073e-12 0 0)
(4.90101507e-12 0 0)
(4.27252954e-12 0 0)
(4.6400205e-12 0 0)
(4.97196802e-12 0 0)
(4.98071515e-12 0 0)
(4.64793944e-12 0 0)
(4.05543866e-12 0 0)
(3.89279424e-12 0 0)
(4.0588467e-12 0 0)
(4.83090644e-12 0 0)
(3.85177922e-12 0 0)
(4.16922559e-12 0 0)
(4.5298882e-12 0 0)
(3.58830211e-12 0 0)
(3.64460149e-12 0 0)
(3.78969897e-12 0 0)
(3.75020747e-12 0 0)
(3.3828299e-12 0 0)
(3.30152693e-12 0 0)
(3.98783737e-12 0 0)
(3.50154223e-12 0 0)
(2.90693173e-12 0 0)
(2.29143868e-12 0 0)
(4.20725551e-12 0 0)
(3.54476506e-12 0 0)
(2.66709367e-12 0 0)
(3.28141025e-12 0 0)
(2.86872412e-12 0 0)
(2.57376836e-12 0 0)
(2.43958126e-12 0 0)
(2.63271419e-12 0 0)
(2.20119331e-12 0 0)
(3.25926557e-12 0 0)
(4.42482188e-12 0 0)
(4.08281781e-12 0 0)
(2.94940817e-12 0 0)
(3.12994611e-12 0 0)
(3.27282847e-12 0 0)
(3.49497761e-12 0 0)
(2.27722593e-12 0 0)
(3.09608328e-12 0 0)
(2.83925967e-12 0 0)
(2.31470275e-12 0 0)
(2.72387721e-12 0 0)
(3.02371184e-12 0 0)
(2.81933228e-12 0 0)
(3.02319571e-12 0 0)
(2.02474766e-12 0 0)
(2.34990972e-12 0 0)
(2.27455056e-12 0 0)
(2.25822454e-12 0 0)
(2.9280452e-12 0 0)
(2.50003085e-12 0 0)
(1.69857028e-12 0 0)
(1.58063394e-12 0 0)
(9.18366987e-13 0 0)
(1.90651499e-12 0 0)
(8.53640652e-13 0 0)
(9.29780906e-13 0 0)
(2.0255872e-12 0 0)
(8.10121811e-13 0 0)
(2.61702791e-13 0 0)
(1.35342086e-12 0 0)
(7.4996718e-13 0 0)
(-3.12523136e-13 0 0)
(5.41282272e-14 0 0)
(-3.38082273e-13 0 0)
(-1.01745995e-12 0 0)
(9.38064587e-13 0 0)
(3.7062102e-13 0 0)
(-1.94973509e-13 0 0)
(-2.40336011e-14 0 0)
(-6.36297773e-13 0 0)
(-9.62908181e-13 0 0)
(-6.89944092e-13 0 0)
(-1.04072464e-12 0 0)
(-1.28734711e-12 0 0)
(-1.58651999e-12 0 0)
(-1.38095412e-12 0 0)
(-1.14199823e-12 0 0)
(-1.78740324e-12 0 0)
(-1.91207303e-12 0 0)
(-3.08650991e-12 0 0)
(-2.05232264e-12 0 0)
(-2.02025972e-12 0 0)
(-2.63409466e-12 0 0)
(-2.48885058e-12 0 0)
(-2.53107161e-12 0 0)
(-1.93056213e-12 0 0)
(-2.63941529e-12 0 0)
(-2.95602133e-12 0 0)
(-3.28502347e-12 0 0)
(-3.00714404e-12 0 0)
(-3.08533512e-12 0 0)
(-3.00911016e-12 0 0)
(-3.43720411e-12 0 0)
(-3.83553365e-12 0 0)
(-2.61950937e-12 0 0)
(-3.19305172e-12 0 0)
(-3.75426231e-12 0 0)
(-3.51704482e-12 0 0)
(-2.52709066e-12 0 0)
(-3.81037688e-12 0 0)
(-3.57488807e-12 0 0)
(-3.70400107e-12 0 0)
(-3.66697918e-12 0 0)
(-2.90988781e-12 0 0)
(-4.23087631e-12 0 0)
(-3.31415097e-12 0 0)
(-3.84456283e-12 0 0)
(-4.03080724e-12 0 0)
(-3.34979539e-12 0 0)
(-2.85427441e-12 0 0)
(-3.44325702e-12 0 0)
(-3.2183873e-12 0 0)
(-3.3010154e-12 0 0)
(-3.19522024e-12 0 0)
(-3.50937632e-12 0 0)
(-2.5149316e-12 0 0)
(-3.12038449e-12 0 0)
(-3.69948317e-12 0 0)
(-3.66199129e-12 0 0)
(-3.46231774e-12 0 0)
(-3.59823122e-12 0 0)
(-3.58973111e-12 0 0)
(-3.22541706e-12 0 0)
(-4.76534005e-12 0 0)
(-4.79663411e-12 0 0)
(-3.97375297e-12 0 0)
(-3.76125342e-12 0 0)
(-4.89139572e-12 0 0)
(-4.20614944e-12 0 0)
(-3.78569052e-12 0 0)
(-4.95971207e-12 0 0)
(-4.59757549e-12 0 0)
(-4.12927426e-12 0 0)
(-4.56803101e-12 0 0)
(-5.22718107e-12 0 0)
(-3.70268443e-12 0 0)
(-4.96673965e-12 0 0)
(-5.30011819e-12 0 0)
(-4.6041477e-12 0 0)
(-4.63900602e-12 0 0)
(-5.01356792e-12 0 0)
(-6.54441717e-12 0 0)
(-5.87621146e-12 0 0)
(-5.82718585e-12 0 0)
(-5.77580027e-12 0 0)
(-6.3178122e-12 0 0)
(-6.57744143e-12 0 0)
(-6.68798172e-12 0 0)
(-6.85934547e-12 0 0)
(-7.20580155e-12 0 0)
(-8.54695313e-12 0 0)
(-7.5695815e-12 0 0)
(-6.94020114e-12 0 0)
(-5.44712065e-12 0 0)
(-7.33066162e-12 0 0)
(-6.97062739e-12 0 0)
(-7.24321625e-12 0 0)
(-6.76592959e-12 0 0)
(-8.24533885e-12 0 0)
(-7.56423612e-12 0 0)
(-9.23394285e-12 0 0)
(-8.72907495e-12 0 0)
(-9.09261032e-12 0 0)
(-9.19422031e-12 0 0)
(-8.88574869e-12 0 0)
(-8.90025999e-12 0 0)
(-8.59922804e-12 0 0)
(-8.96683808e-12 0 0)
(-9.51152356e-12 0 0)
(-8.64542378e-12 0 0)
(-9.11952235e-12 0 0)
(-9.46207909e-12 0 0)
(-9.67144786e-12 0 0)
(-9.69542737e-12 0 0)
(-9.9356654e-12 0 0)
(-1.04873721e-11 0 0)
(-9.63206603e-12 0 0)
(-9.93417264e-12 0 0)
(-9.74033036e-12 0 0)
(-9.28342852e-12 0 0)
(-9.80711023e-12 0 0)
(-1.0149899e-11 0 0)
(-1.03748869e-11 0 0)
(-1.03173639e-11 0 0)
(-1.11075416e-11 0 0)
(-1.15575539e-11 0 0)
(-1.04901085e-11 0 0)
(-1.11480536e-11 0 0)
(-1.0972408e-11 0 0)
(-1.11774107e-11 0 0)
(-1.12119606e-11 0 0)
(-1.14994166e-11 0 0)
(-1.00192425e-11 0 0)
(-1.12518905e-11 0 0)
(-1.07694363e-11 0 0)
(-1.06528033e-11 0 0)
(-1.16220543e-11 0 0)
(-1.14940585e-11 0 0)
(-1.13385814e-11 0 0)
(-1.06684481e-11 0 0)
(-1.17292066e-11 0 0)
(-1.09214271e-11 0 0)
(-1.18115231e-11 0 0)
(-1.0840009e-11 0 0)
(-1.14506514e-11 0 0)
(-1.17131451e-11 0 0)
(-1.224336e-11 0 0)
(-1.20890316e-11 0 0)
(-1.24305842e-11 0 0)
(-1.11176128e-11 0 0)
(-1.20638684e-11 0 0)
(-1.17055511e-11 0 0)
(-1.22267959e-11 0 0)
(-1.19904211e-11 0 0)
(-1.1296758e-11 0 0)
(-1.27523074e-11 0 0)
(-1.25668152e-11 0 0)
(-1.28329373e-11 0 0)
(-1.1805983e-11 0 0)
(-1.23922411e-11 0 0)
(-1.21069141e-11 0 0)
(-1.25697012e-11 0 0)
(-1.21368748e-11 0 0)
(-1.22956067e-11 0 0)
(-1.19378296e-11 0 0)
(-1.13518585e-11 0 0)
(-1.25760446e-11 0 0)
(-1.19231696e-11 0 0)
(-1.125323e-11 0 0)
(-1.24512562e-11 0 0)
(-1.16384475e-11 0 0)
(-1.20232304e-11 0 0)
(-1.26622854e-11 0 0)
(-1.20514783e-11 0 0)
(-1.21202921e-11 0 0)
(-1.27859438e-11 0 0)
(-1.2063986e-11 0 0)
(-1.23870999e-11 0 0)
(-1.21370025e-11 0 0)
(-1.22024203e-11 0 0)
(-1.39662928e-11 0 0)
(-1.2674615e-11 0 0)
(-1.28546415e-11 0 0)
(-1.27996169e-11 0 0)
(-1.21825199e-11 0 0)
(-1.28974279e-11 0 0)
(-1.31937369e-11 0 0)
(-1.32850781e-11 0 0)
(-1.31047041e-11 0 0)
(-1.23461129e-11 0 0)
(-1.35504036e-11 0 0)
(-1.17260928e-11 0 0)
(-1.27166841e-11 0 0)
(-1.24462987e-11 0 0)
(-1.17555237e-11 0 0)
(-1.1506281e-11 0 0)
(-1.20072261e-11 0 0)
(-1.21104727e-11 0 0)
(-1.21599185e-11 0 0)
(-1.28764272e-11 0 0)
(-1.27118327e-11 0 0)
(-1.24407954e-11 0 0)
(-1.22126411e-11 0 0)
(-1.26592887e-11 0 0)
(-1.17431024e-11 0 0)
(-1.20904941e-11 0 0)
(-1.20330018e-11 0 0)
(-1.29074588e-11 0 0)
(-1.23382736e-11 0 0)
(-1.18462288e-11 0 0)
(-1.27925547e-11 0 0)
(-1.22486048e-11 0 0)
(-1.22569273e-11 0 0)
(-1.27654447e-11 0 0)
(-1.26389642e-11 0 0)
(-1.27683291e-11 0 0)
(-1.22459162e-11 0 0)
(-1.26348406e-11 0 0)
(-1.21609683e-11 0 0)
(-1.21997096e-11 0 0)
(-1.22933089e-11 0 0)
(-1.23368381e-11 0 0)
(-1.26255378e-11 0 0)
(-1.18932626e-11 0 0)
(-1.13479119e-11 0 0)
(-1.16705765e-11 0 0)
(-1.17564976e-11 0 0)
(-1.19723868e-11 0 0)
(-1.17771325e-11 0 0)
(-1.19556042e-11 0 0)
(-1.23551886e-11 0 0)
(-1.22619247e-11 0 0)
(-1.15356978e-11 0 0)
(-1.18006069e-11 0 0)
(-1.13271027e-11 0 0)
(-1.09379681e-11 0 0)
(-1.19160927e-11 0 0)
(-1.18168064e-11 0 0)
(-1.15254556e-11 0 0)
(-1.06555204e-11 0 0)
(-1.20335351e-11 0 0)
(-1.11810319e-11 0 0)
(-1.04293239e-11 0 0)
(-1.17385871e-11 0 0)
(-1.14751396e-11 0 0)
(-1.05111609e-11 0 0)
(-1.19843724e-11 0 0)
(-1.02766514e-11 0 0)
(-1.0697644e-11 0 0)
(-1.03888512e-11 0 0)
(-1.15656585e-11 0 0)