/*--------------------------------*- C++ -*----------------------------------*\
| =========                 |                                                 |
| \\      /  F ield         | OpenFOAM: The Open Source CFD Toolbox           |
|  \\    /   O peration     | Version:  2206                                  |
|   \\  /    A nd           | Website:  www.openfoam.com                      |
|    \\/     M anipulation  |                                                 |
\*---------------------------------------------------------------------------*/
FoamFile
{
    version     2.0;
    format      ascii;
    arch        "LSB;label=32;scalar=64";
    class       volScalarField;
    location    "1.62e-05";
    object      p;
}
// * * * * * * * * * * * * * * * * * * * * * * * * * * * * * * * * * * * * * //

dimensions      [1 -1 -2 0 0 0 0];

internalField   nonuniform List<scalar> 
3183
(
101325
101325
101325
101325
101325
101325
101325
101325
101325
101325
101325
101325
101325
101325
101325
101325
101325
101325
101325
101325
101325
101325
101325
101325
101325
101325
101325
101325
101325
101325
101325
101325
101325
101325
101325
101325
101325
101325
101325
101325
101325
101325
101325
101325
101325
101325
101325
101325
101325
101325
101325
101325
101325
101325
101325
101325
101325
101325
101325
101325
101325
101325
101325
101325
101325
101325
101325
101325
101325
101325
101325
101325
101325
101325
101325
101325
101325
101325
101325
101325
101325
101325
101325
101325
101325
101325
101325
101325
101325
101325
101325
101325
101325
101325
101325
101325
101325
101325
101325
101325
101325
101325
101325
101325
101325
101325
101325
101325
101325
101325
101325
101325
101325
101325
101325
101325
101325
101325
101325
101325
101325
101325
101325
101325
101325
101325
101325
101325
101325
101325
101325
101325
101325
101325
101325
101325
101325
101325
101325
101325
101325
101325
101325
101325
101325
101325
101325
101325
101325
101325
101325
101325
101325
101325
101325
101325
101325
101325
101325
101325
101325
101325
101325
101325
101325
101325
101325
101325
101325
101325
101325
101325
101325
101325
101325
101325
101325
101325
101325
101325
101325
101325
101325
101325
101325
101325
101325
101325
101325
101325
101325
101325
101325
101325
101325
101325
101325
101325
101325
101325
101325
101325
101325
101325
101325
101325
101325
101325
101325
101325
101325
101325
101325
101325
101325
101325
101325
101325
101325
101325
101325
101325
101325
101325
101325
101325
101325
101325
101325
101325
101325
101325
101325
101325
101325
101325
101325
101325
101325
101325
101325
101325
101325
101325
101325
101325
101325
101325
101325
101325
101325
101325
101325
101325
101325
101325
101325
101325
101325
101325
101325
101325
101325
101325
101325
101325
101325
101325
101325
101325
101325
101325
101325
101325
101325
101325
101325
101325
101325
101325
101325
101325
101325
101325
101325
101325
101325
101325
101325
101325
101325
101325
101325
101325
101325
101325
101325
101325
101325
101325
101325
101325
101325
101325
101325
101325
101325
101325
101325
101325
101325
101325
101325
101325
101325
101325
101325
101325
101325
101325
101325
101325
101325
101325
101325
101325
101325
101325
101325
101325
101325
101325
101325
101325
101325
101325
101325
101325
101325
101325
101325
101325
101325
101325
101325
101325
101325
101325
101325
101325
101325
101325
101325
101325
101325
101325
101325
101325
101325
101325
101325
101325
101325
101325
101325
101325
101325
101325
101325
101325
101325
101325
101325
101325
101325
101325
101325
101325
101325
101325
101325
101325
101325
101325
101325
101325
101325
101325
101325
101325
101325
101325
101325
101325
101325
101325
101325
101325
101325
101325
101325
101325
101325
101325
101325
101325
101325
101325
101325
101325
101325
101325
101325
101325
101325
101325
101325
101325
101325
101325
101325
101325
101325
101325
101325
101325
101325
101325
101325
101325
101325
101325
101325
101325
101325
101325
101325
101325
101325
101325
101325
101325
101325
101325
101325
101325
101325
101325
101325
101325
101325
101325
101325
101325
101325
101325
101325
101325
101325
101325
101325
101325
101325
101325
101325
101325
101325
101325
101325
101325
101325
101325
101325
101325
101325
101325
101325
101325
101325
101325
101325
101325
101325
101325
101325
101325
101325
101325
101325
101325
101325
101325
101325
101325
101325
101325
101325
101325
101325
101325
101325
101325
101325
101325
101325
101325
101325
101325
101325
101325
101325
101325
101325
101325
101325
101325
101325
101325
101325
101325
101325
101325
101325
101325
101325
101325
101325
101325
101325
101325
101325
101325
101325
101325
101325
101325
101325
101325
101325
101325
101325
101325
101325
101325
101325
101325
101325
101325
101325
101325
101325
101325
101325
101325
101325
101325
101325
101325
101325
101325
101325
101325
101325
101325
101325
101325
101325
101325
101325
101325
101325
101325
101325
101325
101325
101325
101325
101325
101325
101325
101325
101325
101325
101325
101325
101325
101325
101325
101325
101325
101325
101325
101325
101325
101325
101325
101325
101325
101325
101325
101325
101325
101325
101325
101325
101325
101325
101325
101325
101325
101325
101325
101325
101325
101325
101325
101325
101325
101325
101325
101325
101325
101325
101325
101325
101325
101325
101325
101325
101325
101325
101325
101325
101325
101325
101325
101325
101325
101325
101325
101325
101325
101325
101325
101325
101325
101325
101325
101325
101325
101325
101325
101325
101325
101325
101325
101325
101325
101325
101325
101325
101325
101325
101325
101325
101325
101325
101325
101325
101325
101325
101325
101325
101325
101325
101325
101325
101325
101325
101325
101325
101325
101325
101325
101325
101325
101325
101325
101325
101325
101325
101325
101325
101325
101325
101325
101325
101325
101325
101325
101325
101325
101325
101325
101325
101325
101325
101325
101325
101325
101325
101325
101325
101325
101325
101325
101325
101325
101325
101325
101325
101325
101325
101325
101325
101325
101325
101325
101325
101325
101325
101325
101325
101325
101325
101325
101325
101325
101325
101325
101325
101325
101325
101325
101325
101325
101325
101325
101325
101325
101325
101325
101325
101325
101325
101325
101325
101325
101325
101325
101325
101325
101325
101325
101325
101325
101325
101325
101325
101325
101325
101325
101325
101325
101325
101325
101325
101325
101325
101325
101325
101325
101325
101325
101325
101325
101325
101325
101325
101325
101325
101325
101325
101325
101325
101325
101325
101325
101325
101325
101325
101325
101325
101325
101325
101325
101325
101325
101325
101325
101325
101325
101325
101325
101325
101325
101325
101325
101325
101325
101325
101325
101325
101325
101325
101325
101325
101325
101325
101325
101325
101325
101325
101325
101325
101325
101325
101325
101325
101325
101325
101325
101325
101325
101325
101325
101325
101325
101325
101325
101325
101325
101325
101325
101325
101325
101325
101325
101325
101325
101325
101325
101325
101325
101325
101325
101325
101325
101325
101325
101325
101325
101325
101325
101325
101325
101325
101325
101325
101325
101325
101325
101325
101325
101325
101325
101325
101325
101325
101325
101325
101325
101325
101325
101325
101325
101325
101325
101325
101325
101325
101325
101325
101325
101325
101325
101325
101325
101325
101325
101325
101325
101325
101325
101325
101325
101325
101325
101325
101325
101325
101325
101325
101325
101325
101325
101325
101325
101325
101325
101325
101325
101325
101325
101325
101325
101325
101325
101325
101325
101325
101325
101325
101325
101325
101325
101325
101325
101325
101325
101325
101325
101325
101325
101325
101325
101325
101325
101325
101325
101325
101325
101325
101325
101325
101325
101325
101325
101325
101325
101325
101325
101325
101325
101325
101325
101325
101325
101325
101325
101325
101325
101325
101325
101325
101325
101325
101325
101325
101325
101325
101325
101325
101325
101325
101325
101325
101325
101325
101325
101325
101325
101325
101325
101325
101325
101325
101325
101325
101325
101325
101325
101325
101325
101325
101325
101325
101325
101325
101325
101325
101325
101325
101325
101325
101325
101325
101325
101325
101325
101325
101325
101325
101325
101325
101325
101325
101325
101325
101325
101325
101325
101325
101325
101325
101325
101325
101325
101325
101325
101325
101325
101325
101325
101325
101325
101325
101325
101325
101325
101325
101325
101325
101325
101325
101325
101325
101325
101325
101325
101325
101325
101325
101325
101325
101325
101325
101325
101325
101325
101325
101325
101325
101325
101325
101325
101325
101325
101325
101325
101325
101325
101325
101325
101325
101325
101325
101325
101325
101325
101325
101325
101325
101325
101325
101325
101325
101325
101325
101325
101325
101325
101325
101325
101325
101325
101325
101325
101325
101325
101325
101325
101325
101325
101325
101325
101325
101325
101325
101325
101325
101325
101325
101325
101325
101325
101325
101325
101325
101325
101325
101325
101325
101325
101325
101325
101325
101325
101325
101325
101325
101325
101325
101325
101325
101325
101325
101325
101325
101325
101325
101325
101325
101325
101325
101325
101325
101325
101325
101325
101325
101325
101325
101325
101325
101325
101325
101325
101325
101325
101325
101325
101325
101325
101325
101325
101325
101325
101325
101325
101325
101325
101325
101325
101325
101325
101325
101325
101325
101325
101325
101325
101325
101325
101325
101325
101325
101325
101325
101325
101325
101325
101325
101325
101325
101325
101325
101325
101325
101325
101325
101325
101325
101325
101325
101325
101325
101325
101325
101325
101325
101325
101325
101325
101325
101325
101325
101325
101325
101325
101325
101325
101325
101325
101325
101325
101325
101325
101325
101325
101325
101325
101325
101325
101325
101325
101325
101325
101325
101325
101325
101325
101325
101325
101325
101325
101325
101325
101325
101325
101325
101325
101325
101325
101325
101325
101325
101325
101325
101325
101325
101325
101325
101325
101325
101325
101325
101325
101325
101325
101325
101325
101325
101325
101325
101325
101325
101325
101325
101325
101325
101325
101325
101325
101325
101325
101325
101325
101325
101325
101325
101325
101325
101325
101325
101325
101325
101325
101325
101325
101325
101325
101325
101325
101325
101325
101325
101325
101325
101325
101325
101325
101325
101325
101325
101325
101325
101325
101325
101325
101325
101325
101325
101325
101325
101325
101325
101325
101325
101325
101325
101325
101325
101325
101325
101325
101325
101325
101325
101325
101325
101325
101325
101325
101325
101325
101325
101325
101325
101325
101325
101325
101325
101325
101325
101325
101325
101325
101325
101325
101325
101325
101325
101325
101325
101325
101325
101325
101325
101325
101325
101325
101325
101325
101325
101325
101325
101325
101325
101325
101325
101325
101325
101325
101325
101325
101325
101325
101325
101325
101325
101325
101325
101325
101325
101325
101325
101325
101325
101325
101325
101325
101325
101325
101325
101325
101325
101325
101325
101325
101325
101325
101325
101325
101325
101325
101325
101325
101325
101325
101325
101325
101325
101325
101325
101325
101325
101325
101325
101325
101325
101325
101325
101325
101325
101325
101325
101325
101325
101325
101325
101325
101325
101325
101325
101325
101325
101325
101325
101325
101325
101325
101325
101325
101325
101325
101325
101325
101325
101325
101325
101325
101325
101325
101325
101325
101325
101325
101325
101325
101325
101325
101325
101325
101325
101325
101325
101325
101325
101325
101325
101325
101325
101325
101325
101325
101325
101325
101325
101325
101325
101325
101325
101325
101325
101325
101325
101325
101325
101325
101325
101325
101325
101325
101325
101325
101325
101325
101325
101325
101325
101325
101325
101325
101325
101325
101325
101325
101325
101325
101325
101325
101325
101325
101325
101325
101325
101325
101325
101325
101325
101325
101325
101325
101325
101325
101325
101325
101325
101325
101325
101325
101325
101325
101325
101325
101325
101325
101325
101325
101325
101325
101325
101325
101325
101325
101325
101325
101325
101325
101325
101325
101325
101325
101325
101325
101325
101325
101325
101325
101325
101325
101325
101325
101325
101325
101325
101325
101325
101325
101325
101325
101325
101325
101325
101325
101325
101325
101325
101325
101325
101325
101325
101325
101325
101325
101325
101325
101325
101325
101325
101325
101325
101325
101325
101325
101325
101325
101325
101325
101325
101325
101325
101325
101325
101325
101325
101325
101325
101325
101325
101325
101325
101325
101325
101325
101325
101325
101325
101325
101325
101325
101325
101325
101325
101325
101325
101325
101325
101325
101325
101325
101325
101325
101325
101325
101325
101325
101325
101325
101325
101325
101325
101325
101325
101325
101325
101325
101325
101325
101325
101325
101325
101325
101325
101325
101325
101325
101325
101325
101325
101325
101325
101325
101325
101325
101325
101325
101325
101325
101325
101325
101325
101325
101325
101325
101325
101325
101325
101325
101325
101325
101325
101325
101325
101325
101325
101325
101325
101325
101325
101325
101325
101325
101325
101325
101325
101325
101325
101325
101325
101325
101325
101325
101325
101325
101325
101325
101325
101325
101325
101325
101325
101325
101325
101325
101325
101325
101325
101325
101325
101325
101325
101325
101325
101325
101325
101325
101325
101325
101325
101325
101325
101325
101325
101325
101325
101325
101325
101325
101325
101325
101325
101325
101325
101325
101325
101325
101325
101325
101325
101325
101325
101325
101325
101325
101325
101325
101325
101325
101325
101325
101325
101325
101325
101325
101325
101325
101325
101325
101325
101325
101325
101325
101325
101325
101325
101325
101325
101325
101325
101325
101324.999
101324.999
101324.999
101324.999
101324.999
101324.999
101324.999
101324.999
101324.999
101324.999
101324.999
101324.999
101324.999
101324.999
101324.999
101324.999
101324.999
101324.999
101324.999
101324.998
101324.998
101324.998
101324.998
101324.998
101324.998
101324.998
101324.998
101324.997
101324.997
101324.997
101324.997
101324.997
101324.997
101324.996
101324.996
101324.996
101324.996
101324.996
101324.995
101324.995
101324.995
101324.995
101324.994
101324.994
101324.994
101324.993
101324.993
101324.992
101324.992
101324.992
101324.991
101324.991
101324.99
101324.989
101324.989
101324.988
101324.988
101324.987
101324.986
101324.986
101324.985
101324.984
101324.983
101324.982
101324.981
101324.98
101324.979
101324.978
101324.977
101324.976
101324.974
101324.973
101324.972
101324.97
101324.969
101324.967
101324.965
101324.964
101324.962
101324.96
101324.958
101324.956
101324.953
101324.951
101324.949
101324.946
101324.943
101324.941
101324.938
101324.935
101324.931
101324.928
101324.924
101324.921
101324.917
101324.913
101324.909
101324.904
101324.9
101324.895
101324.89
101324.885
101324.879
101324.874
101324.868
101324.862
101324.855
101324.848
101324.841
101324.834
101324.826
101324.819
101324.81
101324.802
101324.793
101324.783
101324.774
101324.764
101324.753
101324.742
101324.731
101324.719
101324.706
101324.694
101324.68
101324.666
101324.652
101324.637
101324.622
101324.606
101324.589
101324.571
101324.553
101324.535
101324.515
101324.495
101324.474
101324.453
101324.43
101324.407
101324.383
101324.358
101324.332
101324.305
101324.278
101324.249
101324.219
101324.188
101324.157
101324.124
101324.09
101324.055
101324.018
101323.981
101323.942
101323.902
101323.861
101323.818
101323.774
101323.728
101323.682
101323.633
101323.583
101323.532
101323.479
101323.424
101323.368
101323.31
101323.25
101323.188
101323.125
101323.06
101322.993
101322.924
101322.853
101322.78
101322.705
101322.628
101322.548
101322.467
101322.383
101322.298
101322.21
101322.119
101322.026
101321.931
101321.834
101321.734
101321.631
101321.526
101321.419
101321.309
101321.196
101321.08
101320.962
101320.841
101320.718
101320.591
101320.462
101320.33
101320.195
101320.057
101319.916
101319.773
101319.626
101319.477
101319.324
101319.168
101319.01
101318.848
101318.683
101318.515
101318.344
101318.17
101317.993
101317.813
101317.63
101317.444
101317.255
101317.062
101316.867
101316.668
101316.467
101316.262
101316.055
101315.845
101315.631
101315.415
101315.196
101314.974
101314.749
101314.522
101314.292
101314.059
101313.823
101313.585
101313.345
101313.102
101312.856
101312.609
101312.359
101312.106
101311.852
101311.596
101311.338
101311.078
101310.816
101310.552
101310.287
101310.02
101309.752
101309.483
101309.212
101308.941
101308.668
101308.394
101308.12
101307.845
101307.57
101307.294
101307.018
101306.742
101306.466
101306.19
101305.914
101305.638
101305.363
101305.089
101304.816
101304.543
101304.272
101304.002
101303.733
101303.465
101303.2
101302.936
101302.674
101302.414
101302.157
101301.901
101301.649
101301.399
101301.151
101300.907
101300.666
101300.428
101300.194
101299.962
101299.735
101299.511
101299.292
101299.076
101298.864
101298.657
101298.454
101298.256
101298.062
101297.873
101297.689
101297.509
101297.335
101297.166
101297.002
101296.844
101296.69
101296.543
101296.401
101296.264
101296.133
101296.008
101295.889
101295.775
101295.667
101295.566
101295.47
101295.38
101295.296
101295.218
101295.147
101295.081
101295.021
101294.967
101294.92
101294.878
101294.842
101294.813
101294.789
101294.771
101294.759
101294.752
101294.752
101294.757
101294.767
101294.783
101294.805
101294.832
101294.865
101294.902
101294.945
101294.992
101295.045
101295.103
101295.165
101295.232
101295.303
101295.379
101295.459
101295.543
101295.631
101295.723
101295.819
101295.918
101296.021
101296.127
101296.237
101296.349
101296.465
101296.583
101296.704
101296.828
101296.954
101297.082
101297.212
101297.345
101297.479
101297.614
101297.752
101297.891
101298.031
101298.172
101298.314
101298.457
101298.601
101298.746
101298.891
101299.036
101299.182
101299.328
101299.474
101299.619
101299.765
101299.91
101300.056
101300.2
101300.344
101300.487
101300.63
101300.772
101300.912
101301.052
101301.191
101301.329
101301.465
101301.6
101301.734
101301.867
101301.998
101302.127
101302.255
101302.382
101302.507
101302.63
101302.751
101302.871
101302.989
101303.106
101303.221
101303.334
101303.445
101303.554
101303.662
101303.767
101303.871
101303.973
101304.074
101304.172
101304.269
101304.364
101304.458
101304.549
101304.639
101304.727
101304.814
101304.899
101304.982
101305.064
101305.144
101305.222
101305.299
101305.375
101305.449
101305.522
101305.593
101305.663
101305.732
101305.799
101305.865
101305.93
101305.994
101306.056
101306.118
101306.178
101306.238
101306.296
101306.354
101306.41
101306.466
101306.521
101306.575
101306.628
101306.68
101306.732
101306.783
101306.833
101306.883
101306.932
101306.981
101307.028
101307.076
101307.123
101307.169
101307.215
101307.261
101307.306
101307.351
101307.395
101307.44
101307.483
101307.527
101307.57
101307.613
101307.655
101307.698
101307.74
101307.782
101307.823
101307.865
101307.906
101307.947
101307.987
101308.028
101308.068
101308.108
101308.148
101308.188
101308.228
101308.267
101308.306
101308.345
101308.384
101308.422
101308.461
101308.499
101308.537
101308.574
101308.612
101308.649
101308.686
101308.722
101308.758
101308.794
101308.83
101308.866
101308.901
101308.935
101308.97
101309.004
101309.038
101309.071
101309.104
101309.137
101309.169
101309.201
101309.232
101309.263
101309.294
101309.324
101309.354
101309.383
101309.412
101309.44
101309.468
101309.495
101309.522
101309.549
101309.575
101309.601
101309.626
101309.651
101309.675
101309.699
101309.722
101309.745
101309.767
101309.789
101309.811
101309.832
101309.853
101309.873
101309.893
101309.912
101309.932
101309.95
101309.969
101309.987
101310.005
101310.022
101310.039
101310.056
101310.073
101310.089
101310.105
101310.121
101310.137
101310.153
101310.168
101310.183
101310.198
101310.213
101310.228
101310.243
101310.258
101310.273
101310.288
101310.302
101310.317
101310.332
101310.347
101310.362
101310.377
101310.392
101310.407
101310.423
101310.438
101310.454
101310.47
101310.486
101310.502
101310.518
101310.535
101310.552
101310.569
101310.586
101310.603
101310.621
101310.639
101310.657
101310.675
101310.694
101310.713
101310.732
101310.751
101310.771
101310.791
101310.811
101310.831
101310.851
101310.872
101310.893
101310.913
101310.934
101310.956
101310.977
101310.998
101311.02
101311.041
101311.063
101311.085
101311.107
101311.128
101311.15
101311.172
101311.193
101311.215
101311.237
101311.258
101311.279
101311.301
101311.322
101311.343
101311.363
101311.384
101311.404
101311.425
101311.445
101311.464
101311.484
101311.503
101311.522
101311.541
101311.559
101311.577
101311.595
101311.613
101311.63
101311.647
101311.663
101311.68
101311.696
101311.712
101311.727
101311.742
101311.757
101311.772
101311.786
101311.8
101311.814
101311.828
101311.841
101311.854
101311.867
101311.88
101311.892
101311.905
101311.917
101311.929
101311.941
101311.952
101311.964
101311.975
101311.986
101311.998
101312.009
101312.02
101312.031
101312.041
101312.052
101312.063
101312.073
101312.084
101312.094
101312.105
101312.115
101312.126
101312.136
101312.146
101312.157
101312.167
101312.177
101312.187
101312.198
101312.208
101312.218
101312.228
101312.238
101312.248
101312.258
101312.268
101312.278
101312.287
101312.297
101312.307
101312.317
101312.326
101312.336
101312.345
101312.354
101312.363
101312.373
101312.382
101312.391
101312.4
101312.408
101312.417
101312.426
101312.434
101312.443
101312.451
101312.459
101312.468
101312.476
101312.484
101312.492
101312.5
101312.508
101312.516
101312.523
101312.531
101312.539
101312.547
101312.555
101312.563
101312.571
101312.579
101312.587
101312.595
101312.603
101312.611
101312.62
101312.628
101312.637
101312.646
101312.654
101312.663
101312.673
101312.682
101312.691
101312.701
101312.71
101312.72
101312.73
101312.74
101312.75
101312.76
101312.77
101312.78
101312.79
101312.8
101312.81
101312.819
101312.829
101312.838
101312.847
101312.856
101312.865
101312.873
101312.881
101312.888
101312.895
101312.901
101312.907
101312.913
101312.918
101312.922
101312.926
101312.929
101312.932
101312.934
101312.936
101312.937
101312.938
101312.939
101312.94
101312.941
101312.942
101312.943
101312.945
101312.948
101312.952
101312.957
101312.964
101312.974
101312.986
101313.001
101313.019
101313.042
101313.069
101313.102
101313.14
101313.171
101313.193
101313.503
101313.64
101313.553
101313.029
101312.895
101312.829
101312.885
101312.9
101312.958
101312.974
101313.014
101313.02
101313.032
101313.027
101313.023
101313.014
101313.006
101312.998
101312.991
101312.984
101312.979
101312.974
101312.97
101312.967
101312.964
101312.962
101312.96
101312.959
101312.958
101312.957
101312.956
101312.956
101312.955
101312.955
101312.955
101312.954
101312.954
101312.954
101312.954
101312.954
101312.953
101312.953
101312.952
101312.952
101312.951
101312.95
101312.949
101312.948
101312.947
101312.946
101312.944
101312.943
101312.941
101312.939
101312.937
101312.935
101312.933
101312.93
101312.928
101312.925
101312.922
101312.919
101312.916
101312.913
101312.909
101312.906
101312.902
101312.899
101312.895
101312.891
101312.887
101312.883
101312.879
101312.874
101312.87
101312.866
101312.861
101312.856
101312.852
101312.847
101312.842
101312.837
101312.833
101312.828
101312.823
101312.818
101312.813
101312.808
101312.802
101312.797
101312.792
101312.787
101312.782
101312.777
101312.772
101312.767
101312.762
101312.756
101312.751
101312.746
101312.741
101312.736
101312.731
101312.726
101312.721
101312.716
101312.711
101312.707
101312.702
101312.697
101312.692
101312.687
101312.683
101312.678
101312.674
101312.669
101312.664
101312.66
101312.655
101312.651
101312.647
101312.642
101312.638
101312.634
101312.629
101312.625
101312.621
101312.617
101312.613
101312.609
101312.605
101312.6
101312.596
101312.592
101312.588
101312.584
101312.58
101312.576
101312.573
101312.569
101312.565
101312.561
101312.557
101312.553
101312.549
101312.545
101312.541
101312.537
101312.533
101312.529
101312.526
101312.522
101312.518
101312.514
101312.51
101312.506
101312.502
101312.498
101312.494
101312.49
101312.486
101312.482
101312.478
101312.473
101312.469
101312.465
101312.461
101312.457
101312.453
101312.448
101312.444
101312.44
101312.436
101312.431
101312.427
101312.423
101312.418
101312.414
101312.409
101312.405
101312.4
101312.396
101312.391
101312.386
101312.382
101312.377
101312.372
101312.368
101312.363
101312.358
101312.353
101312.348
101312.344
101312.339
101312.334
101312.329
101312.324
101312.319
101312.314
101312.309
101312.304
101312.299
101312.294
101312.289
101312.284
101312.279
101312.274
101312.268
101312.263
101312.258
101312.253
101312.248
101312.242
101312.237
101312.232
101312.227
101312.221
101312.216
101312.211
101312.205
101312.2
101312.194
101312.189
101312.184
101312.178
101312.173
101312.167
101312.162
101312.156
101312.151
101312.145
101312.14
101312.134
101312.129
101312.123
101312.118
101312.112
101312.106
101312.101
101312.095
101312.089
101312.084
101312.078
101312.072
101312.067
101312.061
101312.055
101312.049
101312.044
101312.038
101312.032
101312.026
101312.02
101312.014
101312.008
101312.002
101311.996
101311.99
101311.984
101311.978
101311.972
101311.966
101311.96
101311.954
101311.948
101311.941
101311.935
101311.929
101311.923
101311.916
101311.91
101311.903
101311.897
101311.89
101311.884
101311.877
101311.87
101311.864
101311.857
101311.85
101311.843
101311.836
101311.829
101311.822
101311.815
101311.808
101311.801
101311.793
101311.786
101311.779
101311.771
101311.764
101311.756
101311.749
101311.741
101311.733
101311.725
101311.717
101311.709
101311.701
101311.693
101311.685
101311.677
101311.669
101311.66
101311.652
101311.643
101311.635
101311.626
101311.617
101311.608
101311.599
101311.591
101311.581
101311.572
101311.563
101311.554
101311.545
101311.535
101311.526
101311.516
101311.507
101311.497
101311.487
101311.478
101311.468
101311.458
101311.448
101311.438
101311.428
101311.418
101311.408
101311.397
101311.387
101311.377
101311.366
101311.356
101311.345
101311.335
101311.324
101311.314
101311.303
101311.292
101311.281
101311.271
101311.26
101311.249
101311.238
101311.227
101311.216
101311.205
101311.194
101311.183
101311.172
101311.161
101311.15
101311.139
101311.128
101311.117
101311.106
101311.095
101311.084
101311.073
101311.062
101311.051
101311.04
101311.028
101311.017
101311.006
101310.995
101310.984
101310.973
101310.962
101310.951
101310.941
101310.93
101310.919
101310.908
101310.897
101310.886
101310.876
101310.865
101310.854
101310.844
101310.833
101310.822
101310.812
101310.801
101310.791
101310.781
101310.77
101310.76
101310.75
101310.739
101310.729
101310.719
101310.709
101310.699
101310.689
101310.679
101310.669
101310.66
101310.65
101310.64
101310.631
101310.621
101310.611
101310.602
101310.592
101310.583
101310.574
101310.564
101310.555
101310.546
101310.537
101310.528
101310.519
101310.51
101310.501
101310.492
101310.483
101310.474
101310.465
101310.457
101310.448
101310.439
101310.431
101310.422
101310.414
101310.405
101310.397
101310.388
101310.38
101310.372
101310.363
101310.355
101310.347
101310.338
101310.33
101310.322
101310.314
101310.305
101310.297
101310.289
101310.281
101310.273
101310.264
101310.256
101310.248
101310.24
101310.232
101310.224
101310.216
101310.207
101310.199
101310.191
101310.183
101310.174
101310.166
101310.158
101310.15
101310.141
101310.133
101310.125
101310.116
101310.108
101310.099
101310.091
101310.082
101310.073
101310.065
101310.056
101310.047
101310.038
101310.03
101310.021
101310.012
101310.003
101309.994
101309.984
101309.975
101309.966
101309.956
101309.947
101309.938
101309.928
101309.918
101309.909
101309.899
101309.889
101309.879
101309.869
101309.859
101309.848
101309.838
101309.828
101309.817
101309.806
101309.796
101309.785
101309.774
101309.763
101309.752
101309.74
101309.728
101309.714
101309.699
101309.683
101309.666
101309.647
101309.627
101309.604
101309.58
101309.554
101309.525
101309.493
101309.458
101309.421
101309.379
101309.334
101309.284
101309.229
101309.168
101309.102
101309.029
101308.948
101308.86
101308.763
101308.656
101308.538
101308.41
101308.269
101308.115
101307.947
101307.763
101307.561
101307.34
101307.095
101306.821
101306.51
101306.148
101305.717
101305.192
101304.538
101303.711
101302.664
101301.353
101299.763
101297.937
101296.029
101294.336
101293.315
101293.502
101295.352
101299.004
101304.114
101309.864
101315.229
101319.432
101322.213
101323.778
101324.531
101324.842
101324.954
101324.988
101324.998
101325
101325
101325.001
101325.001
101325.001
101325.001
101325.001
101325.001
101325.001
101325.001
101325.001
101325
101325
101325
)
;

boundaryField
{
    closed
    {
        type            zeroGradient;
    }
    open
    {
        type            waveTransmissive;
        gamma           1.25;
        fieldInf        101325;
        lInf            1;
        value           uniform 101325;
    }
    sides
    {
        type            empty;
    }
}


// ************************************************************************* //
