/*--------------------------------*- C++ -*----------------------------------*\
| =========                 |                                                 |
| \\      /  F ield         | OpenFOAM: The Open Source CFD Toolbox           |
|  \\    /   O peration     | Version:  2206                                  |
|   \\  /    A nd           | Website:  www.openfoam.com                      |
|    \\/     M anipulation  |                                                 |
\*---------------------------------------------------------------------------*/
FoamFile
{
    version     2.0;
    format      ascii;
    arch        "LSB;label=32;scalar=64";
    class       volScalarField;
    location    "1.62e-05";
    object      sourcePV;
}
// * * * * * * * * * * * * * * * * * * * * * * * * * * * * * * * * * * * * * //

dimensions      [1 -3 -1 0 0 0 0];

internalField   nonuniform List<scalar> 
3183
(
0
0
0
0
0
0
0
0
0
0
0
0
0
0
0
0
0
0
0
0
0
0
0
0
0
0
0
0
0
0
0
0
0
0
0
0
0
0
0
0
0
0
0
0
0
0
0
0
0
0
0
0
0
0
0
0
0
0
0
0
0
0
0
0
0
0
0
0
0
0
0
0
0
0
0
0
0
0
0
0
0
0
0
0
0
0
0
0
0
0
0
0
0
0
0
0
0
0
0
0
0
0
0
0
0
0
0
0
0
0
0
0
0
0
0
0
0
0
0
0
0
0
0
0
0
0
0
0
0
0
0
0
0
0
0
0
0
0
0
0
0
0
0
0
0
0
0
0
0
0
0
0
0
0
0
0
0
0
0
0
0
0
0
0
0
0
0
0
0
0
0
0
0
0
0
0
0
0
0
0
0
0
0
0
0
0
0
0
0
0
0
0
0
0
0
0
0
0
0
0
0
0
0
0
0
0
0
0
0
0
0
0
0
0
0
0
0
0
0
0
0
0
0
0
0
0
0
0
0
0
0
0
0
0
0
0
0
0
0
0
0
0
0
0
0
0
0
0
0
0
0
0
0
0
0
0
0
0
0
0
0
0
0
0
0
0
0
0
0
0
0
0
0
0
0
0
0
0
0
0
0
0
0
0
0
0
0
0
0
0
0
0
0
0
0
0
0
0
0
0
0
0
0
0
0
0
0
0
0
0
0
0
0
0
0
0
0
0
0
0
0
0
0
0
0
0
0
0
0
0
0
0
0
0
0
0
0
0
0
0
0
0
0
0
0
0
0
0
0
0
0
0
0
0
0
0
0
0
0
0
0
0
0
0
0
0
0
0
0
0
0
0
0
0
0
0
0
0
0
0
0
0
0
0
0
0
0
0
0
0
0
0
0
0
0
0
0
0
0
0
0
0
0
0
0
0
0
0
0
0
0
0
0
0
0
0
0
0
0
0
0
0
0
0
0
0
0
0
0
0
0
0
0
0
0
0
0
0
0
0
0
0
0
0
0
0
0
0
0
0
0
0
0
0
0
0
0
0
0
0
0
0
0
0
0
0
0
0
0
0
0
0
0
0
0
0
0
0
0
0
0
0
0
0
0
0
0
0
0
0
0
0
0
0
0
0
0
0
0
0
0
0
0
0
0
0
0
0
0
0
0
0
0
0
0
0
0
0
0
0
0
0
0
0
0
0
0
0
0
0
0
0
0
0
0
0
0
0
0
0
0
0
0
0
0
0
0
0
0
0
0
0
0
0
0
0
0
0
0
0
0
0
0
0
0
0
0
0
0
0
0
0
0
0
0
0
0
0
0
0
0
0
0
0
0
0
0
0
0
0
0
0
0
0
0
0
0
0
0
0
0
0
0
0
0
0
0
0
0
0
0
0
0
0
0
0
0
0
0
0
0
0
0
0
0
0
0
0
0
0
0
0
0
0
0
0
0
0
0
0
0
0
0
0
0
0
0
0
0
0
0
0
0
0
0
0
0
0
0
0
0
0
0
0
0
0
0
0
0
0
0
0
0
0
0
0
0
0
0
0
0
0
0
0
0
0
0
0
0
0
0
0
0
0
0
0
0
0
0
0
0
0
0
0
0
0
0
0
0
0
0
0
0
0
0
0
0
0
0
0
0
0
0
0
0
0
0
0
0
0
0
0
0
0
0
0
0
0
0
0
0
0
0
0
0
0
0
0
0
0
0
0
0
0
0
0
0
0
0
0
0
0
0
0
0
0
0
0
0
0
0
0
0
0
0
0
0
0
0
0
0
0
0
0
0
0
0
0
0
0
0
0
0
0
0
0
0
0
0
0
0
0
0
0
0
0
0
0
0
0
0
0
0
0
0
0
0
0
0
0
0
0
0
0
0
0
0
0
0
0
0
0
0
0
0
0
0
0
0
0
0
0
0
0
0
0
0
0
0
0
0
0
0
0
0
0
0
0
0
0
0
0
0
0
0
0
0
0
0
0
0
0
0
0
0
0
0
0
0
0
0
0
0
0
0
0
0
0
0
0
0
0
0
0
0
0
0
0
0
0
0
0
0
0
0
0
0
0
0
0
0
0
0
0
0
0
0
0
0
0
0
0
0
0
0
0
0
0
0
0
0
0
0
0
0
0
0
0
0
0
0
0
0
0
0
0
0
0
0
0
0
0
0
0
0
0
0
0
0
0
0
0
0
0
0
0
0
0
0
0
0
0
0
0
0
0
0
0
0
0
0
0
0
0
0
0
0
0
0
0
0
0
0
0
0
0
0
0
0
0
0
0
0
0
0
0
0
0
0
0
0
0
0
0
0
0
0
0
0
0
0
0
0
0
0
0
0
0
0
0
0
0
0
0
0
0
0
0
0
0
0
0
0
0
0
0
0
0
0
0
0
0
0
0
0
0
0
0
0
0
0
0
0
0
0
0
0
0
0
0
0
0
0
0
0
0
0
0
0
0
0
0
0
0
0
0
0
0
0
0
0
0
0
0
0
0
0
0
0
0
0
0
0
0
0
0
0
0
0
0
0
0
0
0
0
0
0
0
0
0
0
0
0
0
0
0
0
0
0
0
0
0
0
0
0
0
0
0
0
0
0
0
0
0
0
0
0
0
0
0
0
0
0
0
0
0
0
0
0
0
0
0
0
0
0
0
0
0
0
0
0
0
0
0
0
0
0
0
0
0
0
0
0
0
0
0
0
0
0
0
0
0
0
0
0
0
0
0
0
0
0
0
0
0
0
0
0
0
0
0
0
0
0
0
0
0
0
0
0
0
0
0
0
0
0
0
0
0
0
0
0
0
0
0
0
0
0
0
0
0
0
0
0
0
0
0
0
0
0
0
0
0
0
0
0
0
0
0
0
0
0
0
0
0
0
0
0
0
0
0
0
0
0
0
0
0
0
0
0
0
0
0
0
0
0
0
0
0
0
0
0
0
0
0
0
0
0
0
0
0
0
0
0
0
0
0
0
0
0
0
0
0
0
0
0
0
0
0
0
0
0
0
0
0
0
0
0
0
0
0
0
0
0
0
0
0
0
0
0
0
0
0
0
0
0
0
0
0
0
0
0
0
0
0
0
0
0
0
0
0
0
0
0
0
0
0
0
0
0
0
0
0
0
0
0
0
0
0
0
0
0
0
0
0
0
0
0
0
0
0
0
0
0
0
0
0
0
0
0
0
0
0
0
0
0
0
0
0
0
0
0
0
0
0
0
0
0
0
0
0
0
0
0
0
0
0
0
0
0
0
0
0
0
0
0
0
0
0
0
0
0
0
0
0
0
0
0
0
0
0
0
0
0
0
0
0
0
0
0
0
0
0
0
0
0
0
0
0
0
0
0
0
0
0
0
0
0
0
0
0
0
0
0
0
0
0
0
0
0
0
0
0
0
0
0
0
0
0
0
0
0
0
0
0
0
0
0
0
0
0
0
0
0
0
0
0
0
0
0
0
0
0
0
0
0
0
0
0
0
0
0
0
0
0
0
0
0
0
0
0
0
0
0
0
0
0
0
0
0
0
0
0
0
0
0
0
0
0
0
0
0
0
0
0
0
0
0
0
0
0
0
0
0
0
0
0
0
0
0
0
0
0
0
0
0
0
0
0
0
0
0
0
0
0
0
0
0
0
0
0
0
0
0
0
0
0
0
0
0
0
0
0
0
0
0
0
0
0
0
0
0
0
0
0
0
0
0
0
0
0
0
0
0
0
0
0
0
0
0
0
0
0
0
0
0
0
0
0
0
0
0
0
0
0
0
0
0
0
0
0
0
0
0
0
0
0
0
0
0
0
0
0
0
0
0
0
0
0
0
0
0
0
0
0
0
0
0
0
0
0
0
0
0
0
0
0
0
0
0
0
0
0
0
0
0
0
0
0
0
0
0
0
0
0
0
0
0
0
0
0
0
0
0
0
0
0
0
0
0
0
0
0
0
0
0
0
0
0
0
0
0
0
0
0
0
0
0
0
0
0
0
0
0
0
0
0
0
0
0
0
0
0
0
0
0
0
0
0
0
0
0
0
0
0
0
0
0
0
0
0
0
0
0
0
0
0
0
0
0
0
0
0
0
0
0
0
0
0
0
0
0
0
0
0
0
0
0
0
0
0
0
0
0
0
0
0
0
0
0
0
0
0
0
0
0
0
0
0
0
0
0
0
0
0
0
0
0
0
0
0
0
0
0
0
0
0
0
0
0
0
0
0
0
0
0
0
0
0
0
0
0
0
0
0
0
0
0
0
0
0
0
0
0
0
0
0
0
0
0
0
0
0
0
0
0
0
0
0
0
0
0
0
0
0
0
0
0
0
0
0
0
0
0
0
0
0
0
0
0
0
0
0
0
0
0
0
0
0
0
0
0
0
0
0
0
0
0
0
0
0
0
0
0
0
0
0
0
0
0
0
0
0
0
0
0
0
0
0
0
0
0
0
0
0
0
0
0
0
0
0
0
0
0
0
0
0
0
0
0
0
0
0
0
0
0
0
0
0
0
0
0
0
0
0
0
0
0
0
0
0
0
0
0
0
0
0
0
0
0
0
0
0
0
0
0
0
0
0
0
0
0
0
0
0
0
0
0
0
0
0
0
0
0
0
0
0
0
0
0
0
0
0
0
0
0
0
0
0
0
0
0
0
0
0
0
0
0
0
0
0
0
0
0
0
0
0
0
0
0
0
0
0
0
0
0
0
0
0
0
0
0
0
0
0
0
0
0
0
0
0
0
0
0
0
0
0
0
0
0
0
0
0
0
0
0
0
0
0
0
0
0
0
0
0
0
0
0
0
0
0
0
0
0
0
0
0
0
0
0
0
0
0
0
0
0
0
0
0
0
0
0
0
0
0
0
0
0
0
0
0
0
0
0
0
0
0
0
0
0
0
0
0
0
0
0
0
0
0
0
0
0
0
0
0
0
0
0
0
0
0
0
0
0
0
0
0
0
0
0
0
0
0
0
0
0
0
0
0
0
0
0
0
0
0
0
0
0
0
0
0
0
0
0
0
0
0
0
0
0
0
0
0
0
0
0
0
0
0
0
0
0
0
0
0
0
0
0
0
0
0
0
0
0
0
0
0
0
0
0
0
0
0
0
0
0
0
0
0
0
0
0
0
0
0
0
0
0
0
0
0
0
0
0
0
0
0
0
0
0
0
0
0
0
0
0
0
0
0
0
0
0
0
0
0
0
0
0
0
0
0
0
0
0
0
0
0
0
0
0
0
0
0
0
0
0
0
0
0
0
0
0
0
0
0
0
0
0
0
0
0
0
0
0
0
0
0
0
0
0
0
0
0
0
0
0
0
0
0
0
0
0
0
0
0
0
0
0
0
0
0
0
0
0
0
0
0
0
0
0
4.38085287e-300
1.96298164e-300
2.46218913e-297
1.11685714e-297
1.3703681e-294
6.29148941e-295
7.5527688e-292
3.50902383e-292
4.12218619e-289
1.93776276e-289
2.22792275e-286
1.05949753e-286
1.19239932e-283
5.73560019e-284
6.31960069e-281
3.07430179e-281
3.31665612e-278
1.6315655e-278
1.72365364e-275
8.57276686e-276
8.87020101e-273
4.46012969e-273
4.52007114e-270
2.29755334e-270
2.28075772e-267
1.17148129e-267
1.13953618e-264
5.91665226e-265
5.6374726e-262
2.95835702e-262
2.76146578e-259
1.4649008e-259
1.3393207e-256
7.17792801e-257
6.43145489e-254
3.4820079e-254
3.05775639e-251
1.6722103e-251
1.43930901e-248
7.95009589e-249
6.70734166e-246
3.74164983e-246
3.09441779e-243
1.7432164e-243
1.41327184e-240
8.03940754e-241
6.38963393e-238
3.67001353e-238
2.85965865e-235
1.65831699e-235
1.26684633e-232
7.41665642e-233
5.55504918e-230
3.28301622e-230
2.41094839e-227
1.43828428e-227
1.03563056e-224
6.23598256e-225
4.40269607e-222
2.67567977e-222
1.85228785e-219
1.13608833e-219
7.71173704e-217
4.77328533e-217
3.17707127e-214
1.98439259e-214
1.29511619e-211
8.16242513e-212
5.22363125e-209
3.32175545e-209
2.08445341e-206
1.33735663e-206
8.22887688e-204
5.32636729e-204
3.21358124e-201
2.09841446e-201
1.2413917e-198
8.17708469e-199
4.74316796e-196
3.15153646e-196
1.79240576e-193
1.20124353e-193
6.69852344e-191
4.5278459e-191
2.47549586e-188
1.68760061e-188
9.04585836e-186
6.21912647e-186
3.26816895e-183
2.26586256e-183
1.16731369e-180
8.16100217e-181
4.12153257e-178
2.905487e-178
1.43838828e-175
1.02239346e-175
4.96130951e-173
3.55547309e-173
1.69111895e-170
1.22183273e-170
5.69590542e-168
4.14872057e-168
1.89545499e-165
1.39173292e-165
6.23125765e-163
4.6119671e-163
2.02347082e-160
1.50956703e-160
6.48967012e-158
4.87977454e-158
2.05539854e-155
1.55765531e-155
6.42774004e-153
4.90916991e-153
1.9844866e-150
1.5273845e-150
6.04786366e-148
4.69059965e-148
1.81908747e-145
1.42161349e-145
5.39925826e-143
4.25146602e-143
1.58114584e-140
1.25437654e-140
4.56764696e-138
3.6506841e-138
1.30142247e-135
1.04785143e-135
3.656524e-133
2.96567156e-133
1.01288167e-130
8.27484067e-131
2.76567656e-128
2.27573269e-128
7.44226178e-126
6.16759539e-126
1.97321267e-123
1.64682532e-123
5.15357485e-121
4.33127784e-121
1.32557695e-118
1.12180343e-118
3.3570221e-116
2.86048958e-116
8.36840417e-114
7.17914201e-114
2.05282208e-111
1.77293859e-111
4.95399583e-109
4.30703713e-109
1.17577747e-106
1.02895444e-106
2.74361387e-104
2.41662225e-104
6.29224542e-102
5.57791909e-102
1.41782419e-99
1.26483818e-99
3.13772401e-97
2.81668196e-97
6.8173574e-95
6.15762536e-95
1.45361986e-92
1.32094569e-92
3.04042372e-90
2.77950232e-90
6.23549123e-88
5.73407518e-88
1.25329799e-85
1.15922259e-85
2.46755629e-83
2.29539977e-83
4.75639533e-81
4.44944565e-81
8.97102656e-79
8.438468e-79
1.65462549e-76
1.56484129e-76
2.98245725e-74
2.83562157e-74
5.25014511e-72
5.01766595e-72
9.01938459e-70
8.66393297e-70
1.51096856e-67
1.45864899e-67
2.46630948e-65
2.39247354e-65
3.91893358e-63
3.81957669e-63
6.05622589e-61
5.92973409e-61
9.09292541e-59
8.94233533e-59
1.3249224e-56
1.30846414e-56
1.87128732e-54
1.85528115e-54
2.55850926e-52
2.54541629e-52
3.38152823e-50
3.3734037e-50
4.31364952e-48
4.30993068e-48
5.30205739e-46
5.29648389e-46
6.2675776e-44
6.2467642e-44
7.11070127e-42
7.06075519e-42
7.72469424e-40
7.63690808e-40
8.01470812e-38
7.92012607e-38
7.918897e-36
7.65094261e-36
7.42852673e-34
7.41209517e-34
6.58652294e-32
6.56270074e-32
5.50157047e-30
5.47855513e-30
4.30629824e-28
4.28713586e-28
3.14070924e-26
3.12112224e-26
2.1199852e-24
2.09895179e-24
1.31373614e-22
1.29457561e-22
7.40067112e-21
7.27013908e-21
3.74359469e-19
3.7415655e-19
1.67352318e-17
1.67149233e-17
6.48320442e-16
6.46670116e-16
2.11615828e-14
2.1067877e-14
5.59204226e-13
5.5738635e-13
1.12367708e-11
1.13363277e-11
1.52986238e-08
1.5416088e-08
0.0833974171
0.335107052
7.5012036
8.82702643
8.75431969
7.85129485
2.78194872
2.2901367
0.441885603
0.385425057
0.102280419
0.0926460537
0.0210176683
0.0197726817
0.00388059848
0.00379001944
0.000663932565
0.000663305633
0.000112119989
0.00011206287
2.31493563e-05
2.31460533e-05
9.89907912e-06
9.90337568e-06
8.07208353e-06
8.07198889e-06
7.83502345e-06
7.83505193e-06
7.80622628e-06
7.80623654e-06
7.80292881e-06
7.80293601e-06
7.80256621e-06
7.80258404e-06
7.80251785e-06
7.80255143e-06
7.80251825e-06
7.8025243e-06
7.8025293e-06
7.80251276e-06
7.80253593e-06
7.80251414e-06
7.80253569e-06
7.80252501e-06
7.80252999e-06
7.80252914e-06
7.80253593e-06
7.80253018e-06
7.80253945e-06
7.80252794e-06
7.80253879e-06
7.80253214e-06
7.80253513e-06
7.8025351e-06
7.80253455e-06
7.80253281e-06
7.80252924e-06
7.80254555e-06
7.80252201e-06
7.80253548e-06
7.80252966e-06
7.80253919e-06
7.80252337e-06
7.80252366e-06
7.80252737e-06
7.80252856e-06
7.80252543e-06
7.80253608e-06
7.8025201e-06
7.80254148e-06
7.80251581e-06
7.80252756e-06
7.8025234e-06
7.80253454e-06
7.8025191e-06
7.80253505e-06
7.80252779e-06
7.80253985e-06
7.80252161e-06
7.80253763e-06
7.8025255e-06
7.8025282e-06
7.80253071e-06
7.80252969e-06
7.80253239e-06
7.8025238e-06
7.80253964e-06
7.80252485e-06
7.80253711e-06
7.80250638e-06
7.80255225e-06
7.80251888e-06
7.8025416e-06
7.8025248e-06
7.80254438e-06
7.80252565e-06
7.80253507e-06
7.80253128e-06
7.80254002e-06
7.80253418e-06
7.80253251e-06
7.80253306e-06
7.80253378e-06
7.80253017e-06
7.80253258e-06
7.80253825e-06
7.80253046e-06
7.80252255e-06
7.80253237e-06
7.8025339e-06
7.80252505e-06
7.80253559e-06
7.80252498e-06
7.80252931e-06
7.8025263e-06
7.80253248e-06
7.80252204e-06
7.80253808e-06
7.80251996e-06
7.80254847e-06
7.80251797e-06
7.80254077e-06
7.80251601e-06
7.80253237e-06
7.80253192e-06
7.80253436e-06
7.80252818e-06
7.80255033e-06
7.80252701e-06
7.802544e-06
7.80253812e-06
7.80253478e-06
7.80254544e-06
7.80254127e-06
7.80253144e-06
7.80255157e-06
7.80252806e-06
7.80254042e-06
7.80253518e-06
7.80252675e-06
7.8025306e-06
7.80253356e-06
7.80252136e-06
7.802539e-06
7.80251583e-06
7.80253516e-06
7.8025198e-06
7.8025368e-06
7.80253237e-06
7.80252071e-06
7.80254494e-06
7.80252012e-06
7.80254774e-06
7.80252016e-06
7.80254252e-06
7.80253539e-06
7.80253193e-06
7.80252728e-06
7.8025347e-06
7.80252233e-06
7.80255289e-06
7.80251663e-06
7.80255859e-06
7.80252072e-06
7.80255911e-06
7.80252574e-06
7.80253888e-06
7.80253219e-06
7.80253051e-06
7.80252528e-06
7.80253206e-06
7.80252386e-06
7.80253131e-06
7.80254032e-06
7.80252062e-06
7.80253568e-06
7.80254243e-06
7.8025367e-06
7.80253918e-06
7.80569868e-06
7.80569763e-06
7.80254203e-06
7.80253855e-06
7.80254579e-06
7.80253191e-06
7.80252756e-06
7.80253825e-06
7.80253412e-06
7.80253693e-06
7.80252504e-06
7.80254774e-06
7.80251858e-06
7.80254321e-06
7.80252968e-06
7.80254314e-06
7.80253002e-06
7.80253223e-06
7.80253315e-06
7.80253999e-06
7.80252592e-06
7.80255322e-06
7.80252141e-06
7.80255006e-06
7.80253017e-06
7.80253835e-06
7.8025336e-06
7.80253177e-06
7.80253486e-06
7.80254556e-06
7.80254185e-06
7.80253728e-06
7.80254324e-06
7.80253592e-06
7.80253599e-06
7.80254024e-06
7.802542e-06
7.80253352e-06
7.80253519e-06
7.80253233e-06
7.80254603e-06
7.80253222e-06
7.80253499e-06
7.80253592e-06
7.8025411e-06
7.80254086e-06
7.80253137e-06
7.80256089e-06
7.8025182e-06
7.80254462e-06
7.80254397e-06
7.80253351e-06
7.80254527e-06
7.80253228e-06
7.80254475e-06
7.80253746e-06
7.80254659e-06
7.8025349e-06
7.80254585e-06
7.80253694e-06
7.80254466e-06
7.80254591e-06
7.8025533e-06
7.80252381e-06
7.80256257e-06
7.80252064e-06
7.80254951e-06
7.80252625e-06
7.80254145e-06
7.80253792e-06
7.80252255e-06
7.80254755e-06
7.80253032e-06
7.80254306e-06
7.80253321e-06
7.80254751e-06
7.80254109e-06
7.80253221e-06
7.80254611e-06
7.80253644e-06
7.80254978e-06
7.80254182e-06
7.80254213e-06
7.80254541e-06
7.80253186e-06
7.80254219e-06
7.80252965e-06
7.80254072e-06
7.80253162e-06
7.80253982e-06
7.80252647e-06
7.80255041e-06
7.80252459e-06
7.80254481e-06
7.80254324e-06
7.80253842e-06
7.80254759e-06
7.80253737e-06
7.80254273e-06
7.80253659e-06
7.80253514e-06
7.8025448e-06
7.80253563e-06
7.80253521e-06
7.80253659e-06
7.80253889e-06
7.80253839e-06
7.80253799e-06
7.80254342e-06
7.80253573e-06
7.80254738e-06
7.80254132e-06
7.80253676e-06
7.80255415e-06
7.80253138e-06
7.80253352e-06
7.8025392e-06
7.80254001e-06
7.80254199e-06
7.80255735e-06
7.80254625e-06
7.80254099e-06
7.8025482e-06
7.80254719e-06
7.80254338e-06
7.80253871e-06
7.80254257e-06
7.80253987e-06
7.8025399e-06
7.80253134e-06
7.80254748e-06
7.80252383e-06
7.80255754e-06
7.80252725e-06
7.80255347e-06
7.80254179e-06
7.80254416e-06
7.80254882e-06
7.80253771e-06
7.8025474e-06
7.80252706e-06
7.80255328e-06
7.80251876e-06
7.80256298e-06
7.80252459e-06
7.8025569e-06
7.80253436e-06
7.80253705e-06
7.8025449e-06
7.80254409e-06
7.80254624e-06
7.80254519e-06
7.80253981e-06
7.80254779e-06
7.80254186e-06
7.80253873e-06
7.80254201e-06
7.80254464e-06
7.80255179e-06
7.80253373e-06
7.80254661e-06
7.80254332e-06
7.80255597e-06
7.80254653e-06
7.80255015e-06
7.80254916e-06
7.80254144e-06
7.80253597e-06
7.80255403e-06
7.80254356e-06
7.80253801e-06
7.80255479e-06
7.80254294e-06
7.80254103e-06
7.80254244e-06
7.80253653e-06
7.80254277e-06
7.80254582e-06
7.80253684e-06
7.80255473e-06
7.80254184e-06
7.80254125e-06
7.80254492e-06
7.80254473e-06
7.80254613e-06
7.80254488e-06
7.8025409e-06
7.80255005e-06
7.80253821e-06
7.80255511e-06
7.80254772e-06
7.80255307e-06
7.80254682e-06
7.80255112e-06
7.80254099e-06
7.80256141e-06
7.80253676e-06
7.80255002e-06
7.80254361e-06
7.80255022e-06
7.80254798e-06
7.80254626e-06
7.80254538e-06
7.80254632e-06
7.80254431e-06
7.80255126e-06
7.80254959e-06
7.80253891e-06
7.80255425e-06
7.80252846e-06
7.80255693e-06
7.80252989e-06
7.80255131e-06
7.80253901e-06
7.80254516e-06
7.80254613e-06
7.80254805e-06
7.80254638e-06
7.8025506e-06
7.80254861e-06
7.80254898e-06
7.80254742e-06
7.80254489e-06
7.80254044e-06
7.80255261e-06
7.80252674e-06
7.80256421e-06
7.80252718e-06
7.80256153e-06
7.80254367e-06
7.80254537e-06
7.80255161e-06
7.80254843e-06
7.80254668e-06
7.80255118e-06
7.80254547e-06
7.80254098e-06
7.80255178e-06
7.80254872e-06
7.80254938e-06
7.80255644e-06
7.80255297e-06
7.8025554e-06
7.80253956e-06
7.8025663e-06
7.80253902e-06
7.8025618e-06
7.80254492e-06
7.80255946e-06
7.80254643e-06
7.80255739e-06
7.8025446e-06
7.80255604e-06
7.80255606e-06
7.80254477e-06
7.80256285e-06
7.80254298e-06
7.80255991e-06
7.802551e-06
7.8025564e-06
7.80255364e-06
7.80254706e-06
7.80255055e-06
7.80254488e-06
7.80255375e-06
7.80254638e-06
7.80255343e-06
7.80255208e-06
7.80255435e-06
7.80254777e-06
7.80255301e-06
7.80255156e-06
7.80255311e-06
7.80255e-06
7.80254919e-06
7.80254608e-06
7.80255265e-06
7.80255179e-06
7.8025471e-06
7.80255356e-06
7.80255461e-06
7.80255206e-06
7.80254735e-06
7.80254617e-06
7.80255849e-06
7.80254129e-06
7.8025671e-06
7.80255448e-06
7.80255995e-06
7.80254426e-06
7.80256499e-06
7.80254139e-06
7.80255047e-06
7.8025422e-06
7.8025437e-06
7.80255084e-06
7.80255315e-06
7.8025509e-06
7.8025594e-06
7.80254738e-06
7.80254836e-06
7.80254368e-06
7.80255588e-06
7.80254417e-06
7.80255174e-06
7.80254636e-06
7.80254852e-06
7.80254813e-06
7.80254158e-06
7.80255427e-06
7.80254659e-06
7.80255551e-06
7.80254793e-06
7.80257072e-06
7.80253868e-06
7.80256883e-06
7.80253096e-06
7.80256683e-06
7.8025407e-06
7.80255747e-06
7.80254483e-06
7.80255057e-06
7.80254885e-06
7.80255573e-06
7.8025555e-06
7.8025544e-06
7.80254176e-06
7.80256494e-06
7.80254759e-06
7.80255299e-06
7.802552e-06
7.80255617e-06
7.8025491e-06
7.80255546e-06
7.80255206e-06
7.80255597e-06
7.80255196e-06
7.80255415e-06
7.80255664e-06
7.80255297e-06
7.80255246e-06
7.80255666e-06
7.80255501e-06
7.80255577e-06
7.80255422e-06
7.80255604e-06
7.80255465e-06
7.8025559e-06
7.80255647e-06
7.80255709e-06
7.8025569e-06
7.80255758e-06
7.80255896e-06
7.80255921e-06
7.80255889e-06
7.8025604e-06
7.80256117e-06
7.80256114e-06
7.80256227e-06
7.80256322e-06
7.80256474e-06
7.80256533e-06
7.80256652e-06
7.80256812e-06
7.80256918e-06
7.80257099e-06
7.80257325e-06
7.80257554e-06
7.80257767e-06
7.80258099e-06
7.80258412e-06
7.80258754e-06
7.80259118e-06
7.80259444e-06
7.80259735e-06
7.80259986e-06
7.8026015e-06
7.80260236e-06
7.80260265e-06
7.80260295e-06
7.80260349e-06
7.80260322e-06
7.80260344e-06
7.80260341e-06
7.80260331e-06
7.80260348e-06
7.80260345e-06
7.80260332e-06
7.80260357e-06
7.80260325e-06
7.80260338e-06
7.80260329e-06
7.80260331e-06
7.80260332e-06
7.80260331e-06
7.80260341e-06
7.80260328e-06
7.80260318e-06
7.80260363e-06
)
;

boundaryField
{
    closed
    {
        type            calculated;
        value           uniform 0;
    }
    open
    {
        type            calculated;
        value           uniform 0;
    }
    sides
    {
        type            empty;
    }
}


// ************************************************************************* //
