/*--------------------------------*- C++ -*----------------------------------*\
| =========                 |                                                 |
| \\      /  F ield         | OpenFOAM: The Open Source CFD Toolbox           |
|  \\    /   O peration     | Version:  2206                                  |
|   \\  /    A nd           | Website:  www.openfoam.com                      |
|    \\/     M anipulation  |                                                 |
\*---------------------------------------------------------------------------*/
FoamFile
{
    version     2.0;
    format      ascii;
    arch        "LSB;label=32;scalar=64";
    class       volVectorField;
    location    "1.62e-05";
    object      U;
}
// * * * * * * * * * * * * * * * * * * * * * * * * * * * * * * * * * * * * * //

dimensions      [0 1 -1 0 0 0 0];

internalField   nonuniform List<vector> 
3183
(
(4.82850534e-13 0 0)
(2.0181624e-13 0 0)
(-3.46972022e-13 0 0)
(-4.18991184e-13 0 0)
(-1.7215463e-13 0 0)
(-1.18541397e-17 0 0)
(-8.98754968e-19 0 0)
(-8.55254462e-23 0 0)
(3.62206012e-20 0 0)
(1.97126625e-18 0 0)
(3.13760356e-14 0 0)
(2.9095518e-13 0 0)
(7.16246548e-13 0 0)
(2.82290817e-13 0 0)
(1.81748695e-13 0 0)
(1.10174758e-14 0 0)
(-3.9087617e-13 0 0)
(-6.96231509e-13 0 0)
(-9.67781787e-13 0 0)
(-2.39044354e-13 0 0)
(3.60115026e-13 0 0)
(2.05523917e-16 0 0)
(1.41908529e-13 0 0)
(3.75826861e-13 0 0)
(4.59511656e-13 0 0)
(8.20084302e-13 0 0)
(9.14138362e-13 0 0)
(7.51815619e-13 0 0)
(1.57540307e-13 0 0)
(1.19486358e-13 0 0)
(-3.90464666e-14 0 0)
(7.89014468e-15 0 0)
(-6.29290167e-13 0 0)
(-9.00814372e-13 0 0)
(-7.16246756e-13 0 0)
(-7.44330759e-13 0 0)
(-1.11444857e-12 0 0)
(-1.20622231e-12 0 0)
(-1.2232756e-12 0 0)
(-1.09932052e-12 0 0)
(-6.29635803e-13 0 0)
(-1.36716232e-13 0 0)
(4.33405843e-13 0 0)
(4.46882562e-13 0 0)
(1.14324137e-12 0 0)
(1.57527417e-12 0 0)
(1.42746134e-12 0 0)
(1.72600344e-12 0 0)
(1.62218288e-12 0 0)
(1.66200816e-12 0 0)
(1.27022146e-12 0 0)
(1.21432208e-12 0 0)
(3.69883705e-13 0 0)
(2.03219527e-13 0 0)
(-3.29980076e-13 0 0)
(-1.00866528e-12 0 0)
(-1.42777913e-12 0 0)
(-1.87720438e-12 0 0)
(-2.52832715e-12 0 0)
(-2.77292422e-12 0 0)
(-3.27745902e-12 0 0)
(-4.01485201e-12 0 0)
(-4.04239304e-12 0 0)
(-4.85772692e-12 0 0)
(-4.51330652e-12 0 0)
(-4.94850167e-12 0 0)
(-5.36140551e-12 0 0)
(-4.89691031e-12 0 0)
(-5.18769448e-12 0 0)
(-5.69042647e-12 0 0)
(-5.60252575e-12 0 0)
(-5.87308543e-12 0 0)
(-5.56024404e-12 0 0)
(-5.89647156e-12 0 0)
(-6.66935481e-12 0 0)
(-6.04754282e-12 0 0)
(-6.2410653e-12 0 0)
(-6.01645798e-12 0 0)
(-6.28217973e-12 0 0)
(-6.17295964e-12 0 0)
(-7.26708084e-12 0 0)
(-5.75004529e-12 0 0)
(-6.32404437e-12 0 0)
(-7.15650569e-12 0 0)
(-6.83363473e-12 0 0)
(-6.61714761e-12 0 0)
(-7.12264465e-12 0 0)
(-7.46517314e-12 0 0)
(-6.60913586e-12 0 0)
(-7.50853434e-12 0 0)
(-8.41309948e-12 0 0)
(-8.68313003e-12 0 0)
(-8.32348602e-12 0 0)
(-9.17018883e-12 0 0)
(-9.25812424e-12 0 0)
(-9.63924728e-12 0 0)
(-9.17636046e-12 0 0)
(-8.69710757e-12 0 0)
(-1.00239746e-11 0 0)
(-9.36731058e-12 0 0)
(-9.57681985e-12 0 0)
(-9.79629188e-12 0 0)
(-9.4872496e-12 0 0)
(-9.71679688e-12 0 0)
(-9.23225589e-12 0 0)
(-9.03286013e-12 0 0)
(-8.9963445e-12 0 0)
(-9.5179305e-12 0 0)
(-9.98121761e-12 0 0)
(-1.04248653e-11 0 0)
(-8.87580268e-12 0 0)
(-8.89379432e-12 0 0)
(-8.92742717e-12 0 0)
(-9.2116516e-12 0 0)
(-9.58875979e-12 0 0)
(-1.04240924e-11 0 0)
(-9.47707091e-12 0 0)
(-9.60408668e-12 0 0)
(-9.98674036e-12 0 0)
(-1.10737198e-11 0 0)
(-1.0664875e-11 0 0)
(-1.00642975e-11 0 0)
(-9.62032028e-12 0 0)
(-1.08097036e-11 0 0)
(-1.0584239e-11 0 0)
(-1.09347371e-11 0 0)
(-1.08986098e-11 0 0)
(-1.20107622e-11 0 0)
(-1.05592944e-11 0 0)
(-1.09312165e-11 0 0)
(-1.05894079e-11 0 0)
(-1.03872408e-11 0 0)
(-1.21476009e-11 0 0)
(-1.18561669e-11 0 0)
(-1.06790291e-11 0 0)
(-1.17146892e-11 0 0)
(-1.23245489e-11 0 0)
(-1.19240626e-11 0 0)
(-1.19072986e-11 0 0)
(-1.14433748e-11 0 0)
(-1.25960843e-11 0 0)
(-1.20538092e-11 0 0)
(-1.22694698e-11 0 0)
(-1.18131017e-11 0 0)
(-1.08390795e-11 0 0)
(-1.13856354e-11 0 0)
(-1.1327065e-11 0 0)
(-1.16442513e-11 0 0)
(-1.16889468e-11 0 0)
(-1.07780519e-11 0 0)
(-1.05256377e-11 0 0)
(-1.21591602e-11 0 0)
(-1.20190069e-11 0 0)
(-1.15360194e-11 0 0)
(-1.25286968e-11 0 0)
(-1.14345281e-11 0 0)
(-1.31081582e-11 0 0)
(-1.32165748e-11 0 0)
(-1.24106701e-11 0 0)
(-1.3138013e-11 0 0)
(-1.33607515e-11 0 0)
(-1.29840351e-11 0 0)
(-1.28270708e-11 0 0)
(-1.26745216e-11 0 0)
(-1.40572829e-11 0 0)
(-1.28420731e-11 0 0)
(-1.30244924e-11 0 0)
(-1.24945965e-11 0 0)
(-1.25118821e-11 0 0)
(-1.36565997e-11 0 0)
(-1.28770915e-11 0 0)
(-1.21111589e-11 0 0)
(-1.32405849e-11 0 0)
(-1.24476461e-11 0 0)
(-1.34161029e-11 0 0)
(-1.31582022e-11 0 0)
(-1.37224926e-11 0 0)
(-1.30138751e-11 0 0)
(-1.28219183e-11 0 0)
(-1.50006403e-11 0 0)
(-1.30221563e-11 0 0)
(-1.3665515e-11 0 0)
(-1.25994414e-11 0 0)
(-1.29221856e-11 0 0)
(-1.28050469e-11 0 0)
(-1.34751877e-11 0 0)
(-1.33539581e-11 0 0)
(-1.30580698e-11 0 0)
(-1.34427787e-11 0 0)
(-1.27899808e-11 0 0)
(-1.30953485e-11 0 0)
(-1.41726633e-11 0 0)
(-1.43174923e-11 0 0)
(-1.44359968e-11 0 0)
(-1.51366032e-11 0 0)
(-1.39981936e-11 0 0)
(-1.37476513e-11 0 0)
(-1.37448627e-11 0 0)
(-1.45616463e-11 0 0)
(-1.40809059e-11 0 0)
(-1.38139131e-11 0 0)
(-1.36855524e-11 0 0)
(-1.35936454e-11 0 0)
(-1.50017835e-11 0 0)
(-1.40358757e-11 0 0)
(-1.35785501e-11 0 0)
(-1.32045924e-11 0 0)
(-1.33726887e-11 0 0)
(-1.51458174e-11 0 0)
(-1.39711171e-11 0 0)
(-1.31234054e-11 0 0)
(-1.38949153e-11 0 0)
(-1.31191085e-11 0 0)
(-1.39758935e-11 0 0)
(-1.37039474e-11 0 0)
(-1.43835077e-11 0 0)
(-1.34713708e-11 0 0)
(-1.36862516e-11 0 0)
(-1.30223764e-11 0 0)
(-1.46012211e-11 0 0)
(-1.41474528e-11 0 0)
(-1.47917636e-11 0 0)
(-1.46910541e-11 0 0)
(-1.46463528e-11 0 0)
(-1.44399301e-11 0 0)
(-1.49841102e-11 0 0)
(-1.43026712e-11 0 0)
(-1.55227924e-11 0 0)
(-1.4685456e-11 0 0)
(-1.52462652e-11 0 0)
(-1.45784307e-11 0 0)
(-1.54899926e-11 0 0)
(-1.61894614e-11 0 0)
(-1.61396854e-11 0 0)
(-1.65620457e-11 0 0)
(-1.57832444e-11 0 0)
(-1.53208366e-11 0 0)
(-1.63851902e-11 0 0)
(-1.59219958e-11 0 0)
(-1.53127681e-11 0 0)
(-1.59265528e-11 0 0)
(-1.68722227e-11 0 0)
(-1.54126273e-11 0 0)
(-1.60913428e-11 0 0)
(-1.69039723e-11 0 0)
(-1.7279878e-11 0 0)
(-1.64519096e-11 0 0)
(-1.69466741e-11 0 0)
(-1.78321974e-11 0 0)
(-1.76490434e-11 0 0)
(-1.70711939e-11 0 0)
(-1.84310491e-11 0 0)
(-1.81714655e-11 0 0)
(-1.79350278e-11 0 0)
(-1.84540004e-11 0 0)
(-1.72757961e-11 0 0)
(-1.78431026e-11 0 0)
(-1.72659497e-11 0 0)
(-1.77842837e-11 0 0)
(-1.81221534e-11 0 0)
(-1.81411725e-11 0 0)
(-1.83251597e-11 0 0)
(-1.82954397e-11 0 0)
(-1.7277341e-11 0 0)
(-1.84783743e-11 0 0)
(-1.83617962e-11 0 0)
(-1.84385657e-11 0 0)
(-1.83086886e-11 0 0)
(-1.81654356e-11 0 0)
(-1.80854775e-11 0 0)
(-1.79530099e-11 0 0)
(-1.91658234e-11 0 0)
(-1.91043652e-11 0 0)
(-1.82762611e-11 0 0)
(-1.89587487e-11 0 0)
(-1.78098423e-11 0 0)
(-1.93315264e-11 0 0)
(-1.92587378e-11 0 0)
(-1.83957485e-11 0 0)
(-1.83935135e-11 0 0)
(-1.79082037e-11 0 0)
(-1.89041371e-11 0 0)
(-1.94422735e-11 0 0)
(-1.97955371e-11 0 0)
(-1.92352907e-11 0 0)
(-1.92855483e-11 0 0)
(-1.81825241e-11 0 0)
(-1.89521179e-11 0 0)
(-1.92204316e-11 0 0)
(-1.84987051e-11 0 0)
(-1.91900351e-11 0 0)
(-1.8907925e-11 0 0)
(-1.9215855e-11 0 0)
(-1.88476819e-11 0 0)
(-1.89139659e-11 0 0)
(-1.87897151e-11 0 0)
(-1.9376797e-11 0 0)
(-1.98025095e-11 0 0)
(-1.92884072e-11 0 0)
(-1.99756744e-11 0 0)
(-1.90755027e-11 0 0)
(-2.05078233e-11 0 0)
(-1.88778181e-11 0 0)
(-1.96446174e-11 0 0)
(-2.03322988e-11 0 0)
(-2.01748046e-11 0 0)
(-1.82831252e-11 0 0)
(-1.8782728e-11 0 0)
(-1.96358133e-11 0 0)
(-1.90925492e-11 0 0)
(-1.9143352e-11 0 0)
(-1.94722544e-11 0 0)
(-1.91523232e-11 0 0)
(-1.91343196e-11 0 0)
(-1.94551364e-11 0 0)
(-2.00675296e-11 0 0)
(-1.96910258e-11 0 0)
(-2.00010206e-11 0 0)
(-1.98696604e-11 0 0)
(-1.9498911e-11 0 0)
(-2.03089797e-11 0 0)
(-1.99813115e-11 0 0)
(-1.9751231e-11 0 0)
(-1.9584638e-11 0 0)
(-1.95065088e-11 0 0)
(-1.94018327e-11 0 0)
(-1.98477415e-11 0 0)
(-1.86532623e-11 0 0)
(-1.94688725e-11 0 0)
(-1.96347819e-11 0 0)
(-1.86929011e-11 0 0)
(-1.90427861e-11 0 0)
(-1.93555103e-11 0 0)
(-1.88633468e-11 0 0)
(-1.83977478e-11 0 0)
(-1.86517113e-11 0 0)
(-1.82827971e-11 0 0)
(-1.98856334e-11 0 0)
(-1.87745328e-11 0 0)
(-1.90522819e-11 0 0)
(-1.83881463e-11 0 0)
(-1.91717003e-11 0 0)
(-1.82326144e-11 0 0)
(-1.74303395e-11 0 0)
(-1.89636733e-11 0 0)
(-1.86067611e-11 0 0)
(-1.9628119e-11 0 0)
(-1.84555197e-11 0 0)
(-1.87111819e-11 0 0)
(-1.98542872e-11 0 0)
(-1.91433748e-11 0 0)
(-1.91119033e-11 0 0)
(-1.90315377e-11 0 0)
(-1.91918291e-11 0 0)
(-1.86100222e-11 0 0)
(-1.93367614e-11 0 0)
(-1.97814811e-11 0 0)
(-1.98954172e-11 0 0)
(-2.03707195e-11 0 0)
(-1.85534509e-11 0 0)
(-1.95605023e-11 0 0)
(-2.03393665e-11 0 0)
(-1.89715091e-11 0 0)
(-1.92420262e-11 0 0)
(-1.83464908e-11 0 0)
(-1.90705563e-11 0 0)
(-1.85117696e-11 0 0)
(-1.8609928e-11 0 0)
(-1.84819234e-11 0 0)
(-1.80920317e-11 0 0)
(-1.75381322e-11 0 0)
(-1.78857801e-11 0 0)
(-1.82577883e-11 0 0)
(-1.75077774e-11 0 0)
(-1.82308706e-11 0 0)
(-1.92975851e-11 0 0)
(-1.84605121e-11 0 0)
(-1.85802492e-11 0 0)
(-1.83069476e-11 0 0)
(-1.82966186e-11 0 0)
(-1.84641558e-11 0 0)
(-1.75193703e-11 0 0)
(-1.82598595e-11 0 0)
(-1.7762576e-11 0 0)
(-1.81528151e-11 0 0)
(-1.8493655e-11 0 0)
(-1.77996033e-11 0 0)
(-1.83415636e-11 0 0)
(-1.77326473e-11 0 0)
(-1.68243902e-11 0 0)
(-1.62634412e-11 0 0)
(-1.65051954e-11 0 0)
(-1.640545e-11 0 0)
(-1.51566974e-11 0 0)
(-1.56255522e-11 0 0)
(-1.49113425e-11 0 0)
(-1.51001173e-11 0 0)
(-1.49497877e-11 0 0)
(-1.39028721e-11 0 0)
(-1.38698375e-11 0 0)
(-1.50530092e-11 0 0)
(-1.43908524e-11 0 0)
(-1.40982338e-11 0 0)
(-1.41062631e-11 0 0)
(-1.46422877e-11 0 0)
(-1.44286117e-11 0 0)
(-1.49349402e-11 0 0)
(-1.47469412e-11 0 0)
(-1.38451498e-11 0 0)
(-1.42868085e-11 0 0)
(-1.47128632e-11 0 0)
(-1.39144387e-11 0 0)
(-1.34779251e-11 0 0)
(-1.41076843e-11 0 0)
(-1.48564143e-11 0 0)
(-1.46635582e-11 0 0)
(-1.44110065e-11 0 0)
(-1.34366906e-11 0 0)
(-1.44389072e-11 0 0)
(-1.34988541e-11 0 0)
(-1.39615486e-11 0 0)
(-1.36982432e-11 0 0)
(-1.28987252e-11 0 0)
(-1.36944008e-11 0 0)
(-1.37007651e-11 0 0)
(-1.43323767e-11 0 0)
(-1.37576763e-11 0 0)
(-1.4133426e-11 0 0)
(-1.4490903e-11 0 0)
(-1.36259758e-11 0 0)
(-1.43620943e-11 0 0)
(-1.55336304e-11 0 0)
(-1.46032872e-11 0 0)
(-1.48226698e-11 0 0)
(-1.39707772e-11 0 0)
(-1.37824104e-11 0 0)
(-1.45826653e-11 0 0)
(-1.46037041e-11 0 0)
(-1.2802106e-11 0 0)
(-1.32056523e-11 0 0)
(-1.26996063e-11 0 0)
(-1.34244728e-11 0 0)
(-1.3660329e-11 0 0)
(-1.26561951e-11 0 0)
(-1.32576731e-11 0 0)
(-1.27876509e-11 0 0)
(-1.29938729e-11 0 0)
(-1.24906804e-11 0 0)
(-1.25065452e-11 0 0)
(-1.18091566e-11 0 0)
(-1.19902881e-11 0 0)
(-1.24125488e-11 0 0)
(-1.28593158e-11 0 0)
(-1.16955138e-11 0 0)
(-1.17059336e-11 0 0)
(-1.17852924e-11 0 0)
(-1.23879441e-11 0 0)
(-1.13624484e-11 0 0)
(-1.23368576e-11 0 0)
(-1.12787618e-11 0 0)
(-1.27722284e-11 0 0)
(-1.24802249e-11 0 0)
(-1.13048066e-11 0 0)
(-1.12171954e-11 0 0)
(-1.12341934e-11 0 0)
(-1.16779497e-11 0 0)
(-1.17303515e-11 0 0)
(-1.06795143e-11 0 0)
(-1.08794652e-11 0 0)
(-1.21300907e-11 0 0)
(-1.08542507e-11 0 0)
(-1.09086492e-11 0 0)
(-1.08872443e-11 0 0)
(-1.09709494e-11 0 0)
(-1.07740711e-11 0 0)
(-1.07818944e-11 0 0)
(-1.02068671e-11 0 0)
(-1.12528224e-11 0 0)
(-1.06764913e-11 0 0)
(-1.04647645e-11 0 0)
(-9.91956257e-12 0 0)
(-1.05504803e-11 0 0)
(-1.07778764e-11 0 0)
(-9.35065795e-12 0 0)
(-1.00750931e-11 0 0)
(-9.91988733e-12 0 0)
(-9.31302578e-12 0 0)
(-9.60250081e-12 0 0)
(-8.95069942e-12 0 0)
(-8.60545121e-12 0 0)
(-8.88392838e-12 0 0)
(-9.00199238e-12 0 0)
(-8.86765705e-12 0 0)
(-9.3839605e-12 0 0)
(-8.55740419e-12 0 0)
(-8.75163036e-12 0 0)
(-8.71498639e-12 0 0)
(-9.0941309e-12 0 0)
(-8.46948426e-12 0 0)
(-8.33077385e-12 0 0)
(-9.43107085e-12 0 0)
(-7.89165413e-12 0 0)
(-8.21326968e-12 0 0)
(-8.38099188e-12 0 0)
(-7.56932406e-12 0 0)
(-8.49275829e-12 0 0)
(-8.42543563e-12 0 0)
(-6.90100859e-12 0 0)
(-7.57702827e-12 0 0)
(-7.56050116e-12 0 0)
(-8.37611337e-12 0 0)
(-8.05036571e-12 0 0)
(-8.63421039e-12 0 0)
(-7.50297496e-12 0 0)
(-8.03619833e-12 0 0)
(-7.48407547e-12 0 0)
(-8.35425134e-12 0 0)
(-6.58980716e-12 0 0)
(-6.94360921e-12 0 0)
(-7.16752579e-12 0 0)
(-8.02820895e-12 0 0)
(-6.6565642e-12 0 0)
(-6.96129125e-12 0 0)
(-7.18236692e-12 0 0)
(-6.79521049e-12 0 0)
(-6.18782889e-12 0 0)
(-5.63211776e-12 0 0)
(-5.76651088e-12 0 0)
(-6.09915556e-12 0 0)
(-6.39200387e-12 0 0)
(-6.38702113e-12 0 0)
(-5.72046682e-12 0 0)
(-6.13320739e-12 0 0)
(-7.17356044e-12 0 0)
(-5.88326354e-12 0 0)
(-6.58753559e-12 0 0)
(-5.71218777e-12 0 0)
(-6.17405774e-12 0 0)
(-6.50934786e-12 0 0)
(-6.85515766e-12 0 0)
(-6.04255848e-12 0 0)
(-5.40524018e-12 0 0)
(-6.3017372e-12 0 0)
(-6.36775322e-12 0 0)
(-6.00166773e-12 0 0)
(-4.97660133e-12 0 0)
(-6.12226649e-12 0 0)
(-4.62845966e-12 0 0)
(-5.0633173e-12 0 0)
(-5.71979127e-12 0 0)
(-3.93469004e-12 0 0)
(-4.1855257e-12 0 0)
(-4.51766049e-12 0 0)
(-4.5593929e-12 0 0)
(-4.97044383e-12 0 0)
(-3.99680162e-12 0 0)
(-3.08614192e-12 0 0)
(-2.80936587e-12 0 0)
(-3.53832194e-12 0 0)
(-2.67283613e-12 0 0)
(-2.86825208e-12 0 0)
(-2.95806327e-12 0 0)
(-3.01708961e-12 0 0)
(-2.3781031e-12 0 0)
(-2.53905636e-12 0 0)
(-1.79358405e-12 0 0)
(-1.5782873e-12 0 0)
(-2.52120921e-12 0 0)
(-1.48390641e-12 0 0)
(-2.18882823e-12 0 0)
(-2.6971918e-12 0 0)
(-1.72364758e-12 0 0)
(-1.74595775e-12 0 0)
(-1.77708957e-12 0 0)
(-1.60005171e-12 0 0)
(-1.69851618e-12 0 0)
(-2.30146112e-12 0 0)
(-1.71177072e-12 0 0)
(-1.40742208e-12 0 0)
(-1.77431456e-12 0 0)
(-1.52133043e-12 0 0)
(-1.72454913e-12 0 0)
(5.79692817e-14 0 0)
(-1.90564291e-12 0 0)
(-1.36802311e-12 0 0)
(-1.11975591e-12 0 0)
(-9.21303177e-13 0 0)
(-1.37112104e-12 0 0)
(-5.55436944e-13 0 0)
(-1.38058876e-12 0 0)
(-4.15316245e-13 0 0)
(-7.50530123e-13 0 0)
(-4.73915184e-13 0 0)
(-4.34078533e-13 0 0)
(-4.81037487e-13 0 0)
(-7.06810208e-13 0 0)
(-1.63233328e-13 0 0)
(3.167507e-13 0 0)
(-5.51519694e-15 0 0)
(8.77065005e-14 0 0)
(1.93772373e-13 0 0)
(-1.18366677e-13 0 0)
(1.44764236e-13 0 0)
(1.58626284e-13 0 0)
(3.37092714e-13 0 0)
(-1.23254294e-13 0 0)
(9.77700065e-14 0 0)
(-4.86574645e-13 0 0)
(-1.0601331e-12 0 0)
(-6.26550752e-13 0 0)
(-1.26669448e-13 0 0)
(8.87681722e-13 0 0)
(3.32280284e-13 0 0)
(-4.13793951e-13 0 0)
(5.23414391e-13 0 0)
(1.49290006e-12 0 0)
(6.79718239e-13 0 0)
(7.3220173e-13 0 0)
(3.7558767e-13 0 0)
(9.66714608e-13 0 0)
(1.32330704e-12 0 0)
(3.88418822e-13 0 0)
(9.66743403e-13 0 0)
(1.50196514e-12 0 0)
(3.8009854e-13 0 0)
(7.57510706e-13 0 0)
(7.74817257e-13 0 0)
(1.18128989e-12 0 0)
(1.57072357e-12 0 0)
(9.52100997e-13 0 0)
(6.62007065e-13 0 0)
(8.36021726e-13 0 0)
(2.47550729e-12 0 0)
(1.17776158e-12 0 0)
(1.54909206e-12 0 0)
(1.60548883e-12 0 0)
(1.8827029e-12 0 0)
(1.7906364e-12 0 0)
(1.61219355e-12 0 0)
(8.30482998e-13 0 0)
(1.34417251e-12 0 0)
(1.84415321e-12 0 0)
(2.10169942e-12 0 0)
(1.59553985e-12 0 0)
(1.5754003e-12 0 0)
(1.72252577e-12 0 0)
(2.30388201e-12 0 0)
(2.08150401e-12 0 0)
(1.86243425e-12 0 0)
(3.41628327e-12 0 0)
(2.08994965e-12 0 0)
(2.67317655e-12 0 0)
(2.88642117e-12 0 0)
(2.49745739e-12 0 0)
(1.56396811e-12 0 0)
(2.25557892e-12 0 0)
(2.61835262e-12 0 0)
(1.6336106e-12 0 0)
(2.31470463e-12 0 0)
(1.47050291e-12 0 0)
(2.25946942e-12 0 0)
(2.76618197e-12 0 0)
(2.748639e-12 0 0)
(1.68862136e-12 0 0)
(2.80020376e-12 0 0)
(2.42073655e-12 0 0)
(2.9003497e-12 0 0)
(3.46611727e-12 0 0)
(3.00552703e-12 0 0)
(2.87974079e-12 0 0)
(4.4884703e-12 0 0)
(2.88834437e-12 0 0)
(3.7708141e-12 0 0)
(3.10526045e-12 0 0)
(4.27027447e-12 0 0)
(3.2599443e-12 0 0)
(3.77940408e-12 0 0)
(3.25644959e-12 0 0)
(3.72774088e-12 0 0)
(3.28025564e-12 0 0)
(3.54091732e-12 0 0)
(5.11156911e-12 0 0)
(5.08042981e-12 0 0)
(5.79883305e-12 0 0)
(5.39729452e-12 0 0)
(5.45275999e-12 0 0)
(5.91608722e-12 0 0)
(6.41833049e-12 0 0)
(5.24453775e-12 0 0)
(6.0320524e-12 0 0)
(6.30389548e-12 0 0)
(6.05804523e-12 0 0)
(6.20077137e-12 0 0)
(5.57189591e-12 0 0)
(7.18054883e-12 0 0)
(6.95299923e-12 0 0)
(6.96469984e-12 0 0)
(6.92489148e-12 0 0)
(7.21131928e-12 0 0)
(8.37937663e-12 0 0)
(7.83389448e-12 0 0)
(7.88066002e-12 0 0)
(8.3984189e-12 0 0)
(7.69634348e-12 0 0)
(8.62487835e-12 0 0)
(8.27594037e-12 0 0)
(9.45371866e-12 0 0)
(8.93651879e-12 0 0)
(8.92378474e-12 0 0)
(9.21925142e-12 0 0)
(1.01192622e-11 0 0)
(8.7426826e-12 0 0)
(9.9079614e-12 0 0)
(1.00585246e-11 0 0)
(9.9301054e-12 0 0)
(9.54202067e-12 0 0)
(9.25432001e-12 0 0)
(9.68738774e-12 0 0)
(9.87252864e-12 0 0)
(9.0227154e-12 0 0)
(9.18139542e-12 0 0)
(9.57385673e-12 0 0)
(8.98800936e-12 0 0)
(9.65061773e-12 0 0)
(8.39580484e-12 0 0)
(9.27833316e-12 0 0)
(7.69116225e-12 0 0)
(8.14513811e-12 0 0)
(7.95288652e-12 0 0)
(8.55460413e-12 0 0)
(7.67188878e-12 0 0)
(7.88504029e-12 0 0)
(7.92602246e-12 0 0)
(7.17257827e-12 0 0)
(8.16147871e-12 0 0)
(8.46597216e-12 0 0)
(8.73316416e-12 0 0)
(7.80714637e-12 0 0)
(9.20294978e-12 0 0)
(8.36789647e-12 0 0)
(8.64621422e-12 0 0)
(7.9908692e-12 0 0)
(8.2350873e-12 0 0)
(9.16338667e-12 0 0)
(8.4404642e-12 0 0)
(8.00938571e-12 0 0)
(9.20056744e-12 0 0)
(8.18775805e-12 0 0)
(9.71151459e-12 0 0)
(9.18349118e-12 0 0)
(8.78214224e-12 0 0)
(8.2822008e-12 0 0)
(9.02795014e-12 0 0)
(7.73675459e-12 0 0)
(8.29877824e-12 0 0)
(8.68255241e-12 0 0)
(8.92519668e-12 0 0)
(7.93386949e-12 0 0)
(8.072792e-12 0 0)
(7.89208465e-12 0 0)
(8.98992306e-12 0 0)
(8.49732926e-12 0 0)
(8.37919847e-12 0 0)
(7.99314362e-12 0 0)
(7.97885089e-12 0 0)
(8.79585609e-12 0 0)
(7.66731121e-12 0 0)
(8.76330514e-12 0 0)
(9.24743952e-12 0 0)
(8.55426275e-12 0 0)
(8.76879427e-12 0 0)
(7.95079709e-12 0 0)
(8.17940244e-12 0 0)
(8.51465332e-12 0 0)
(8.8148569e-12 0 0)
(9.34237683e-12 0 0)
(9.3441432e-12 0 0)
(9.72866696e-12 0 0)
(9.26527599e-12 0 0)
(9.01500301e-12 0 0)
(9.59107738e-12 0 0)
(8.99444883e-12 0 0)
(9.54909211e-12 0 0)
(9.50445807e-12 0 0)
(9.8320958e-12 0 0)
(1.03465587e-11 0 0)
(9.31158624e-12 0 0)
(9.97150784e-12 0 0)
(8.67087189e-12 0 0)
(9.46058415e-12 0 0)
(9.33691814e-12 0 0)
(1.06241773e-11 0 0)
(8.86738029e-12 0 0)
(9.12348086e-12 0 0)
(9.65940766e-12 0 0)
(1.00004396e-11 0 0)
(9.62646795e-12 0 0)
(9.73976072e-12 0 0)
(9.92701718e-12 0 0)
(8.90349001e-12 0 0)
(1.01350514e-11 0 0)
(9.21192032e-12 0 0)
(9.81640189e-12 0 0)
(9.19658751e-12 0 0)
(9.80641441e-12 0 0)
(1.02811106e-11 0 0)
(1.0385225e-11 0 0)
(9.25270451e-12 0 0)
(8.959983e-12 0 0)
(9.29201829e-12 0 0)
(9.14857154e-12 0 0)
(8.53380471e-12 0 0)
(9.01575525e-12 0 0)
(9.94853373e-12 0 0)
(8.80068304e-12 0 0)
(9.6486856e-12 0 0)
(9.90719324e-12 0 0)
(9.8514887e-12 0 0)
(9.74233526e-12 0 0)
(1.01569993e-11 0 0)
(1.01876521e-11 0 0)
(9.89750417e-12 0 0)
(1.10707715e-11 0 0)
(1.12068207e-11 0 0)
(1.15320137e-11 0 0)
(1.04765317e-11 0 0)
(1.10089367e-11 0 0)
(1.08787967e-11 0 0)
(1.09007689e-11 0 0)
(1.09864879e-11 0 0)
(9.98076781e-12 0 0)
(1.14754188e-11 0 0)
(9.56220003e-12 0 0)
(1.10398921e-11 0 0)
(1.04226212e-11 0 0)
(1.04466434e-11 0 0)
(1.02401819e-11 0 0)
(1.07301338e-11 0 0)
(1.0849481e-11 0 0)
(1.13006656e-11 0 0)
(1.09662715e-11 0 0)
(1.07691929e-11 0 0)
(1.13357916e-11 0 0)
(1.15113288e-11 0 0)
(1.08592436e-11 0 0)
(1.22279241e-11 0 0)
(1.10454738e-11 0 0)
(1.16685467e-11 0 0)
(1.1278971e-11 0 0)
(1.20294274e-11 0 0)
(1.1040542e-11 0 0)
(1.1802361e-11 0 0)
(1.12342018e-11 0 0)
(1.12984056e-11 0 0)
(1.09032319e-11 0 0)
(1.05761444e-11 0 0)
(1.09345929e-11 0 0)
(1.16937478e-11 0 0)
(1.19313557e-11 0 0)
(1.04319722e-11 0 0)
(1.12537068e-11 0 0)
(1.04975522e-11 0 0)
(1.16345342e-11 0 0)
(1.10413589e-11 0 0)
(1.1008007e-11 0 0)
(1.04043882e-11 0 0)
(1.13528955e-11 0 0)
(1.08993376e-11 0 0)
(1.06779428e-11 0 0)
(1.05674258e-11 0 0)
(1.00239593e-11 0 0)
(9.88036054e-12 0 0)
(9.73109091e-12 0 0)
(1.01253196e-11 0 0)
(9.37863852e-12 0 0)
(8.6929283e-12 0 0)
(9.57773977e-12 0 0)
(9.61380098e-12 0 0)
(8.95452548e-12 0 0)
(8.57187935e-12 0 0)
(8.87660926e-12 0 0)
(9.04687395e-12 0 0)
(8.65324234e-12 0 0)
(9.48810871e-12 0 0)
(8.75631166e-12 0 0)
(7.81701519e-12 0 0)
(8.80095982e-12 0 0)
(8.10250097e-12 0 0)
(8.50928992e-12 0 0)
(8.75753421e-12 0 0)
(8.84228419e-12 0 0)
(8.10881533e-12 0 0)
(8.77593322e-12 0 0)
(8.62630559e-12 0 0)
(7.71177542e-12 0 0)
(8.38201732e-12 0 0)
(7.50021615e-12 0 0)
(8.91922394e-12 0 0)
(9.02769578e-12 0 0)
(8.00899793e-12 0 0)
(8.59380313e-12 0 0)
(8.89168366e-12 0 0)
(8.49218199e-12 0 0)
(8.98673e-12 0 0)
(9.25378222e-12 0 0)
(9.13440669e-12 0 0)
(9.79848062e-12 0 0)
(9.72853712e-12 0 0)
(1.05583442e-11 0 0)
(9.90025944e-12 0 0)
(9.39710442e-12 0 0)
(9.93911434e-12 0 0)
(9.94742847e-12 0 0)
(8.9204177e-12 0 0)
(9.67362064e-12 0 0)
(8.91038562e-12 0 0)
(9.80800547e-12 0 0)
(9.4769619e-12 0 0)
(8.41318012e-12 0 0)
(1.03499951e-11 0 0)
(9.61868817e-12 0 0)
(9.51926917e-12 0 0)
(9.48378449e-12 0 0)
(1.0655372e-11 0 0)
(1.0163344e-11 0 0)
(9.78553487e-12 0 0)
(9.20244759e-12 0 0)
(9.85063724e-12 0 0)
(9.84761495e-12 0 0)
(8.83833969e-12 0 0)
(1.06340666e-11 0 0)
(9.53541488e-12 0 0)
(9.83184853e-12 0 0)
(9.99125621e-12 0 0)
(9.97761461e-12 0 0)
(1.03087978e-11 0 0)
(8.84062456e-12 0 0)
(9.62224168e-12 0 0)
(1.00162154e-11 0 0)
(9.28316597e-12 0 0)
(9.27572046e-12 0 0)
(9.96530318e-12 0 0)
(9.92765603e-12 0 0)
(1.03619003e-11 0 0)
(8.91919288e-12 0 0)
(9.92359237e-12 0 0)
(9.78861371e-12 0 0)
(1.01354889e-11 0 0)
(1.01048635e-11 0 0)
(1.09396776e-11 0 0)
(1.01062559e-11 0 0)
(1.00800088e-11 0 0)
(1.0953425e-11 0 0)
(1.04283145e-11 0 0)
(9.78307947e-12 0 0)
(9.91387418e-12 0 0)
(1.01278784e-11 0 0)
(9.18190165e-12 0 0)
(9.16547173e-12 0 0)
(9.69785408e-12 0 0)
(9.5684094e-12 0 0)
(1.06398055e-11 0 0)
(9.60021123e-12 0 0)
(1.0497621e-11 0 0)
(9.55441551e-12 0 0)
(9.50999455e-12 0 0)
(9.8286888e-12 0 0)
(1.01748493e-11 0 0)
(1.0653954e-11 0 0)
(1.02728937e-11 0 0)
(9.26796894e-12 0 0)
(1.00817017e-11 0 0)
(1.0028497e-11 0 0)
(1.00246668e-11 0 0)
(1.05420646e-11 0 0)
(1.03794174e-11 0 0)
(9.40312829e-12 0 0)
(8.91006237e-12 0 0)
(9.10938443e-12 0 0)
(9.21524246e-12 0 0)
(8.72332505e-12 0 0)
(8.46102196e-12 0 0)
(9.06475633e-12 0 0)
(9.25480505e-12 0 0)
(8.61943045e-12 0 0)
(8.72951284e-12 0 0)
(9.24916442e-12 0 0)
(9.22905763e-12 0 0)
(8.63080583e-12 0 0)
(8.86843431e-12 0 0)
(7.4881344e-12 0 0)
(9.59860127e-12 0 0)
(8.63835185e-12 0 0)
(7.63588487e-12 0 0)
(8.34246486e-12 0 0)
(9.12932854e-12 0 0)
(8.24630012e-12 0 0)
(8.36988465e-12 0 0)
(9.19741728e-12 0 0)
(7.96617927e-12 0 0)
(8.96968205e-12 0 0)
(7.98794596e-12 0 0)
(8.99192597e-12 0 0)
(8.16613362e-12 0 0)
(8.04346123e-12 0 0)
(8.12964745e-12 0 0)
(7.21054604e-12 0 0)
(8.50830663e-12 0 0)
(7.41142116e-12 0 0)
(7.65103538e-12 0 0)
(6.7867267e-12 0 0)
(6.61667343e-12 0 0)
(6.47505033e-12 0 0)
(6.89257264e-12 0 0)
(6.36508246e-12 0 0)
(6.04905089e-12 0 0)
(7.3070487e-12 0 0)
(7.22608572e-12 0 0)
(6.72205501e-12 0 0)
(6.13962347e-12 0 0)
(7.07267275e-12 0 0)
(6.61914536e-12 0 0)
(6.7710012e-12 0 0)
(5.91604842e-12 0 0)
(7.19233326e-12 0 0)
(5.64960019e-12 0 0)
(6.44498792e-12 0 0)
(7.430729e-12 0 0)
(5.53402655e-12 0 0)
(6.28702135e-12 0 0)
(6.37598714e-12 0 0)
(5.2404713e-12 0 0)
(6.31192474e-12 0 0)
(6.55709476e-12 0 0)
(6.71007109e-12 0 0)
(4.81639964e-12 0 0)
(6.1314073e-12 0 0)
(5.61898887e-12 0 0)
(4.51941965e-12 0 0)
(4.59004289e-12 0 0)
(4.61496654e-12 0 0)
(4.66549886e-12 0 0)
(4.69029967e-12 0 0)
(3.9975578e-12 0 0)
(4.42456173e-12 0 0)
(4.22814643e-12 0 0)
(4.41611788e-12 0 0)
(4.91272282e-12 0 0)
(3.82201948e-12 0 0)
(4.16640239e-12 0 0)
(4.59710421e-12 0 0)
(2.85592982e-12 0 0)
(3.30707419e-12 0 0)
(3.45254091e-12 0 0)
(3.41039079e-12 0 0)
(3.71593048e-12 0 0)
(3.24798162e-12 0 0)
(4.37399158e-12 0 0)
(3.48457844e-12 0 0)
(3.22379159e-12 0 0)
(2.86795593e-12 0 0)
(4.29391152e-12 0 0)
(3.5543647e-12 0 0)
(2.63427342e-12 0 0)
(3.32038587e-12 0 0)
(2.88782782e-12 0 0)
(3.27165641e-12 0 0)
(2.0948483e-12 0 0)
(2.31398525e-12 0 0)
(2.15656347e-12 0 0)
(2.93621241e-12 0 0)
(3.83595116e-12 0 0)
(3.80762776e-12 0 0)
(2.57819715e-12 0 0)
(3.10487265e-12 0 0)
(3.26224043e-12 0 0)
(3.4798992e-12 0 0)
(2.8532321e-12 0 0)
(3.10159874e-12 0 0)
(2.4430557e-12 0 0)
(2.9520174e-12 0 0)
(3.38086058e-12 0 0)
(3.01910461e-12 0 0)
(2.81678862e-12 0 0)
(2.72548876e-12 0 0)
(1.29994989e-12 0 0)
(2.69481505e-12 0 0)
(2.62767973e-12 0 0)
(2.23311076e-12 0 0)
(3.35962689e-12 0 0)
(2.52511711e-12 0 0)
(2.06368347e-12 0 0)
(2.64756826e-12 0 0)
(1.5598963e-12 0 0)
(2.70211667e-12 0 0)
(1.15317988e-12 0 0)
(1.28329486e-12 0 0)
(2.12709653e-12 0 0)
(4.83702584e-13 0 0)
(2.18980668e-13 0 0)
(1.43400632e-12 0 0)
(1.43173351e-12 0 0)
(9.99339237e-13 0 0)
(1.05996038e-12 0 0)
(3.31673134e-13 0 0)
(-4.4664218e-13 0 0)
(9.97115437e-13 0 0)
(1.38797537e-12 0 0)
(1.11131923e-12 0 0)
(9.86143079e-13 0 0)
(-1.01294242e-14 0 0)
(-3.38013197e-13 0 0)
(-1.77779385e-14 0 0)
(-3.82843054e-13 0 0)
(-9.55830165e-13 0 0)
(-1.61968624e-12 0 0)
(-1.02866849e-12 0 0)
(-1.45060672e-12 0 0)
(-2.14561226e-12 0 0)
(-1.87258112e-12 0 0)
(-2.84552809e-12 0 0)
(-2.02780879e-12 0 0)
(-1.65976024e-12 0 0)
(-3.01561243e-12 0 0)
(-2.83961597e-12 0 0)
(-2.89487842e-12 0 0)
(-2.19426573e-12 0 0)
(-3.31634461e-12 0 0)
(-3.27992871e-12 0 0)
(-3.2729268e-12 0 0)
(-2.99227258e-12 0 0)
(-3.05332183e-12 0 0)
(-3.66122691e-12 0 0)
(-3.39313871e-12 0 0)
(-4.5233814e-12 0 0)
(-3.51995937e-12 0 0)
(-4.1478713e-12 0 0)
(-4.41392103e-12 0 0)
(-3.84191268e-12 0 0)
(-2.76890226e-12 0 0)
(-3.5009985e-12 0 0)
(-3.26756662e-12 0 0)
(-2.33905425e-12 0 0)
(-3.032511e-12 0 0)
(-2.84766855e-12 0 0)
(-3.63220367e-12 0 0)
(-2.61045818e-12 0 0)
(-2.86426125e-12 0 0)
(-3.06135627e-12 0 0)
(-3.0021243e-12 0 0)
(-2.4854162e-12 0 0)
(-2.42389813e-12 0 0)
(-2.88591625e-12 0 0)
(-3.28248413e-12 0 0)
(-3.88010137e-12 0 0)
(-3.52409112e-12 0 0)
(-2.78068828e-12 0 0)
(-3.45062893e-12 0 0)
(-3.71290462e-12 0 0)
(-3.65524702e-12 0 0)
(-3.76721809e-12 0 0)
(-3.57332873e-12 0 0)
(-4.26482057e-12 0 0)
(-3.49240674e-12 0 0)
(-4.51611388e-12 0 0)
(-4.19316973e-12 0 0)
(-4.32189885e-12 0 0)
(-4.089269e-12 0 0)
(-5.32947258e-12 0 0)
(-4.20417517e-12 0 0)
(-4.10221536e-12 0 0)
(-5.05604501e-12 0 0)
(-4.26786687e-12 0 0)
(-4.46887585e-12 0 0)
(-4.57721821e-12 0 0)
(-5.30946056e-12 0 0)
(-3.60448611e-12 0 0)
(-5.00232759e-12 0 0)
(-5.34385097e-12 0 0)
(-4.56122826e-12 0 0)
(-4.5974292e-12 0 0)
(-4.96101584e-12 0 0)
(-5.5714088e-12 0 0)
(-5.51366637e-12 0 0)
(-5.7991639e-12 0 0)
(-6.42722088e-12 0 0)
(-7.03762105e-12 0 0)
(-6.90779981e-12 0 0)
(-7.40409717e-12 0 0)
(-7.5498033e-12 0 0)
(-7.20380773e-12 0 0)
(-8.31673399e-12 0 0)
(-7.92661885e-12 0 0)
(-7.64175231e-12 0 0)
(-6.31723491e-12 0 0)
(-7.70845092e-12 0 0)
(-7.26157272e-12 0 0)
(-7.59184178e-12 0 0)
(-7.04345448e-12 0 0)
(-7.30492564e-12 0 0)
(-7.193613e-12 0 0)
(-9.35106899e-12 0 0)
(-8.71983318e-12 0 0)
(-9.12784807e-12 0 0)
(-9.21444281e-12 0 0)
(-8.885783e-12 0 0)
(-8.56788814e-12 0 0)
(-8.59347387e-12 0 0)
(-8.94792359e-12 0 0)
(-9.90721658e-12 0 0)
(-9.22110684e-12 0 0)
(-9.79834612e-12 0 0)
(-9.39768177e-12 0 0)
(-1.00199648e-11 0 0)
(-9.99246231e-12 0 0)
(-1.02678134e-11 0 0)
(-1.08732823e-11 0 0)
(-9.58536078e-12 0 0)
(-1.027115e-11 0 0)
(-9.75302525e-12 0 0)
(-9.20671154e-12 0 0)
(-9.45971297e-12 0 0)
(-1.0159375e-11 0 0)
(-9.69822556e-12 0 0)
(-9.94899896e-12 0 0)
(-1.11241473e-11 0 0)
(-1.19503369e-11 0 0)
(-1.07428589e-11 0 0)
(-1.08129994e-11 0 0)
(-1.09473217e-11 0 0)
(-1.08174485e-11 0 0)
(-1.12197527e-11 0 0)
(-1.12115269e-11 0 0)
(-9.93631111e-12 0 0)
(-1.09721825e-11 0 0)
(-1.00720177e-11 0 0)
(-1.0268652e-11 0 0)
(-1.16413754e-11 0 0)
(-1.18312857e-11 0 0)
(-1.13456722e-11 0 0)
(-1.02470769e-11 0 0)
(-1.14558993e-11 0 0)
(-1.05183536e-11 0 0)
(-1.15413536e-11 0 0)
(-1.08044928e-11 0 0)
(-1.14812049e-11 0 0)
(-1.14078109e-11 0 0)
(-1.23170945e-11 0 0)
(-1.21196641e-11 0 0)
(-1.183171e-11 0 0)
(-1.03833349e-11 0 0)
(-1.14252912e-11 0 0)
(-1.09904404e-11 0 0)
(-1.19179704e-11 0 0)
(-1.09587879e-11 0 0)
(-1.12356229e-11 0 0)
(-1.21153116e-11 0 0)
(-1.25788793e-11 0 0)
(-1.2883794e-11 0 0)
(-1.17444307e-11 0 0)
(-1.24359961e-11 0 0)
(-1.21028369e-11 0 0)
(-1.22816668e-11 0 0)
(-1.17963936e-11 0 0)
(-1.16475608e-11 0 0)
(-1.16143022e-11 0 0)
(-1.12805975e-11 0 0)
(-1.2687042e-11 0 0)
(-1.19327705e-11 0 0)
(-1.15427355e-11 0 0)
(-1.25406841e-11 0 0)
(-1.15819449e-11 0 0)
(-1.2355266e-11 0 0)
(-1.26885216e-11 0 0)
(-1.23555981e-11 0 0)
(-1.24279827e-11 0 0)
(-1.28158407e-11 0 0)
(-1.20262951e-11 0 0)
(-1.23948003e-11 0 0)
(-1.2106434e-11 0 0)
(-1.24693643e-11 0 0)
(-1.37220949e-11 0 0)
(-1.25875954e-11 0 0)
(-1.31920741e-11 0 0)
(-1.27598844e-11 0 0)
(-1.24635801e-11 0 0)
(-1.25487453e-11 0 0)
(-1.28452409e-11 0 0)
(-1.32981411e-11 0 0)
(-1.34690863e-11 0 0)
(-1.22614129e-11 0 0)
(-1.36624107e-11 0 0)
(-1.15953465e-11 0 0)
(-1.27643896e-11 0 0)
(-1.24064024e-11 0 0)
(-1.20570087e-11 0 0)
(-1.17731318e-11 0 0)
(-1.19986938e-11 0 0)
(-1.14272799e-11 0 0)
(-1.14612147e-11 0 0)
(-1.19229229e-11 0 0)
(-1.20810263e-11 0 0)
(-1.21391421e-11 0 0)
(-1.19024609e-11 0 0)
(-1.2735052e-11 0 0)
(-1.17314433e-11 0 0)
(-1.21030871e-11 0 0)
(-1.23757078e-11 0 0)
(-1.29641438e-11 0 0)
(-1.30537733e-11 0 0)
(-1.24717695e-11 0 0)
(-1.38756579e-11 0 0)
(-1.29155811e-11 0 0)
(-1.2578573e-11 0 0)
(-1.28000195e-11 0 0)
(-1.29952322e-11 0 0)
(-1.28033347e-11 0 0)
(-1.25670774e-11 0 0)
(-1.30219147e-11 0 0)
(-1.24804235e-11 0 0)
(-1.25379204e-11 0 0)
(-1.22984025e-11 0 0)
(-1.19885929e-11 0 0)
(-1.23348101e-11 0 0)
(-1.1896424e-11 0 0)
(-1.13352315e-11 0 0)
(-1.13359978e-11 0 0)
(-1.17763769e-11 0 0)
(-1.16464513e-11 0 0)
(-1.14451406e-11 0 0)
(-1.16280016e-11 0 0)
(-1.20560121e-11 0 0)
(-1.23216277e-11 0 0)
(-1.15093007e-11 0 0)
(-1.18416513e-11 0 0)
(-1.13235684e-11 0 0)
(-1.08921246e-11 0 0)
(-1.12505707e-11 0 0)
(-1.15135618e-11 0 0)
(-1.11523612e-11 0 0)
(-1.08990652e-11 0 0)
(-1.20906142e-11 0 0)
(-1.08012683e-11 0 0)
(-1.03465238e-11 0 0)
(-1.14579492e-11 0 0)
(-1.11820694e-11 0 0)
(-1.04430195e-11 0 0)
(-1.14589717e-11 0 0)
(-9.54595693e-12 0 0)
(-9.7146802e-12 0 0)
(-1.00412964e-11 0 0)
(-1.09698346e-11 0 0)
(-1.01514472e-11 0 0)