/*--------------------------------*- C++ -*----------------------------------*\
| =========                 |                                                 |
| \\      /  F ield         | OpenFOAM: The Open Source CFD Toolbox           |
|  \\    /   O peration     | Version:  2206                                  |
|   \\  /    A nd           | Website:  www.openfoam.com                      |
|    \\/     M anipulation  |                                                 |
\*---------------------------------------------------------------------------*/
FoamFile
{
    version     2.0;
    format      ascii;
    arch        "LSB;label=32;scalar=64";
    class       surfaceScalarField;
    location    "1.88e-05";
    object      phi;
}
// * * * * * * * * * * * * * * * * * * * * * * * * * * * * * * * * * * * * * //

dimensions      [1 0 -1 0 0 0 0];

oriented        oriented;

internalField   nonuniform List<scalar> 
3182
(
6.642001e-18
-1.71455372e-18
-3.76398996e-18
-2.55811578e-18
-1.21776373e-20
-5.54320107e-23
-3.82657767e-24
5.46677965e-25
1.53472836e-23
5.30630248e-22
3.52569789e-19
5.4161363e-18
3.85209231e-18
2.15893238e-18
8.96972166e-19
-1.67207502e-18
-6.28511459e-18
-4.52924486e-18
-6.42231309e-18
3.98872193e-18
9.05047638e-20
5.21473625e-19
1.69410128e-18
3.8266601e-18
5.84430928e-18
6.93293335e-18
3.76416357e-18
1.45882143e-18
8.02267631e-19
-6.3142486e-19
-1.7657643e-19
-1.4214893e-18
-4.33877606e-18
-4.79406157e-18
-5.55593538e-18
-6.38109303e-18
-6.78981707e-18
-5.85806494e-18
-6.0786485e-18
-2.0741875e-18
9.89605195e-19
1.56125902e-18
5.53368434e-18
8.40801619e-18
8.9328751e-18
7.694623e-18
5.0660881e-18
1.92403364e-18
-1.85873381e-18
-6.50184296e-18
-1.14841233e-17
-1.64431683e-17
-2.09210276e-17
-2.42672378e-17
-2.70964866e-17
-3.03287942e-17
-3.2301308e-17
-3.6191947e-17
-3.70834699e-17
-3.81898399e-17
-3.9702569e-17
-4.12837604e-17
-4.32865078e-17
-4.49629619e-17
-4.70618831e-17
-4.79431666e-17
-4.84001093e-17
-5.11654768e-17
-5.29313182e-17
-5.43696896e-17
-5.55819523e-17
-5.7521526e-17
-5.89887669e-17
-6.13962205e-17
-6.27645355e-17
-6.35680467e-17
-6.48987209e-17
-6.40316033e-17
-6.59678613e-17
-6.74914735e-17
-6.81311493e-17
-6.8946239e-17
-7.01237843e-17
-7.18787907e-17
-7.16351258e-17
-7.20504401e-17
-7.30974898e-17
-7.43363957e-17
-7.51328194e-17
-7.49378741e-17
-7.44387656e-17
-7.38000119e-17
-7.33773109e-17
-7.24068763e-17
-7.39226099e-17
-7.47728004e-17
-7.31614605e-17
-7.47716161e-17
-7.28557626e-17
-7.26928712e-17
-7.53573121e-17
-7.47337481e-17
-7.49468505e-17
-7.60552655e-17
-7.90960139e-17
-7.63504327e-17
-7.81488096e-17
-7.75847791e-17
-7.74596376e-17
-7.89008039e-17
-8.13005942e-17
-8.20491508e-17
-7.94030686e-17
-7.99166827e-17
-8.26910708e-17
-8.02508238e-17
-8.47259798e-17
-8.45902559e-17
-8.7047014e-17
-8.74287358e-17
-8.68261003e-17
-8.62737631e-17
-8.9041617e-17
-8.58409352e-17
-8.92107283e-17
-9.14883432e-17
-8.80639069e-17
-8.76683565e-17
-8.16344971e-17
-8.25867404e-17
-8.23871065e-17
-8.33490118e-17
-8.36330299e-17
-8.38929952e-17
-8.52986568e-17
-8.26579148e-17
-8.49701421e-17
-8.70035381e-17
-8.8542381e-17
-8.98119131e-17
-8.78263162e-17
-9.02195903e-17
-8.81025911e-17
-8.67758495e-17
-8.75607852e-17
-8.90003848e-17
-8.93119964e-17
-9.37039337e-17
-9.25948588e-17
-9.14890241e-17
-9.58503635e-17
-9.66962931e-17
-9.43913477e-17
-9.72648e-17
-9.75384147e-17
-9.81274641e-17
-1.00172746e-16
-1.00516256e-16
-1.02874524e-16
-1.01918365e-16
-1.011791e-16
-1.01615924e-16
-1.02313578e-16
-9.97497318e-17
-1.00985337e-16
-1.04374741e-16
-1.03070815e-16
-1.05615708e-16
-1.03331162e-16
-1.0237875e-16
-1.0360343e-16
-1.07450494e-16
-1.08234154e-16
-1.09714767e-16
-1.11286138e-16
-1.12873245e-16
-1.13308549e-16
-1.12439396e-16
-1.12259108e-16
-1.07275642e-16
-1.07021725e-16
-1.06984745e-16
-1.07534916e-16
-1.09284242e-16
-1.11530281e-16
-1.1107843e-16
-1.1028292e-16
-1.10466671e-16
-1.0656271e-16
-1.07766029e-16
-1.10961926e-16
-1.09419135e-16
-1.10193469e-16
-1.12740673e-16
-1.11631023e-16
-1.13414306e-16
-1.11993532e-16
-1.13122229e-16
-1.1564876e-16
-1.12848598e-16
-1.13623312e-16
-1.08786581e-16
-1.11613895e-16
-1.08725629e-16
-1.10445504e-16
-1.10550702e-16
-1.13799938e-16
-1.12379823e-16
-1.17178066e-16
-1.16587074e-16
-1.17579213e-16
-1.16944384e-16
-1.16980767e-16
-1.1654049e-16
-1.12622752e-16
-1.15574345e-16
-1.127729e-16
-1.11448031e-16
-1.13213505e-16
-1.16087727e-16
-1.17273298e-16
-1.21205379e-16
-1.19969031e-16
-1.21080791e-16
-1.20289613e-16
-1.18269598e-16
-1.20338299e-16
-1.19264682e-16
-1.20142088e-16
-1.214976e-16
-1.20886255e-16
-1.19347291e-16
-1.17610305e-16
-1.19075036e-16
-1.18104017e-16
-1.19400078e-16
-1.20633995e-16
-1.21325336e-16
-1.19211916e-16
-1.21972068e-16
-1.20654022e-16
-1.19189337e-16
-1.20220318e-16
-1.19254799e-16
-1.20542172e-16
-1.20274889e-16
-1.17662287e-16
-1.21163473e-16
-1.22341589e-16
-1.19092436e-16
-1.1757328e-16
-1.14191502e-16
-1.16460611e-16
-1.17873709e-16
-1.1618173e-16
-1.16509391e-16
-1.20523447e-16
-1.18519826e-16
-1.1677735e-16
-1.18230183e-16
-1.15083173e-16
-1.16654446e-16
-1.20833899e-16
-1.19474846e-16
-1.18935612e-16
-1.18123808e-16
-1.18902745e-16
-1.22236497e-16
-1.17986916e-16
-1.21379682e-16
-1.2394309e-16
-1.25003009e-16
-1.22718892e-16
-1.25795561e-16
-1.2103932e-16
-1.20130533e-16
-1.20282475e-16
-1.22025318e-16
-1.23295203e-16
-1.20263732e-16
-1.20991309e-16
-1.21301589e-16
-1.23182847e-16
-1.19809324e-16
-1.22762173e-16
-1.26802559e-16
-1.26177762e-16
-1.2717883e-16
-1.27006566e-16
-1.25013087e-16
-1.23526223e-16
-1.24359659e-16
-1.26270318e-16
-1.30214898e-16
-1.2980175e-16
-1.31597725e-16
-1.30956015e-16
-1.29642266e-16
-1.28295052e-16
-1.29128291e-16
-1.29535238e-16
-1.29184374e-16
-1.31216102e-16
-1.32322701e-16
-1.3297288e-16
-1.3463105e-16
-1.33186252e-16
-1.34633341e-16
-1.33479703e-16
-1.3464731e-16
-1.33907774e-16
-1.36010604e-16
-1.37312843e-16
-1.38770095e-16
-1.40201313e-16
-1.42952639e-16
-1.41355678e-16
-1.44169766e-16
-1.45108965e-16
-1.47430032e-16
-1.45785066e-16
-1.47065424e-16
-1.4499626e-16
-1.43803229e-16
-1.41628808e-16
-1.42560956e-16
-1.38949915e-16
-1.39202934e-16
-1.37301436e-16
-1.36763046e-16
-1.34862618e-16
-1.342528e-16
-1.30404132e-16
-1.31340961e-16
-1.29740581e-16
-1.30693946e-16
-1.3448969e-16
-1.35127939e-16
-1.33179678e-16
-1.31841123e-16
-1.30592188e-16
-1.31595815e-16
-1.31011589e-16
-1.29524079e-16
-1.30693104e-16
-1.29324172e-16
-1.32550223e-16
-1.31499231e-16
-1.34956158e-16
-1.34493887e-16
-1.32911092e-16
-1.33672433e-16
-1.34411563e-16
-1.34400146e-16
-1.35956079e-16
-1.33129521e-16
-1.33709813e-16
-1.34238328e-16
-1.30978829e-16
-1.29025374e-16
-1.26941868e-16
-1.27461756e-16
-1.29161634e-16
-1.27270811e-16
-1.26024576e-16
-1.2742081e-16
-1.24090928e-16
-1.23286059e-16
-1.1841807e-16
-1.19578299e-16
-1.19498772e-16
-1.19224129e-16
-1.16563767e-16
-1.16901159e-16
-1.17646953e-16
-1.18481853e-16
-1.18415372e-16
-1.19389812e-16
-1.17242784e-16
-1.17036407e-16
-1.16180405e-16
-1.14028744e-16
-1.14997054e-16
-1.14765385e-16
-1.11104002e-16
-1.13702739e-16
-1.14886276e-16
-1.16089287e-16
-1.16678714e-16
-1.16215711e-16
-1.16940155e-16
-1.174999e-16
-1.14948044e-16
-1.14063308e-16
-1.11682335e-16
-1.10828541e-16
-1.02273985e-16
-1.05267585e-16
-1.04174861e-16
-1.00949072e-16
-1.04460367e-16
-9.89146872e-17
-1.00201754e-16
-1.03072728e-16
-9.94931836e-17
-9.63726706e-17
-9.6654101e-17
-9.75478758e-17
-9.91353778e-17
-9.59420507e-17
-9.73712674e-17
-1.01283729e-16
-9.75402539e-17
-1.03176986e-16
-1.01134524e-16
-1.02148671e-16
-1.01532735e-16
-9.93785917e-17
-9.85499609e-17
-1.01499982e-16
-1.00406342e-16
-1.01886902e-16
-1.01093162e-16
-1.0008173e-16
-1.04176689e-16
-1.0602248e-16
-1.04004389e-16
-1.03187342e-16
-1.02536344e-16
-1.02359948e-16
-1.0358564e-16
-1.00122009e-16
-9.84192241e-17
-9.79307856e-17
-9.71004289e-17
-9.50466193e-17
-9.22546114e-17
-8.93607231e-17
-8.63872918e-17
-8.69539024e-17
-8.76064225e-17
-8.93250138e-17
-8.67634959e-17
-8.74698895e-17
-8.70487525e-17
-8.85814888e-17
-8.72030207e-17
-8.45542066e-17
-8.7405191e-17
-8.64364031e-17
-8.2803156e-17
-8.14485312e-17
-8.20512399e-17
-8.05830581e-17
-8.17073482e-17
-8.23693095e-17
-8.22850578e-17
-8.20734786e-17
-8.1837857e-17
-8.25585753e-17
-8.17778155e-17
-7.77134853e-17
-7.6941222e-17
-7.84614691e-17
-7.72955996e-17
-7.96029152e-17
-7.66532512e-17
-8.12383261e-17
-7.82470613e-17
-7.77363288e-17
-7.37796279e-17
-7.26488219e-17
-7.50726043e-17
-7.02197794e-17
-7.27080961e-17
-7.01285149e-17
-6.8950089e-17
-6.94565135e-17
-6.74537282e-17
-6.89592103e-17
-6.41605543e-17
-6.67628565e-17
-6.80758188e-17
-6.60666808e-17
-6.40800107e-17
-6.37498906e-17
-6.57892638e-17
-6.64327115e-17
-6.71067089e-17
-6.57594035e-17
-6.40042068e-17
-6.56415301e-17
-6.32449478e-17
-6.49061238e-17
-6.46409685e-17
-6.31514659e-17
-6.29355045e-17
-5.92391197e-17
-6.1293606e-17
-6.2383173e-17
-6.29210869e-17
-5.97320562e-17
-5.84003509e-17
-5.92581494e-17
-6.03188607e-17
-5.92257503e-17
-5.93458884e-17
-5.69314198e-17
-5.86367711e-17
-5.73847236e-17
-6.06077238e-17
-6.02211059e-17
-5.94505419e-17
-6.02715367e-17
-5.94860509e-17
-5.87771079e-17
-6.14767785e-17
-5.95252771e-17
-5.70317022e-17
-5.75240777e-17
-5.75932623e-17
-5.37550155e-17
-5.55765267e-17
-5.27444328e-17
-5.18060479e-17
-5.35721176e-17
-5.16100884e-17
-5.26598784e-17
-5.15939448e-17
-4.96344634e-17
-4.97267002e-17
-4.80695518e-17
-4.88500073e-17
-4.65593049e-17
-4.59857101e-17
-4.33354414e-17
-4.54956913e-17
-4.56508519e-17
-4.50317642e-17
-4.34528332e-17
-4.44474831e-17
-4.53173879e-17
-4.47702432e-17
-4.17773871e-17
-4.14999973e-17
-4.03876503e-17
-3.81273982e-17
-3.96584453e-17
-3.6757257e-17
-3.94955452e-17
-3.46675795e-17
-3.47855678e-17
-3.30919143e-17
-3.30292804e-17
-3.23593926e-17
-3.0586829e-17
-2.93864949e-17
-2.98685477e-17
-3.15627219e-17
-2.79908418e-17
-2.50472825e-17
-2.55231458e-17
-2.18827756e-17
-2.25879815e-17
-2.22967282e-17
-1.86978333e-17
-2.18530869e-17
-1.80098129e-17
-1.85840063e-17
-1.98562424e-17
-1.78739881e-17
-1.80029316e-17
-1.5324364e-17
-1.57411762e-17
-1.44636177e-17
-1.39960492e-17
-1.29605569e-17
-1.37602599e-17
-1.43905742e-17
-1.0122004e-17
-9.87507825e-18
-5.33908999e-18
-8.00969453e-18
-6.92586517e-18
-6.95741794e-18
-6.17772453e-18
-5.03308074e-18
-5.54817444e-18
-8.00789052e-18
-5.76705288e-18
-8.40308999e-18
-3.96954993e-18
-5.76686303e-18
-2.43790357e-18
-2.3551342e-18
-5.46272946e-18
-3.69891199e-18
-5.58317299e-18
-3.18667506e-18
-3.67943626e-18
-2.77045092e-18
3.95461931e-19
-1.65862216e-18
-2.55159843e-18
-2.28083457e-18
-3.40714944e-18
-1.45475408e-18
-7.49871973e-19
1.8304823e-19
3.00574671e-18
2.55685562e-18
3.17795366e-18
3.03649201e-18
5.71466802e-18
7.76063299e-18
6.57407702e-18
8.91239826e-18
9.08541192e-18
1.25383304e-17
1.25018078e-17
7.35573138e-18
7.64079529e-18
9.21921225e-18
7.09986499e-18
1.00485129e-17
1.15412128e-17
8.48726333e-18
1.06248072e-17
9.86652587e-18
1.2117668e-17
1.61146727e-17
1.78057272e-17
1.78758159e-17
1.78360913e-17
1.59995232e-17
1.72716754e-17
1.5096696e-17
1.57368752e-17
1.37124261e-17
1.40331883e-17
1.42149865e-17
1.42795037e-17
1.18958352e-17
1.64605876e-17
1.47074396e-17
1.3661938e-17
1.16595895e-17
1.57828297e-17
1.5936971e-17
1.88319175e-17
1.49966661e-17
1.75704e-17
1.53760098e-17
1.25515323e-17
1.56338117e-17
1.71937075e-17
1.64848708e-17
1.33435013e-17
1.00780455e-17
1.11529878e-17
1.43120832e-17
1.37680887e-17
1.49249446e-17
1.55709776e-17
1.50915769e-17
1.584851e-17
1.79068167e-17
1.74239814e-17
2.00878398e-17
2.145429e-17
2.09191453e-17
2.17216278e-17
2.51091992e-17
1.93568603e-17
1.8208925e-17
1.73833709e-17
1.83627507e-17
2.14757949e-17
2.00100981e-17
1.98975571e-17
2.25287037e-17
2.53336017e-17
2.42807248e-17
2.5299646e-17
2.74423942e-17
2.34037959e-17
2.40376077e-17
2.38670365e-17
2.81607822e-17
2.78168987e-17
2.63891442e-17
2.64609208e-17
2.61193553e-17
2.3067853e-17
2.31401619e-17
2.14498062e-17
2.66023987e-17
2.65569964e-17
2.78192403e-17
3.0365182e-17
2.86938832e-17
3.09676582e-17
3.20690201e-17
3.17974033e-17
3.08605811e-17
3.23617825e-17
3.38381069e-17
3.55915637e-17
3.42908857e-17
3.14004117e-17
3.4248223e-17
3.38249422e-17
3.45010772e-17
3.56049423e-17
3.29870421e-17
3.39302257e-17
3.45306733e-17
3.5964497e-17
3.36783087e-17
3.62387557e-17
3.92946471e-17
3.73119847e-17
3.75462299e-17
3.78772514e-17
3.78453613e-17
3.73930307e-17
3.86089727e-17
3.89961061e-17
4.0593156e-17
4.22648693e-17
4.12893117e-17
4.06402409e-17
3.7630506e-17
3.91022884e-17
4.35898183e-17
3.82507616e-17
4.33427148e-17
4.38402138e-17
4.02145362e-17
4.25764936e-17
4.28802906e-17
4.15766766e-17
4.29294361e-17
4.32705687e-17
4.36725181e-17
4.22958135e-17
3.87000158e-17
4.07179415e-17
4.27987922e-17
3.91051561e-17
4.46430961e-17
4.37177353e-17
4.2613602e-17
3.90048033e-17
4.07151728e-17
4.25417e-17
4.107034e-17
4.2054671e-17
4.11809178e-17
3.99927323e-17
3.95806343e-17
4.07714665e-17
4.21517195e-17
4.33995e-17
4.30859936e-17
4.23834212e-17
4.18768389e-17
4.34023504e-17
4.27835881e-17
4.20335774e-17
4.25957943e-17
4.34001812e-17
4.47968743e-17
4.38204681e-17
4.45974153e-17
4.41327049e-17
4.13829391e-17
4.17291196e-17
4.35501131e-17
4.42224295e-17
4.36721827e-17
4.54799511e-17
4.41568175e-17
4.78233679e-17
5.06769828e-17
4.86419288e-17
4.78328846e-17
4.60906342e-17
4.57273163e-17
4.57292269e-17
4.72175655e-17
4.72205669e-17
4.74010863e-17
4.50987696e-17
4.04306278e-17
4.29440896e-17
3.96161419e-17
4.28043258e-17
4.07285296e-17
4.01276899e-17
4.05123122e-17
4.00746743e-17
4.34679998e-17
4.08656193e-17
4.05791194e-17
4.01631524e-17
4.23798601e-17
4.17199338e-17
4.4321611e-17
4.23226959e-17
4.17652626e-17
4.04856163e-17
4.18492887e-17
4.01558478e-17
4.39616254e-17
4.52856468e-17
4.20915757e-17
4.28847393e-17
4.36673584e-17
4.52636183e-17
4.95532442e-17
5.08338657e-17
5.15311525e-17
4.75599466e-17
5.3424573e-17
5.23139414e-17
5.21798008e-17
5.08498991e-17
5.23533414e-17
5.03955887e-17
5.1159827e-17
5.09146851e-17
4.759374e-17
5.29473046e-17
5.04009699e-17
5.09802435e-17
5.06903726e-17
5.16593763e-17
5.44038316e-17
5.65745837e-17
5.49997368e-17
5.54588046e-17
5.61163903e-17
5.92110279e-17
6.11646397e-17
6.09265506e-17
6.13082284e-17
6.20219734e-17
6.04067378e-17
5.92425677e-17
6.0710194e-17
6.11321861e-17
6.10326304e-17
6.12670945e-17
5.89546767e-17
6.10033721e-17
6.13714264e-17
6.00421512e-17
5.91318076e-17
5.69462602e-17
5.73217439e-17
5.66162387e-17
5.50546855e-17
5.59911353e-17
5.45974884e-17
5.87719294e-17
5.83765956e-17
6.05522059e-17
6.15205383e-17
6.32100066e-17
6.22044624e-17
6.16682449e-17
5.97129061e-17
6.18255417e-17
6.19469953e-17
6.44463164e-17
6.13157144e-17
6.10439748e-17
6.20539298e-17
6.36403464e-17
6.46323401e-17
6.34927053e-17
6.50352304e-17
6.32109722e-17
6.07514635e-17
6.21818035e-17
6.48576579e-17
6.38046954e-17
6.45368269e-17
6.49954261e-17
6.34703289e-17
6.54180616e-17
6.77144413e-17
6.56321524e-17
6.44168981e-17
6.8477309e-17
6.65190148e-17
6.46896298e-17
6.50665154e-17
6.61928678e-17
6.35044748e-17
6.56299319e-17
6.79993426e-17
6.33724798e-17
6.65460323e-17
6.26586212e-17
6.42785847e-17
6.5258491e-17
6.41786157e-17
6.43968398e-17
6.16316221e-17
6.20167245e-17
6.55425144e-17
6.57345498e-17
6.73602281e-17
6.67104483e-17
6.76854509e-17
6.43698072e-17
6.84337376e-17
6.71249344e-17
6.60146478e-17
6.71787879e-17
6.66050382e-17
6.74562809e-17
6.67565284e-17
6.60637121e-17
6.9956601e-17
6.91659183e-17
6.99606698e-17
6.6795584e-17
6.61944119e-17
7.00001848e-17
6.58257629e-17
6.71670697e-17
6.58081655e-17
6.25192418e-17
6.46381738e-17
6.361692e-17
6.49499067e-17
6.39228717e-17
6.5897972e-17
6.53878002e-17
6.68564512e-17
6.40277567e-17
6.52035224e-17
6.4140264e-17
6.40705251e-17
5.91581524e-17
6.09830801e-17
6.09997201e-17
6.07762406e-17
5.75389517e-17
5.64064855e-17
5.70237314e-17
5.68330387e-17
5.91771611e-17
6.02815986e-17
5.91803978e-17
5.93168962e-17
6.16011817e-17
5.81633418e-17
5.64375598e-17
5.93497505e-17
5.60247681e-17
5.46710334e-17
5.82375734e-17
5.6795199e-17
5.69669023e-17
6.14523884e-17
5.99735669e-17
6.15898042e-17
5.99529659e-17
6.23274129e-17
6.3743804e-17
6.25405135e-17
6.55745511e-17
5.99812106e-17
6.05341377e-17
6.06815891e-17
6.29708306e-17
6.26230671e-17
6.51292496e-17
6.51338062e-17
6.57249207e-17
6.65050021e-17
6.25778831e-17
6.51181343e-17
6.53394371e-17
6.58882032e-17
6.50618116e-17
6.31345251e-17
6.22625927e-17
6.712516e-17
6.60735128e-17
6.49748219e-17
6.73647824e-17
6.49017206e-17
6.65635667e-17
6.70373959e-17
6.72592674e-17
6.74000393e-17
6.56821862e-17
6.40985534e-17
6.78698011e-17
6.50132612e-17
6.50132276e-17
6.51543349e-17
6.35983822e-17
6.46426595e-17
6.1597191e-17
5.89366395e-17
6.05024431e-17
5.66903049e-17
6.02259197e-17
5.49451374e-17
5.25353207e-17
5.17842784e-17
4.85779828e-17
4.99361812e-17
4.64559158e-17
4.72843331e-17
4.58771515e-17
4.47376711e-17
4.4852671e-17
4.53730435e-17
4.18958307e-17
3.89732656e-17
4.0666519e-17
4.24404075e-17
4.10251638e-17
4.01016728e-17
4.18981388e-17
4.37203728e-17
3.98032719e-17
3.69148603e-17
3.84461646e-17
3.52345979e-17
3.39796722e-17
3.03263655e-17
3.06646591e-17
2.97544571e-17
2.96067459e-17
2.80281998e-17
2.95050995e-17
2.56302273e-17
2.44503124e-17
2.40757525e-17
2.11237611e-17
2.27903458e-17
2.24366475e-17
2.05180714e-17
2.36786746e-17
2.16726635e-17
2.06975701e-17
1.99252479e-17
2.16732018e-17
1.96597431e-17
2.23395563e-17
2.3645238e-17
2.21066265e-17
2.14048624e-17
2.25211575e-17
2.04434912e-17
2.00829779e-17
1.76013926e-17
1.5052006e-17
1.36196065e-17
1.70277333e-17
1.48512551e-17
1.47591946e-17
1.10576238e-17
1.08398619e-17
1.24896201e-17
1.13460142e-17
1.12650147e-17
1.08461374e-17
8.1581217e-18
1.01238527e-17
9.08819427e-18
9.12320346e-18
9.98462926e-18
7.00131591e-18
8.41582354e-18
6.88629791e-18
7.57353007e-18
3.44527123e-18
3.46841527e-18
2.1176241e-18
3.66503421e-18
2.43695032e-18
-6.37953985e-20
2.20491129e-18
2.30428444e-18
1.94992317e-18
-4.33637325e-19
2.32839728e-18
2.39971811e-18
1.81807428e-18
1.06334685e-19
-1.81037337e-18
-4.26103077e-18
-4.85839985e-18
-4.64288592e-18
-6.30462907e-18
-8.01798275e-18
-1.16758177e-17
-1.55971836e-17
-1.29351816e-17
-1.24908803e-17
-1.39060249e-17
-1.46608366e-17
-1.59633089e-17
-1.35520267e-17
-1.78801058e-17
-1.74815037e-17
-1.92017367e-17
-2.24841038e-17
-2.61499498e-17
-2.47161287e-17
-2.53124444e-17
-2.14220823e-17
-2.35852034e-17
-2.55353678e-17
-2.75496316e-17
-2.7883211e-17
-2.76529713e-17
-2.88025299e-17
-2.74850239e-17
-3.1038571e-17
-2.85119744e-17
-3.13931276e-17
-3.13002153e-17
-3.3971661e-17
-3.34821199e-17
-3.44974836e-17
-3.43850606e-17
-3.40456736e-17
-3.30454705e-17
-3.42996469e-17
-3.19584137e-17
-3.41819378e-17
-3.33852563e-17
-3.55116946e-17
-3.37196121e-17
-3.64390956e-17
-3.52907769e-17
-3.61525221e-17
-3.51229235e-17
-3.93476844e-17
-3.741236e-17
-3.94219303e-17
-3.43740857e-17
-3.72803322e-17
-3.26418837e-17
-3.29801816e-17
-3.7177316e-17
-3.66737485e-17
-3.89642122e-17
-3.75148526e-17
-3.67916413e-17
-3.93572034e-17
-3.90284045e-17
-4.27052536e-17
-4.22200778e-17
-4.34588969e-17
-4.41937013e-17
-4.3923256e-17
-4.37735168e-17
-4.36372047e-17
-4.27841005e-17
-4.3736795e-17
-4.39211951e-17
-4.64008989e-17
-4.90231322e-17
-5.18570738e-17
-5.11593835e-17
-5.33770078e-17
-5.50468702e-17
-5.41331031e-17
-5.65040898e-17
-5.74843121e-17
-5.59131695e-17
-5.82837564e-17
-5.80154091e-17
-6.31883698e-17
-6.09138209e-17
-6.19647421e-17
-6.16100213e-17
-5.81220981e-17
-5.70053436e-17
-5.9481439e-17
-6.00110642e-17
-6.15890659e-17
-6.07879908e-17
-6.01530901e-17
-6.11772043e-17
-6.52617118e-17
-6.0806286e-17
-6.4277534e-17
-6.31751899e-17
-6.41588077e-17
-6.67534274e-17
-6.78382307e-17
-6.68461118e-17
-6.66652786e-17
-7.03049028e-17
-6.62758893e-17
-6.05894557e-17
-6.61957933e-17
-6.25781761e-17
-6.37009304e-17
-6.37445257e-17
-6.46036025e-17
-6.65089023e-17
-6.16335324e-17
-6.38239064e-17
-6.51465753e-17
-6.6433104e-17
-6.613842e-17
-6.57675658e-17
-6.43693072e-17
-6.34461446e-17
-6.59579593e-17
-6.76799742e-17
-6.67161503e-17
-6.43848154e-17
-6.74465156e-17
-6.50814893e-17
-6.55500832e-17
-6.12200547e-17
-6.48610255e-17
-6.42985244e-17
-6.17436585e-17
-6.26536922e-17
-6.4091005e-17
-6.17573172e-17
-6.32803574e-17
-6.16298555e-17
-6.13417414e-17
-5.87004241e-17
-6.03105504e-17
-5.92802827e-17
-5.9111017e-17
-6.41018678e-17
-5.96692659e-17
-6.26109497e-17
-6.38960873e-17
-6.06185402e-17
-5.55121492e-17
-5.70011399e-17
-5.7292667e-17
-5.42325525e-17
-5.61314812e-17
-5.79639691e-17
-6.1574834e-17
-6.04092036e-17
-6.08152003e-17
-5.89984014e-17
-6.12162028e-17
-5.77822811e-17
-5.83020207e-17
-5.61807642e-17
-5.97021836e-17
-5.7588135e-17
-6.01385819e-17
-6.11212341e-17
-6.26976032e-17
-6.26115388e-17
-6.06672961e-17
-6.47155148e-17
-6.32740457e-17
-6.2386381e-17
-6.5074248e-17
-6.40301442e-17
-6.73667684e-17
-6.87508631e-17
-6.58949631e-17
-6.32868268e-17
-6.09538906e-17
-6.60074637e-17
-7.0141426e-17
-7.2440993e-17
-7.23069042e-17
-7.2932085e-17
-7.06120184e-17
-6.73378097e-17
-6.93403873e-17
-6.76266119e-17
-6.63217077e-17
-6.60152899e-17
-6.56584312e-17
-6.59330068e-17
-6.66415707e-17
-6.62808884e-17
-6.49008234e-17
-6.80609496e-17
-6.70447661e-17
-6.92818443e-17
-6.84364564e-17
-7.05778329e-17
-7.08004746e-17
-7.14579658e-17
-7.44074025e-17
-7.21473486e-17
-7.32229461e-17
-7.41718827e-17
-7.56948533e-17
-7.57378671e-17
-7.28028494e-17
-7.82544197e-17
-7.68074759e-17
-7.5987729e-17
-7.87967158e-17
-7.8340223e-17
-7.75839545e-17
-7.55762474e-17
-7.72664653e-17
-7.75568354e-17
-7.93928887e-17
-7.79603985e-17
-8.10640508e-17
-8.18467133e-17
-7.98340313e-17
-8.24095972e-17
-8.03511926e-17
-7.78575605e-17
-7.69347136e-17
-7.250619e-17
-7.39730555e-17
-7.07167179e-17
-7.38938009e-17
-7.05885176e-17
-7.05845655e-17
-6.98528438e-17
-6.88108175e-17
-7.14742228e-17
-6.74595568e-17
-6.66023334e-17
-6.84020546e-17
-7.10555472e-17
-7.01545595e-17
-7.32795675e-17
-7.2135011e-17
-7.193708e-17
-6.9980468e-17
-7.01782789e-17
-7.2544867e-17
-7.17959096e-17
-6.74808439e-17
-6.79839398e-17
-6.56065692e-17
-6.40812149e-17
-6.59974387e-17
-6.49773683e-17
-6.18495782e-17
-6.15884383e-17
-6.21952717e-17
-6.09397446e-17
-6.2766609e-17
-6.29447545e-17
-6.35846553e-17
-6.42146998e-17
-6.52390105e-17
-6.24751018e-17
-6.64194162e-17
-6.53050673e-17
-6.56762586e-17
-6.42163633e-17
-6.19073098e-17
-6.11557263e-17
-6.27889749e-17
-6.29170307e-17
-6.10346738e-17
-5.74221066e-17
-5.67259894e-17
-5.6844232e-17
-5.64413084e-17
-5.58005247e-17
-5.19436475e-17
-5.35245149e-17
-5.39318193e-17
-5.01015396e-17
-5.18578782e-17
-5.19107789e-17
-5.53903433e-17
-5.20529736e-17
-5.12111498e-17
-5.43457e-17
-5.68839571e-17
-5.56307017e-17
-5.50540802e-17
-5.34375191e-17
-5.44482033e-17
-5.24873373e-17
-5.16630072e-17
-5.13851419e-17
-5.42941382e-17
-5.18016501e-17
-4.95827595e-17
-4.98486605e-17
-5.49956122e-17
-5.09655553e-17
-5.09017883e-17
-5.06777998e-17
-5.43731245e-17
-5.20681001e-17
-5.23148852e-17
-5.2935687e-17
-5.4211722e-17
-5.13401196e-17
-4.99539593e-17
-4.85408886e-17
-5.08718304e-17
-4.81733969e-17
-4.79157409e-17
-4.58754528e-17
-4.68729949e-17
-5.0747481e-17
-5.09159289e-17
-4.93896569e-17
-5.04417381e-17
-4.83827142e-17
-4.63044021e-17
-4.66760979e-17
-4.32398738e-17
-4.61531283e-17
-4.41981371e-17
-4.40439514e-17
-4.6812261e-17
-4.49964045e-17
-4.42019745e-17
-4.31854725e-17
-4.39878768e-17
-4.22706453e-17
-4.43197613e-17
-4.26579655e-17
-4.1281392e-17
-4.18468614e-17
-4.09348283e-17
-4.28243017e-17
-4.0556946e-17
-3.72756525e-17
-3.44294662e-17
-3.71506076e-17
-3.67270868e-17
-3.9044377e-17
-3.97109209e-17
-3.79110965e-17
-3.6392438e-17
-3.3653683e-17
-3.42770062e-17
-3.21245805e-17
-3.34230141e-17
-3.05071786e-17
-3.30906187e-17
-3.31324839e-17
-3.08479852e-17
-3.17721155e-17
-3.25264249e-17
-3.08275773e-17
-3.2691781e-17
-3.0124036e-17
-2.95227972e-17
-2.5941666e-17
-2.7541465e-17
-2.83152507e-17
-2.92763586e-17
-2.71217813e-17
-2.50283832e-17
-2.69679354e-17
-2.62109716e-17
-2.28283578e-17
-2.59605221e-17
-2.2180031e-17
-2.65417047e-17
-2.26100409e-17
-2.2370792e-17
-2.6805137e-17
-2.77427139e-17
-2.89516396e-17
-2.6157174e-17
-2.54566729e-17
-2.55811161e-17
-2.73870629e-17
-2.59597642e-17
-2.91270398e-17
-2.97472509e-17
-2.59634837e-17
-2.8522444e-17
-2.88981002e-17
-2.64805401e-17
-2.46379517e-17
-2.48293102e-17
-2.2756695e-17
-2.07369415e-17
-2.13905228e-17
-2.03533466e-17
-1.41146229e-17
-1.78344268e-17
-1.42318902e-17
-1.1582165e-17
-1.17321074e-17
-9.37491261e-18
-1.31298972e-17
-1.14244029e-17
-1.02514549e-17
-1.11912649e-17
-1.126759e-17
-9.69499801e-18
-1.28153692e-17
-9.95462805e-18
-8.27726299e-18
-7.69451113e-18
-4.18446341e-18
-3.8814481e-18
2.84927036e-19
2.40007129e-18
8.32519477e-19
2.35903668e-18
6.14009892e-18
1.22772399e-17
1.37459366e-17
1.83963283e-17
2.52261946e-17
2.713547e-17
2.76680336e-17
3.41330989e-17
3.61733422e-17
4.47357185e-17
4.74321612e-17
5.64613239e-17
5.97963201e-17
6.80571428e-17
7.25726513e-17
8.09552083e-17
8.71742538e-17
9.72739034e-17
1.04521328e-16
1.12587903e-16
1.23562429e-16
1.2887352e-16
1.39844034e-16
1.50083979e-16
1.64955835e-16
1.77558884e-16
1.9060761e-16
2.06142408e-16
2.18618672e-16
2.38183085e-16
2.55512265e-16
2.73054673e-16
2.92919175e-16
3.17469541e-16
3.41563816e-16
3.68421679e-16
3.92594949e-16
4.19392907e-16
4.52839842e-16
4.83859083e-16
5.21320882e-16
5.61670447e-16
6.01562566e-16
6.48748963e-16
6.97379877e-16
7.51243688e-16
8.03534903e-16
8.64295364e-16
9.31524961e-16
1.00104971e-15
1.07482247e-15
1.1563575e-15
1.24113747e-15
1.32793006e-15
1.42960976e-15
1.54112396e-15
1.64827171e-15
1.76861681e-15
1.90138087e-15
2.04219178e-15
2.19097091e-15
2.34747066e-15
2.52009628e-15
2.70163283e-15
2.89368068e-15
3.10232596e-15
3.32282224e-15
3.56463126e-15
3.82221683e-15
4.09339346e-15
4.38699351e-15
4.69858117e-15
5.03483563e-15
5.39641687e-15
5.78148159e-15
6.19326886e-15
6.6332147e-15
7.10531773e-15
7.60727371e-15
8.14645559e-15
8.7198437e-15
9.33672183e-15
9.99453086e-15
1.06959077e-14
1.14505061e-14
1.22525829e-14
1.31088615e-14
1.40226837e-14
1.50034594e-14
1.60498193e-14
1.7171629e-14
1.83666723e-14
1.96409363e-14
2.10096216e-14
2.24667952e-14
2.40238146e-14
2.56865731e-14
2.74556776e-14
2.93516205e-14
3.13680554e-14
3.35208522e-14
3.58207685e-14
3.8276305e-14
4.08942248e-14
4.3689816e-14
4.66711895e-14
4.98564081e-14
5.32454381e-14
5.68663202e-14
6.07265139e-14
6.48408484e-14
6.9226297e-14
7.39020635e-14
7.8886465e-14
8.41979141e-14
8.98589873e-14
9.58922955e-14
1.0232299e-13
1.09170773e-13
1.16469666e-13
1.24239621e-13
1.3251487e-13
1.41332405e-13
1.5071744e-13
1.60711633e-13
1.71351108e-13
1.82677559e-13
1.94737777e-13
2.07567189e-13
2.21225169e-13
2.35754122e-13
2.51214301e-13
2.67661808e-13
2.85158094e-13
3.03767287e-13
3.23562219e-13
3.44611276e-13
3.66988979e-13
3.90784855e-13
4.16078203e-13
4.42967679e-13
4.71547767e-13
5.01918154e-13
5.34196123e-13
5.68488313e-13
6.04920007e-13
6.43623575e-13
6.84733391e-13
7.28395185e-13
7.74759597e-13
8.23990348e-13
8.76260172e-13
9.31752681e-13
9.90650691e-13
1.05316749e-12
1.11951052e-12
1.18991346e-12
1.26460976e-12
1.3438503e-12
1.4279119e-12
1.51706866e-12
1.61162538e-12
1.71189318e-12
1.81821707e-12
1.93093333e-12
2.05042027e-12
2.17706952e-12
2.31129727e-12
2.45353956e-12
2.60425456e-12
2.76393584e-12
2.93308659e-12
3.11226259e-12
3.3020208e-12
3.50297688e-12
3.71576304e-12
3.94104016e-12
4.17952377e-12
4.43196011e-12
4.69912512e-12
4.9818473e-12
5.28100478e-12
5.59751112e-12
5.93232998e-12
6.28648365e-12
6.66104851e-12
7.05714563e-12
7.475971e-12
7.91876675e-12
8.38685922e-12
8.88162561e-12
9.4045233e-12
9.9570932e-12
1.0540946e-11
1.11577754e-11
1.18093655e-11
1.24975937e-11
1.32244317e-11
1.39919458e-11
1.48023196e-11
1.56578468e-11
1.65609245e-11
1.75140756e-11
1.8519962e-11
1.95813635e-11
2.07012076e-11
2.18825679e-11
2.31286652e-11
2.44428803e-11
2.58287699e-11
2.72900548e-11
2.88306368e-11
3.04546276e-11
3.21663164e-11
3.39702186e-11
3.58710527e-11
3.78737774e-11
3.99835814e-11
4.22059062e-11
4.45464522e-11
4.7011197e-11
4.96063853e-11
5.23385757e-11
5.52146228e-11
5.82417123e-11
6.14273556e-11
6.47794227e-11
6.83061467e-11
7.20161461e-11
7.59184189e-11
8.00223966e-11
8.43379288e-11
8.88753217e-11
9.36453516e-11
9.86592648e-11
1.03928836e-10
1.09466356e-10
1.15284666e-10
1.21397182e-10
1.27817912e-10
1.34561485e-10
1.41643166e-10
1.49078902e-10
1.5688532e-10
1.65079787e-10
1.736804e-10
1.82706062e-10
1.92176456e-10
2.02112129e-10
2.12534491e-10
2.23465862e-10
2.349295e-10
2.46949646e-10
2.59551544e-10
2.72761493e-10
2.86606877e-10
3.01116213e-10
3.16319179e-10
3.32246679e-10
3.48930858e-10
3.66405164e-10
3.84704403e-10
4.03864757e-10
4.23923857e-10
4.44920825e-10
4.66896319e-10
4.89892608e-10
5.13953608e-10
5.39124919e-10
5.65453936e-10
5.92989843e-10
6.21783732e-10
6.51888611e-10
6.8335951e-10
7.16253531e-10
7.50629897e-10
7.86550038e-10
8.24077656e-10
8.63278801e-10
9.0422193e-10
9.46977978e-10
9.91620455e-10
1.03822551e-09
1.08687199e-09
1.13764156e-09
1.19061875e-09
1.24589105e-09
1.303549e-09
1.36368625e-09
1.42639968e-09
1.49178948e-09
1.55995922e-09
1.63101597e-09
1.70507034e-09
1.78223666e-09
1.86263298e-09
1.94638125e-09
2.03360735e-09
2.12444122e-09
2.21901698e-09
2.31747296e-09
2.41995189e-09
2.52660094e-09
2.63757184e-09
2.75302099e-09
2.87310956e-09
2.99800358e-09
3.12787408e-09
3.26289715e-09
3.40325409e-09
3.54913146e-09
3.70072127e-09
3.85822099e-09
4.02183371e-09
4.19176825e-09
4.36823922e-09
4.55146717e-09
4.74167866e-09
4.9391064e-09
5.14398927e-09
5.35657253e-09
5.5771078e-09
5.80585328e-09
6.0430737e-09
6.28904056e-09
6.54403208e-09
6.8083334e-09
7.0822366e-09
7.36604076e-09
7.66005212e-09
7.96458408e-09
8.27995728e-09
8.6064997e-09
8.94454668e-09
9.294441e-09
9.65653294e-09
1.00311803e-08
1.04187484e-08
1.08196102e-08
1.12341464e-08
1.16627453e-08
1.21058027e-08
1.25637222e-08
1.30369153e-08
1.35258008e-08
1.40308054e-08
1.45523635e-08
1.50909168e-08
1.56469148e-08
1.62208146e-08
1.68130806e-08
1.74241846e-08
1.80546057e-08
1.87048303e-08
1.9375352e-08
2.00666711e-08
2.07792952e-08
2.15137383e-08
2.22705211e-08
2.30501709e-08
2.38532211e-08
2.46802112e-08
2.55316866e-08
2.64081983e-08
2.73103029e-08
2.82385621e-08
2.91935424e-08