/*--------------------------------*- C++ -*----------------------------------*\
| =========                 |                                                 |
| \\      /  F ield         | OpenFOAM: The Open Source CFD Toolbox           |
|  \\    /   O peration     | Version:  2206                                  |
|   \\  /    A nd           | Website:  www.openfoam.com                      |
|    \\/     M anipulation  |                                                 |
\*---------------------------------------------------------------------------*/
FoamFile
{
    version     2.0;
    format      ascii;
    arch        "LSB;label=32;scalar=64";
    class       volScalarField;
    location    "1.88e-05";
    object      PVsourcePV;
}
// * * * * * * * * * * * * * * * * * * * * * * * * * * * * * * * * * * * * * //

dimensions      [1 -3 -1 0 0 0 0];

internalField   nonuniform List<scalar> 
3183
(
0
0
0
0
0
0
0
0
0
0
0
0
0
0
0
0
0
0
0
0
0
0
0
0
0
0
0
0
0
0
0
0
0
0
0
0
0
0
0
0
0
0
0
0
0
0
0
0
0
0
0
0
0
0
0
0
0
0
0
0
0
0
0
0
0
0
0
0
0
0
0
0
0
0
0
0
0
0
0
0
0
0
0
0
0
0
0
0
0
0
0
0
0
0
0
0
0
0
0
0
0
0
0
0
0
0
0
0
0
0
0
0
0
0
0
0
0
0
0
0
0
0
0
0
0
0
0
0
0
0
0
0
0
0
0
0
0
0
0
0
0
0
0
0
0
0
0
0
0
0
0
0
0
0
0
0
0
0
0
0
0
0
0
0
0
0
0
0
0
0
0
0
0
0
0
0
0
0
0
0
0
0
0
0
0
0
0
0
0
0
0
0
0
0
0
0
0
0
0
0
0
0
0
0
0
0
0
0
0
0
0
0
0
0
0
0
0
0
0
0
0
0
0
0
0
0
0
0
0
0
0
0
0
0
0
0
0
0
0
0
0
0
0
0
0
0
0
0
0
0
0
0
0
0
0
0
0
0
0
0
0
0
0
0
0
0
0
0
0
0
0
0
0
0
0
0
0
0
0
0
0
0
0
0
0
0
0
0
0
0
0
0
0
0
0
0
0
0
0
0
0
0
0
0
0
0
0
0
0
0
0
0
0
0
0
0
0
0
0
0
0
0
0
0
0
0
0
0
0
0
0
0
0
0
0
0
0
0
0
0
0
0
0
0
0
0
0
0
0
0
0
0
0
0
0
0
0
0
0
0
0
0
0
0
0
0
0
0
0
0
0
0
0
0
0
0
0
0
0
0
0
0
0
0
0
0
0
0
0
0
0
0
0
0
0
0
0
0
0
0
0
0
0
0
0
0
0
0
0
0
0
0
0
0
0
0
0
0
0
0
0
0
0
0
0
0
0
0
0
0
0
0
0
0
0
0
0
0
0
0
0
0
0
0
0
0
0
0
0
0
0
0
0
0
0
0
0
0
0
0
0
0
0
0
0
0
0
0
0
0
0
0
0
0
0
0
0
0
0
0
0
0
0
0
0
0
0
0
0
0
0
0
0
0
0
0
0
0
0
0
0
0
0
0
0
0
0
0
0
0
0
0
0
0
0
0
0
0
0
0
0
0
0
0
0
0
0
0
0
0
0
0
0
0
0
0
0
0
0
0
0
0
0
0
0
0
0
0
0
0
0
0
0
0
0
0
0
0
0
0
0
0
0
0
0
0
0
0
0
0
0
0
0
0
0
0
0
0
0
0
0
0
0
0
0
0
0
0
0
0
0
0
0
0
0
0
0
0
0
0
0
0
0
0
0
0
0
0
0
0
0
0
0
0
0
0
0
0
0
0
0
0
0
0
0
0
0
0
0
0
0
0
0
0
0
0
0
0
0
0
0
0
0
0
0
0
0
0
0
0
0
0
0
0
0
0
0
0
0
0
0
0
0
0
0
0
0
0
0
0
0
0
0
0
0
0
0
0
0
0
0
0
0
0
0
0
0
0
0
0
0
0
0
0
0
0
0
0
0
0
0
0
0
0
0
0
0
0
0
0
0
0
0
0
0
0
0
0
0
0
0
0
0
0
0
0
0
0
0
0
0
0
0
0
0
0
0
0
0
0
0
0
0
0
0
0
0
0
0
0
0
0
0
0
0
0
0
0
0
0
0
0
0
0
0
0
0
0
0
0
0
0
0
0
0
0
0
0
0
0
0
0
0
0
0
0
0
0
0
0
0
0
0
0
0
0
0
0
0
0
0
0
0
0
0
0
0
0
0
0
0
0
0
0
0
0
0
0
0
0
0
0
0
0
0
0
0
0
0
0
0
0
0
0
0
0
0
0
0
0
0
0
0
0
0
0
0
0
0
0
0
0
0
0
0
0
0
0
0
0
0
0
0
0
0
0
0
0
0
0
0
0
0
0
0
0
0
0
0
0
0
0
0
0
0
0
0
0
0
0
0
0
0
0
0
0
0
0
0
0
0
0
0
0
0
0
0
0
0
0
0
0
0
0
0
0
0
0
0
0
0
0
0
0
0
0
0
0
0
0
0
0
0
0
0
0
0
0
0
0
0
0
0
0
0
0
0
0
0
0
0
0
0
0
0
0
0
0
0
0
0
0
0
0
0
0
0
0
0
0
0
0
0
0
0
0
0
0
0
0
0
0
0
0
0
0
0
0
0
0
0
0
0
0
0
0
0
0
0
0
0
0
0
0
0
0
0
0
0
0
0
0
0
0
0
0
0
0
0
0
0
0
0
0
0
0
0
0
0
0
0
0
0
0
0
0
0
0
0
0
0
0
0
0
0
0
0
0
0
0
0
0
0
0
0
0
0
0
0
0
0
0
0
0
0
0
0
0
0
0
0
0
0
0
0
0
0
0
0
0
0
0
0
0
0
0
0
0
0
0
0
0
0
0
0
0
0
0
0
0
0
0
0
0
0
0
0
0
0
0
0
0
0
0
0
0
0
0
0
0
0
0
0
0
0
0
0
0
0
0
0
0
0
0
0
0
0
0
0
0
0
0
0
0
0
0
0
0
0
0
0
0
0
0
0
0
0
0
0
0
0
0
0
0
0
0
0
0
0
0
0
0
0
0
0
0
0
0
0
0
0
0
0
0
0
0
0
0
0
0
0
0
0
0
0
0
0
0
0
0
0
0
0
0
0
0
0
0
0
0
0
0
0
0
0
0
0
0
0
0
0
0
0
0
0
0
0
0
0
0
0
0
0
0
0
0
0
0
0
0
0
0
0
0
0
0
0
0
0
0
0
0
0
0
0
0
0
0
0
0
0
0
0
0
0
0
0
0
0
0
0
0
0
0
0
0
0
0
0
0
0
0
0
0
0
0
0
0
0
0
0
0
0
0
0
0
0
0
0
0
0
0
0
0
0
0
0
0
0
0
0
0
0
0
0
0
0
0
0
0
0
0
0
0
0
0
0
0
0
0
0
0
0
0
0
0
0
0
0
0
0
0
0
0
0
0
0
0
0
0
0
0
0
0
0
0
0
0
0
0
0
0
0
0
0
0
0
0
0
0
0
0
0
0
0
0
0
0
0
0
0
0
0
0
0
0
0
0
0
0
0
0
0
0
0
0
0
0
0
0
0
0
0
0
0
0
0
0
0
0
0
0
0
0
0
0
0
0
0
0
0
0
0
0
0
0
0
0
0
0
0
0
0
0
0
0
0
0
0
0
0
0
0
0
0
0
0
0
0
0
0
0
0
0
0
0
0
0
0
0
0
0
0
0
0
0
0
0
0
0
0
0
0
0
0
0
0
0
0
0
0
0
0
0
0
0
0
0
0
0
0
0
0
0
0
0
0
0
0
0
0
0
0
0
0
0
0
0
0
0
0
0
0
0
0
0
0
0
0
0
0
0
0
0
0
0
0
0
0
0
0
0
0
0
0
0
0
0
0
0
0
0
0
0
0
0
0
0
0
0
0
0
0
0
0
0
0
0
0
0
0
0
0
0
0
0
0
0
0
0
0
0
0
0
0
0
0
0
0
0
0
0
0
0
0
0
0
0
0
0
0
0
0
0
0
0
0
0
0
0
0
0
0
0
0
0
0
0
0
0
0
0
0
0
0
0
0
0
0
0
0
0
0
0
0
0
0
0
0
0
0
0
0
0
0
0
0
0
0
0
0
0
0
0
0
0
0
0
0
0
0
0
0
0
0
0
0
0
0
0
0
0
0
0
0
0
0
0
0
0
0
0
0
0
0
0
0
0
0
0
0
0
0
0
0
0
0
0
0
0
0
0
0
0
0
0
0
0
0
0
0
0
0
0
0
0
0
0
0
0
0
0
0
0
0
0
0
0
0
0
0
0
0
0
0
0
0
0
0
0
0
0
0
0
0
0
0
0
0
0
0
0
0
0
0
0
0
0
0
0
0
0
0
0
0
0
0
0
0
0
0
0
0
0
0
0
0
0
0
0
0
0
0
0
0
0
0
0
0
0
0
0
0
0
0
0
0
0
0
0
0
0
0
0
0
0
0
0
0
0
0
0
0
0
0
0
0
0
0
0
0
0
0
0
0
0
0
0
0
0
0
0
0
0
0
0
0
0
0
0
0
0
0
0
0
0
0
0
0
0
0
0
0
0
0
0
0
0
0
0
0
0
0
0
0
0
0
0
0
0
0
0
0
0
0
0
0
0
0
0
0
0
0
0
0
0
0
0
0
0
0
0
0
0
0
0
0
0
0
0
0
0
0
0
0
0
0
0
0
0
0
0
0
0
0
0
0
0
0
0
0
0
0
0
0
0
0
0
0
0
0
0
0
0
0
0
0
0
0
0
0
0
0
0
0
0
0
0
0
0
0
0
0
0
0
0
0
0
0
0
0
0
0
0
0
0
0
0
0
0
0
0
0
0
0
0
0
0
0
0
0
0
0
0
0
0
0
0
0
0
0
0
0
0
0
0
0
0
0
0
0
0
0
0
0
0
0
0
0
0
0
0
0
0
0
0
0
0
0
0
0
0
0
0
0
0
0
0
0
0
0
0
0
0
0
0
0
0
0
0
0
0
0
0
0
0
0
0
0
0
0
0
0
0
0
0
0
0
0
0
0
0
0
0
0
0
0
0
0
0
0
0
0
0
0
0
0
0
0
0
0
0
0
0
0
0
0
0
0
0
0
0
0
0
0
0
0
0
0
0
0
0
0
0
0
0
0
0
0
0
0
0
0
0
0
0
0
0
0
0
0
0
0
0
0
0
0
0
0
0
0
0
0
0
0
0
0
0
0
0
0
0
0
0
0
0
0
0
0
0
0
0
0
0
0
0
0
0
0
0
0
0
0
0
0
0
0
0
0
0
0
0
0
0
0
0
0
0
0
0
0
0
0
0
0
0
0
0
0
0
0
0
0
0
0
0
0
0
0
0
0
0
0
0
0
0
0
0
0
0
0
0
0
0
0
0
0
0
0
0
0
0
0
0
0
0
0
0
0
0
0
0
0
0
0
0
0
0
0
0
0
0
0
0
0
0
0
0
0
0
0
0
0
0
0
0
0
0
0
0
0
0
0
0
0
0
0
0
0
0
0
0
0
0
0
0
0
0
0
0
0
0
0
0
0
0
0
0
0
0
0
0
0
0
0
0
0
0
0
0
0
0
0
0
0
0
0
0
0
0
0
0
0
0
0
0
0
0
0
0
0
0
0
0
0
0
0
0
0
0
0
0
0
0
0
0
0
0
0
0
0
0
0
0
0
0
0
0
0
0
0
0
0
0
0
0
0
0
0
0
0
0
0
0
0
0
0
7.75898392e-299
4.34626816e-299
3.72192856e-296
2.10188725e-296
1.77008903e-293
1.00772431e-293
8.34598335e-291
4.78967277e-291
3.90127141e-288
2.2567999e-288
1.80788781e-285
1.05413168e-285
8.30545331e-283
4.88092715e-283
3.78243202e-280
2.24028457e-280
1.70759032e-277
1.01927188e-277
7.64168786e-275
4.59677082e-275
3.38981278e-272
2.05478456e-272
1.49049364e-269
9.10423854e-270
6.4958975e-267
3.99821007e-267
2.80600775e-264
1.73995406e-264
1.20133655e-261
7.50671123e-262
5.0974327e-259
3.20951856e-259
2.14354962e-256
1.36013499e-256
8.93294042e-254
5.71019986e-254
3.6890724e-251
2.3755627e-251
1.50967723e-248
9.79287423e-249
6.12176835e-246
4.00003928e-246
2.45966825e-243
1.61886242e-243
9.79181813e-241
6.49124082e-241
3.8620411e-238
2.57867938e-238
1.50909317e-235
1.01484057e-235
5.84169586e-233
3.95646547e-233
2.24007678e-230
1.52793004e-230
8.50872527e-228
5.84470688e-228
3.20124924e-225
2.21442508e-225
1.19289657e-222
8.30946778e-223
4.40238965e-220
3.08797292e-220
1.60897668e-217
1.13640994e-217
5.82316228e-215
4.14123728e-215
2.08683098e-212
1.49427352e-212
7.40466307e-210
5.33832916e-210
2.60125178e-207
1.88810103e-207
9.04663242e-205
6.6108618e-205
3.1144855e-202
2.29124309e-202
1.06132102e-199
7.86014708e-200
3.57959129e-197
2.66871154e-197
1.19484161e-194
8.96701553e-195
3.94675565e-192
2.98148202e-192
1.28998511e-189
9.8087996e-190
4.17161272e-187
3.19270676e-187
1.33461816e-184
1.02806477e-184
4.22378107e-182
3.27459484e-182
1.32218802e-179
1.03163545e-179
4.09342777e-177
3.21425974e-177
1.25324576e-174
9.90317815e-175
3.7939539e-172
3.01688251e-172
1.1355451e-169
9.08619337e-170
3.35986136e-167
2.70516134e-167
9.82628262e-165
7.96045724e-165
2.84022327e-162
2.31505137e-162
8.11247742e-160
6.65278036e-160
2.28945816e-157
1.8888861e-157
6.38305196e-155
5.2979314e-155
1.75782865e-152
1.46771106e-152
4.78091349e-150
4.01552031e-150
1.28399305e-147
1.08477833e-147
3.40455686e-145
2.89311972e-145
8.91108642e-143
7.61629325e-143
2.30195091e-140
1.97877104e-140
5.86782346e-138
5.07273162e-138
1.47567505e-135
1.28291942e-135
3.66058942e-133
3.20023181e-133
8.95505638e-131
7.8722346e-131
2.15997867e-128
1.9092178e-128
5.13567379e-126
4.56411172e-126
1.20340327e-123
1.07522375e-123
2.77834033e-121
2.49561386e-121
6.31844762e-119
5.70534001e-119
1.41504893e-116
1.28438769e-116
3.11995992e-114
2.84643311e-114
6.77045824e-112
6.2082683e-112
1.44559922e-109
1.33221188e-109
3.03600001e-107
2.81171996e-107
6.26955087e-105
5.83475846e-105
1.27262887e-102
1.19007678e-102
2.53828458e-100
2.38490016e-100
4.97263646e-98
4.6939937e-98
9.56460849e-96
9.07021097e-96
1.80550615e-93
1.71993207e-93
3.34340913e-91
3.19912273e-91
6.07065998e-89
5.8340797e-89
1.08024914e-86
1.04260648e-86
1.8829e-84
1.82493511e-84
3.2129681e-82
3.12688623e-82
5.36423403e-80
5.24152726e-80
8.75713474e-78
8.59034909e-78
1.39695826e-75
1.37555024e-75
2.17604404e-73
2.15047721e-73
3.30742932e-71
3.27969438e-71
4.90124066e-69
4.87502558e-69
7.07528625e-67
7.05531861e-67
9.94049846e-65
9.92987643e-65
1.35791635e-62
1.35738036e-62
1.80169289e-60
1.79984171e-60
2.31919423e-58
2.31254234e-58
2.89271866e-56
2.87769653e-56
3.49143797e-54
3.46836012e-54
4.07187023e-52
4.04839382e-52
4.5811991e-50
4.56806055e-50
4.9636849e-48
4.9573573e-48
5.16952781e-46
5.14686561e-46
5.164347e-44
5.12649292e-44
4.93696415e-42
4.88872851e-42
4.504515e-40
4.45280132e-40
3.91116447e-38
3.86294458e-38
3.22105694e-36
3.18118117e-36
2.5066623e-34
2.47768375e-34
1.83541117e-32
1.81462076e-32
1.25824942e-30
1.25639674e-30
8.02824809e-29
7.99628121e-29
4.73677429e-27
4.7065866e-27
2.56291869e-25
2.54403216e-25
1.2591331e-23
1.25114759e-23
5.54835096e-22
5.52436175e-22
2.15908496e-20
2.15186526e-20
7.27099491e-19
7.24551724e-19
2.06143424e-17
2.05589573e-17
4.72945432e-16
4.72627316e-16
1.9413899e-14
1.95838522e-14
2.04751612e-10
2.1434486e-10
0.00182190007
0.00866336271
0.40782068
0.522983331
0.746864631
0.704558853
0.32977855
0.277078909
0.0711402759
0.0584749689
0.0149739365
0.0133595633
0.00349900343
0.00321860075
0.000734147382
0.000698644681
0.000140735587
0.000138085046
2.55301908e-05
2.5446179e-05
4.79880796e-06
4.79489488e-06
1.30186027e-06
1.30212655e-06
7.52812588e-07
7.53049739e-07
6.7242297e-07
6.72430193e-07
6.61308015e-07
6.6130694e-07
6.59859301e-07
6.59859528e-07
6.59679528e-07
6.59681757e-07
6.59658357e-07
6.59660808e-07
6.59657507e-07
6.59656514e-07
6.59657469e-07
6.59655304e-07
6.59657635e-07
6.5965576e-07
6.59657196e-07
6.59656643e-07
6.59657878e-07
6.59656764e-07
6.59657223e-07
6.59657378e-07
6.59657357e-07
6.59657363e-07
6.59657794e-07
6.59657475e-07
6.59657893e-07
6.59657614e-07
6.59657299e-07
6.59657536e-07
6.5965642e-07
6.5965811e-07
6.59656772e-07
6.59657814e-07
6.59656365e-07
6.59657179e-07
6.59656341e-07
6.59657141e-07
6.5965599e-07
6.59656935e-07
6.59656063e-07
6.59657937e-07
6.59655224e-07
6.59657874e-07
6.59656087e-07
6.59656927e-07
6.59656534e-07
6.59657697e-07
6.59656215e-07
6.59658341e-07
6.59655537e-07
6.5965817e-07
6.5965682e-07
6.59657798e-07
6.59656689e-07
6.59656787e-07
6.59657049e-07
6.59656683e-07
6.59657751e-07
6.5965665e-07
6.59656901e-07
6.59656102e-07
6.59657735e-07
6.59655891e-07
6.59658529e-07
6.59655774e-07
6.59657951e-07
6.5965673e-07
6.59658823e-07
6.59656291e-07
6.59657996e-07
6.59656219e-07
6.59657452e-07
6.59657049e-07
6.59657757e-07
6.59656339e-07
6.59657974e-07
6.59656845e-07
6.59656409e-07
6.59657777e-07
6.59656264e-07
6.59657213e-07
6.59657598e-07
6.59656952e-07
6.59657392e-07
6.59656515e-07
6.59656928e-07
6.59656625e-07
6.59656436e-07
6.59657773e-07
6.59655514e-07
6.59657861e-07
6.5965646e-07
6.59658355e-07
6.59656272e-07
6.59658132e-07
6.59656245e-07
6.59657313e-07
6.59657114e-07
6.59657515e-07
6.59656396e-07
6.5965834e-07
6.59656311e-07
6.59658423e-07
6.59656637e-07
6.59658e-07
6.59657489e-07
6.59658398e-07
6.59657396e-07
6.59658323e-07
6.59657037e-07
6.59657311e-07
6.59656878e-07
6.59657291e-07
6.59656513e-07
6.59656744e-07
6.59656141e-07
6.5965783e-07
6.59655591e-07
6.59656956e-07
6.59656521e-07
6.59657262e-07
6.59656855e-07
6.59656527e-07
6.5965876e-07
6.59655016e-07
6.59658084e-07
6.59655733e-07
6.59658894e-07
6.59656411e-07
6.59657987e-07
6.59656249e-07
6.59658212e-07
6.59655839e-07
6.59658711e-07
6.59655971e-07
6.59658769e-07
6.59656428e-07
6.59659339e-07
6.59656726e-07
6.59657626e-07
6.59657192e-07
6.59656888e-07
6.59656397e-07
6.59657159e-07
6.59656433e-07
6.59656343e-07
6.59658084e-07
6.59656843e-07
6.59662202e-07
6.59663781e-07
6.59698008e-07
6.59701426e-07
6.59832345e-07
6.59829998e-07
6.59698167e-07
6.59698118e-07
6.59663004e-07
6.5966215e-07
6.59658004e-07
6.59657611e-07
6.59657557e-07
6.59657643e-07
6.59656676e-07
6.59657662e-07
6.59656757e-07
6.59658401e-07
6.59657121e-07
6.59658005e-07
6.59656625e-07
6.59657358e-07
6.59656892e-07
6.59658175e-07
6.59656623e-07
6.59658202e-07
6.59656609e-07
6.59659203e-07
6.59656211e-07
6.59658923e-07
6.59656279e-07
6.5965762e-07
6.59656998e-07
6.59658407e-07
6.59656847e-07
6.59657789e-07
6.59656836e-07
6.59657939e-07
6.59656748e-07
6.59658431e-07
6.59657603e-07
6.5965724e-07
6.59657594e-07
6.59657561e-07
6.59658121e-07
6.59657186e-07
6.59657716e-07
6.59657766e-07
6.59658294e-07
6.59658281e-07
6.59656661e-07
6.59658479e-07
6.59656385e-07
6.59658494e-07
6.59656969e-07
6.59657766e-07
6.59657645e-07
6.59658144e-07
6.5965755e-07
6.59657468e-07
6.59658369e-07
6.59657608e-07
6.59658385e-07
6.59657711e-07
6.59658083e-07
6.59658323e-07
6.59658842e-07
6.5965713e-07
6.59658982e-07
6.59656551e-07
6.59658803e-07
6.5965671e-07
6.59658029e-07
6.5965697e-07
6.59657089e-07
6.59658054e-07
6.59657744e-07
6.59657017e-07
6.59657358e-07
6.59657822e-07
6.59657439e-07
6.59656928e-07
6.59658225e-07
6.5965741e-07
6.59658556e-07
6.59657532e-07
6.59658938e-07
6.59657374e-07
6.59657222e-07
6.59658589e-07
6.59656654e-07
6.59658205e-07
6.59656725e-07
6.5965796e-07
6.59656786e-07
6.59658929e-07
6.59656884e-07
6.59657918e-07
6.59657611e-07
6.59657515e-07
6.59658386e-07
6.59657098e-07
6.59657483e-07
6.59657405e-07
6.59657306e-07
6.59657603e-07
6.59657805e-07
6.59657525e-07
6.59657676e-07
6.59657474e-07
6.59656992e-07
6.59657665e-07
6.59657941e-07
6.59657676e-07
6.59658387e-07
6.59657911e-07
6.59657743e-07
6.59658539e-07
6.59656804e-07
6.59657296e-07
6.59657492e-07
6.59657049e-07
6.59658644e-07
6.59658273e-07
6.5965797e-07
6.59658406e-07
6.59658166e-07
6.59658213e-07
6.59658039e-07
6.59657827e-07
6.59658463e-07
6.59657564e-07
6.59657457e-07
6.59657094e-07
6.59658278e-07
6.59655789e-07
6.5965802e-07
6.59656747e-07
6.59658186e-07
6.59657715e-07
6.59657762e-07
6.59658322e-07
6.59656841e-07
6.59659144e-07
6.59656466e-07
6.5965886e-07
6.59655827e-07
6.59659378e-07
6.59656906e-07
6.59659117e-07
6.59656873e-07
6.59658352e-07
6.59657708e-07
6.59658535e-07
6.59657281e-07
6.59658791e-07
6.59657238e-07
6.59657359e-07
6.59657817e-07
6.5965817e-07
6.59657653e-07
6.5965765e-07
6.59658836e-07
6.59657677e-07
6.59657824e-07
6.59658095e-07
6.59658743e-07
6.59657875e-07
6.59658435e-07
6.59658141e-07
6.59657744e-07
6.59658176e-07
6.59657515e-07
6.5965847e-07
6.59657492e-07
6.59657922e-07
6.59658571e-07
6.59657644e-07
6.59657517e-07
6.5965691e-07
6.59657918e-07
6.59658369e-07
6.59657342e-07
6.59658593e-07
6.59657154e-07
6.59658222e-07
6.59657749e-07
6.59658008e-07
6.59657947e-07
6.59658402e-07
6.59657292e-07
6.59658611e-07
6.59658104e-07
6.59659195e-07
6.59657525e-07
6.59658507e-07
6.59657981e-07
6.59658132e-07
6.59658528e-07
6.59659684e-07
6.59657491e-07
6.59658835e-07
6.59658041e-07
6.59659066e-07
6.59658071e-07
6.5965853e-07
6.59658299e-07
6.59659217e-07
6.59657347e-07
6.59659118e-07
6.59657498e-07
6.59657724e-07
6.59658925e-07
6.59657133e-07
6.59658387e-07
6.59657448e-07
6.59657946e-07
6.59657853e-07
6.5965782e-07
6.59658632e-07
6.59658602e-07
6.5965746e-07
6.59658787e-07
6.59658347e-07
6.59658543e-07
6.59658215e-07
6.59658112e-07
6.59657671e-07
6.59659005e-07
6.59656166e-07
6.59658947e-07
6.59657121e-07
6.59658892e-07
6.59657965e-07
6.59658287e-07
6.5965892e-07
6.59658142e-07
6.59659308e-07
6.59657752e-07
6.59657863e-07
6.59658339e-07
6.59658231e-07
6.59658903e-07
6.5965865e-07
6.59659188e-07
6.59658491e-07
6.59658831e-07
6.59657807e-07
6.59660037e-07
6.5965795e-07
6.59659779e-07
6.59658395e-07
6.59658699e-07
6.59658139e-07
6.59658773e-07
6.59658379e-07
6.59658512e-07
6.5965906e-07
6.59658687e-07
6.59659619e-07
6.59658329e-07
6.59658935e-07
6.59657962e-07
6.59659002e-07
6.59658963e-07
6.59658351e-07
6.59659323e-07
6.59657763e-07
6.5965876e-07
6.5965844e-07
6.59659108e-07
6.5965847e-07
6.59658788e-07
6.59658725e-07
6.5965859e-07
6.59658216e-07
6.59658969e-07
6.59658358e-07
6.59657584e-07
6.59658222e-07
6.59658522e-07
6.59658553e-07
6.59657993e-07
6.59658135e-07
6.59659235e-07
6.5965814e-07
6.59658844e-07
6.59657559e-07
6.59659593e-07
6.59657642e-07
6.59659982e-07
6.59658488e-07
6.59659267e-07
6.59658865e-07
6.59659093e-07
6.59657899e-07
6.5965922e-07
6.59658073e-07
6.59657938e-07
6.59658731e-07
6.59658623e-07
6.59658348e-07
6.59659602e-07
6.59658228e-07
6.596586e-07
6.59658164e-07
6.59658079e-07
6.59658817e-07
6.596588e-07
6.59657789e-07
6.59658987e-07
6.59658581e-07
6.59657556e-07
6.59659102e-07
6.5965753e-07
6.59659794e-07
6.59657756e-07
6.59660178e-07
6.59657816e-07
6.59660406e-07
6.59657358e-07
6.59659776e-07
6.59658308e-07
6.59658559e-07
6.59658703e-07
6.5965842e-07
6.59658771e-07
6.59658905e-07
6.59659294e-07
6.59658689e-07
6.59657408e-07
6.59659485e-07
6.59658316e-07
6.59659028e-07
6.59659035e-07
6.59658817e-07
6.5965834e-07
6.59658791e-07
6.59658681e-07
6.59658968e-07
6.59658596e-07
6.59658929e-07
6.59659027e-07
6.59658671e-07
6.5965869e-07
6.59658914e-07
6.59658911e-07
6.59658978e-07
6.59658758e-07
6.59659059e-07
6.59658823e-07
6.5965895e-07
6.59658974e-07
6.59659078e-07
6.59658999e-07
6.59659076e-07
6.59659179e-07
6.5965921e-07
6.59659154e-07
6.59659273e-07
6.59659339e-07
6.59659317e-07
6.59659406e-07
6.59659472e-07
6.59659592e-07
6.59659627e-07
6.59659701e-07
6.59659809e-07
6.5965987e-07
6.59659985e-07
6.59660131e-07
6.59660272e-07
6.59660359e-07
6.59660568e-07
6.59660745e-07
6.59660957e-07
6.59661213e-07
6.59661496e-07
6.59661845e-07
6.59662227e-07
6.59662615e-07
6.59662947e-07
6.59663224e-07
6.59663442e-07
6.59663603e-07
6.5966365e-07
6.59663704e-07
6.5966371e-07
6.59663701e-07
6.59663722e-07
6.59663725e-07
6.59663708e-07
6.59663733e-07
6.59663701e-07
6.59663704e-07
6.59663707e-07
6.59663709e-07
6.59663703e-07
6.59663701e-07
6.59663709e-07
6.59663709e-07
6.5966369e-07
6.5966373e-07
)
;

boundaryField
{
    closed
    {
        type            calculated;
        value           uniform 0;
    }
    open
    {
        type            calculated;
        value           uniform 0;
    }
    sides
    {
        type            empty;
    }
}


// ************************************************************************* //
