/*--------------------------------*- C++ -*----------------------------------*\
| =========                 |                                                 |
| \\      /  F ield         | OpenFOAM: The Open Source CFD Toolbox           |
|  \\    /   O peration     | Version:  2206                                  |
|   \\  /    A nd           | Website:  www.openfoam.com                      |
|    \\/     M anipulation  |                                                 |
\*---------------------------------------------------------------------------*/
FoamFile
{
    version     2.0;
    format      ascii;
    arch        "LSB;label=32;scalar=64";
    class       volScalarField;
    location    "1.88e-05";
    object      rho;
}
// * * * * * * * * * * * * * * * * * * * * * * * * * * * * * * * * * * * * * //

dimensions      [1 -3 0 0 0 0 0];

internalField   nonuniform List<scalar> 
3183
(
1.03926466
1.03926466
1.03926466
1.03926466
1.03926466
1.03926466
1.03926466
1.03926466
1.03926466
1.03926466
1.03926466
1.03926466
1.03926466
1.03926466
1.03926466
1.03926466
1.03926466
1.03926466
1.03926466
1.03926466
1.03926466
1.03926466
1.03926466
1.03926466
1.03926466
1.03926466
1.03926466
1.03926466
1.03926466
1.03926466
1.03926466
1.03926466
1.03926466
1.03926466
1.03926466
1.03926466
1.03926466
1.03926466
1.03926466
1.03926466
1.03926466
1.03926466
1.03926466
1.03926466
1.03926466
1.03926466
1.03926466
1.03926466
1.03926466
1.03926466
1.03926466
1.03926466
1.03926466
1.03926466
1.03926466
1.03926466
1.03926466
1.03926466
1.03926466
1.03926466
1.03926466
1.03926466
1.03926466
1.03926466
1.03926466
1.03926466
1.03926466
1.03926466
1.03926466
1.03926466
1.03926466
1.03926466
1.03926466
1.03926466
1.03926466
1.03926466
1.03926466
1.03926466
1.03926466
1.03926466
1.03926466
1.03926466
1.03926466
1.03926466
1.03926466
1.03926466
1.03926466
1.03926466
1.03926466
1.03926466
1.03926466
1.03926466
1.03926466
1.03926466
1.03926466
1.03926466
1.03926466
1.03926466
1.03926466
1.03926466
1.03926466
1.03926466
1.03926466
1.03926466
1.03926466
1.03926466
1.03926466
1.03926466
1.03926466
1.03926466
1.03926466
1.03926466
1.03926466
1.03926466
1.03926466
1.03926466
1.03926466
1.03926466
1.03926466
1.03926466
1.03926466
1.03926466
1.03926466
1.03926466
1.03926466
1.03926466
1.03926466
1.03926466
1.03926466
1.03926466
1.03926466
1.03926466
1.03926466
1.03926466
1.03926466
1.03926466
1.03926466
1.03926466
1.03926466
1.03926466
1.03926466
1.03926466
1.03926466
1.03926466
1.03926466
1.03926466
1.03926466
1.03926466
1.03926466
1.03926466
1.03926466
1.03926466
1.03926466
1.03926466
1.03926466
1.03926466
1.03926466
1.03926466
1.03926466
1.03926466
1.03926466
1.03926466
1.03926466
1.03926466
1.03926466
1.03926466
1.03926466
1.03926466
1.03926466
1.03926466
1.03926466
1.03926466
1.03926466
1.03926466
1.03926466
1.03926466
1.03926466
1.03926466
1.03926466
1.03926466
1.03926466
1.03926466
1.03926466
1.03926466
1.03926466
1.03926466
1.03926466
1.03926466
1.03926466
1.03926466
1.03926466
1.03926466
1.03926466
1.03926466
1.03926466
1.03926466
1.03926466
1.03926466
1.03926466
1.03926466
1.03926466
1.03926466
1.03926466
1.03926466
1.03926466
1.03926466
1.03926466
1.03926466
1.03926466
1.03926466
1.03926466
1.03926466
1.03926466
1.03926466
1.03926466
1.03926466
1.03926466
1.03926466
1.03926466
1.03926466
1.03926466
1.03926466
1.03926466
1.03926466
1.03926466
1.03926466
1.03926466
1.03926466
1.03926466
1.03926466
1.03926466
1.03926466
1.03926466
1.03926466
1.03926466
1.03926466
1.03926466
1.03926466
1.03926466
1.03926466
1.03926466
1.03926466
1.03926466
1.03926466
1.03926466
1.03926466
1.03926466
1.03926466
1.03926466
1.03926466
1.03926466
1.03926466
1.03926466
1.03926466
1.03926466
1.03926466
1.03926466
1.03926466
1.03926466
1.03926466
1.03926466
1.03926466
1.03926466
1.03926466
1.03926466
1.03926466
1.03926466
1.03926466
1.03926466
1.03926466
1.03926466
1.03926466
1.03926466
1.03926466
1.03926466
1.03926466
1.03926466
1.03926466
1.03926466
1.03926466
1.03926466
1.03926466
1.03926466
1.03926466
1.03926466
1.03926466
1.03926466
1.03926466
1.03926466
1.03926466
1.03926466
1.03926466
1.03926466
1.03926466
1.03926466
1.03926466
1.03926466
1.03926466
1.03926466
1.03926466
1.03926466
1.03926466
1.03926466
1.03926466
1.03926466
1.03926466
1.03926466
1.03926466
1.03926466
1.03926466
1.03926466
1.03926466
1.03926466
1.03926466
1.03926466
1.03926466
1.03926466
1.03926466
1.03926466
1.03926466
1.03926466
1.03926466
1.03926466
1.03926466
1.03926466
1.03926466
1.03926466
1.03926466
1.03926466
1.03926466
1.03926466
1.03926466
1.03926466
1.03926466
1.03926466
1.03926466
1.03926466
1.03926466
1.03926466
1.03926466
1.03926466
1.03926466
1.03926466
1.03926466
1.03926466
1.03926466
1.03926466
1.03926466
1.03926466
1.03926466
1.03926466
1.03926466
1.03926466
1.03926466
1.03926466
1.03926466
1.03926466
1.03926466
1.03926466
1.03926466
1.03926466
1.03926466
1.03926466
1.03926466
1.03926466
1.03926466
1.03926466
1.03926466
1.03926466
1.03926466
1.03926466
1.03926466
1.03926466
1.03926466
1.03926466
1.03926466
1.03926466
1.03926466
1.03926466
1.03926466
1.03926466
1.03926466
1.03926466
1.03926466
1.03926466
1.03926466
1.03926466
1.03926466
1.03926466
1.03926466
1.03926466
1.03926466
1.03926466
1.03926466
1.03926466
1.03926466
1.03926466
1.03926466
1.03926466
1.03926466
1.03926466
1.03926466
1.03926466
1.03926466
1.03926466
1.03926466
1.03926466
1.03926466
1.03926466
1.03926466
1.03926466
1.03926466
1.03926466
1.03926466
1.03926466
1.03926466
1.03926466
1.03926466
1.03926466
1.03926466
1.03926466
1.03926466
1.03926466
1.03926466
1.03926466
1.03926466
1.03926466
1.03926466
1.03926466
1.03926466
1.03926466
1.03926466
1.03926466
1.03926466
1.03926466
1.03926466
1.03926466
1.03926466
1.03926466
1.03926466
1.03926466
1.03926466
1.03926466
1.03926466
1.03926466
1.03926466
1.03926466
1.03926466
1.03926466
1.03926466
1.03926466
1.03926466
1.03926466
1.03926466
1.03926466
1.03926466
1.03926466
1.03926466
1.03926466
1.03926466
1.03926466
1.03926466
1.03926466
1.03926466
1.03926466
1.03926466
1.03926466
1.03926466
1.03926466
1.03926466
1.03926466
1.03926466
1.03926466
1.03926466
1.03926466
1.03926466
1.03926466
1.03926466
1.03926466
1.03926466
1.03926466
1.03926466
1.03926466
1.03926466
1.03926466
1.03926466
1.03926466
1.03926466
1.03926466
1.03926466
1.03926466
1.03926466
1.03926466
1.03926466
1.03926466
1.03926466
1.03926466
1.03926466
1.03926466
1.03926466
1.03926466
1.03926466
1.03926466
1.03926466
1.03926466
1.03926466
1.03926466
1.03926466
1.03926466
1.03926466
1.03926466
1.03926466
1.03926466
1.03926466
1.03926466
1.03926466
1.03926466
1.03926466
1.03926466
1.03926466
1.03926466
1.03926466
1.03926466
1.03926466
1.03926466
1.03926466
1.03926466
1.03926466
1.03926466
1.03926466
1.03926466
1.03926466
1.03926466
1.03926466
1.03926466
1.03926466
1.03926466
1.03926466
1.03926466
1.03926466
1.03926466
1.03926466
1.03926466
1.03926466
1.03926466
1.03926466
1.03926466
1.03926466
1.03926466
1.03926466
1.03926466
1.03926466
1.03926466
1.03926466
1.03926466
1.03926466
1.03926466
1.03926466
1.03926466
1.03926466
1.03926466
1.03926466
1.03926466
1.03926466
1.03926466
1.03926466
1.03926466
1.03926466
1.03926466
1.03926466
1.03926466
1.03926466
1.03926466
1.03926466
1.03926466
1.03926466
1.03926466
1.03926466
1.03926466
1.03926466
1.03926466
1.03926466
1.03926466
1.03926466
1.03926466
1.03926466
1.03926466
1.03926466
1.03926466
1.03926466
1.03926466
1.03926466
1.03926466
1.03926466
1.03926466
1.03926466
1.03926466
1.03926466
1.03926466
1.03926466
1.03926466
1.03926466
1.03926466
1.03926466
1.03926466
1.03926466
1.03926466
1.03926466
1.03926466
1.03926466
1.03926466
1.03926466
1.03926466
1.03926466
1.03926466
1.03926466
1.03926466
1.03926466
1.03926466
1.03926466
1.03926466
1.03926466
1.03926466
1.03926466
1.03926466
1.03926466
1.03926466
1.03926466
1.03926466
1.03926466
1.03926466
1.03926466
1.03926466
1.03926466
1.03926466
1.03926466
1.03926466
1.03926466
1.03926466
1.03926466
1.03926466
1.03926466
1.03926466
1.03926466
1.03926466
1.03926466
1.03926466
1.03926466
1.03926466
1.03926466
1.03926466
1.03926466
1.03926466
1.03926466
1.03926466
1.03926466
1.03926466
1.03926466
1.03926466
1.03926466
1.03926466
1.03926466
1.03926466
1.03926466
1.03926466
1.03926466
1.03926466
1.03926466
1.03926466
1.03926466
1.03926466
1.03926466
1.03926466
1.03926466
1.03926466
1.03926466
1.03926466
1.03926466
1.03926466
1.03926466
1.03926466
1.03926466
1.03926466
1.03926466
1.03926466
1.03926466
1.03926466
1.03926466
1.03926466
1.03926466
1.03926466
1.03926466
1.03926466
1.03926466
1.03926466
1.03926466
1.03926466
1.03926466
1.03926466
1.03926466
1.03926466
1.03926466
1.03926466
1.03926466
1.03926466
1.03926466
1.03926466
1.03926466
1.03926466
1.03926466
1.03926466
1.03926466
1.03926466
1.03926466
1.03926466
1.03926466
1.03926466
1.03926466
1.03926466
1.03926466
1.03926466
1.03926466
1.03926466
1.03926466
1.03926466
1.03926466
1.03926466
1.03926466
1.03926466
1.03926466
1.03926466
1.03926466
1.03926466
1.03926466
1.03926466
1.03926466
1.03926466
1.03926466
1.03926466
1.03926466
1.03926466
1.03926466
1.03926466
1.03926466
1.03926466
1.03926466
1.03926466
1.03926466
1.03926466
1.03926466
1.03926466
1.03926466
1.03926466
1.03926466
1.03926466
1.03926466
1.03926466
1.03926466
1.03926466
1.03926466
1.03926466
1.03926466
1.03926466
1.03926466
1.03926466
1.03926466
1.03926466
1.03926466
1.03926466
1.03926466
1.03926466
1.03926466
1.03926466
1.03926466
1.03926466
1.03926466
1.03926466
1.03926466
1.03926466
1.03926466
1.03926466
1.03926466
1.03926466
1.03926466
1.03926466
1.03926466
1.03926466
1.03926466
1.03926466
1.03926466
1.03926466
1.03926466
1.03926466
1.03926466
1.03926466
1.03926466
1.03926466
1.03926466
1.03926466
1.03926466
1.03926466
1.03926466
1.03926466
1.03926466
1.03926466
1.03926466
1.03926466
1.03926466
1.03926466
1.03926466
1.03926466
1.03926466
1.03926466
1.03926466
1.03926466
1.03926466
1.03926466
1.03926466
1.03926466
1.03926466
1.03926466
1.03926466
1.03926466
1.03926466
1.03926466
1.03926466
1.03926466
1.03926466
1.03926466
1.03926466
1.03926466
1.03926466
1.03926466
1.03926466
1.03926466
1.03926466
1.03926466
1.03926466
1.03926466
1.03926466
1.03926466
1.03926466
1.03926466
1.03926466
1.03926466
1.03926466
1.03926466
1.03926466
1.03926466
1.03926466
1.03926466
1.03926466
1.03926466
1.03926466
1.03926466
1.03926466
1.03926466
1.03926466
1.03926466
1.03926466
1.03926466
1.03926466
1.03926466
1.03926466
1.03926466
1.03926466
1.03926466
1.03926466
1.03926466
1.03926466
1.03926466
1.03926466
1.03926466
1.03926466
1.03926466
1.03926466
1.03926466
1.03926466
1.03926466
1.03926466
1.03926466
1.03926466
1.03926466
1.03926466
1.03926466
1.03926466
1.03926466
1.03926466
1.03926466
1.03926466
1.03926466
1.03926466
1.03926466
1.03926466
1.03926466
1.03926466
1.03926466
1.03926466
1.03926466
1.03926466
1.03926466
1.03926466
1.03926466
1.03926466
1.03926466
1.03926466
1.03926466
1.03926466
1.03926466
1.03926466
1.03926466
1.03926466
1.03926466
1.03926466
1.03926466
1.03926466
1.03926466
1.03926466
1.03926466
1.03926466
1.03926466
1.03926466
1.03926466
1.03926466
1.03926466
1.03926466
1.03926466
1.03926466
1.03926466
1.03926466
1.03926466
1.03926466
1.03926466
1.03926466
1.03926466
1.03926466
1.03926466
1.03926466
1.03926466
1.03926466
1.03926466
1.03926466
1.03926466
1.03926466
1.03926466
1.03926466
1.03926466
1.03926466
1.03926466
1.03926466
1.03926466
1.03926466
1.03926466
1.03926466
1.03926466
1.03926466
1.03926466
1.03926466
1.03926466
1.03926466
1.03926466
1.03926466
1.03926466
1.03926466
1.03926466
1.03926466
1.03926466
1.03926466
1.03926466
1.03926466
1.03926466
1.03926466
1.03926466
1.03926466
1.03926466
1.03926466
1.03926466
1.03926466
1.03926466
1.03926466
1.03926466
1.03926466
1.03926466
1.03926466
1.03926466
1.03926466
1.03926466
1.03926466
1.03926466
1.03926466
1.03926466
1.03926466
1.03926466
1.03926466
1.03926466
1.03926466
1.03926466
1.03926466
1.03926466
1.03926466
1.03926466
1.03926466
1.03926466
1.03926466
1.03926466
1.03926466
1.03926466
1.03926466
1.03926466
1.03926466
1.03926466
1.03926466
1.03926466
1.03926466
1.03926466
1.03926466
1.03926466
1.03926466
1.03926466
1.03926466
1.03926466
1.03926466
1.03926466
1.03926466
1.03926466
1.03926466
1.03926466
1.03926466
1.03926466
1.03926466
1.03926466
1.03926466
1.03926466
1.03926466
1.03926466
1.03926466
1.03926466
1.03926466
1.03926466
1.03926466
1.03926466
1.03926466
1.03926466
1.03926466
1.03926466
1.03926466
1.03926466
1.03926466
1.03926466
1.03926466
1.03926466
1.03926466
1.03926466
1.03926466
1.03926466
1.03926466
1.03926466
1.03926466
1.03926466
1.03926466
1.03926466
1.03926466
1.03926466
1.03926466
1.03926466
1.03926466
1.03926466
1.03926466
1.03926466
1.03926466
1.03926466
1.03926466
1.03926466
1.03926466
1.03926466
1.03926466
1.03926466
1.03926466
1.03926466
1.03926466
1.03926466
1.03926466
1.03926466
1.03926466
1.03926466
1.03926466
1.03926466
1.03926466
1.03926466
1.03926466
1.03926466
1.03926466
1.03926466
1.03926466
1.03926466
1.03926466
1.03926466
1.03926466
1.03926466
1.03926466
1.03926466
1.03926466
1.03926466
1.03926466
1.03926466
1.03926466
1.03926466
1.03926466
1.03926466
1.03926466
1.03926466
1.03926466
1.03926466
1.03926466
1.03926466
1.03926466
1.03926466
1.03926466
1.03926466
1.03926466
1.03926466
1.03926466
1.03926466
1.03926466
1.03926466
1.03926466
1.03926466
1.03926466
1.03926466
1.03926466
1.03926466
1.03926466
1.03926466
1.03926466
1.03926466
1.03926466
1.03926466
1.03926466
1.03926466
1.03926466
1.03926466
1.03926466
1.03926466
1.03926466
1.03926466
1.03926466
1.03926466
1.03926466
1.03926466
1.03926466
1.03926466
1.03926466
1.03926466
1.03926466
1.03926466
1.03926466
1.03926466
1.03926466
1.03926466
1.03926466
1.03926466
1.03926466
1.03926466
1.03926466
1.03926466
1.03926466
1.03926466
1.03926466
1.03926466
1.03926466
1.03926466
1.03926466
1.03926466
1.03926466
1.03926466
1.03926466
1.03926466
1.03926466
1.03926466
1.03926466
1.03926466
1.03926466
1.03926466
1.03926466
1.03926466
1.03926466
1.03926466
1.03926466
1.03926466
1.03926466
1.03926466
1.03926466
1.03926466
1.03926466
1.03926466
1.03926466
1.03926466
1.03926466
1.03926466
1.03926466
1.03926466
1.03926466
1.03926466
1.03926466
1.03926466
1.03926466
1.03926466
1.03926466
1.03926466
1.03926466
1.03926466
1.03926466
1.03926466
1.03926466
1.03926466
1.03926466
1.03926466
1.03926466
1.03926466
1.03926466
1.03926466
1.03926466
1.03926466
1.03926466
1.03926466
1.03926466
1.03926466
1.03926466
1.03926466
1.03926466
1.03926466
1.03926466
1.03926466
1.03926466
1.03926466
1.03926466
1.03926466
1.03926466
1.03926466
1.03926466
1.03926466
1.03926466
1.03926466
1.03926466
1.03926466
1.03926466
1.03926466
1.03926466
1.03926466
1.03926466
1.03926466
1.03926466
1.03926466
1.03926466
1.03926466
1.03926466
1.03926466
1.03926466
1.03926466
1.03926466
1.03926466
1.03926466
1.03926466
1.03926466
1.03926466
1.03926466
1.03926466
1.03926466
1.03926466
1.03926466
1.03926466
1.03926466
1.03926466
1.03926466
1.03926466
1.03926466
1.03926466
1.03926466
1.03926466
1.03926466
1.03926466
1.03926466
1.03926466
1.03926466
1.03926466
1.03926466
1.03926466
1.03926466
1.03926466
1.03926466
1.03926466
1.03926466
1.03926466
1.03926466
1.03926466
1.03926466
1.03926466
1.03926466
1.03926466
1.03926466
1.03926466
1.03926466
1.03926466
1.03926466
1.03926466
1.03926466
1.03926466
1.03926466
1.03926466
1.03926466
1.03926466
1.03926466
1.03926466
1.03926466
1.03926466
1.03926466
1.03926466
1.03926466
1.03926466
1.03926466
1.03926466
1.03926466
1.03926466
1.03926466
1.03926466
1.03926466
1.03926466
1.03926466
1.03926466
1.03926466
1.03926466
1.03926466
1.03926466
1.03926466
1.03926466
1.03926466
1.03926466
1.03926466
1.03926466
1.03926466
1.03926466
1.03926466
1.03926466
1.03926466
1.03926466
1.03926466
1.03926466
1.03926466
1.03926466
1.03926466
1.03926466
1.03926466
1.03926466
1.03926466
1.03926466
1.03926466
1.03926466
1.03926466
1.03926466
1.03926466
1.03926466
1.03926466
1.03926466
1.03926466
1.03926466
1.03926466
1.03926466
1.03926466
1.03926466
1.03926466
1.03926466
1.03926466
1.03926466
1.03926466
1.03926466
1.03926466
1.03926466
1.03926466
1.03926466
1.03926466
1.03926466
1.03926466
1.03926466
1.03926466
1.03926466
1.03926466
1.03926466
1.03926466
1.03926466
1.03926466
1.03926466
1.03926466
1.03926466
1.03926466
1.03926466
1.03926466
1.03926466
1.03926466
1.03926466
1.03926466
1.03926466
1.03926466
1.03926466
1.03926466
1.03926466
1.03926466
1.03926466
1.03926466
1.03926466
1.03926466
1.03926466
1.03926466
1.03926466
1.03926466
1.03926466
1.03926466
1.03926466
1.03926466
1.03926466
1.03926466
1.03926466
1.03926466
1.03926466
1.03926466
1.03926466
1.03926466
1.03926466
1.03926466
1.03926466
1.03926466
1.03926466
1.03926466
1.03926466
1.03926466
1.03926466
1.03926466
1.03926466
1.03926466
1.03926466
1.03926466
1.03926466
1.03926466
1.03926466
1.03926466
1.03926466
1.03926466
1.03926466
1.03926466
1.03926466
1.03926466
1.03926466
1.03926466
1.03926466
1.03926466
1.03926466
1.03926466
1.03926466
1.03926466
1.03926466
1.03926466
1.03926466
1.03926466
1.03926466
1.03926466
1.03926466
1.03926466
1.03926466
1.03926466
1.03926466
1.03926466
1.03926466
1.03926466
1.03926466
1.03926466
1.03926466
1.03926466
1.03926466
1.03926466
1.03926466
1.03926466
1.03926466
1.03926466
1.03926466
1.03926466
1.03926466
1.03926466
1.03926466
1.03926466
1.03926466
1.03926466
1.03926466
1.03926466
1.03926466
1.03926466
1.03926466
1.03926466
1.03926466
1.03926466
1.03926466
1.03926466
1.03926466
1.03926466
1.03926466
1.03926466
1.03926466
1.03926466
1.03926466
1.03926466
1.03926466
1.03926466
1.03926466
1.03926466
1.03926466
1.03926466
1.03926466
1.03926466
1.03926466
1.03926466
1.03926466
1.03926466
1.03926466
1.03926466
1.03926466
1.03926466
1.03926466
1.03926466
1.03926466
1.03926466
1.03926466
1.03926466
1.03926466
1.03926466
1.03926466
1.03926466
1.03926466
1.03926466
1.03926466
1.03926466
1.03926466
1.03926466
1.03926466
1.03926466
1.03926466
1.03926466
1.03926466
1.03926466
1.03926466
1.03926466
1.03926466
1.03926466
1.03926466
1.03926466
1.03926466
1.03926466
1.03926466
1.03926466
1.03926466
1.03926466
1.03926466
1.03926466
1.03926466
1.03926466
1.03926466
1.03926466
1.03926466
1.03926466
1.03926466
1.03926466
1.03926466
1.03926466
1.03926466
1.03926466
1.03926466
1.03926466
1.03926466
1.03926466
1.03926466
1.03926466
1.03926466
1.03926466
1.03926466
1.03926466
1.03926466
1.03926466
1.03926466
1.03926466
1.03926466
1.03926466
1.03926466
1.03926466
1.03926466
1.03926466
1.03926466
1.03926466
1.03926466
1.03926466
1.03926466
1.03926466
1.03926466
1.03926466
1.03926466
1.03926466
1.03926466
1.03926466
1.03926466
1.03926466
1.03926466
1.03926466
1.03926466
1.03926466
1.03926466
1.03926466
1.03926466
1.03926466
1.03926466
1.03926466
1.03926466
1.03926466
1.03926466
1.03926466
1.03926466
1.03926466
1.03926466
1.03926466
1.03926466
1.03926466
1.03926466
1.03926466
1.03926466
1.03926466
1.03926466
1.03926466
1.03926466
1.03926466
1.03926466
1.03926466
1.03926466
1.03926466
1.03926466
1.03926466
1.03926466
1.03926466
1.03926466
1.03926466
1.03926466
1.03926466
1.03926466
1.03926466
1.03926466
1.03926466
1.03926466
1.03926466
1.03926466
1.03926466
1.03926466
1.03926466
1.03926466
1.03926466
1.03926466
1.03926466
1.03926466
1.03926466
1.03926466
1.03926466
1.03926466
1.03926466
1.03926466
1.03926466
1.03926466
1.03926466
1.03926466
1.03926466
1.03926466
1.03926466
1.03926466
1.03926466
1.03926466
1.03926466
1.03926466
1.03926466
1.03926466
1.03926466
1.03926466
1.03926466
1.03926466
1.03926466
1.03926466
1.03926466
1.03926466
1.03926466
1.03926466
1.03926466
1.03926466
1.03926466
1.03926466
1.03926466
1.03926466
1.03926466
1.03926466
1.03926466
1.03926466
1.03926466
1.03926466
1.03926466
1.03926466
1.03926466
1.03926466
1.03926466
1.03926466
1.03926466
1.03926466
1.03926466
1.03926466
1.03926466
1.03926466
1.03926466
1.03926466
1.03926466
1.03926465
1.03926465
1.03926465
1.03926465
1.03926465
1.03926465
1.03926465
1.03926465
1.03926465
1.03926465
1.03926465
1.03926465
1.03926465
1.03926465
1.03926465
1.03926465
1.03926464
1.03926464
1.03926464
1.03926464
1.03926464
1.03926464
1.03926464
1.03926464
1.03926463
1.03926463
1.03926463
1.03926463
1.03926463
1.03926463
1.03926462
1.03926462
1.03926462
1.03926462
1.03926462
1.03926461
1.03926461
1.03926461
1.0392646
1.0392646
1.0392646
1.0392646
1.03926459
1.03926459
1.03926458
1.03926458
1.03926458
1.03926457
1.03926457
1.03926456
1.03926456
1.03926455
1.03926454
1.03926454
1.03926453
1.03926453
1.03926452
1.03926451
1.0392645
1.0392645
1.03926449
1.03926448
1.03926447
1.03926446
1.03926445
1.03926444
1.03926443
1.03926442
1.03926441
1.03926439
1.03926438
1.03926437
1.03926435
1.03926434
1.03926432
1.0392643
1.03926429
1.03926427
1.03926425
1.03926423
1.03926421
1.03926419
1.03926417
1.03926414
1.03926412
1.03926409
1.03926407
1.03926404
1.03926401
1.03926398
1.03926395
1.03926391
1.03926388
1.03926385
1.03926381
1.03926377
1.03926373
1.03926369
1.03926364
1.0392636
1.03926355
1.0392635
1.03926345
1.0392634
1.03926334
1.03926328
1.03926322
1.03926316
1.03926309
1.03926303
1.03926296
1.03926288
1.03926281
1.03926273
1.03926264
1.03926256
1.03926247
1.03926238
1.03926228
1.03926218
1.03926208
1.03926197
1.03926186
1.03926175
1.03926163
1.0392615
1.03926138
1.03926124
1.0392611
1.03926096
1.03926081
1.03926066
1.0392605
1.03926034
1.03926017
1.03925999
1.03925981
1.03925962
1.03925942
1.03925922
1.03925901
1.0392588
1.03925857
1.03925834
1.03925811
1.03925786
1.0392576
1.03925734
1.03925707
1.03925679
1.0392565
1.0392562
1.03925589
1.03925558
1.03925525
1.03925491
1.03925456
1.0392542
1.03925383
1.03925345
1.03925305
1.03925265
1.03925223
1.0392518
1.03925136
1.0392509
1.03925043
1.03924995
1.03924946
1.03924895
1.03924842
1.03924788
1.03924733
1.03924676
1.03924617
1.03924557
1.03924495
1.03924432
1.03924367
1.039243
1.03924231
1.03924161
1.03924089
1.03924015
1.03923939
1.03923861
1.03923781
1.039237
1.03923616
1.0392353
1.03923443
1.03923353
1.03923261
1.03923167
1.03923071
1.03922972
1.03922872
1.03922769
1.03922664
1.03922556
1.03922447
1.03922335
1.0392222
1.03922103
1.03921984
1.03921862
1.03921738
1.03921611
1.03921482
1.03921351
1.03921217
1.0392108
1.03920941
1.03920799
1.03920654
1.03920507
1.03920358
1.03920206
1.03920051
1.03919893
1.03919733
1.03919571
1.03919405
1.03919237
1.03919067
1.03918894
1.03918718
1.0391854
1.03918359
1.03918175
1.03917989
1.03917801
1.03917609
1.03917416
1.0391722
1.03917021
1.0391682
1.03916617
1.03916411
1.03916203
1.03915992
1.0391578
1.03915565
1.03915348
1.03915128
1.03914907
1.03914684
1.03914458
1.03914231
1.03914002
1.03913771
1.03913538
1.03913303
1.03913067
1.03912829
1.0391259
1.03912349
1.03912107
1.03911864
1.03911619
1.03911374
1.03911127
1.03910879
1.03910631
1.03910381
1.03910131
1.0390988
1.03909629
1.03909377
1.03909126
1.03908873
1.03908621
1.03908369
1.03908116
1.03907864
1.03907612
1.03907361
1.0390711
1.0390686
1.0390661
1.03906361
1.03906113
1.03905866
1.03905621
1.03905376
1.03905133
1.03904892
1.03904652
1.03904414
1.03904177
1.03903943
1.03903711
1.03903481
1.03903253
1.03903027
1.03902804
1.03902584
1.03902366
1.03902151
1.03901939
1.03901731
1.03901525
1.03901322
1.03901123
1.03900928
1.03900735
1.03900547
1.03900362
1.03900181
1.03900004
1.03899831
1.03899662
1.03899497
1.03899336
1.0389918
1.03899027
1.0389888
1.03898737
1.03898598
1.03898464
1.03898334
1.0389821
1.0389809
1.03897975
1.03897864
1.03897759
1.03897658
1.03897563
1.03897472
1.03897386
1.03897306
1.0389723
1.03897159
1.03897094
1.03897033
1.03896978
1.03896927
1.03896881
1.03896841
1.03896805
1.03896775
1.03896749
1.03896728
1.03896712
1.03896701
1.03896694
1.03896693
1.03896696
1.03896704
1.03896716
1.03896733
1.03896754
1.0389678
1.0389681
1.03896844
1.03896882
1.03896925
1.03896971
1.03897022
1.03897076
1.03897135
1.03897197
1.03897262
1.03897331
1.03897404
1.03897479
1.03897558
1.03897641
1.03897726
1.03897814
1.03897905
1.03897999
1.03898095
1.03898194
1.03898295
1.03898398
1.03898504
1.03898612
1.03898722
1.03898833
1.03898947
1.03899062
1.03899179
1.03899297
1.03899416
1.03899537
1.03899659
1.03899782
1.03899906
1.03900031
1.03900156
1.03900282
1.03900409
1.03900536
1.03900664
1.03900792
1.0390092
1.03901048
1.03901176
1.03901305
1.03901433
1.03901561
1.03901688
1.03901816
1.03901943
1.03902069
1.03902195
1.0390232
1.03902445
1.03902569
1.03902692
1.03902814
1.03902936
1.03903056
1.03903176
1.03903294
1.03903412
1.03903528
1.03903643
1.03903758
1.0390387
1.03903982
1.03904093
1.03904202
1.0390431
1.03904416
1.03904522
1.03904626
1.03904728
1.03904829
1.03904929
1.03905028
1.03905125
1.03905221
1.03905315
1.03905408
1.039055
1.0390559
1.03905679
1.03905767
1.03905853
1.03905938
1.03906022
1.03906104
1.03906185
1.03906265
1.03906343
1.03906421
1.03906497
1.03906571
1.03906645
1.03906717
1.03906789
1.03906859
1.03906928
1.03906996
1.03907063
1.03907129
1.03907194
1.03907258
1.0390732
1.03907382
1.03907443
1.03907504
1.03907563
1.03907621
1.03907679
1.03907736
1.03907792
1.03907847
1.03907901
1.03907955
1.03908008
1.03908061
1.03908112
1.03908163
1.03908214
1.03908264
1.03908313
1.03908362
1.0390841
1.03908458
1.03908505
1.03908551
1.03908598
1.03908643
1.03908688
1.03908733
1.03908777
1.03908821
1.03908865
1.03908908
1.03908951
1.03908993
1.03909035
1.03909077
1.03909118
1.03909159
1.03909199
1.03909239
1.03909279
1.03909319
1.03909358
1.03909397
1.03909435
1.03909473
1.03909511
1.03909549
1.03909586
1.03909623
1.0390966
1.03909696
1.03909732
1.03909767
1.03909803
1.03909838
1.03909873
1.03909907
1.03909941
1.03909975
1.03910008
1.03910041
1.03910074
1.03910106
1.03910138
1.0391017
1.03910202
1.03910233
1.03910263
1.03910294
1.03910324
1.03910354
1.03910383
1.03910412
1.03910441
1.03910469
1.03910497
1.03910525
1.03910552
1.03910579
1.03910606
1.03910632
1.03910658
1.03910684
1.03910709
1.03910734
1.03910759
1.03910783
1.03910807
1.03910831
1.03910854
1.03910878
1.039109
1.03910923
1.03910945
1.03910967
1.03910989
1.0391101
1.03911032
1.03911053
1.03911073
1.03911094
1.03911114
1.03911134
1.03911154
1.03911174
1.03911193
1.03911212
1.03911232
1.03911251
1.03911269
1.03911288
1.03911307
1.03911325
1.03911343
1.03911362
1.0391138
1.03911398
1.03911416
1.03911434
1.03911452
1.0391147
1.03911488
1.03911505
1.03911523
1.03911541
1.03911559
1.03911576
1.03911594
1.03911612
1.0391163
1.03911648
1.03911666
1.03911684
1.03911702
1.0391172
1.03911738
1.03911756
1.03911774
1.03911792
1.03911811
1.03911829
1.03911848
1.03911866
1.03911885
1.03911904
1.03911923
1.03911941
1.0391196
1.03911979
1.03911998
1.03912018
1.03912037
1.03912056
1.03912075
1.03912095
1.03912114
1.03912133
1.03912153
1.03912172
1.03912192
1.03912211
1.03912231
1.0391225
1.0391227
1.03912289
1.03912309
1.03912328
1.03912347
1.03912367
1.03912386
1.03912405
1.03912424
1.03912444
1.03912463
1.03912481
1.039125
1.03912519
1.03912538
1.03912556
1.03912574
1.03912593
1.03912611
1.03912629
1.03912647
1.03912664
1.03912682
1.03912699
1.03912716
1.03912733
1.0391275
1.03912767
1.03912784
1.039128
1.03912816
1.03912832
1.03912848
1.03912864
1.03912879
1.03912895
1.0391291
1.03912925
1.03912939
1.03912954
1.03912968
1.03912983
1.03912997
1.03913011
1.03913024
1.03913038
1.03913051
1.03913065
1.03913078
1.03913091
1.03913103
1.03913116
1.03913129
1.03913141
1.03913153
1.03913165
1.03913177
1.03913189
1.03913201
1.03913212
1.03913224
1.03913235
1.03913247
1.03913258
1.03913269
1.0391328
1.03913291
1.03913302
1.03913313
1.03913323
1.03913334
1.03913345
1.03913355
1.03913365
1.03913376
1.03913386
1.03913396
1.03913407
1.03913417
1.03913427
1.03913437
1.03913447
1.03913457
1.03913467
1.03913477
1.03913487
1.03913496
1.03913506
1.03913516
1.03913526
1.03913536
1.03913545
1.03913555
1.03913565
1.03913575
1.03913585
1.03913594
1.03913604
1.03913614
1.03913624
1.03913634
1.03913644
1.03913654
1.03913664
1.03913674
1.03913684
1.03913694
1.03913704
1.03913715
1.03913725
1.03913736
1.03913747
1.03913758
1.03913769
1.0391378
1.03913792
1.03913803
1.03913815
1.03913827
1.0391384
1.03913852
1.03913865
1.03913879
1.03913892
1.03913906
1.0391392
1.03913935
1.0391395
1.03913966
1.03913982
1.03913999
1.03914016
1.03914034
1.03914052
1.03914071
1.03914091
1.03914112
1.03914133
1.03914155
1.03914178
1.03914201
1.03914226
1.03914252
1.03914278
1.03914306
1.03914335
1.03914365
1.03914396
1.03914428
1.03914462
1.03914497
1.03914533
1.03914571
1.0391461
1.0391465
1.03914692
1.03914736
1.03914781
1.03914828
1.03914876
1.03914926
1.03914978
1.03915031
1.03915086
1.03915142
1.03915201
1.0391526
1.03915322
1.03915385
1.0391545
1.03915516
1.03915584
1.03915653
1.03915723
1.03915795
1.03915868
1.03915942
1.03916017
1.03916093
1.03916169
1.03916247
1.03916325
1.03916403
1.03916482
1.0391656
1.03916639
1.03916718
1.03916796
1.03916874
1.03916951
1.03917027
1.03917103
1.03917177
1.0391725
1.03917322
1.03917392
1.03917461
1.03917529
1.03917594
1.03917658
1.0391772
1.0391778
1.03917838
1.03917895
1.03917949
1.03918002
1.03918053
1.03918103
1.03918151
1.03918198
1.03918244
1.03918289
1.03918333
1.03918377
1.03918421
1.03918464
1.03918508
1.03918552
1.03918597
1.03918643
1.0391869
1.03918738
1.03918789
1.03918841
1.03918895
1.03918952
1.0391901
1.03919071
1.03919134
1.03919199
1.03919266
1.03919334
1.03919404
1.03919474
1.03919544
1.03919613
1.03919681
1.03919746
1.03919807
1.03919864
1.03919915
1.03919957
1.03919991
1.03920015
1.03920027
1.03920026
1.0392001
1.0391998
1.03919934
1.03919873
1.03919798
1.0391971
1.0391961
1.03919546
1.03919435
1.03920545
1.0392044
1.03948082
1.03948002
1.03960378
1.03955678
0.856294927
0.854734087
0.449759212
0.421518106
0.327570024
0.318248269
0.287463519
0.284074613
0.2717461
0.270532751
0.265570728
0.265213194
0.263532705
0.263454321
0.262974788
0.262961277
0.262840543
0.262838931
0.262811899
0.262811868
0.262806483
0.262806558
0.262805623
0.262805681
0.262805558
0.262805594
0.262805592
0.262805606
0.262805606
0.262805599
0.262805582
0.262805557
0.262805523
0.262805481
0.262805433
0.262805377
0.262805316
0.26280525
0.262805178
0.262805103
0.262805024
0.262804942
0.262804858
0.262804771
0.262804683
0.262804594