/*--------------------------------*- C++ -*----------------------------------*\
| =========                 |                                                 |
| \\      /  F ield         | OpenFOAM: The Open Source CFD Toolbox           |
|  \\    /   O peration     | Version:  2206                                  |
|   \\  /    A nd           | Website:  www.openfoam.com                      |
|    \\/     M anipulation  |                                                 |
\*---------------------------------------------------------------------------*/
FoamFile
{
    version     2.0;
    format      ascii;
    arch        "LSB;label=32;scalar=64";
    class       volScalarField;
    location    "1.88e-05";
    object      sourcePV;
}
// * * * * * * * * * * * * * * * * * * * * * * * * * * * * * * * * * * * * * //

dimensions      [1 -3 -1 0 0 0 0];

internalField   nonuniform List<scalar> 
3183
(
0
0
0
0
0
0
0
0
0
0
0
0
0
0
0
0
0
0
0
0
0
0
0
0
0
0
0
0
0
0
0
0
0
0
0
0
0
0
0
0
0
0
0
0
0
0
0
0
0
0
0
0
0
0
0
0
0
0
0
0
0
0
0
0
0
0
0
0
0
0
0
0
0
0
0
0
0
0
0
0
0
0
0
0
0
0
0
0
0
0
0
0
0
0
0
0
0
0
0
0
0
0
0
0
0
0
0
0
0
0
0
0
0
0
0
0
0
0
0
0
0
0
0
0
0
0
0
0
0
0
0
0
0
0
0
0
0
0
0
0
0
0
0
0
0
0
0
0
0
0
0
0
0
0
0
0
0
0
0
0
0
0
0
0
0
0
0
0
0
0
0
0
0
0
0
0
0
0
0
0
0
0
0
0
0
0
0
0
0
0
0
0
0
0
0
0
0
0
0
0
0
0
0
0
0
0
0
0
0
0
0
0
0
0
0
0
0
0
0
0
0
0
0
0
0
0
0
0
0
0
0
0
0
0
0
0
0
0
0
0
0
0
0
0
0
0
0
0
0
0
0
0
0
0
0
0
0
0
0
0
0
0
0
0
0
0
0
0
0
0
0
0
0
0
0
0
0
0
0
0
0
0
0
0
0
0
0
0
0
0
0
0
0
0
0
0
0
0
0
0
0
0
0
0
0
0
0
0
0
0
0
0
0
0
0
0
0
0
0
0
0
0
0
0
0
0
0
0
0
0
0
0
0
0
0
0
0
0
0
0
0
0
0
0
0
0
0
0
0
0
0
0
0
0
0
0
0
0
0
0
0
0
0
0
0
0
0
0
0
0
0
0
0
0
0
0
0
0
0
0
0
0
0
0
0
0
0
0
0
0
0
0
0
0
0
0
0
0
0
0
0
0
0
0
0
0
0
0
0
0
0
0
0
0
0
0
0
0
0
0
0
0
0
0
0
0
0
0
0
0
0
0
0
0
0
0
0
0
0
0
0
0
0
0
0
0
0
0
0
0
0
0
0
0
0
0
0
0
0
0
0
0
0
0
0
0
0
0
0
0
0
0
0
0
0
0
0
0
0
0
0
0
0
0
0
0
0
0
0
0
0
0
0
0
0
0
0
0
0
0
0
0
0
0
0
0
0
0
0
0
0
0
0
0
0
0
0
0
0
0
0
0
0
0
0
0
0
0
0
0
0
0
0
0
0
0
0
0
0
0
0
0
0
0
0
0
0
0
0
0
0
0
0
0
0
0
0
0
0
0
0
0
0
0
0
0
0
0
0
0
0
0
0
0
0
0
0
0
0
0
0
0
0
0
0
0
0
0
0
0
0
0
0
0
0
0
0
0
0
0
0
0
0
0
0
0
0
0
0
0
0
0
0
0
0
0
0
0
0
0
0
0
0
0
0
0
0
0
0
0
0
0
0
0
0
0
0
0
0
0
0
0
0
0
0
0
0
0
0
0
0
0
0
0
0
0
0
0
0
0
0
0
0
0
0
0
0
0
0
0
0
0
0
0
0
0
0
0
0
0
0
0
0
0
0
0
0
0
0
0
0
0
0
0
0
0
0
0
0
0
0
0
0
0
0
0
0
0
0
0
0
0
0
0
0
0
0
0
0
0
0
0
0
0
0
0
0
0
0
0
0
0
0
0
0
0
0
0
0
0
0
0
0
0
0
0
0
0
0
0
0
0
0
0
0
0
0
0
0
0
0
0
0
0
0
0
0
0
0
0
0
0
0
0
0
0
0
0
0
0
0
0
0
0
0
0
0
0
0
0
0
0
0
0
0
0
0
0
0
0
0
0
0
0
0
0
0
0
0
0
0
0
0
0
0
0
0
0
0
0
0
0
0
0
0
0
0
0
0
0
0
0
0
0
0
0
0
0
0
0
0
0
0
0
0
0
0
0
0
0
0
0
0
0
0
0
0
0
0
0
0
0
0
0
0
0
0
0
0
0
0
0
0
0
0
0
0
0
0
0
0
0
0
0
0
0
0
0
0
0
0
0
0
0
0
0
0
0
0
0
0
0
0
0
0
0
0
0
0
0
0
0
0
0
0
0
0
0
0
0
0
0
0
0
0
0
0
0
0
0
0
0
0
0
0
0
0
0
0
0
0
0
0
0
0
0
0
0
0
0
0
0
0
0
0
0
0
0
0
0
0
0
0
0
0
0
0
0
0
0
0
0
0
0
0
0
0
0
0
0
0
0
0
0
0
0
0
0
0
0
0
0
0
0
0
0
0
0
0
0
0
0
0
0
0
0
0
0
0
0
0
0
0
0
0
0
0
0
0
0
0
0
0
0
0
0
0
0
0
0
0
0
0
0
0
0
0
0
0
0
0
0
0
0
0
0
0
0
0
0
0
0
0
0
0
0
0
0
0
0
0
0
0
0
0
0
0
0
0
0
0
0
0
0
0
0
0
0
0
0
0
0
0
0
0
0
0
0
0
0
0
0
0
0
0
0
0
0
0
0
0
0
0
0
0
0
0
0
0
0
0
0
0
0
0
0
0
0
0
0
0
0
0
0
0
0
0
0
0
0
0
0
0
0
0
0
0
0
0
0
0
0
0
0
0
0
0
0
0
0
0
0
0
0
0
0
0
0
0
0
0
0
0
0
0
0
0
0
0
0
0
0
0
0
0
0
0
0
0
0
0
0
0
0
0
0
0
0
0
0
0
0
0
0
0
0
0
0
0
0
0
0
0
0
0
0
0
0
0
0
0
0
0
0
0
0
0
0
0
0
0
0
0
0
0
0
0
0
0
0
0
0
0
0
0
0
0
0
0
0
0
0
0
0
0
0
0
0
0
0
0
0
0
0
0
0
0
0
0
0
0
0
0
0
0
0
0
0
0
0
0
0
0
0
0
0
0
0
0
0
0
0
0
0
0
0
0
0
0
0
0
0
0
0
0
0
0
0
0
0
0
0
0
0
0
0
0
0
0
0
0
0
0
0
0
0
0
0
0
0
0
0
0
0
0
0
0
0
0
0
0
0
0
0
0
0
0
0
0
0
0
0
0
0
0
0
0
0
0
0
0
0
0
0
0
0
0
0
0
0
0
0
0
0
0
0
0
0
0
0
0
0
0
0
0
0
0
0
0
0
0
0
0
0
0
0
0
0
0
0
0
0
0
0
0
0
0
0
0
0
0
0
0
0
0
0
0
0
0
0
0
0
0
0
0
0
0
0
0
0
0
0
0
0
0
0
0
0
0
0
0
0
0
0
0
0
0
0
0
0
0
0
0
0
0
0
0
0
0
0
0
0
0
0
0
0
0
0
0
0
0
0
0
0
0
0
0
0
0
0
0
0
0
0
0
0
0
0
0
0
0
0
0
0
0
0
0
0
0
0
0
0
0
0
0
0
0
0
0
0
0
0
0
0
0
0
0
0
0
0
0
0
0
0
0
0
0
0
0
0
0
0
0
0
0
0
0
0
0
0
0
0
0
0
0
0
0
0
0
0
0
0
0
0
0
0
0
0
0
0
0
0
0
0
0
0
0
0
0
0
0
0
0
0
0
0
0
0
0
0
0
0
0
0
0
0
0
0
0
0
0
0
0
0
0
0
0
0
0
0
0
0
0
0
0
0
0
0
0
0
0
0
0
0
0
0
0
0
0
0
0
0
0
0
0
0
0
0
0
0
0
0
0
0
0
0
0
0
0
0
0
0
0
0
0
0
0
0
0
0
0
0
0
0
0
0
0
0
0
0
0
0
0
0
0
0
0
0
0
0
0
0
0
0
0
0
0
0
0
0
0
0
0
0
0
0
0
0
0
0
0
0
0
0
0
0
0
0
0
0
0
0
0
0
0
0
0
0
0
0
0
0
0
0
0
0
0
0
0
0
0
0
0
0
0
0
0
0
0
0
0
0
0
0
0
0
0
0
0
0
0
0
0
0
0
0
0
0
0
0
0
0
0
0
0
0
0
0
0
0
0
0
0
0
0
0
0
0
0
0
0
0
0
0
0
0
0
0
0
0
0
0
0
0
0
0
0
0
0
0
0
0
0
0
0
0
0
0
0
0
0
0
0
0
0
0
0
0
0
0
0
0
0
0
0
0
0
0
0
0
0
0
0
0
0
0
0
0
0
0
0
0
0
0
0
0
0
0
0
0
0
0
0
0
0
0
0
0
0
0
0
0
0
0
0
0
0
0
0
0
0
0
0
0
0
0
0
0
0
0
0
0
0
0
0
0
0
0
0
0
0
0
0
0
0
0
0
0
0
0
0
0
0
0
0
0
0
0
0
0
0
0
0
0
0
0
0
0
0
0
0
0
0
0
0
0
0
0
0
0
0
0
0
0
0
0
0
0
0
0
0
0
0
0
0
0
0
0
0
0
0
0
0
0
0
0
0
0
0
0
0
0
0
0
0
0
0
0
0
0
0
0
0
0
0
0
0
0
0
0
0
0
0
0
0
0
0
0
0
0
0
0
0
0
0
0
0
0
0
0
0
0
0
0
0
0
0
0
0
0
0
0
0
0
0
0
0
0
0
0
0
0
0
0
0
0
0
0
0
0
0
0
0
0
0
0
0
0
0
0
0
0
0
0
0
0
0
0
0
0
0
0
0
0
0
0
0
0
0
0
0
0
0
0
0
0
0
0
0
0
0
0
0
0
0
0
0
0
0
0
0
0
0
0
0
0
0
0
0
0
0
0
0
0
0
0
0
0
0
0
0
0
0
0
0
0
0
0
0
0
0
0
0
0
0
0
0
0
0
0
0
0
0
0
0
0
0
0
0
0
0
0
0
0
0
0
0
0
0
0
0
0
0
0
0
0
0
0
0
0
0
0
0
0
0
0
0
0
0
0
0
0
0
0
0
0
0
0
0
0
0
0
0
0
0
0
0
0
0
0
0
0
0
0
0
0
0
0
0
0
0
0
0
0
0
0
0
0
0
0
0
0
0
0
0
0
0
0
0
0
0
0
0
0
0
0
0
0
0
0
0
0
0
0
0
0
0
0
0
0
0
0
0
0
0
0
0
0
0
0
0
0
0
0
0
0
0
0
0
0
0
0
0
0
0
0
0
0
0
0
0
0
0
0
0
0
0
0
0
0
0
0
0
0
0
0
0
0
0
0
0
0
0
0
0
0
0
0
0
0
0
0
0
0
0
0
0
0
0
0
0
0
0
0
0
0
0
0
0
0
0
0
0
0
0
0
0
0
0
0
0
0
0
0
0
0
0
0
0
0
0
0
0
0
0
0
0
0
0
0
0
0
0
0
0
0
0
0
0
0
0
0
0
0
0
0
0
0
0
0
0
0
0
0
0
0
0
0
0
0
0
0
0
0
0
2.79983789e-298
1.55556966e-298
1.35464063e-295
7.58814748e-296
6.49811328e-293
3.66968394e-293
3.09039759e-290
1.75938539e-290
1.45712483e-287
8.36228738e-288
6.81122787e-285
3.94014585e-285
3.15639045e-282
1.84040799e-282
1.45004869e-279
8.52160837e-280
6.60374624e-277
3.91131175e-277
2.98128111e-274
1.77954628e-274
1.33416192e-271
8.02549995e-272
5.9182725e-269
3.58744738e-269
2.60225213e-266
1.58950857e-266
1.13411843e-263
6.98047303e-264
4.89900758e-261
3.03778496e-261
2.09741291e-258
1.31059635e-258
8.8996053e-256
5.60349691e-256
3.74242225e-253
2.37465902e-253
1.55960164e-250
9.96943519e-251
6.44074973e-248
4.14749377e-248
2.63574475e-245
1.70973744e-245
1.06879924e-242
6.98366666e-243
4.29433362e-240
2.82637112e-240
1.70955306e-237
1.13330542e-237
6.74273569e-235
4.50211508e-235
2.63472504e-232
1.77180967e-232
1.0199014e-229
6.90759117e-230
3.91094897e-227
2.66761233e-227
1.48553794e-224
1.02042709e-224
5.58905951e-222
3.86616369e-222
2.08267755e-219
1.45074958e-219
7.68612996e-217
5.39129044e-217
2.8091116e-214
1.98405756e-214
1.01666562e-211
7.23018417e-212
3.64339721e-209
2.60885142e-209
1.29277977e-206
9.32018631e-207
4.54152424e-204
3.29643468e-204
1.57945112e-201
1.15419004e-201
5.43757874e-199
4.0002802e-199
1.85295985e-196
1.3723027e-196
6.24960671e-194
4.6593022e-194
2.08607339e-191
1.56555081e-191
6.89063879e-189
5.20536803e-189
2.25218439e-186
1.71251785e-186
7.28321665e-184
5.5741452e-184
2.33010921e-181
1.79489779e-181
7.37429734e-179
5.71711356e-179
2.30840743e-176
1.80113184e-176
7.14671358e-174
5.61177454e-174
2.18804116e-171
1.7289954e-171
6.62386229e-169
5.26717371e-169
1.98254765e-166
1.58635806e-166
5.86598033e-164
4.72293988e-164
1.71557021e-161
1.38981585e-161
4.95874445e-159
4.04184708e-159
1.41635704e-156
1.1615086e-156
3.9971639e-154
3.29780533e-154
1.11441674e-151
9.24965588e-152
3.0689922e-149
2.56247603e-149
8.34699456e-147
7.01069497e-147
2.24172284e-144
1.89391396e-144
5.94401419e-142
5.05109632e-142
1.55578615e-139
1.32972827e-139
4.01897498e-137
3.4547354e-137
1.02446301e-134
8.8564797e-135
2.57638037e-132
2.23984839e-132
6.3910213e-130
5.58728318e-130
1.56346286e-127
1.37441306e-127
3.77110573e-125
3.33330243e-125
8.96637039e-123
7.96848045e-123
2.1010212e-120
1.87723263e-120
4.85070304e-118
4.35709104e-118
1.10313747e-115
9.96095037e-116
2.47053324e-113
2.24241185e-113
5.44713652e-111
4.96958619e-111
1.18205398e-108
1.08390126e-108
2.52387098e-106
2.32590809e-106
5.30055096e-104
4.90898052e-104
1.09460058e-101
1.0186902e-101
2.22188212e-99
2.07775447e-99
4.43158982e-97
4.16379603e-97
8.6817236e-95
8.19524135e-95
1.66988454e-92
1.5835677e-92
3.15223232e-90
3.00282858e-90
5.83725639e-88
5.58534683e-88
1.05987623e-85
1.01857169e-85
1.88600646e-83
1.82028615e-83
3.2873542e-81
3.18615334e-81
5.60951947e-79
5.45922916e-79
9.36541362e-77
9.15117992e-77
1.52890773e-74
1.49978863e-74
2.43894875e-72
2.40157251e-72
3.79915425e-70
3.75451712e-70
5.77443925e-68
5.72601685e-68
8.55707371e-66
8.51130481e-66
1.23527389e-63
1.23178774e-63
1.73551115e-61
1.73365665e-61
2.37078551e-59
2.36984971e-59
3.14557476e-57
3.14234277e-57
4.04908009e-55
4.03746656e-55
5.05039611e-53
5.02416899e-53
6.09569986e-51
6.05540827e-51
7.10907627e-49
7.06808882e-49
7.99831331e-47
7.97537471e-47
8.66609508e-45
8.65504773e-45
9.02547611e-43
8.9859102e-43
9.01643094e-41
8.95034151e-41
8.61944334e-39
8.53522875e-39
7.86443056e-37
7.77414368e-37
6.82850016e-35
6.74431309e-35
5.62364176e-33
5.55402268e-33
4.3763805e-31
4.32578686e-31
3.20444349e-29
3.16814552e-29
2.19677706e-27
2.19354246e-27
1.40165145e-25
1.39607035e-25
8.26993195e-24
8.21722728e-24
4.4745985e-22
4.44162453e-22
2.19831988e-20
2.18437798e-20
9.68686326e-19
9.64498052e-19
3.7695454e-17
3.75694051e-17
1.26944265e-15
1.26499451e-15
3.59905704e-14
3.58938737e-14
8.25715202e-13
8.25159803e-13
2.10348396e-11
2.11628274e-11
2.39894962e-08
2.49195154e-08
0.0446388061
0.192257965
6.30683698
7.76888133
9.66156351
8.97624239
3.98264984
3.33082032
0.839808108
0.689467362
0.17587084
0.156909816
0.0410962494
0.0378028832
0.0086226532
0.00820566932
0.00165295399
0.00162182303
0.00029985153
0.0002988648
5.63587253e-05
5.63127655e-05
1.52866168e-05
1.52897444e-05
8.83797999e-06
8.84076536e-06
7.8937934e-06
7.89387824e-06
7.76324681e-06
7.76323418e-06
7.74623147e-06
7.74623413e-06
7.74412001e-06
7.74414619e-06
7.74387135e-06
7.74390014e-06
7.74386138e-06
7.7438497e-06
7.74386092e-06
7.7438355e-06
7.74386288e-06
7.74384085e-06
7.74385772e-06
7.74385123e-06
7.74386573e-06
7.74385265e-06
7.74385804e-06
7.74385986e-06
7.74385961e-06
7.74385968e-06
7.74386474e-06
7.74386099e-06
7.74386591e-06
7.74386263e-06
7.74385893e-06
7.74386171e-06
7.7438486e-06
7.74386845e-06
7.74385274e-06
7.74386498e-06
7.74384796e-06
7.74385752e-06
7.74384768e-06
7.74385708e-06
7.74384355e-06
7.74385465e-06
7.74384441e-06
7.74386642e-06
7.74383456e-06
7.74386569e-06
7.74384469e-06
7.74385456e-06
7.74384995e-06
7.7438636e-06
7.7438462e-06
7.74387116e-06
7.74383823e-06
7.74386916e-06
7.74385331e-06
7.74386479e-06
7.74385177e-06
7.74385291e-06
7.743856e-06
7.7438517e-06
7.74386424e-06
7.7438513e-06
7.74385426e-06
7.74384487e-06
7.74386404e-06
7.7438424e-06
7.74387338e-06
7.74384102e-06
7.74386659e-06
7.74385225e-06
7.74387683e-06
7.74384709e-06
7.74386712e-06
7.74384624e-06
7.74386073e-06
7.743856e-06
7.74386431e-06
7.74384765e-06
7.74386685e-06
7.74385359e-06
7.74384848e-06
7.74386454e-06
7.74384677e-06
7.74385791e-06
7.74386243e-06
7.74385485e-06
7.74386002e-06
7.74384973e-06
7.74385458e-06
7.74385102e-06
7.74384879e-06
7.7438645e-06
7.74383796e-06
7.74386553e-06
7.74384907e-06
7.74387133e-06
7.74384687e-06
7.74386872e-06
7.74384655e-06
7.74385909e-06
7.74385676e-06
7.74386146e-06
7.74384833e-06
7.74387115e-06
7.74384732e-06
7.74387213e-06
7.74385116e-06
7.74386716e-06
7.74386116e-06
7.74387184e-06
7.74386007e-06
7.74387095e-06
7.74385585e-06
7.74385907e-06
7.74385398e-06
7.74385883e-06
7.74384969e-06
7.74385242e-06
7.74384533e-06
7.74386517e-06
7.74383887e-06
7.74385489e-06
7.74384979e-06
7.7438585e-06
7.74385372e-06
7.74384986e-06
7.74387609e-06
7.74383211e-06
7.74386815e-06
7.74384053e-06
7.74387767e-06
7.7438485e-06
7.74386701e-06
7.74384659e-06
7.74386965e-06
7.74384178e-06
7.74387551e-06
7.74384333e-06
7.74387619e-06
7.7438487e-06
7.74388289e-06
7.74385219e-06
7.74386277e-06
7.74385767e-06
7.7438541e-06
7.74384834e-06
7.74385729e-06
7.74384876e-06
7.7438477e-06
7.74386815e-06
7.74385357e-06
7.74391651e-06
7.74393506e-06
7.74433706e-06
7.74437721e-06
7.74591486e-06
7.7458873e-06
7.74433893e-06
7.74433836e-06
7.74392594e-06
7.7439159e-06
7.74386721e-06
7.74386259e-06
7.74386196e-06
7.74386296e-06
7.74385161e-06
7.74386319e-06
7.74385256e-06
7.74387187e-06
7.74385684e-06
7.74386722e-06
7.74385102e-06
7.74385962e-06
7.74385415e-06
7.74386921e-06
7.74385099e-06
7.74386953e-06
7.74385083e-06
7.74388129e-06
7.74384615e-06
7.743878e-06
7.74384695e-06
7.7438627e-06
7.74385539e-06
7.74387195e-06
7.74385362e-06
7.74386468e-06
7.74385349e-06
7.74386645e-06
7.74385246e-06
7.74387222e-06
7.7438625e-06
7.74385823e-06
7.74386239e-06
7.743862e-06
7.74386858e-06
7.74385761e-06
7.74386382e-06
7.74386442e-06
7.74387061e-06
7.74387046e-06
7.74385143e-06
7.74387279e-06
7.74384819e-06
7.74387296e-06
7.74385505e-06
7.74386442e-06
7.743863e-06
7.74386885e-06
7.74386187e-06
7.74386091e-06
7.74387149e-06
7.74386256e-06
7.74387168e-06
7.74386377e-06
7.74386813e-06
7.74387095e-06
7.74387705e-06
7.74385695e-06
7.74387869e-06
7.74385014e-06
7.7438766e-06
7.74385201e-06
7.7438675e-06
7.74385506e-06
7.74385646e-06
7.74386779e-06
7.74386415e-06
7.74385561e-06
7.74385962e-06
7.74386507e-06
7.74386057e-06
7.74385457e-06
7.74386981e-06
7.74386023e-06
7.74387369e-06
7.74386166e-06
7.74387817e-06
7.74385981e-06
7.74385803e-06
7.74387407e-06
7.74385136e-06
7.74386957e-06
7.74385218e-06
7.74386669e-06
7.7438529e-06
7.74387807e-06
7.74385406e-06
7.74386619e-06
7.74386259e-06
7.74386147e-06
7.74387169e-06
7.74385657e-06
7.74386109e-06
7.74386017e-06
7.74385901e-06
7.7438625e-06
7.74386487e-06
7.74386159e-06
7.74386336e-06
7.74386098e-06
7.74385532e-06
7.74386323e-06
7.74386647e-06
7.74386336e-06
7.74387171e-06
7.74386612e-06
7.74386414e-06
7.74387349e-06
7.74385311e-06
7.7438589e-06
7.7438612e-06
7.743856e-06
7.74387472e-06
7.74387037e-06
7.74386681e-06
7.74387192e-06
7.74386911e-06
7.74386966e-06
7.74386761e-06
7.74386514e-06
7.7438726e-06
7.74386204e-06
7.74386078e-06
7.74385653e-06
7.74387043e-06
7.74384119e-06
7.74386739e-06
7.74385245e-06
7.74386935e-06
7.74386381e-06
7.74386436e-06
7.74387094e-06
7.74385355e-06
7.7438806e-06
7.74384914e-06
7.74387726e-06
7.74384164e-06
7.74388335e-06
7.74385431e-06
7.74388028e-06
7.74385392e-06
7.7438713e-06
7.74386373e-06
7.74387345e-06
7.74385872e-06
7.74387646e-06
7.74385821e-06
7.74385964e-06
7.74386501e-06
7.74386916e-06
7.74386309e-06
7.74386305e-06
7.74387698e-06
7.74386337e-06
7.74386509e-06
7.74386828e-06
7.74387589e-06
7.7438657e-06
7.74387227e-06
7.74386882e-06
7.74386415e-06
7.74386923e-06
7.74386147e-06
7.74387269e-06
7.7438612e-06
7.74386625e-06
7.74387387e-06
7.74386299e-06
7.74386149e-06
7.74385436e-06
7.74386619e-06
7.7438715e-06
7.74385944e-06
7.74387413e-06
7.74385722e-06
7.74386976e-06
7.74386421e-06
7.74386725e-06
7.74386653e-06
7.74387188e-06
7.74385884e-06
7.74387434e-06
7.74386839e-06
7.7438812e-06
7.74386159e-06
7.74387311e-06
7.74386694e-06
7.74386872e-06
7.74387337e-06
7.74388694e-06
7.74386119e-06
7.74387697e-06
7.74386765e-06
7.74387968e-06
7.743868e-06
7.74387339e-06
7.74387067e-06
7.74388146e-06
7.74385949e-06
7.74388029e-06
7.74386127e-06
7.74386392e-06
7.74387803e-06
7.74385698e-06
7.7438717e-06
7.74386068e-06
7.74386652e-06
7.74386543e-06
7.74386505e-06
7.74387458e-06
7.74387423e-06
7.74386083e-06
7.7438764e-06
7.74387124e-06
7.74387353e-06
7.74386969e-06
7.74386847e-06
7.74386329e-06
7.74387897e-06
7.74384562e-06
7.74387829e-06
7.74385684e-06
7.74387763e-06
7.74386675e-06
7.74387054e-06
7.74387797e-06
7.74386883e-06
7.74388253e-06
7.74386425e-06
7.74386555e-06
7.74387114e-06
7.74386988e-06
7.74387777e-06
7.74387479e-06
7.74388112e-06
7.74387293e-06
7.74387692e-06
7.74386489e-06
7.74389108e-06
7.74386658e-06
7.74388805e-06
7.7438718e-06
7.74387537e-06
7.7438688e-06
7.74387624e-06
7.74387162e-06
7.74387317e-06
7.74387961e-06
7.74387523e-06
7.74388618e-06
7.74387102e-06
7.74387814e-06
7.74386671e-06
7.74387894e-06
7.74387847e-06
7.74387128e-06
7.7438827e-06
7.74386437e-06
7.74387609e-06
7.74387233e-06
7.74388018e-06
7.74387269e-06
7.74387642e-06
7.74387567e-06
7.7438741e-06
7.7438697e-06
7.74387854e-06
7.74387136e-06
7.74386228e-06
7.74386976e-06
7.74387329e-06
7.74387366e-06
7.74386707e-06
7.74386875e-06
7.74388167e-06
7.74386881e-06
7.74387707e-06
7.74386198e-06
7.74388587e-06
7.74386295e-06
7.74389044e-06
7.74387289e-06
7.74388204e-06
7.74387733e-06
7.74388e-06
7.74386597e-06
7.74388149e-06
7.74386802e-06
7.74386644e-06
7.74387575e-06
7.74387448e-06
7.74387125e-06
7.74388598e-06
7.74386984e-06
7.74387421e-06
7.74386909e-06
7.74386809e-06
7.74387675e-06
7.74387655e-06
7.74386468e-06
7.74387876e-06
7.74387399e-06
7.74386195e-06
7.7438801e-06
7.74386164e-06
7.74388823e-06
7.7438643e-06
7.74389275e-06
7.743865e-06
7.74389543e-06
7.74385962e-06
7.74388802e-06
7.74387078e-06
7.74387373e-06
7.74387542e-06
7.74387209e-06
7.74387621e-06
7.74387779e-06
7.74388236e-06
7.74387525e-06
7.74386021e-06
7.7438846e-06
7.74387088e-06
7.74387923e-06
7.74387932e-06
7.74387675e-06
7.74387115e-06
7.74387645e-06
7.74387515e-06
7.74387853e-06
7.74387416e-06
7.74387807e-06
7.74387922e-06
7.74387504e-06
7.74387526e-06
7.7438779e-06
7.74387787e-06
7.74387865e-06
7.74387607e-06
7.7438796e-06
7.74387683e-06
7.74387832e-06
7.7438786e-06
7.74387983e-06
7.74387889e-06
7.7438798e-06
7.74388101e-06
7.74388137e-06
7.74388072e-06
7.74388211e-06
7.74388289e-06
7.74388263e-06
7.74388368e-06
7.74388445e-06
7.74388586e-06
7.74388628e-06
7.74388714e-06
7.7438884e-06
7.74388912e-06
7.74389048e-06
7.74389219e-06
7.74389385e-06
7.74389487e-06
7.74389732e-06
7.7438994e-06
7.7439019e-06
7.74390489e-06
7.74390822e-06
7.74391232e-06
7.74391681e-06
7.74392136e-06
7.74392526e-06
7.74392851e-06
7.74393108e-06
7.74393297e-06
7.74393352e-06
7.74393416e-06
7.74393423e-06
7.74393413e-06
7.74393437e-06
7.7439344e-06
7.7439342e-06
7.7439345e-06
7.74393413e-06
7.74393416e-06
7.74393419e-06
7.74393421e-06
7.74393415e-06
7.74393412e-06
7.74393421e-06
7.74393421e-06
7.74393399e-06
7.74393447e-06
)
;

boundaryField
{
    closed
    {
        type            calculated;
        value           uniform 0;
    }
    open
    {
        type            calculated;
        value           uniform 0;
    }
    sides
    {
        type            empty;
    }
}


// ************************************************************************* //
