/*--------------------------------*- C++ -*----------------------------------*\
| =========                 |                                                 |
| \\      /  F ield         | OpenFOAM: The Open Source CFD Toolbox           |
|  \\    /   O peration     | Version:  2206                                  |
|   \\  /    A nd           | Website:  www.openfoam.com                      |
|    \\/     M anipulation  |                                                 |
\*---------------------------------------------------------------------------*/
FoamFile
{
    version     2.0;
    format      ascii;
    arch        "LSB;label=32;scalar=64";
    class       volScalarField;
    location    "1.74e-05";
    object      p;
}
// * * * * * * * * * * * * * * * * * * * * * * * * * * * * * * * * * * * * * //

dimensions      [1 -1 -2 0 0 0 0];

internalField   nonuniform List<scalar> 
3183
(
101325
101325
101325
101325
101325
101325
101325
101325
101325
101325
101325
101325
101325
101325
101325
101325
101325
101325
101325
101325
101325
101325
101325
101325
101325
101325
101325
101325
101325
101325
101325
101325
101325
101325
101325
101325
101325
101325
101325
101325
101325
101325
101325
101325
101325
101325
101325
101325
101325
101325
101325
101325
101325
101325
101325
101325
101325
101325
101325
101325
101325
101325
101325
101325
101325
101325
101325
101325
101325
101325
101325
101325
101325
101325
101325
101325
101325
101325
101325
101325
101325
101325
101325
101325
101325
101325
101325
101325
101325
101325
101325
101325
101325
101325
101325
101325
101325
101325
101325
101325
101325
101325
101325
101325
101325
101325
101325
101325
101325
101325
101325
101325
101325
101325
101325
101325
101325
101325
101325
101325
101325
101325
101325
101325
101325
101325
101325
101325
101325
101325
101325
101325
101325
101325
101325
101325
101325
101325
101325
101325
101325
101325
101325
101325
101325
101325
101325
101325
101325
101325
101325
101325
101325
101325
101325
101325
101325
101325
101325
101325
101325
101325
101325
101325
101325
101325
101325
101325
101325
101325
101325
101325
101325
101325
101325
101325
101325
101325
101325
101325
101325
101325
101325
101325
101325
101325
101325
101325
101325
101325
101325
101325
101325
101325
101325
101325
101325
101325
101325
101325
101325
101325
101325
101325
101325
101325
101325
101325
101325
101325
101325
101325
101325
101325
101325
101325
101325
101325
101325
101325
101325
101325
101325
101325
101325
101325
101325
101325
101325
101325
101325
101325
101325
101325
101325
101325
101325
101325
101325
101325
101325
101325
101325
101325
101325
101325
101325
101325
101325
101325
101325
101325
101325
101325
101325
101325
101325
101325
101325
101325
101325
101325
101325
101325
101325
101325
101325
101325
101325
101325
101325
101325
101325
101325
101325
101325
101325
101325
101325
101325
101325
101325
101325
101325
101325
101325
101325
101325
101325
101325
101325
101325
101325
101325
101325
101325
101325
101325
101325
101325
101325
101325
101325
101325
101325
101325
101325
101325
101325
101325
101325
101325
101325
101325
101325
101325
101325
101325
101325
101325
101325
101325
101325
101325
101325
101325
101325
101325
101325
101325
101325
101325
101325
101325
101325
101325
101325
101325
101325
101325
101325
101325
101325
101325
101325
101325
101325
101325
101325
101325
101325
101325
101325
101325
101325
101325
101325
101325
101325
101325
101325
101325
101325
101325
101325
101325
101325
101325
101325
101325
101325
101325
101325
101325
101325
101325
101325
101325
101325
101325
101325
101325
101325
101325
101325
101325
101325
101325
101325
101325
101325
101325
101325
101325
101325
101325
101325
101325
101325
101325
101325
101325
101325
101325
101325
101325
101325
101325
101325
101325
101325
101325
101325
101325
101325
101325
101325
101325
101325
101325
101325
101325
101325
101325
101325
101325
101325
101325
101325
101325
101325
101325
101325
101325
101325
101325
101325
101325
101325
101325
101325
101325
101325
101325
101325
101325
101325
101325
101325
101325
101325
101325
101325
101325
101325
101325
101325
101325
101325
101325
101325
101325
101325
101325
101325
101325
101325
101325
101325
101325
101325
101325
101325
101325
101325
101325
101325
101325
101325
101325
101325
101325
101325
101325
101325
101325
101325
101325
101325
101325
101325
101325
101325
101325
101325
101325
101325
101325
101325
101325
101325
101325
101325
101325
101325
101325
101325
101325
101325
101325
101325
101325
101325
101325
101325
101325
101325
101325
101325
101325
101325
101325
101325
101325
101325
101325
101325
101325
101325
101325
101325
101325
101325
101325
101325
101325
101325
101325
101325
101325
101325
101325
101325
101325
101325
101325
101325
101325
101325
101325
101325
101325
101325
101325
101325
101325
101325
101325
101325
101325
101325
101325
101325
101325
101325
101325
101325
101325
101325
101325
101325
101325
101325
101325
101325
101325
101325
101325
101325
101325
101325
101325
101325
101325
101325
101325
101325
101325
101325
101325
101325
101325
101325
101325
101325
101325
101325
101325
101325
101325
101325
101325
101325
101325
101325
101325
101325
101325
101325
101325
101325
101325
101325
101325
101325
101325
101325
101325
101325
101325
101325
101325
101325
101325
101325
101325
101325
101325
101325
101325
101325
101325
101325
101325
101325
101325
101325
101325
101325
101325
101325
101325
101325
101325
101325
101325
101325
101325
101325
101325
101325
101325
101325
101325
101325
101325
101325
101325
101325
101325
101325
101325
101325
101325
101325
101325
101325
101325
101325
101325
101325
101325
101325
101325
101325
101325
101325
101325
101325
101325
101325
101325
101325
101325
101325
101325
101325
101325
101325
101325
101325
101325
101325
101325
101325
101325
101325
101325
101325
101325
101325
101325
101325
101325
101325
101325
101325
101325
101325
101325
101325
101325
101325
101325
101325
101325
101325
101325
101325
101325
101325
101325
101325
101325
101325
101325
101325
101325
101325
101325
101325
101325
101325
101325
101325
101325
101325
101325
101325
101325
101325
101325
101325
101325
101325
101325
101325
101325
101325
101325
101325
101325
101325
101325
101325
101325
101325
101325
101325
101325
101325
101325
101325
101325
101325
101325
101325
101325
101325
101325
101325
101325
101325
101325
101325
101325
101325
101325
101325
101325
101325
101325
101325
101325
101325
101325
101325
101325
101325
101325
101325
101325
101325
101325
101325
101325
101325
101325
101325
101325
101325
101325
101325
101325
101325
101325
101325
101325
101325
101325
101325
101325
101325
101325
101325
101325
101325
101325
101325
101325
101325
101325
101325
101325
101325
101325
101325
101325
101325
101325
101325
101325
101325
101325
101325
101325
101325
101325
101325
101325
101325
101325
101325
101325
101325
101325
101325
101325
101325
101325
101325
101325
101325
101325
101325
101325
101325
101325
101325
101325
101325
101325
101325
101325
101325
101325
101325
101325
101325
101325
101325
101325
101325
101325
101325
101325
101325
101325
101325
101325
101325
101325
101325
101325
101325
101325
101325
101325
101325
101325
101325
101325
101325
101325
101325
101325
101325
101325
101325
101325
101325
101325
101325
101325
101325
101325
101325
101325
101325
101325
101325
101325
101325
101325
101325
101325
101325
101325
101325
101325
101325
101325
101325
101325
101325
101325
101325
101325
101325
101325
101325
101325
101325
101325
101325
101325
101325
101325
101325
101325
101325
101325
101325
101325
101325
101325
101325
101325
101325
101325
101325
101325
101325
101325
101325
101325
101325
101325
101325
101325
101325
101325
101325
101325
101325
101325
101325
101325
101325
101325
101325
101325
101325
101325
101325
101325
101325
101325
101325
101325
101325
101325
101325
101325
101325
101325
101325
101325
101325
101325
101325
101325
101325
101325
101325
101325
101325
101325
101325
101325
101325
101325
101325
101325
101325
101325
101325
101325
101325
101325
101325
101325
101325
101325
101325
101325
101325
101325
101325
101325
101325
101325
101325
101325
101325
101325
101325
101325
101325
101325
101325
101325
101325
101325
101325
101325
101325
101325
101325
101325
101325
101325
101325
101325
101325
101325
101325
101325
101325
101325
101325
101325
101325
101325
101325
101325
101325
101325
101325
101325
101325
101325
101325
101325
101325
101325
101325
101325
101325
101325
101325
101325
101325
101325
101325
101325
101325
101325
101325
101325
101325
101325
101325
101325
101325
101325
101325
101325
101325
101325
101325
101325
101325
101325
101325
101325
101325
101325
101325
101325
101325
101325
101325
101325
101325
101325
101325
101325
101325
101325
101325
101325
101325
101325
101325
101325
101325
101325
101325
101325
101325
101325
101325
101325
101325
101325
101325
101325
101325
101325
101325
101325
101325
101325
101325
101325
101325
101325
101325
101325
101325
101325
101325
101325
101325
101325
101325
101325
101325
101325
101325
101325
101325
101325
101325
101325
101325
101325
101325
101325
101325
101325
101325
101325
101325
101325
101325
101325
101325
101325
101325
101325
101325
101325
101325
101325
101325
101325
101325
101325
101325
101325
101325
101325
101325
101325
101325
101325
101325
101325
101325
101325
101325
101325
101325
101325
101325
101325
101325
101325
101325
101325
101325
101325
101325
101325
101325
101325
101325
101325
101325
101325
101325
101325
101325
101325
101325
101325
101325
101325
101325
101325
101325
101325
101325
101325
101325
101325
101325
101325
101325
101325
101325
101325
101325
101325
101325
101325
101325
101325
101325
101325
101325
101325
101325
101325
101325
101325
101325
101325
101325
101325
101325
101325
101325
101325
101325
101325
101325
101325
101325
101325
101325
101325
101325
101325
101325
101325
101325
101325
101325
101325
101325
101325
101325
101325
101325
101325
101325
101325
101325
101325
101325
101325
101325
101325
101325
101325
101325
101325
101325
101325
101325
101325
101325
101325
101325
101325
101325
101325
101325
101325
101325
101325
101325
101325
101325
101325
101325
101325
101325
101325
101325
101325
101325
101325
101325
101325
101325
101325
101325
101325
101325
101325
101325
101325
101325
101325
101325
101325
101325
101325
101325
101325
101325
101325
101325
101325
101325
101325
101325
101325
101325
101325
101325
101325
101325
101325
101325
101325
101325
101325
101325
101325
101325
101325
101325
101325
101325
101325
101325
101325
101325
101325
101325
101325
101325
101325
101325
101325
101325
101325
101325
101325
101325
101325
101325
101325
101325
101325
101325
101325
101325
101325
101325
101325
101325
101325
101325
101325
101325
101325
101325
101325
101325
101325
101325
101325
101325
101325
101325
101325
101325
101325
101325
101325
101325
101325
101325
101325
101325
101325
101325
101325
101325
101325
101325
101325
101325
101325
101325
101325
101325
101325
101325
101325
101325
101325
101325
101325
101325
101325
101325
101325
101325
101325
101325
101325
101325
101325
101325
101325
101325
101325
101325
101325
101325
101325
101325
101325
101325
101325
101325
101325
101325
101325
101325
101325
101325
101325
101325
101325
101325
101325
101325
101325
101325
101325
101325
101325
101325
101325
101325
101325
101325
101325
101325
101325
101325
101325
101325
101325
101325
101325
101325
101325
101325
101325
101325
101325
101325
101325
101325
101325
101325
101325
101325
101325
101325
101325
101325
101325
101325
101325
101325
101325
101325
101325
101325
101325
101325
101325
101325
101325
101325
101325
101325
101325
101325
101325
101325
101325
101325
101325
101325
101325
101325
101325
101325
101325
101325
101325
101325
101325
101325
101325
101325
101325
101325
101325
101325
101325
101325
101325
101325
101325
101325
101325
101325
101325
101325
101325
101325
101325
101325
101325
101325
101325
101325
101325
101325
101325
101325
101325
101325
101325
101325
101325
101325
101325
101325
101325
101325
101325
101325
101325
101325
101325
101325
101325
101325
101325
101325
101325
101325
101325
101325
101325
101325
101325
101325
101325
101325
101325
101325
101325
101325
101325
101325
101325
101325
101325
101325
101325
101325
101325
101325
101325
101325
101325
101325
101325
101325
101325
101325
101325
101325
101325
101325
101325
101325
101325
101325
101325
101325
101325
101325
101325
101325
101325
101325
101325
101325
101325
101325
101325
101325
101325
101325
101325
101325
101325
101325
101325
101325
101325
101325
101325
101325
101325
101325
101325
101325
101325
101325
101325
101325
101325
101325
101325
101325
101325
101325
101325
101325
101325
101325
101325
101325
101325
101325
101325
101325
101325
101325
101325
101325
101325
101325
101325
101325
101325
101325
101325
101325
101325
101325
101325
101325
101325
101325
101325
101325
101325
101325
101325
101325
101325
101325
101325
101325
101325
101325
101325
101325
101325
101325
101325
101325
101325
101325
101325
101325
101325
101325
101325
101325
101325
101325
101325
101325
101325
101325
101325
101325
101325
101325
101325
101325
101325
101325
101325
101325
101325
101325
101325
101325
101325
101325
101325
101325
101325
101325
101325
101325
101325
101325
101325
101325
101325
101325
101325
101325
101325
101325
101325
101325
101325
101325
101325
101325
101325
101325
101325
101325
101325
101324.999
101324.999
101324.999
101324.999
101324.999
101324.999
101324.999
101324.999
101324.999
101324.999
101324.999
101324.999
101324.999
101324.999
101324.999
101324.999
101324.999
101324.999
101324.999
101324.998
101324.998
101324.998
101324.998
101324.998
101324.998
101324.998
101324.998
101324.998
101324.997
101324.997
101324.997
101324.997
101324.997
101324.997
101324.996
101324.996
101324.996
101324.996
101324.996
101324.995
101324.995
101324.995
101324.994
101324.994
101324.994
101324.994
101324.993
101324.993
101324.992
101324.992
101324.992
101324.991
101324.991
101324.99
101324.99
101324.989
101324.988
101324.988
101324.987
101324.987
101324.986
101324.985
101324.984
101324.984
101324.983
101324.982
101324.981
101324.98
101324.979
101324.978
101324.977
101324.975
101324.974
101324.973
101324.971
101324.97
101324.969
101324.967
101324.965
101324.964
101324.962
101324.96
101324.958
101324.956
101324.954
101324.951
101324.949
101324.947
101324.944
101324.941
101324.938
101324.936
101324.932
101324.929
101324.926
101324.922
101324.919
101324.915
101324.911
101324.907
101324.902
101324.898
101324.893
101324.888
101324.883
101324.878
101324.872
101324.866
101324.86
101324.854
101324.847
101324.841
101324.834
101324.826
101324.818
101324.81
101324.802
101324.793
101324.784
101324.775
101324.765
101324.755
101324.745
101324.734
101324.722
101324.711
101324.698
101324.686
101324.672
101324.659
101324.644
101324.63
101324.614
101324.599
101324.582
101324.565
101324.547
101324.529
101324.51
101324.49
101324.47
101324.449
101324.427
101324.404
101324.381
101324.357
101324.332
101324.306
101324.279
101324.251
101324.223
101324.193
101324.163
101324.131
101324.098
101324.065
101324.03
101323.994
101323.957
101323.919
101323.879
101323.839
101323.797
101323.753
101323.709
101323.663
101323.616
101323.567
101323.517
101323.465
101323.412
101323.357
101323.301
101323.243
101323.183
101323.122
101323.059
101322.994
101322.927
101322.859
101322.789
101322.716
101322.642
101322.566
101322.488
101322.408
101322.326
101322.242
101322.155
101322.067
101321.976
101321.883
101321.788
101321.691
101321.591
101321.489
101321.384
101321.277
101321.168
101321.056
101320.941
101320.824
101320.705
101320.583
101320.458
101320.331
101320.201
101320.069
101319.933
101319.795
101319.655
101319.511
101319.365
101319.216
101319.065
101318.91
101318.753
101318.593
101318.43
101318.264
101318.096
101317.924
101317.75
101317.573
101317.393
101317.211
101317.026
101316.837
101316.647
101316.453
101316.257
101316.058
101315.856
101315.652
101315.445
101315.235
101315.023
101314.808
101314.591
101314.371
101314.149
101313.925
101313.698
101313.469
101313.238
101313.005
101312.769
101312.532
101312.293
101312.051
101311.808
101311.563
101311.317
101311.069
101310.819
101310.568
101310.315
101310.062
101309.807
101309.551
101309.294
101309.036
101308.777
101308.518
101308.258
101307.998
101307.737
101307.476
101307.214
101306.953
101306.692
101306.431
101306.17
101305.91
101305.65
101305.391
101305.133
101304.875
101304.619
101304.364
101304.11
101303.858
101303.607
101303.357
101303.11
101302.864
101302.621
101302.38
101302.141
101301.904
101301.67
101301.439
101301.21
101300.985
101300.762
101300.543
101300.327
101300.114
101299.905
101299.699
101299.497
101299.299
101299.105
101298.915
101298.729
101298.547
101298.37
101298.197
101298.029
101297.865
101297.706
101297.551
101297.402
101297.257
101297.118
101296.983
101296.854
101296.729
101296.61
101296.496
101296.387
101296.284
101296.186
101296.093
101296.006
101295.924
101295.848
101295.777
101295.712
101295.652
101295.597
101295.548
101295.504
101295.466
101295.433
101295.406
101295.384
101295.367
101295.355
101295.349
101295.348
101295.351
101295.36
101295.374
101295.393
101295.417
101295.445
101295.479
101295.517
101295.559
101295.606
101295.657
101295.713
101295.773
101295.837
101295.904
101295.976
101296.052
101296.131
101296.214
101296.3
101296.389
101296.482
101296.578
101296.677
101296.779
101296.883
101296.991
101297.1
101297.212
101297.327
101297.443
101297.562
101297.682
101297.805
101297.929
101298.054
101298.181
101298.309
101298.439
101298.569
101298.701
101298.833
101298.966
101299.1
101299.234
101299.369
101299.504
101299.639
101299.775
101299.91
101300.045
101300.181
101300.316
101300.45
101300.584
101300.718
101300.851
101300.984
101301.116
101301.247
101301.377
101301.506
101301.634
101301.762
101301.888
101302.013
101302.137
101302.259
101302.381
101302.501
101302.62
101302.737
101302.853
101302.967
101303.08
101303.192
101303.302
101303.411
101303.518
101303.623
101303.727
101303.829
101303.93
101304.03
101304.127
101304.223
101304.318
101304.411
101304.503
101304.593
101304.681
101304.768
101304.854
101304.938
101305.02
101305.101
101305.181
101305.259
101305.336
101305.412
101305.486
101305.559
101305.631
101305.702
101305.771
101305.839
101305.906
101305.972
101306.036
101306.1
101306.162
101306.224
101306.284
101306.344
101306.403
101306.46
101306.517
101306.573
101306.629
101306.683
101306.737
101306.79
101306.842
101306.893
101306.944
101306.994
101307.044
101307.093
101307.141
101307.189
101307.237
101307.283
101307.33
101307.376
101307.421
101307.466
101307.511
101307.555
101307.599
101307.642
101307.685
101307.728
101307.771
101307.813
101307.854
101307.896
101307.937
101307.978
101308.018
101308.059
101308.099
101308.138
101308.178
101308.217
101308.256
101308.295
101308.333
101308.371
101308.409
101308.447
101308.484
101308.521
101308.558
101308.594
101308.631
101308.666
101308.702
101308.738
101308.773
101308.807
101308.842
101308.876
101308.91
101308.943
101308.977
101309.009
101309.042
101309.074
101309.106
101309.137
101309.169
101309.199
101309.23
101309.26
101309.289
101309.319
101309.348
101309.376
101309.404
101309.432
101309.459
101309.486
101309.513
101309.539
101309.565
101309.59
101309.615
101309.64
101309.664
101309.688
101309.712
101309.735
101309.758
101309.78
101309.802
101309.824
101309.845
101309.867
101309.887
101309.908
101309.928
101309.948
101309.967
101309.986
101310.005
101310.024
101310.043
101310.061
101310.079
101310.097
101310.114
101310.132
101310.149
101310.166
101310.183
101310.2
101310.217
101310.233
101310.25
101310.266
101310.283
101310.299
101310.315
101310.331
101310.348
101310.364
101310.38
101310.396
101310.413
101310.429
101310.446
101310.462
101310.479
101310.495
101310.512
101310.529
101310.546
101310.563
101310.58
101310.597
101310.615
101310.632
101310.65
101310.668
101310.686
101310.704
101310.722
101310.74
101310.759
101310.777
101310.796
101310.815
101310.834
101310.853
101310.873
101310.892
101310.912
101310.931
101310.951
101310.971
101310.991
101311.011
101311.031
101311.051
101311.071
101311.091
101311.111
101311.131
101311.152
101311.172
101311.192
101311.212
101311.232
101311.252
101311.272
101311.292
101311.312
101311.331
101311.351
101311.37
101311.39
101311.409
101311.428
101311.447
101311.466
101311.484
101311.502
101311.521
101311.539
101311.556
101311.574
101311.591
101311.608
101311.625
101311.642
101311.659
101311.675
101311.691
101311.707
101311.722
101311.738
101311.753
101311.768
101311.783
101311.797
101311.811
101311.825
101311.839
101311.853
101311.866
101311.88
101311.893
101311.906
101311.919
101311.931
101311.944
101311.956
101311.968
101311.98
101311.992
101312.003
101312.015
101312.026
101312.038
101312.049
101312.06
101312.071
101312.082
101312.093
101312.103
101312.114
101312.125
101312.135
101312.146
101312.156
101312.166
101312.176
101312.187
101312.197
101312.207
101312.217
101312.227
101312.237
101312.247
101312.256
101312.266
101312.276
101312.285
101312.295
101312.305
101312.314
101312.324
101312.333
101312.342
101312.352
101312.361
101312.37
101312.379
101312.388
101312.397
101312.407
101312.416
101312.424
101312.433
101312.442
101312.451
101312.46
101312.469
101312.477
101312.486
101312.495
101312.504
101312.512
101312.521
101312.53
101312.538
101312.547
101312.556
101312.564
101312.573
101312.582
101312.591
101312.599
101312.608
101312.617
101312.626
101312.636
101312.645
101312.654
101312.663
101312.673
101312.683
101312.693
101312.703
101312.713
101312.723
101312.734
101312.744
101312.755
101312.767
101312.778
101312.79
101312.802
101312.815
101312.828
101312.842
101312.855
101312.87
101312.885
101312.9
101312.917
101312.934
101312.951
101312.97
101312.99
101313.01
101313.032
101313.055
101313.079
101313.104
101313.131
101313.16
101313.19
101313.223
101313.257
101313.293
101313.332
101313.373
101313.417
101313.463
101313.512
101313.564
101313.619
101313.678
101313.74
101313.805
101313.874
101313.946
101314.023
101314.103
101314.186
101314.274
101314.365
101314.46
101314.558
101314.66
101314.765
101314.872
101314.982
101315.095
101315.209
101315.324
101315.44
101315.556
101315.672
101315.787
101315.9
101316.011
101316.119
101316.223
101316.323
101316.417
101316.506
101316.588
101316.664
101316.732
101316.793
101316.847
101316.893
101316.931
101316.963
101316.987
101317.006
101317.019
101317.027
101317.03
101317.031
101317.028
101317.024
101317.017
101317.009
101316.999
101316.988
101316.981
101317.004
101316.946
101317.199
101317.364
101317.365
101316.911
101316.806
101316.751
101316.825
101316.861
101316.931
101316.962
101317.018
101317.037
101317.062
101317.064
101317.066
101317.06
101317.052
101317.04
101317.027
101317.012
101316.996
101316.978
101316.958
101316.936
101316.913
101316.888
101316.862
101316.833
101316.803
101316.771
101316.737
101316.702
101316.665
101316.626
101316.586
101316.544
101316.501
101316.456
101316.409
101316.362
101316.313
101316.263
101316.212
101316.16
101316.107
101316.053
101315.998
101315.943
101315.887
101315.831
101315.774
101315.717
101315.66
101315.602
101315.545
101315.487
101315.429
101315.372
101315.315
101315.258
101315.201
101315.145
101315.089
101315.034
101314.979
101314.924
101314.871
101314.818
101314.766
101314.714
101314.663
101314.613
101314.564
101314.516
101314.468
101314.421
101314.376
101314.331
101314.287
101314.244
101314.202
101314.16
101314.12
101314.081
101314.042
101314.005
101313.968
101313.933
101313.898
101313.864
101313.831
101313.799
101313.768
101313.737
101313.707
101313.679
101313.651
101313.624
101313.597
101313.572
101313.547
101313.523
101313.499
101313.476
101313.454
101313.433
101313.412
101313.392
101313.372
101313.353
101313.335
101313.317
101313.3
101313.283
101313.267
101313.251
101313.235
101313.22
101313.206
101313.192
101313.178
101313.165
101313.152
101313.14
101313.128
101313.116
101313.104
101313.093
101313.082
101313.071
101313.061
101313.051
101313.041
101313.032
101313.022
101313.013
101313.004
101312.995
101312.987
101312.979
101312.97
101312.962
101312.955
101312.947
101312.939
101312.932
101312.925
101312.918
101312.911
101312.904
101312.897
101312.89
101312.884
101312.877
101312.871
101312.865
101312.858
101312.852
101312.846
101312.84
101312.834
101312.829
101312.823
101312.817
101312.812
101312.806
101312.8
101312.795
101312.79
101312.784
101312.779
101312.774
101312.769
101312.763
101312.758
101312.753
101312.748
101312.743
101312.738
101312.733
101312.729
101312.724
101312.719
101312.714
101312.709
101312.704
101312.7
101312.695
101312.69
101312.686
101312.681
101312.677
101312.672
101312.668
101312.663
101312.659
101312.654
101312.65
101312.645
101312.641
101312.636
101312.632
101312.627
101312.623
101312.619
101312.614
101312.61
101312.606
101312.601
101312.597
101312.593
101312.588
101312.584
101312.58
101312.575
101312.571
101312.567
101312.563
101312.558
101312.554
101312.55
101312.545
101312.541
101312.537
101312.532
101312.528
101312.524
101312.519
101312.515
101312.511
101312.506
101312.502
101312.498
101312.493
101312.489
101312.485
101312.48
101312.476
101312.471
101312.467
101312.462
101312.458
101312.454
101312.449
101312.445
101312.44
101312.436
101312.431
101312.426
101312.422
101312.417
101312.413
101312.408
101312.404
101312.399
101312.394
101312.39
101312.385
101312.38
101312.375
101312.371
101312.366
101312.361
101312.356
101312.352
101312.347
101312.342
101312.337
101312.332
101312.327
101312.322
101312.318
101312.313
101312.308
101312.303
101312.298
101312.293
101312.288
101312.283
101312.278
101312.272
101312.267
101312.262
101312.257
101312.252
101312.247
101312.242
101312.236
101312.231
101312.226
101312.221
101312.215
101312.21
101312.205
101312.2
101312.194
101312.189
101312.183
101312.178
101312.173
101312.167
101312.162
101312.156
101312.151
101312.145
101312.14
101312.134
101312.128
101312.123
101312.117
101312.112
101312.106
101312.1
101312.094
101312.089
101312.083
101312.077
101312.071
101312.065
101312.06
101312.054
101312.048
101312.042
101312.036
101312.03
101312.024
101312.018
101312.011
101312.005
101311.999
101311.993
101311.987
101311.98
101311.974
101311.968
101311.961
101311.955
101311.948
101311.942
101311.935
101311.929
101311.922
101311.915
101311.909
101311.902
101311.895
101311.888
101311.881
101311.874
101311.867
101311.86
101311.853
101311.846
101311.839
101311.832
101311.824
101311.817
101311.81
101311.802
101311.795
101311.787
101311.78
101311.772
101311.764
101311.757
101311.749
101311.741
101311.733
101311.725
101311.717
101311.709
101311.701
101311.693
101311.685
101311.676
101311.668
101311.66
101311.651
101311.643
101311.634
101311.625
101311.617
101311.608
101311.599
101311.591
101311.582
101311.573
101311.564
101311.555
101311.546
101311.537
101311.527
101311.518
101311.509
101311.5
101311.49
101311.481
101311.471
101311.462
101311.452
101311.443
101311.433
101311.424
101311.414
101311.404
101311.394
101311.385
101311.375
101311.365
101311.355
101311.345
101311.335
101311.325
101311.315
101311.305
101311.295
101311.285
101311.274
101311.264
101311.254
101311.244
101311.234
101311.223
101311.213
101311.203
101311.193
101311.182
101311.172
101311.162
101311.151
101311.141
101311.131
101311.12
101311.11
101311.1
101311.089
101311.079
101311.069
101311.058
101311.048
101311.038
101311.027
101311.017
101311.007
101310.996
101310.986
101310.976
101310.965
101310.955
101310.945
101310.935
101310.925
101310.914
101310.904
101310.894
101310.884
101310.874
101310.864
101310.854
101310.844
101310.834
101310.824
101310.814
101310.804
101310.794
101310.784
101310.774
101310.764
101310.755
101310.745
101310.735
101310.725
101310.716
101310.706
101310.696
101310.687
101310.677
101310.668
101310.658
101310.649
101310.639
101310.63
101310.62
101310.611
101310.602
101310.592
101310.583
101310.574
101310.565
101310.556
101310.546
101310.537
101310.528
101310.519
101310.51
101310.501
101310.492
101310.483
101310.474
101310.465
101310.456
101310.447
101310.438
101310.429
101310.419
101310.408
101310.397
101310.385
101310.372
101310.358
101310.343
101310.327
101310.31
101310.292
101310.273
101310.252
101310.229
101310.205
101310.179
101310.15
101310.119
101310.086
101310.05
101310.01
101309.967
101309.919
101309.866
101309.807
101309.741
101309.668
101309.585
101309.492
101309.387
101309.269
101309.134
101308.982
101308.811
101308.619
101308.403
101308.161
101307.892
101307.59
101307.249
101306.858
101306.398
101305.84
101305.138
101304.232
101303.053
101301.537
101299.673
101297.567
101295.526
101294.099
101293.998
101295.852
101299.845
101305.468
101311.593
101316.953
101320.8
101323.097
101324.25
101324.743
101324.923
101324.98
101324.996
101325
101325
101325.001
101325.001
101325.001
101325.001
101325.001
101325.001
101325.001
101325.001
101325.001
101325
101325
)
;

boundaryField
{
    closed
    {
        type            zeroGradient;
    }
    open
    {
        type            waveTransmissive;
        gamma           1.25;
        fieldInf        101325;
        lInf            1;
        value           uniform 101325;
    }
    sides
    {
        type            empty;
    }
}


// ************************************************************************* //
