/*--------------------------------*- C++ -*----------------------------------*\
| =========                 |                                                 |
| \\      /  F ield         | OpenFOAM: The Open Source CFD Toolbox           |
|  \\    /   O peration     | Version:  2206                                  |
|   \\  /    A nd           | Website:  www.openfoam.com                      |
|    \\/     M anipulation  |                                                 |
\*---------------------------------------------------------------------------*/
FoamFile
{
    version     2.0;
    format      ascii;
    arch        "LSB;label=32;scalar=64";
    class       surfaceScalarField;
    location    "1.74e-05";
    object      phi;
}
// * * * * * * * * * * * * * * * * * * * * * * * * * * * * * * * * * * * * * //

dimensions      [1 0 -1 0 0 0 0];

oriented        oriented;

internalField   nonuniform List<scalar> 
3182
(
6.17137414e-18
-1.91702754e-18
-3.10130228e-18
-2.36868715e-18
-9.68251307e-21
-4.70927366e-23
-3.28011053e-24
2.78863336e-25
1.00880662e-23
2.4699582e-22
2.50126771e-19
4.85953262e-18
3.75742198e-18
1.58976637e-18
1.08793167e-18
-1.48231387e-18
-5.55321027e-18
-4.5693649e-18
-5.790211e-18
4.12172959e-18
8.13378111e-20
4.68296405e-21
1.77442093e-18
2.8778259e-18
4.40435948e-18
7.56725506e-18
4.13874329e-18
2.21610139e-18
4.21181421e-19
-1.02219792e-18
-2.85571798e-19
-1.42138185e-18
-5.10258123e-18
-5.44548472e-18
-3.87316775e-18
-5.18343876e-18
-9.83216557e-18
-8.46031042e-18
-6.51247898e-18
-4.18555352e-18
-2.48154118e-18
1.98290096e-18
4.23253961e-18
7.65582637e-18
9.36529887e-18
1.247024e-17
1.2121824e-17
1.00673409e-17
7.47303476e-18
3.36834597e-18
-4.2586509e-19
-4.08013521e-18
-8.45180849e-18
-1.10457066e-17
-1.40841504e-17
-1.90568527e-17
-2.21071152e-17
-2.60002733e-17
-2.92800757e-17
-3.05996598e-17
-3.27591269e-17
-3.45480881e-17
-3.61173764e-17
-3.73619265e-17
-3.88160751e-17
-3.86077413e-17
-3.92749716e-17
-4.03196564e-17
-4.16407684e-17
-4.26192969e-17
-4.34129825e-17
-4.40652911e-17
-4.50781249e-17
-4.65952362e-17
-4.70590913e-17
-5.00594344e-17
-5.14153938e-17
-5.27210168e-17
-5.41906196e-17
-5.57645328e-17
-5.63531418e-17
-5.75701744e-17
-5.7053084e-17
-5.96837458e-17
-6.02772489e-17
-6.06894309e-17
-6.18940877e-17
-6.21628148e-17
-6.36662515e-17
-6.35223315e-17
-6.55905799e-17
-6.68462031e-17
-6.64097329e-17
-6.32748568e-17
-6.59206477e-17
-6.92124705e-17
-7.1309069e-17
-6.96873008e-17
-6.72850174e-17
-7.00198307e-17
-7.14320537e-17
-7.29054713e-17
-7.11198101e-17
-6.98893234e-17
-6.9731221e-17
-7.03101369e-17
-7.1382521e-17
-7.21973983e-17
-7.25051323e-17
-7.28817442e-17
-7.69050654e-17
-7.39144422e-17
-7.48620775e-17
-7.13658222e-17
-6.97580855e-17
-6.81181753e-17
-6.67845935e-17
-6.78670211e-17
-6.77923191e-17
-7.06490537e-17
-6.98049803e-17
-7.03912478e-17
-7.12980771e-17
-7.59931417e-17
-7.49846449e-17
-7.84022212e-17
-7.69501875e-17
-7.6652261e-17
-7.81521075e-17
-8.16744412e-17
-7.95826358e-17
-8.13017923e-17
-7.99725368e-17
-7.99915331e-17
-8.42717755e-17
-8.30424025e-17
-8.27432566e-17
-8.39648193e-17
-8.55871403e-17
-8.6763811e-17
-8.85855848e-17
-8.46846123e-17
-8.7904854e-17
-8.79069177e-17
-8.65489742e-17
-8.97054697e-17
-9.22909246e-17
-8.90133713e-17
-9.10335169e-17
-9.2280538e-17
-9.1161884e-17
-9.04638872e-17
-9.21840879e-17
-9.28011554e-17
-9.06567888e-17
-9.0682318e-17
-8.79631288e-17
-9.08654173e-17
-8.95466363e-17
-9.102206e-17
-9.02531298e-17
-8.67923286e-17
-8.75798728e-17
-8.58668326e-17
-8.70412637e-17
-8.78938465e-17
-9.00366954e-17
-8.812503e-17
-8.67547471e-17
-8.82887775e-17
-8.62644996e-17
-8.70843081e-17
-8.84350573e-17
-8.71530877e-17
-8.83734367e-17
-9.27659244e-17
-9.0733199e-17
-9.05877174e-17
-9.28125389e-17
-9.33178647e-17
-9.28933374e-17
-9.16320683e-17
-9.32101987e-17
-9.69070272e-17
-9.90823564e-17
-9.8932186e-17
-1.00500453e-16
-9.99250349e-17
-9.96034816e-17
-1.00372926e-16
-9.98346693e-17
-1.03061688e-16
-1.0179599e-16
-1.03396665e-16
-1.00772494e-16
-1.03289203e-16
-1.07141035e-16
-1.04655339e-16
-1.03246858e-16
-9.99643909e-17
-1.02565816e-16
-1.03362019e-16
-1.02836999e-16
-1.05365066e-16
-1.01466785e-16
-1.05789452e-16
-1.04845967e-16
-1.05112961e-16
-1.05964143e-16
-1.0297786e-16
-1.04491888e-16
-1.01869523e-16
-1.01668756e-16
-1.02969752e-16
-1.0401716e-16
-1.02341711e-16
-1.03106204e-16
-1.04137179e-16
-1.05980987e-16
-1.06025154e-16
-1.05764084e-16
-1.0809781e-16
-1.10816139e-16
-1.08650876e-16
-1.07885785e-16
-1.09470538e-16
-1.09416438e-16
-1.09191224e-16
-1.11885143e-16
-1.13137901e-16
-1.12324704e-16
-1.11389865e-16
-1.13111869e-16
-1.1192529e-16
-1.08746426e-16
-1.10256113e-16
-1.09518698e-16
-1.12488649e-16
-1.10709196e-16
-1.10607683e-16
-1.09655053e-16
-1.09738885e-16
-1.09523738e-16
-1.08095335e-16
-1.08351103e-16
-1.08475456e-16
-1.09473183e-16
-1.07877861e-16
-1.0646149e-16
-1.04900724e-16
-1.06743769e-16
-1.08806343e-16
-1.06220378e-16
-1.02949922e-16
-1.03926208e-16
-1.04362262e-16
-1.04903444e-16
-1.07693575e-16
-1.09245615e-16
-1.10156276e-16
-1.11139857e-16
-1.11924407e-16
-1.0885814e-16
-1.1245983e-16
-1.12325605e-16
-1.15032789e-16
-1.18086357e-16
-1.17337887e-16
-1.18090498e-16
-1.16180862e-16
-1.20739207e-16
-1.2104065e-16
-1.20846755e-16
-1.23372153e-16
-1.23427887e-16
-1.2411352e-16
-1.24490816e-16
-1.29773059e-16
-1.25649132e-16
-1.26647239e-16
-1.28825595e-16
-1.29128161e-16
-1.34069034e-16
-1.32466583e-16
-1.31698152e-16
-1.32764388e-16
-1.31687863e-16
-1.32906161e-16
-1.28610284e-16
-1.27788841e-16
-1.24834768e-16
-1.26134153e-16
-1.26286372e-16
-1.29858068e-16
-1.28940876e-16
-1.28143847e-16
-1.29168494e-16
-1.26998435e-16
-1.29537912e-16
-1.29401715e-16
-1.33603777e-16
-1.31563809e-16
-1.32050064e-16
-1.290932e-16
-1.29239923e-16
-1.31678067e-16
-1.30998336e-16
-1.33460128e-16
-1.33029449e-16
-1.31915196e-16
-1.33970654e-16
-1.37622853e-16
-1.37556815e-16
-1.39294904e-16
-1.36730664e-16
-1.35682012e-16
-1.37255092e-16
-1.37097754e-16
-1.37208728e-16
-1.38181548e-16
-1.35677376e-16
-1.37292686e-16
-1.38148452e-16
-1.40925689e-16
-1.38298764e-16
-1.40155947e-16
-1.42247555e-16
-1.42495032e-16
-1.3771923e-16
-1.38960391e-16
-1.35912418e-16
-1.3742649e-16
-1.35679002e-16
-1.34392458e-16
-1.3502628e-16
-1.30412999e-16
-1.293549e-16
-1.27738389e-16
-1.25907648e-16
-1.24008871e-16
-1.24786952e-16
-1.26663272e-16
-1.25508934e-16
-1.22703568e-16
-1.22124095e-16
-1.24413644e-16
-1.23056237e-16
-1.21392709e-16
-1.21845082e-16
-1.23656013e-16
-1.20216603e-16
-1.23337542e-16
-1.24428864e-16
-1.22471179e-16
-1.22242965e-16
-1.21926097e-16
-1.22539909e-16
-1.24056208e-16
-1.23182953e-16
-1.20253065e-16
-1.19318443e-16
-1.17850421e-16
-1.18214977e-16
-1.20082158e-16
-1.24804725e-16
-1.24270028e-16
-1.25776949e-16
-1.24762895e-16
-1.23707781e-16
-1.21458353e-16
-1.19463044e-16
-1.16752632e-16
-1.13186629e-16
-1.0946321e-16
-1.10791981e-16
-1.10843411e-16
-1.11252774e-16
-1.10605216e-16
-1.13532313e-16
-1.1237138e-16
-1.1275651e-16
-1.12366028e-16
-1.12009281e-16
-1.13110594e-16
-1.12649164e-16
-1.1226336e-16
-1.11016848e-16
-1.10038822e-16
-1.10578763e-16
-1.05990072e-16
-1.08420679e-16
-1.06811114e-16
-1.04361881e-16
-1.05736914e-16
-1.05923645e-16
-1.05346444e-16
-1.03553104e-16
-9.60713022e-17
-9.83007234e-17
-9.78420311e-17
-9.89585967e-17
-1.01680083e-16
-9.96467135e-17
-1.03576312e-16
-1.03411436e-16
-9.96591834e-17
-1.00626868e-16
-9.70475891e-17
-9.67256529e-17
-9.70089312e-17
-9.87952986e-17
-9.64978938e-17
-9.52426735e-17
-9.5543213e-17
-9.32631262e-17
-9.36241964e-17
-9.37547528e-17
-9.4890222e-17
-9.3683418e-17
-9.34659068e-17
-9.67958255e-17
-9.32392333e-17
-9.21437429e-17
-9.10897968e-17
-9.17733321e-17
-8.81140232e-17
-8.83131944e-17
-8.50856735e-17
-8.81038098e-17
-8.73443072e-17
-8.83710031e-17
-8.90523903e-17
-8.8685946e-17
-8.6989029e-17
-8.63405245e-17
-8.40222579e-17
-8.26164144e-17
-8.32172829e-17
-8.45262379e-17
-8.48403545e-17
-8.181064e-17
-8.2499824e-17
-8.34224212e-17
-8.33898695e-17
-8.16905589e-17
-8.11473888e-17
-8.32289683e-17
-8.06387055e-17
-7.89587419e-17
-7.93414448e-17
-7.84882865e-17
-7.99508159e-17
-8.02030352e-17
-8.02662336e-17
-8.22777138e-17
-8.22416446e-17
-8.22079126e-17
-8.34316431e-17
-8.5317442e-17
-8.84241764e-17
-8.57395814e-17
-8.28133347e-17
-8.44771352e-17
-8.38348219e-17
-8.46395108e-17
-8.18452617e-17
-8.25295096e-17
-7.96941983e-17
-8.12632907e-17
-7.80241211e-17
-7.71865431e-17
-7.60739576e-17
-7.55318499e-17
-7.23171419e-17
-7.51059965e-17
-7.42537038e-17
-7.64490036e-17
-7.55173659e-17
-7.61985151e-17
-7.49399642e-17
-7.45892053e-17
-7.56832511e-17
-7.54294112e-17
-7.34501694e-17
-7.12358109e-17
-7.40109566e-17
-7.39391833e-17
-7.49648111e-17
-7.23675213e-17
-7.3258252e-17
-7.05999998e-17
-7.53659653e-17
-7.511152e-17
-7.54646317e-17
-7.50985102e-17
-7.64920952e-17
-7.35893738e-17
-6.94363238e-17
-6.989686e-17
-6.94102176e-17
-6.82832027e-17
-6.68730707e-17
-6.43540983e-17
-6.16745672e-17
-6.24106069e-17
-6.10392308e-17
-5.81452065e-17
-5.71538692e-17
-5.60019902e-17
-5.58178191e-17
-5.40460576e-17
-5.22461849e-17
-5.3900866e-17
-5.83528559e-17
-5.5278033e-17
-5.34686216e-17
-5.63631265e-17
-5.21777792e-17
-5.13612199e-17
-5.03153693e-17
-5.06036085e-17
-5.1551734e-17
-5.08041753e-17
-5.17355332e-17
-4.99749968e-17
-4.88373809e-17
-4.7760268e-17
-4.79183491e-17
-4.52388872e-17
-4.75387707e-17
-4.33135773e-17
-4.31568658e-17
-4.41179544e-17
-4.35496461e-17
-4.10883939e-17
-4.09927357e-17
-3.87758001e-17
-3.89500864e-17
-4.03916554e-17
-3.80806112e-17
-4.27050497e-17
-3.98350905e-17
-4.09886616e-17
-3.98316979e-17
-3.95391087e-17
-3.60998963e-17
-3.50678499e-17
-3.51800155e-17
-3.37838045e-17
-3.30316102e-17
-3.3679197e-17
-3.18519612e-17
-3.45857767e-17
-3.39486588e-17
-3.04401507e-17
-3.05338786e-17
-3.22098613e-17
-3.24080866e-17
-3.04686119e-17
-2.94466264e-17
-3.05328846e-17
-2.97020252e-17
-2.46358699e-17
-2.41191545e-17
-2.34794722e-17
-2.3176256e-17
-1.95965858e-17
-1.73505916e-17
-1.48801405e-17
-1.47075483e-17
-1.29708793e-17
-1.10813323e-17
-1.23369434e-17
-1.04563445e-17
-1.03716677e-17
-8.00884975e-18
-8.57300495e-18
-9.89234519e-18
-6.76610628e-18
-4.45066536e-18
-2.50785973e-18
-1.75199084e-18
-2.71321724e-19
-2.8481641e-18
-2.51250312e-18
1.9740686e-19
3.45465124e-18
2.89226894e-18
3.2684862e-18
7.26173436e-18
4.67216185e-18
6.52239118e-18
3.21946597e-18
1.51101421e-18
4.71141479e-18
3.53263308e-18
7.62895732e-18
7.65756336e-18
1.03111541e-17
9.78677249e-18
1.00709546e-17
1.27252556e-17
1.14606937e-17
9.41536735e-18
1.03970953e-17
6.72457848e-18
6.53533883e-18
6.62104959e-18
6.48049631e-18
7.76194561e-18
5.13716335e-18
4.27930006e-18
6.54490123e-18
6.55291452e-18
8.6549278e-18
1.13128859e-17
8.04084186e-18
1.27809648e-17
1.14302999e-17
1.11327337e-17
8.73993112e-18
8.87439112e-18
1.04797174e-17
1.05547046e-17
9.27130859e-18
1.04658045e-17
8.60881391e-18
1.00900475e-17
6.88292451e-18
7.07660846e-18
9.57226402e-18
1.07100038e-17
1.05029782e-17
1.02319738e-17
8.78197329e-18
9.66081555e-18
9.22733879e-18
1.21463211e-17
9.97350395e-18
8.98627537e-18
9.1190219e-18
1.08318415e-17
1.14146256e-17
1.3159727e-17
1.24726767e-17
9.14446434e-18
8.70256488e-18
1.32410222e-17
1.0409806e-17
1.17061365e-17
1.28482172e-17
1.24366974e-17
1.58219649e-17
1.79219422e-17
1.5542569e-17
1.37726501e-17
1.12118318e-17
1.36271223e-17
1.17765563e-17
1.28617161e-17
1.6019046e-17
1.48904344e-17
1.39337207e-17
1.52894079e-17
1.71412518e-17
1.44803258e-17
1.81660714e-17
1.74305661e-17
1.89671321e-17
1.79465258e-17
2.12752426e-17
2.10607038e-17
2.41273724e-17
2.55957683e-17
2.36731471e-17
2.65198881e-17
2.70889996e-17
2.71715775e-17
2.58634573e-17
2.78176053e-17
3.06068137e-17
3.09691322e-17
2.94284335e-17
3.05522413e-17
3.06574356e-17
2.81731177e-17
3.15321e-17
3.01101808e-17
3.09616918e-17
3.27446939e-17
3.4082169e-17
3.4019035e-17
3.45841928e-17
3.5555087e-17
3.62890126e-17
3.59361301e-17
4.00765812e-17
4.21184514e-17
4.05060333e-17
4.32580718e-17
4.2644984e-17
4.46205726e-17
4.35065728e-17
4.70333485e-17
4.95533726e-17
5.1978438e-17
5.28469273e-17
5.09734556e-17
4.92745861e-17
4.80341677e-17
4.3926694e-17
4.47390876e-17
4.55112095e-17
4.54808129e-17
4.52741323e-17
4.47914351e-17
4.60538436e-17
4.6931442e-17
4.31075672e-17
4.29000381e-17
4.67962529e-17
4.84116649e-17
4.47032165e-17
4.3758182e-17
4.43472733e-17
4.78076339e-17
5.03726906e-17
4.72369269e-17
4.64725168e-17
4.91302644e-17
5.20012908e-17
4.91240087e-17
5.08678239e-17
4.90310345e-17
5.01835414e-17
4.53618384e-17
4.56112303e-17
4.96247858e-17
4.95998448e-17
4.81298535e-17
4.52729957e-17
4.33437341e-17
4.62235752e-17
4.77110285e-17
4.73605953e-17
4.98057753e-17
5.23771878e-17
5.39281784e-17
5.63709885e-17
5.17339952e-17
5.45267403e-17
5.58966547e-17
5.38710291e-17
5.33990225e-17
5.01583313e-17
4.82611362e-17
4.32704178e-17
4.23009633e-17
4.68355391e-17
4.67405481e-17
4.96118482e-17
5.05040055e-17
5.13786087e-17
4.85617408e-17
4.80888214e-17
4.77882269e-17
4.82948124e-17
4.93286849e-17
4.98925656e-17
4.74682074e-17
4.84255151e-17
4.55436403e-17
4.59280761e-17
4.61729552e-17
4.68561473e-17
4.51030767e-17
4.50662902e-17
4.33442688e-17
4.51247431e-17
4.82102385e-17
4.91211844e-17
4.77074962e-17
5.08205921e-17
5.00990064e-17
5.20088797e-17
5.48731951e-17
5.27972061e-17
5.43519678e-17
5.14810187e-17
5.36473384e-17
5.16447351e-17
5.28054985e-17
5.17982382e-17
5.09492018e-17
5.08145973e-17
5.31322492e-17
5.17195561e-17
5.00476633e-17
5.48201994e-17
5.1193381e-17
5.66412863e-17
5.67692321e-17
5.92696401e-17
6.07994306e-17
6.41005994e-17
6.72910934e-17
6.58944828e-17
6.25670249e-17
6.19374616e-17
6.01926456e-17
6.17436304e-17
6.05270612e-17
5.90180081e-17
5.75073672e-17
5.54102881e-17
5.89822432e-17
5.56285386e-17
5.76268807e-17
5.5421775e-17
5.87688314e-17
5.6442831e-17
5.67042653e-17
5.70449555e-17
6.0182598e-17
5.77910607e-17
5.83667991e-17
5.97275388e-17
5.38732377e-17
5.31397795e-17
5.46900504e-17
5.43974486e-17
5.39626001e-17
5.33691163e-17
5.72893401e-17
5.75010512e-17
5.82118102e-17
6.19159359e-17
6.01637845e-17
6.05901438e-17
6.1116675e-17
6.10123115e-17
5.99903227e-17
6.03859897e-17
5.80520045e-17
5.54077887e-17
5.74119424e-17
5.88097798e-17
6.02233457e-17
5.84440889e-17
5.48930391e-17
5.69412131e-17
5.71500109e-17
5.69019963e-17
5.75050441e-17
5.87378107e-17
5.91933069e-17
6.1678172e-17
6.13955286e-17
6.07261183e-17
6.0223518e-17
6.08534296e-17
6.35357142e-17
6.52652353e-17
6.73830083e-17
7.17490502e-17
6.9284167e-17
6.82157282e-17
6.97553979e-17
6.86601728e-17
7.33328114e-17
7.57416572e-17
7.49166022e-17
7.28868225e-17
7.15887246e-17
6.9907474e-17
7.00711563e-17
7.0744014e-17
6.84799876e-17
6.77332556e-17
6.88578565e-17
7.03047654e-17
6.87555917e-17
7.04547041e-17
6.84712452e-17
7.06259515e-17
7.28919259e-17
7.43931444e-17
7.32979479e-17
7.41858416e-17
7.44133826e-17
7.24151852e-17
7.33938767e-17
7.27183249e-17
7.68450204e-17
7.42200426e-17
7.32890412e-17
7.29277573e-17
7.0901471e-17
7.04868788e-17
7.03206948e-17
6.70580878e-17
6.94657507e-17
6.79288846e-17
7.04267355e-17
7.04358489e-17
6.83445709e-17
6.87858627e-17
6.76749095e-17
6.82553414e-17
6.51545777e-17
6.36032931e-17
6.48611745e-17
6.32974906e-17
6.12319234e-17
6.35690947e-17
6.08434615e-17
6.33557434e-17
6.54059956e-17
6.45289234e-17
6.5050271e-17
6.18229729e-17
6.26426204e-17
6.10375012e-17
6.20312235e-17
6.32506164e-17
6.62544493e-17
6.55608086e-17
6.21501545e-17
6.53443403e-17
6.2324051e-17
6.34672655e-17
6.52061297e-17
6.42410441e-17
6.48567476e-17
6.22874292e-17
6.11572368e-17
6.22358555e-17
5.97321527e-17
5.9635931e-17
6.0342452e-17
5.99488398e-17
5.9155317e-17
5.73521892e-17
5.22593985e-17
5.17769222e-17
5.47709392e-17
5.28913596e-17
5.73285877e-17
5.70693954e-17
5.86483504e-17
5.74830078e-17
5.88725272e-17
6.15610245e-17
6.21787632e-17
6.31362613e-17
6.56854583e-17
6.74323034e-17
6.611252e-17
6.65179095e-17
6.61767893e-17
6.60716951e-17
6.80042389e-17
6.80034324e-17
6.49852437e-17
6.68601599e-17
6.89283529e-17
6.73662755e-17
6.58269139e-17
6.57490344e-17
6.55317455e-17
6.8031392e-17
6.59020173e-17
6.43542374e-17
6.26140541e-17
6.47423427e-17
6.59176637e-17
6.34661226e-17
6.77765597e-17
6.76934768e-17
6.94304608e-17
7.04007137e-17
6.83870941e-17
6.77705618e-17
6.35412725e-17
6.49123773e-17
6.23126501e-17
6.12509127e-17
6.16351783e-17
6.33151094e-17
6.53224693e-17
6.526358e-17
6.44619642e-17
6.44298548e-17
6.46053613e-17
6.56233081e-17
6.7485157e-17
6.48925581e-17
6.53366447e-17
6.72516002e-17
6.63797302e-17
6.49981232e-17
6.32916123e-17
6.33519101e-17
6.36106395e-17
6.09336637e-17
6.28222473e-17
6.19083981e-17
5.96884715e-17
5.89098369e-17
5.52666968e-17
5.45089496e-17
5.62704404e-17
5.23909333e-17
5.11464276e-17
4.94911739e-17
4.6564015e-17
4.95962444e-17
4.42071e-17
4.51202109e-17
4.33518978e-17
4.34815565e-17
4.07286015e-17
4.06191271e-17
3.94823072e-17
4.14615488e-17
4.09120788e-17
3.83505111e-17
3.3057149e-17
3.52786005e-17
3.54579133e-17
3.24227282e-17
3.23842781e-17
3.2139951e-17
3.13488969e-17
3.00903137e-17
2.93228338e-17
3.09162237e-17
3.18563901e-17
3.46315446e-17
3.30758748e-17
3.34287944e-17
3.28598497e-17
3.5268501e-17
3.51906586e-17
3.29134692e-17
3.14275818e-17
2.78379055e-17
2.67310934e-17
2.70012221e-17
2.52784049e-17
2.51165694e-17
2.71098523e-17
2.19240217e-17
2.41096293e-17
2.44969048e-17
2.70986853e-17
2.90467179e-17
2.75523941e-17
2.77507852e-17
2.7112699e-17
3.05527907e-17
2.82025581e-17
2.67826783e-17
2.79770324e-17
2.36912219e-17
2.05480764e-17
2.09277184e-17
2.11956094e-17
2.3834326e-17
2.44490521e-17
2.31794645e-17
2.54835691e-17
2.24944522e-17
2.16177571e-17
1.83486355e-17
1.94516557e-17
1.73253307e-17
1.74174224e-17
1.46804471e-17
9.57671009e-18
1.01774153e-17
7.45472398e-18
9.83944605e-18
6.17694492e-18
7.38710742e-18
8.90033327e-18
4.82871662e-18
5.87734505e-18
5.38998207e-18
3.7066111e-18
-1.07382593e-18
-3.55508838e-19
-3.28037115e-18
-2.93938724e-18
-1.09366774e-18
-3.6116491e-18
-5.89340325e-18
-1.27391417e-18
-3.49347461e-18
-1.94538325e-18
-2.18611091e-18
-1.77775261e-18
-3.3681286e-18
-2.29610324e-18
-6.16345536e-18
-4.68279106e-18
-8.46506847e-18
-1.0486943e-17
-1.11278564e-17
-1.26023628e-17
-1.35180629e-17
-1.06519692e-17
-1.13984873e-17
-1.5119841e-17
-1.49247438e-17
-1.6707146e-17
-1.39987155e-17
-1.44188771e-17
-1.42098907e-17
-1.69364781e-17
-1.86122222e-17
-2.1425405e-17
-2.11060853e-17
-2.37170882e-17
-1.89583584e-17
-1.9932575e-17
-2.08297375e-17
-2.26942525e-17
-2.29917616e-17
-2.2390171e-17
-2.17449516e-17
-2.20808426e-17
-2.66822651e-17
-2.74867155e-17
-2.85872991e-17
-2.85619462e-17
-2.57175103e-17
-2.79147003e-17
-2.6227482e-17
-2.36956448e-17
-2.73570131e-17
-2.3378171e-17
-2.51092993e-17
-2.66290643e-17
-2.81231987e-17
-2.81427555e-17
-3.00518153e-17
-2.56734594e-17
-2.65928981e-17
-2.86870007e-17
-2.67051524e-17
-2.29922685e-17
-2.80354429e-17
-2.50362044e-17
-2.51651919e-17
-2.48949704e-17
-2.59873518e-17
-2.25016746e-17
-2.4905363e-17
-2.50394269e-17
-2.63568908e-17
-3.00391332e-17
-3.00125479e-17
-2.93071158e-17
-3.07693872e-17
-2.89750193e-17
-2.86991172e-17
-2.68743849e-17
-2.69644101e-17
-2.72937022e-17
-3.08856322e-17
-3.50466957e-17
-3.47129356e-17
-3.72643366e-17
-3.91017978e-17
-4.15207417e-17
-4.0837117e-17
-4.03625655e-17
-3.98919068e-17
-4.3029823e-17
-4.53137147e-17
-4.16167569e-17
-4.43362499e-17
-4.75851047e-17
-4.82441563e-17
-4.81871921e-17
-4.79229729e-17
-4.76164771e-17
-4.71003706e-17
-4.64938265e-17
-4.87537658e-17
-4.8020166e-17
-5.07503136e-17
-5.61541614e-17
-5.80244988e-17
-5.68150405e-17
-5.36215248e-17
-5.73995242e-17
-5.9578997e-17
-5.63656354e-17
-6.02520201e-17
-5.7737541e-17
-6.24426085e-17
-5.71034937e-17
-5.94093908e-17
-5.82869162e-17
-5.71541246e-17
-6.05018162e-17
-5.80794913e-17
-5.86215017e-17
-5.77630177e-17
-5.69883505e-17
-5.56294851e-17
-5.789878e-17
-6.1395866e-17
-5.77496389e-17
-6.14253835e-17
-5.91112778e-17
-6.121604e-17
-6.01796018e-17
-5.88884505e-17
-6.17013198e-17
-5.6154597e-17
-5.74936374e-17
-5.90747807e-17
-6.15645993e-17
-6.16728132e-17
-6.13726639e-17
-6.01906505e-17
-6.45333023e-17
-6.59785269e-17
-6.91548995e-17
-6.80005356e-17
-7.11322525e-17
-7.349559e-17
-7.47064013e-17
-7.39634539e-17
-7.49183703e-17
-7.43435907e-17
-7.20768352e-17
-7.40092326e-17
-7.72049888e-17
-7.46924368e-17
-7.64338247e-17
-7.6147879e-17
-7.76893577e-17
-7.68278105e-17
-7.28070944e-17
-7.4798406e-17
-7.39934051e-17
-7.43016782e-17
-7.42055837e-17
-7.66908443e-17
-7.83054081e-17
-7.97539571e-17
-7.76820267e-17
-7.69998474e-17
-8.18855719e-17
-7.71357627e-17
-7.82386832e-17
-7.56500551e-17
-7.66701661e-17
-7.28797577e-17
-7.66823181e-17
-7.35304368e-17
-7.6002378e-17
-7.68349488e-17
-7.34327423e-17
-7.42994455e-17
-7.57832041e-17
-7.61271549e-17
-7.8776122e-17
-7.91867702e-17
-8.16966124e-17
-8.05195484e-17
-8.18178558e-17
-8.17414678e-17
-7.90669262e-17
-7.85317564e-17
-7.81664811e-17
-7.86544983e-17
-8.21036759e-17
-7.81953015e-17
-8.04508195e-17
-7.80016579e-17
-7.7711269e-17
-7.53298446e-17
-7.83148132e-17
-7.72827355e-17
-7.9022081e-17
-7.85347968e-17
-7.98395557e-17
-7.70434516e-17
-7.54003448e-17
-7.74268189e-17
-7.60333969e-17
-7.82599943e-17
-7.70107223e-17
-7.93481747e-17
-8.00235741e-17
-8.04293961e-17
-8.17003595e-17
-8.27456908e-17
-8.02201283e-17
-7.94360551e-17
-7.82776791e-17
-7.58843969e-17
-7.75525736e-17
-7.84835723e-17
-7.76396765e-17
-7.87139649e-17
-7.82621601e-17
-7.82240797e-17
-7.95526932e-17
-8.06665091e-17
-7.97007116e-17
-8.05356393e-17
-8.00535743e-17
-8.05157546e-17
-8.2265602e-17
-7.64923256e-17
-8.03598701e-17
-8.00023663e-17
-7.95903397e-17
-7.7744916e-17
-8.00072031e-17
-8.07128429e-17
-7.72733709e-17
-7.87118653e-17
-7.72657839e-17
-7.98357037e-17
-7.43234626e-17
-7.42326188e-17
-7.57586696e-17
-7.40972025e-17
-7.43293166e-17
-7.61072363e-17
-7.16868271e-17
-7.52303547e-17
-7.40611813e-17
-7.46362146e-17
-7.17676717e-17
-7.26450642e-17
-7.15298686e-17
-7.3012073e-17
-6.9263602e-17
-6.85556535e-17
-7.25022697e-17
-7.17209682e-17
-7.11091618e-17
-6.9831247e-17
-6.8041458e-17
-6.82290611e-17
-6.65934309e-17
-6.69081701e-17
-6.67741848e-17
-6.55200547e-17
-6.75698898e-17
-6.65871076e-17
-6.33458563e-17
-6.44176477e-17
-6.72099652e-17
-6.79712511e-17
-6.27743815e-17
-6.52169991e-17
-6.61162634e-17
-6.64350101e-17
-6.67263535e-17
-6.66782462e-17
-6.79104748e-17
-6.71414638e-17
-6.73208427e-17
-6.47878114e-17
-6.65477921e-17
-6.75725569e-17
-6.92020349e-17
-6.28758093e-17
-6.2224294e-17
-6.07192435e-17
-5.92949604e-17
-5.62128953e-17
-5.50264471e-17
-5.71380947e-17
-5.53841674e-17
-5.59508652e-17
-5.82035622e-17
-5.73556869e-17
-5.82173367e-17
-5.71442099e-17
-5.62826337e-17
-6.14645737e-17
-5.70313993e-17
-6.15060223e-17
-6.08521016e-17
-6.13467662e-17
-6.12773563e-17
-6.11235072e-17
-6.277667e-17
-6.15050735e-17
-6.09501084e-17
-6.14253066e-17
-6.11545737e-17
-5.91807258e-17
-6.05662236e-17
-5.77908977e-17
-5.83837287e-17
-5.63307341e-17
-5.64951832e-17
-5.64597895e-17
-5.48391825e-17
-5.56637517e-17
-5.63722984e-17
-5.59648801e-17
-5.31021439e-17
-5.19808576e-17
-5.1810261e-17
-5.12564305e-17
-5.17058606e-17
-5.32130348e-17
-5.18736937e-17
-5.30519777e-17
-5.37865024e-17
-5.30385056e-17
-5.19865911e-17
-4.84068133e-17
-4.93246394e-17
-4.93578279e-17
-5.00008437e-17
-4.89128027e-17
-4.81605761e-17
-4.9547495e-17
-4.9930482e-17
-4.85454503e-17
-5.04876041e-17
-4.53495813e-17
-4.51238503e-17
-4.70783651e-17
-4.6798752e-17
-4.74009012e-17
-4.9129604e-17
-4.68162465e-17
-4.7066587e-17
-4.73156848e-17
-5.0082174e-17
-5.11407344e-17
-5.0711382e-17
-4.73155398e-17
-4.63892114e-17
-4.7606882e-17
-4.87998225e-17
-4.95159739e-17
-5.14269997e-17
-5.37090897e-17
-5.26801612e-17
-5.17811792e-17
-5.11532815e-17
-5.11351062e-17
-5.05829209e-17
-4.78397965e-17
-4.88845861e-17
-4.83028507e-17
-4.78629935e-17
-4.72388872e-17
-4.62749885e-17
-4.79653373e-17
-4.38582609e-17
-4.69382864e-17
-4.78251679e-17
-4.79096504e-17
-5.16484039e-17
-5.05248827e-17
-4.91878867e-17
-4.72807119e-17
-4.83993827e-17
-4.65864902e-17
-4.72163976e-17
-4.53069996e-17
-4.73546584e-17
-4.5222996e-17
-4.58226484e-17
-4.44482654e-17
-4.54083757e-17
-4.84900514e-17
-4.4160002e-17
-4.9305375e-17
-4.87842844e-17
-5.29122069e-17
-5.3684332e-17
-5.14634462e-17
-5.02315561e-17
-5.11016589e-17
-5.15216235e-17
-4.81682675e-17
-4.71382518e-17
-4.39968591e-17
-4.70748732e-17
-4.60789065e-17
-4.72458702e-17
-4.71627125e-17
-4.44478711e-17
-4.61900224e-17
-4.64508776e-17
-4.55175903e-17
-4.78711576e-17
-4.6263268e-17
-4.33975176e-17
-4.24676581e-17
-4.28926732e-17
-3.93458901e-17
-4.05996875e-17
-3.7477641e-17
-3.49943249e-17
-3.7285252e-17
-3.57750006e-17
-3.52006213e-17
-3.38501697e-17
-3.05236052e-17
-3.22783692e-17
-2.9146785e-17
-2.94249544e-17
-3.01938537e-17
-2.84600409e-17
-2.88624807e-17
-2.84186826e-17
-2.89191764e-17
-3.21099794e-17
-3.09246225e-17
-3.11733356e-17
-2.92495841e-17
-2.74763127e-17
-2.35243258e-17
-2.09745123e-17
-1.9312111e-17
-1.67514751e-17
-2.06588302e-17
-1.7602156e-17
-1.80762849e-17
-1.67133785e-17
-1.53590636e-17
-1.61921183e-17
-1.60803454e-17
-1.5058422e-17
-1.6166445e-17
-1.40824949e-17
-1.29539698e-17
-1.16352527e-17
-9.90168637e-18
-4.67926995e-18
-7.63564662e-18
-6.39121421e-18
-5.79626568e-18
-5.27494994e-18
-2.5280478e-18
-2.93056307e-18
-1.81888073e-18
-6.05179234e-18
-7.33516393e-18
-3.56374718e-18
-1.42366662e-18
1.43046619e-18
1.59394974e-19
3.49384526e-18
4.33697576e-18
3.473794e-18
4.42238649e-18
9.38139309e-18
1.44909551e-17
1.33104532e-17
1.62721393e-17
1.83462225e-17
2.03396733e-17
2.22676664e-17
2.73222747e-17
3.1286493e-17
3.32924993e-17
3.38135674e-17
3.45351126e-17
3.30068897e-17
3.83854153e-17
4.13795759e-17
4.24499151e-17
4.76208832e-17
5.03771415e-17
5.37504726e-17
5.32471343e-17
5.83796103e-17
6.30149822e-17
6.79858837e-17
7.24560295e-17
7.94545417e-17
8.41845529e-17
9.71316688e-17
9.95506283e-17
1.0562093e-16
1.15450943e-16
1.19277373e-16
1.2921406e-16
1.39860019e-16
1.46305718e-16
1.59191685e-16
1.70146158e-16
1.8214528e-16
1.91779403e-16
2.0707304e-16
2.20022941e-16
2.38272257e-16
2.55336441e-16
2.70103521e-16
2.97503255e-16
3.15566362e-16
3.36444559e-16
3.63745885e-16
3.93406398e-16
4.2071094e-16
4.50455303e-16
4.85144347e-16
5.20476908e-16
5.55077998e-16
5.9830874e-16
6.39529389e-16
6.91078243e-16
7.40717127e-16
7.93852106e-16
8.54017843e-16
9.204198e-16
9.88144003e-16
1.06312038e-15
1.13976793e-15
1.22441945e-15
1.31758535e-15
1.41283134e-15
1.52171824e-15
1.63075125e-15
1.75179646e-15
1.88068325e-15
2.01839354e-15
2.16599156e-15
2.33227362e-15
2.50274398e-15
2.68548401e-15
2.88355448e-15
3.09537597e-15
3.32343229e-15
3.5697403e-15
3.82905356e-15
4.10937022e-15
4.41071473e-15
4.73086895e-15
5.08255195e-15
5.45200368e-15
5.84956059e-15
6.27245616e-15
6.72970787e-15
7.21896319e-15
7.74661305e-15
8.30644531e-15
8.91011286e-15
9.55902755e-15
1.02474463e-14
1.09887294e-14
1.17776056e-14
1.26287056e-14
1.35387605e-14
1.45082238e-14
1.55474179e-14
1.66599204e-14
1.78531574e-14
1.91311074e-14
2.04930329e-14
2.19559952e-14
2.35158605e-14
2.51846157e-14
2.69712801e-14
2.88801489e-14
3.09239715e-14
3.31106787e-14
3.54497885e-14
3.79495316e-14
4.06149382e-14
4.34692248e-14
4.65182379e-14
4.97794806e-14
5.32684188e-14
5.69857961e-14
6.09663606e-14
6.52123051e-14
6.9748028e-14
7.45889037e-14
7.97646483e-14
8.52920252e-14
9.118447e-14
9.74794221e-14
1.0419892e-13
1.1137233e-13
1.19025386e-13
1.27191446e-13
1.35905273e-13
1.45203113e-13
1.55117946e-13
1.65693761e-13
1.76976386e-13
1.89005698e-13
2.01831975e-13
2.15508688e-13
2.30084472e-13
2.45624436e-13
2.62187358e-13
2.79839401e-13
2.9864791e-13
3.18683593e-13
3.40037196e-13
3.62775847e-13
3.8699633e-13
4.12793832e-13
4.40266648e-13
4.69516796e-13
5.00654602e-13
5.33804912e-13
5.69089628e-13
6.06644053e-13
6.4660075e-13
6.89125496e-13
7.34362008e-13
7.82486511e-13
8.33676297e-13
8.88118482e-13
9.46017867e-13
1.00757834e-12
1.07303215e-12
1.14261605e-12
1.21657382e-12
1.29518879e-12
1.37872147e-12
1.46748539e-12
1.56179604e-12
1.66198418e-12
1.76840156e-12
1.88142749e-12
2.00145928e-12
2.12891313e-12
2.26423446e-12
2.40787985e-12
2.56036051e-12
2.72219244e-12
2.8939314e-12
3.07615368e-12
3.26948186e-12
3.47457183e-12
3.69210868e-12
3.92281988e-12
4.16748089e-12
4.42689218e-12
4.70191718e-12
4.993458e-12
5.3024694e-12
5.62995212e-12
5.9769743e-12
6.34465543e-12
6.73417185e-12
7.14678042e-12
7.58379082e-12
8.04658371e-12
8.53662432e-12
9.05544956e-12
9.60468053e-12
1.01860313e-11
1.08012974e-11
1.14523712e-11
1.21412593e-11
1.28700584e-11
1.36409881e-11
1.44563749e-11
1.53186712e-11
1.62304606e-11
1.7194463e-11
1.82135335e-11
1.92906808e-11
2.04290627e-11
2.16320055e-11
2.29030059e-11
2.42457349e-11
2.56640649e-11
2.71620411e-11
2.87439399e-11
3.04142332e-11
3.21776376e-11
3.40390846e-11
3.60037672e-11
3.80771381e-11
4.02649124e-11
4.25730938e-11
4.50079842e-11
4.75761909e-11
5.02846433e-11
5.31406149e-11
5.61517278e-11
5.93259842e-11
6.2671754e-11
6.61978326e-11
6.99134143e-11
7.38281528e-11
7.79521479e-11
8.22959792e-11
8.68707384e-11
9.16880218e-11
9.67599818e-11
1.0209933e-10
1.07719377e-10
1.13634043e-10
1.19857888e-10
1.26406151e-10
1.33294763e-10
1.40540377e-10
1.481604e-10
1.56173036e-10
1.64597305e-10
1.7345307e-10
1.82761096e-10
1.92543049e-10
2.02821569e-10
2.13620289e-10
2.24963879e-10
2.36878083e-10
2.49389758e-10
2.62526933e-10
2.76318836e-10
2.90795949e-10
3.05990054e-10
3.21934283e-10
3.38663159e-10
3.56212662e-10
3.74620286e-10
3.93925065e-10
4.14167662e-10
4.35390406e-10
4.57637381e-10
4.80954441e-10
5.05389325e-10
5.30991677e-10
5.57813148e-10
5.85907444e-10
6.15330405e-10
6.46140075e-10
6.78396784e-10
7.12163198e-10
7.47504446e-10
7.84488144e-10
8.23184521e-10
8.63666471e-10
9.0600966e-10
9.50292622e-10
9.96596797e-10
1.04500669e-09
1.09560993e-09
1.14849735e-09
1.20376312e-09
1.26150482e-09
1.32182356e-09
1.38482406e-09
1.45061477e-09
1.51930799e-09
1.59101994e-09
1.66587089e-09
1.74398531e-09
1.82549191e-09
1.9105238e-09
1.9992186e-09
2.09171856e-09
2.18817067e-09
2.28872679e-09
2.39354376e-09
2.50278354e-09
2.61661332e-09
2.73520564e-09
2.85873855e-09
2.98739568e-09
3.12136642e-09
3.26084602e-09
3.40603573e-09
3.55714291e-09
3.71438118e-09
3.87797055e-09
4.04813751e-09