/*--------------------------------*- C++ -*----------------------------------*\
| =========                 |                                                 |
| \\      /  F ield         | OpenFOAM: The Open Source CFD Toolbox           |
|  \\    /   O peration     | Version:  2206                                  |
|   \\  /    A nd           | Website:  www.openfoam.com                      |
|    \\/     M anipulation  |                                                 |
\*---------------------------------------------------------------------------*/
FoamFile
{
    version     2.0;
    format      ascii;
    arch        "LSB;label=32;scalar=64";
    class       volScalarField;
    location    "1.74e-05";
    object      PVsourcePV;
}
// * * * * * * * * * * * * * * * * * * * * * * * * * * * * * * * * * * * * * //

dimensions      [1 -3 -1 0 0 0 0];

internalField   nonuniform List<scalar> 
3183
(
0
0
0
0
0
0
0
0
0
0
0
0
0
0
0
0
0
0
0
0
0
0
0
0
0
0
0
0
0
0
0
0
0
0
0
0
0
0
0
0
0
0
0
0
0
0
0
0
0
0
0
0
0
0
0
0
0
0
0
0
0
0
0
0
0
0
0
0
0
0
0
0
0
0
0
0
0
0
0
0
0
0
0
0
0
0
0
0
0
0
0
0
0
0
0
0
0
0
0
0
0
0
0
0
0
0
0
0
0
0
0
0
0
0
0
0
0
0
0
0
0
0
0
0
0
0
0
0
0
0
0
0
0
0
0
0
0
0
0
0
0
0
0
0
0
0
0
0
0
0
0
0
0
0
0
0
0
0
0
0
0
0
0
0
0
0
0
0
0
0
0
0
0
0
0
0
0
0
0
0
0
0
0
0
0
0
0
0
0
0
0
0
0
0
0
0
0
0
0
0
0
0
0
0
0
0
0
0
0
0
0
0
0
0
0
0
0
0
0
0
0
0
0
0
0
0
0
0
0
0
0
0
0
0
0
0
0
0
0
0
0
0
0
0
0
0
0
0
0
0
0
0
0
0
0
0
0
0
0
0
0
0
0
0
0
0
0
0
0
0
0
0
0
0
0
0
0
0
0
0
0
0
0
0
0
0
0
0
0
0
0
0
0
0
0
0
0
0
0
0
0
0
0
0
0
0
0
0
0
0
0
0
0
0
0
0
0
0
0
0
0
0
0
0
0
0
0
0
0
0
0
0
0
0
0
0
0
0
0
0
0
0
0
0
0
0
0
0
0
0
0
0
0
0
0
0
0
0
0
0
0
0
0
0
0
0
0
0
0
0
0
0
0
0
0
0
0
0
0
0
0
0
0
0
0
0
0
0
0
0
0
0
0
0
0
0
0
0
0
0
0
0
0
0
0
0
0
0
0
0
0
0
0
0
0
0
0
0
0
0
0
0
0
0
0
0
0
0
0
0
0
0
0
0
0
0
0
0
0
0
0
0
0
0
0
0
0
0
0
0
0
0
0
0
0
0
0
0
0
0
0
0
0
0
0
0
0
0
0
0
0
0
0
0
0
0
0
0
0
0
0
0
0
0
0
0
0
0
0
0
0
0
0
0
0
0
0
0
0
0
0
0
0
0
0
0
0
0
0
0
0
0
0
0
0
0
0
0
0
0
0
0
0
0
0
0
0
0
0
0
0
0
0
0
0
0
0
0
0
0
0
0
0
0
0
0
0
0
0
0
0
0
0
0
0
0
0
0
0
0
0
0
0
0
0
0
0
0
0
0
0
0
0
0
0
0
0
0
0
0
0
0
0
0
0
0
0
0
0
0
0
0
0
0
0
0
0
0
0
0
0
0
0
0
0
0
0
0
0
0
0
0
0
0
0
0
0
0
0
0
0
0
0
0
0
0
0
0
0
0
0
0
0
0
0
0
0
0
0
0
0
0
0
0
0
0
0
0
0
0
0
0
0
0
0
0
0
0
0
0
0
0
0
0
0
0
0
0
0
0
0
0
0
0
0
0
0
0
0
0
0
0
0
0
0
0
0
0
0
0
0
0
0
0
0
0
0
0
0
0
0
0
0
0
0
0
0
0
0
0
0
0
0
0
0
0
0
0
0
0
0
0
0
0
0
0
0
0
0
0
0
0
0
0
0
0
0
0
0
0
0
0
0
0
0
0
0
0
0
0
0
0
0
0
0
0
0
0
0
0
0
0
0
0
0
0
0
0
0
0
0
0
0
0
0
0
0
0
0
0
0
0
0
0
0
0
0
0
0
0
0
0
0
0
0
0
0
0
0
0
0
0
0
0
0
0
0
0
0
0
0
0
0
0
0
0
0
0
0
0
0
0
0
0
0
0
0
0
0
0
0
0
0
0
0
0
0
0
0
0
0
0
0
0
0
0
0
0
0
0
0
0
0
0
0
0
0
0
0
0
0
0
0
0
0
0
0
0
0
0
0
0
0
0
0
0
0
0
0
0
0
0
0
0
0
0
0
0
0
0
0
0
0
0
0
0
0
0
0
0
0
0
0
0
0
0
0
0
0
0
0
0
0
0
0
0
0
0
0
0
0
0
0
0
0
0
0
0
0
0
0
0
0
0
0
0
0
0
0
0
0
0
0
0
0
0
0
0
0
0
0
0
0
0
0
0
0
0
0
0
0
0
0
0
0
0
0
0
0
0
0
0
0
0
0
0
0
0
0
0
0
0
0
0
0
0
0
0
0
0
0
0
0
0
0
0
0
0
0
0
0
0
0
0
0
0
0
0
0
0
0
0
0
0
0
0
0
0
0
0
0
0
0
0
0
0
0
0
0
0
0
0
0
0
0
0
0
0
0
0
0
0
0
0
0
0
0
0
0
0
0
0
0
0
0
0
0
0
0
0
0
0
0
0
0
0
0
0
0
0
0
0
0
0
0
0
0
0
0
0
0
0
0
0
0
0
0
0
0
0
0
0
0
0
0
0
0
0
0
0
0
0
0
0
0
0
0
0
0
0
0
0
0
0
0
0
0
0
0
0
0
0
0
0
0
0
0
0
0
0
0
0
0
0
0
0
0
0
0
0
0
0
0
0
0
0
0
0
0
0
0
0
0
0
0
0
0
0
0
0
0
0
0
0
0
0
0
0
0
0
0
0
0
0
0
0
0
0
0
0
0
0
0
0
0
0
0
0
0
0
0
0
0
0
0
0
0
0
0
0
0
0
0
0
0
0
0
0
0
0
0
0
0
0
0
0
0
0
0
0
0
0
0
0
0
0
0
0
0
0
0
0
0
0
0
0
0
0
0
0
0
0
0
0
0
0
0
0
0
0
0
0
0
0
0
0
0
0
0
0
0
0
0
0
0
0
0
0
0
0
0
0
0
0
0
0
0
0
0
0
0
0
0
0
0
0
0
0
0
0
0
0
0
0
0
0
0
0
0
0
0
0
0
0
0
0
0
0
0
0
0
0
0
0
0
0
0
0
0
0
0
0
0
0
0
0
0
0
0
0
0
0
0
0
0
0
0
0
0
0
0
0
0
0
0
0
0
0
0
0
0
0
0
0
0
0
0
0
0
0
0
0
0
0
0
0
0
0
0
0
0
0
0
0
0
0
0
0
0
0
0
0
0
0
0
0
0
0
0
0
0
0
0
0
0
0
0
0
0
0
0
0
0
0
0
0
0
0
0
0
0
0
0
0
0
0
0
0
0
0
0
0
0
0
0
0
0
0
0
0
0
0
0
0
0
0
0
0
0
0
0
0
0
0
0
0
0
0
0
0
0
0
0
0
0
0
0
0
0
0
0
0
0
0
0
0
0
0
0
0
0
0
0
0
0
0
0
0
0
0
0
0
0
0
0
0
0
0
0
0
0
0
0
0
0
0
0
0
0
0
0
0
0
0
0
0
0
0
0
0
0
0
0
0
0
0
0
0
0
0
0
0
0
0
0
0
0
0
0
0
0
0
0
0
0
0
0
0
0
0
0
0
0
0
0
0
0
0
0
0
0
0
0
0
0
0
0
0
0
0
0
0
0
0
0
0
0
0
0
0
0
0
0
0
0
0
0
0
0
0
0
0
0
0
0
0
0
0
0
0
0
0
0
0
0
0
0
0
0
0
0
0
0
0
0
0
0
0
0
0
0
0
0
0
0
0
0
0
0
0
0
0
0
0
0
0
0
0
0
0
0
0
0
0
0
0
0
0
0
0
0
0
0
0
0
0
0
0
0
0
0
0
0
0
0
0
0
0
0
0
0
0
0
0
0
0
0
0
0
0
0
0
0
0
0
0
0
0
0
0
0
0
0
0
0
0
0
0
0
0
0
0
0
0
0
0
0
0
0
0
0
0
0
0
0
0
0
0
0
0
0
0
0
0
0
0
0
0
0
0
0
0
0
0
0
0
0
0
0
0
0
0
0
0
0
0
0
0
0
0
0
0
0
0
0
0
0
0
0
0
0
0
0
0
0
0
0
0
0
0
0
0
0
0
0
0
0
0
0
0
0
0
0
0
0
0
0
0
0
0
0
0
0
0
0
0
0
0
0
0
0
0
0
0
0
0
0
0
0
0
0
0
0
0
0
0
0
0
0
0
0
0
0
0
0
0
0
0
0
0
0
0
0
0
0
0
0
0
0
0
0
0
0
0
0
0
0
0
0
0
0
0
0
0
0
0
0
0
0
0
0
0
0
0
0
0
0
0
0
0
0
0
0
0
0
0
0
0
0
0
0
0
0
0
0
0
0
0
0
0
0
0
0
0
0
0
0
0
0
0
0
0
0
0
0
0
0
0
0
0
0
0
0
0
0
0
0
0
0
0
0
0
0
0
0
0
0
0
0
0
0
0
0
0
0
0
0
0
0
0
0
0
0
0
0
0
0
0
0
0
0
0
0
0
0
0
0
0
0
0
0
0
0
0
0
0
0
0
0
0
0
0
0
0
0
0
0
0
0
0
0
0
0
0
0
0
0
0
0
0
0
0
0
0
0
0
0
0
0
0
0
0
0
0
0
0
0
0
0
0
0
0
0
0
0
0
0
0
0
0
0
0
0
0
0
0
0
0
0
0
0
0
0
0
0
0
0
0
0
0
0
0
0
0
0
0
0
0
0
0
0
0
0
0
0
0
0
0
0
0
0
0
0
0
0
0
0
0
0
0
0
0
0
0
0
0
0
0
0
0
0
0
0
0
0
0
0
0
0
0
0
0
0
0
0
0
0
0
0
0
0
0
0
0
0
0
0
0
0
0
0
0
0
0
0
0
0
0
0
0
0
0
0
0
0
0
0
0
0
0
0
0
0
0
0
0
0
0
0
0
0
0
0
0
0
0
0
0
0
0
0
0
0
0
0
0
0
0
0
0
0
0
0
0
0
0
0
0
0
0
0
0
0
0
0
0
0
0
0
0
0
0
0
0
0
0
0
0
0
0
0
0
0
0
0
0
0
0
0
0
0
0
0
0
0
0
0
0
0
0
0
0
0
0
0
0
0
0
0
0
0
0
0
0
0
0
0
0
0
0
0
0
0
0
0
0
0
0
0
0
0
0
0
0
0
0
0
0
0
0
0
0
0
0
0
0
0
0
0
0
0
0
0
0
0
0
0
0
0
0
0
0
0
0
0
0
0
0
0
0
0
0
0
0
0
0
0
0
0
0
0
0
0
0
0
0
0
0
0
0
0
0
0
0
0
0
0
0
0
0
0
0
0
0
0
0
0
0
0
0
0
0
0
0
0
0
0
0
0
0
0
0
0
0
0
0
0
0
0
0
0
0
0
0
0
0
0
0
0
0
0
0
0
0
0
0
0
0
0
0
0
0
0
0
0
0
0
0
0
7.49767459e-300
3.79607673e-300
3.87901826e-297
1.98336748e-297
1.98857175e-294
1.02672231e-294
1.01013602e-291
5.26599371e-292
5.08430936e-289
2.67597413e-289
2.53566202e-286
1.34726769e-286
1.25300046e-283
6.72027346e-284
6.1348528e-281
3.32108798e-281
2.97606276e-278
1.62603192e-278
1.4303964e-275
7.88687454e-276
6.81142303e-273
3.78998443e-273
3.21348692e-270
1.80429562e-270
1.50197233e-267
8.50747384e-268
6.95477157e-265
3.97525e-265
3.19027065e-262
1.83993511e-262
1.44971762e-259
8.43765716e-260
6.52585425e-257
3.83126675e-257
2.90988308e-254
1.72314546e-254
1.28523746e-251
7.67620698e-252
5.62270913e-249
3.38689705e-249
2.43638705e-246
1.48003685e-246
1.04560741e-243
6.40533907e-244
4.4442169e-241
2.74532548e-241
1.87071585e-238
1.16522537e-238
7.79807415e-236
4.89747042e-236
3.21894846e-233
2.03826246e-233
1.31573116e-230
8.39952095e-231
5.32506954e-228
3.42715636e-228
2.13386059e-225
1.38444682e-225
8.46576491e-223
5.53679759e-223
3.32507644e-220
2.19208377e-220
1.2928474e-217
8.59106363e-218
4.97596234e-215
3.33274581e-215
1.89567591e-212
1.27966438e-212
7.14792987e-210
4.86296046e-210
2.66745201e-207
1.82888851e-207
9.85106035e-205
6.80652643e-205
3.60004695e-202
2.50659688e-202
1.30178668e-199
9.13338575e-200
4.65740961e-197
3.29256185e-197
1.64849363e-194
1.17423813e-194
5.7720802e-192
4.1424998e-192
1.99913633e-189
1.44549158e-189
6.84823771e-187
4.98857721e-187
2.32007274e-184
1.70257323e-184
7.77265339e-182
5.7459431e-182
2.57477333e-179
1.91734472e-179
8.43269185e-177
6.32525183e-177
2.7302657e-174
2.06275636e-174
8.73790472e-172
6.64909617e-172
2.7639102e-169
2.11822544e-169
8.63979632e-167
6.66845359e-167
2.66865769e-164
2.07428333e-164
8.14398391e-162
6.37449301e-162
2.45515241e-159
1.93508667e-159
7.31068769e-157
5.80193455e-157
2.14988246e-154
1.71791255e-154
6.24286684e-152
5.02251167e-152
1.78978156e-149
1.44965926e-149
5.06516708e-147
4.13015963e-147
1.41479601e-144
1.16131978e-144
3.89965251e-142
3.22215362e-142
1.06050523e-139
8.82007943e-140
2.84494742e-137
2.38149617e-137
7.52708252e-135
6.34153604e-135
1.96373632e-132
1.66501768e-132
5.05071896e-130
4.30955134e-130
1.28039055e-127
1.09935842e-127
3.19854632e-125
2.76338755e-125
7.87193018e-123
6.84284178e-123
1.90818839e-120
1.6688446e-120
4.55471278e-118
4.00744661e-118
1.07024638e-115
9.47272142e-116
2.47495646e-113
2.2035066e-113
5.63098968e-111
5.04264336e-111
1.26009021e-108
1.13493811e-108
2.77254276e-106
2.51139742e-106
5.9960846e-104
5.46185954e-104
1.27413673e-101
1.16705848e-101
2.6592627e-99
2.44911459e-99
5.44920544e-97
5.04567215e-97
1.09585413e-94
1.02009936e-94
2.16187838e-92
2.02297217e-92
4.18186215e-90
3.93333963e-90
7.92789713e-88
7.49455846e-88
1.4722245e-85
1.39868725e-85
2.67659548e-83
2.55534172e-83
4.76140337e-81
4.5675237e-81
8.28259334e-79
7.98270875e-79
1.40797779e-76
1.36324735e-76
2.33735248e-74
2.27327775e-74
3.78645297e-72
3.69880537e-72
5.98108736e-70
5.86753032e-70
9.20454495e-68
9.06690055e-68
1.37882185e-65
1.36350877e-65
2.00852687e-63
1.993321e-63
2.84222669e-61
2.82900755e-61
3.90268861e-59
3.89108435e-59
5.19357905e-57
5.17432671e-57
6.68956194e-55
6.63768857e-55
8.3279029e-53
8.20708361e-53
1.00045274e-50
9.80960147e-51
1.15774673e-48
1.15719697e-48
1.28790514e-46
1.28331454e-46
1.37489994e-44
1.36496539e-44
1.40502622e-42
1.39000109e-42
1.37087005e-40
1.35184004e-40
1.27333867e-38
1.25386379e-38
1.12226673e-36
1.10066671e-36
9.35090014e-35
9.34973417e-35
7.33209817e-33
7.32614715e-33
5.38651416e-31
5.37394435e-31
3.6854786e-29
3.66681934e-29
2.33261817e-27
2.31269592e-27
1.35465484e-25
1.33936284e-25
7.14743189e-24
7.06772354e-24
3.3843097e-22
3.35625804e-22
1.41589558e-20
1.4061399e-20
5.12902143e-19
5.12933616e-19
1.56446389e-17
1.56333088e-17
3.86326032e-16
3.86228919e-16
1.22062994e-14
1.21586183e-14
1.54186871e-10
1.5449474e-10
0.00263156424
0.011882863
0.456257813
0.570767617
0.721045979
0.666980068
0.276793199
0.230636656
0.0522797424
0.0422618345
0.0113439413
0.0101970293
0.00247968737
0.00230742187
0.000486634743
0.000469662145
8.77079853e-05
8.70756142e-05
1.52547721e-05
1.52593064e-05
2.9423364e-06
2.94402624e-06
9.93159449e-07
9.94218252e-07
7.07443928e-07
7.07528761e-07
6.68136164e-07
6.6813517e-07
6.63040902e-07
6.63042898e-07
6.62422341e-07
6.62423435e-07
6.62350493e-07
6.62351915e-07
6.62342139e-07
6.62344317e-07
6.62341951e-07
6.62342094e-07
6.62342039e-07
6.62340875e-07
6.62342602e-07
6.62341459e-07
6.62342319e-07
6.62341842e-07
6.62342928e-07
6.62341441e-07
6.62343027e-07
6.62341935e-07
6.62342937e-07
6.62342289e-07
6.62343083e-07
6.62342574e-07
6.62343025e-07
6.6234231e-07
6.62343254e-07
6.62342267e-07
6.62342019e-07
6.62344022e-07
6.62341423e-07
6.62342836e-07
6.62342345e-07
6.62342346e-07
6.62341617e-07
6.62342216e-07
6.62341386e-07
6.62342316e-07
6.62341437e-07
6.62343085e-07
6.62341308e-07
6.623428e-07
6.62341331e-07
6.62342022e-07
6.62341786e-07
6.62342552e-07
6.62341277e-07
6.6234333e-07
6.62341258e-07
6.6234349e-07
6.62341933e-07
6.62342878e-07
6.6234231e-07
6.62341706e-07
6.62342195e-07
6.62341706e-07
6.62342701e-07
6.62341905e-07
6.62342221e-07
6.62341867e-07
6.6234268e-07
6.62341052e-07
6.62344146e-07
6.62341102e-07
6.62343383e-07
6.62341735e-07
6.62343713e-07
6.62341217e-07
6.6234319e-07
6.62342013e-07
6.62342895e-07
6.62342444e-07
6.62343132e-07
6.62341836e-07
6.62342786e-07
6.62341983e-07
6.6234182e-07
6.62343399e-07
6.62341544e-07
6.6234235e-07
6.62342328e-07
6.62341782e-07
6.6234231e-07
6.62342257e-07
6.62341638e-07
6.62342222e-07
6.62341843e-07
6.62342673e-07
6.6234088e-07
6.62343357e-07
6.6234125e-07
6.62343831e-07
6.62341069e-07
6.62343878e-07
6.62340844e-07
6.6234257e-07
6.62342683e-07
6.62343023e-07
6.62341737e-07
6.62343795e-07
6.62341784e-07
6.62343345e-07
6.6234292e-07
6.62342878e-07
6.62343256e-07
6.62343439e-07
6.62342623e-07
6.62344026e-07
6.62342469e-07
6.62343312e-07
6.62342248e-07
6.62342823e-07
6.62342318e-07
6.62342036e-07
6.62341987e-07
6.62342703e-07
6.6234148e-07
6.62342323e-07
6.62341125e-07
6.62343441e-07
6.62341726e-07
6.6234181e-07
6.62343895e-07
6.62340711e-07
6.62343657e-07
6.62341542e-07
6.62343328e-07
6.62342509e-07
6.62343096e-07
6.62341487e-07
6.62343188e-07
6.62341321e-07
6.62344098e-07
6.62341365e-07
6.62344637e-07
6.62341556e-07
6.623446e-07
6.6234192e-07
6.62342621e-07
6.62342932e-07
6.62342518e-07
6.62341178e-07
6.62342624e-07
6.62341736e-07
6.62341992e-07
6.62343278e-07
6.62341144e-07
6.62344461e-07
6.62344618e-07
6.62366666e-07
6.62368388e-07
6.62560545e-07
6.62558725e-07
6.62366963e-07
6.62367238e-07
6.62344825e-07
6.62343789e-07
6.62342473e-07
6.62343022e-07
6.62342311e-07
6.62342874e-07
6.62342491e-07
6.623435e-07
6.62341498e-07
6.62343757e-07
6.62342351e-07
6.62343046e-07
6.62342365e-07
6.62343028e-07
6.62341894e-07
6.6234305e-07
6.62341921e-07
6.62343878e-07
6.62341575e-07
6.62344422e-07
6.62341311e-07
6.6234413e-07
6.62341959e-07
6.62342767e-07
6.62342641e-07
6.62343475e-07
6.62342837e-07
6.62343333e-07
6.62342908e-07
6.62343381e-07
6.62342176e-07
6.62343376e-07
6.62342641e-07
6.62343129e-07
6.62342707e-07
6.62342458e-07
6.62343378e-07
6.62342643e-07
6.62342672e-07
6.62342339e-07
6.62343777e-07
6.62341982e-07
6.62342482e-07
6.62344096e-07
6.62341209e-07
6.62343591e-07
6.62343044e-07
6.62342831e-07
6.62343608e-07
6.62342818e-07
6.62342708e-07
6.62342956e-07
6.62343591e-07
6.62343204e-07
6.62343416e-07
6.62343038e-07
6.62343193e-07
6.62343389e-07
6.62344354e-07
6.62341892e-07
6.62344983e-07
6.62341258e-07
6.62344433e-07
6.62341793e-07
6.62343571e-07
6.6234243e-07
6.62342162e-07
6.62343651e-07
6.62342521e-07
6.62342926e-07
6.62342675e-07
6.62343754e-07
6.62343007e-07
6.62341955e-07
6.62343766e-07
6.62342676e-07
6.6234377e-07
6.62343453e-07
6.62343534e-07
6.62343231e-07
6.62342559e-07
6.62343203e-07
6.62341618e-07
6.62343576e-07
6.62342226e-07
6.62343256e-07
6.62342112e-07
6.62344255e-07
6.62341365e-07
6.62343404e-07
6.62343255e-07
6.62342796e-07
6.62343724e-07
6.62342938e-07
6.62343064e-07
6.62343529e-07
6.62342295e-07
6.62343534e-07
6.62342688e-07
6.62342908e-07
6.62342518e-07
6.62343055e-07
6.62342505e-07
6.62342749e-07
6.62343259e-07
6.62342858e-07
6.62343242e-07
6.62343355e-07
6.62343204e-07
6.62343856e-07
6.62341707e-07
6.62342694e-07
6.62343183e-07
6.62342659e-07
6.62343451e-07
6.62343973e-07
6.62343387e-07
6.62343635e-07
6.62343837e-07
6.62343635e-07
6.62343489e-07
6.62342882e-07
6.62343718e-07
6.62343137e-07
6.62342748e-07
6.62342136e-07
6.62344155e-07
6.62341506e-07
6.62344041e-07
6.62341965e-07
6.62343643e-07
6.62343146e-07
6.62342859e-07
6.62343791e-07
6.62342841e-07
6.62344037e-07
6.6234185e-07
6.62343972e-07
6.62341108e-07
6.62344414e-07
6.62342416e-07
6.623447e-07
6.62342519e-07
6.62342867e-07
6.6234349e-07
6.62343838e-07
6.6234321e-07
6.62343663e-07
6.62342673e-07
6.62343458e-07
6.62342922e-07
6.62343293e-07
6.62343116e-07
6.62343235e-07
6.62344008e-07
6.62342919e-07
6.62343196e-07
6.62343534e-07
6.62344263e-07
6.62343339e-07
6.62343663e-07
6.62344086e-07
6.62343341e-07
6.62343193e-07
6.62343639e-07
6.62343607e-07
6.62342725e-07
6.62343983e-07
6.62343497e-07
6.62343215e-07
6.62343152e-07
6.62342428e-07
6.62343216e-07
6.62343595e-07
6.62342824e-07
6.6234384e-07
6.62342992e-07
6.62343035e-07
6.62343565e-07
6.62343598e-07
6.62343457e-07
6.62343439e-07
6.6234287e-07
6.62343884e-07
6.62343002e-07
6.62344432e-07
6.62342905e-07
6.62344076e-07
6.62343523e-07
6.62343927e-07
6.62343356e-07
6.62344784e-07
6.62343052e-07
6.62344084e-07
6.62343356e-07
6.62344276e-07
6.62343683e-07
6.62343681e-07
6.6234325e-07
6.62343955e-07
6.62343369e-07
6.62344147e-07
6.62343411e-07
6.6234279e-07
6.62344591e-07
6.62341912e-07
6.62343957e-07
6.62342594e-07
6.62343816e-07
6.62343294e-07
6.62343424e-07
6.62344001e-07
6.62343812e-07
6.62343147e-07
6.62343906e-07
6.62343285e-07
6.62343819e-07
6.62343662e-07
6.62343494e-07
6.62342693e-07
6.62344778e-07
6.62341438e-07
6.62344892e-07
6.62341932e-07
6.62344764e-07
6.62343427e-07
6.62343179e-07
6.62343866e-07
6.62344003e-07
6.62344013e-07
6.62343437e-07
6.62343249e-07
6.62343964e-07
6.62343601e-07
6.6234391e-07
6.62344106e-07
6.62344717e-07
6.62343707e-07
6.6234437e-07
6.62343043e-07
6.62345351e-07
6.62343011e-07
6.62344957e-07
6.62343525e-07
6.62344432e-07
6.62343363e-07
6.62343898e-07
6.62343942e-07
6.62344113e-07
6.62344234e-07
6.62344068e-07
6.62344681e-07
6.62343062e-07
6.62345216e-07
6.6234319e-07
6.62344496e-07
6.62344166e-07
6.62343688e-07
6.62344632e-07
6.62342887e-07
6.62344514e-07
6.62343663e-07
6.6234425e-07
6.62343801e-07
6.62344284e-07
6.62343981e-07
6.62344057e-07
6.62343974e-07
6.62344014e-07
6.62343895e-07
6.62343176e-07
6.62343609e-07
6.62344358e-07
6.62343789e-07
6.62343499e-07
6.62343894e-07
6.6234427e-07
6.62343848e-07
6.62343784e-07
6.6234337e-07
6.62344587e-07
6.62343161e-07
6.62345613e-07
6.62344306e-07
6.62344472e-07
6.62343758e-07
6.62345046e-07
6.62343026e-07
6.62344201e-07
6.62343174e-07
6.62343558e-07
6.62343892e-07
6.62344442e-07
6.62343802e-07
6.62344969e-07
6.62344003e-07
6.62343499e-07
6.62343818e-07
6.62343943e-07
6.623438e-07
6.62344443e-07
6.62343447e-07
6.62343915e-07
6.62343882e-07
6.62343214e-07
6.6234402e-07
6.62343208e-07
6.62344932e-07
6.6234315e-07
6.62346138e-07
6.62343041e-07
6.62345443e-07
6.62342418e-07
6.62345284e-07
6.6234345e-07
6.62344049e-07
6.62343964e-07
6.62344195e-07
6.62344437e-07
6.62344073e-07
6.62344553e-07
6.62344066e-07
6.62343011e-07
6.62345047e-07
6.62343563e-07
6.62344187e-07
6.62344394e-07
6.62344243e-07
6.62343777e-07
6.62344148e-07
6.62344021e-07
6.62344255e-07
6.62344044e-07
6.62344213e-07
6.62344434e-07
6.62344066e-07
6.62344109e-07
6.62344395e-07
6.62344278e-07
6.62344369e-07
6.62344185e-07
6.62344393e-07
6.62344231e-07
6.62344355e-07
6.62344395e-07
6.62344459e-07
6.62344424e-07
6.62344479e-07
6.62344609e-07
6.62344623e-07
6.62344578e-07
6.62344708e-07
6.62344764e-07
6.62344762e-07
6.62344847e-07
6.62344925e-07
6.62345048e-07
6.62345086e-07
6.62345177e-07
6.62345294e-07
6.62345368e-07
6.623455e-07
6.62345663e-07
6.62345821e-07
6.62345952e-07
6.62346193e-07
6.6234642e-07
6.62346692e-07
6.62347008e-07
6.62347327e-07
6.62347664e-07
6.62348002e-07
6.62348278e-07
6.62348462e-07
6.62348579e-07
6.62348659e-07
6.62348729e-07
6.6234872e-07
6.62348746e-07
6.62348747e-07
6.62348739e-07
6.62348752e-07
6.62348749e-07
6.62348734e-07
6.62348765e-07
6.6234873e-07
6.62348732e-07
6.62348736e-07
6.62348739e-07
6.62348737e-07
6.62348737e-07
6.62348742e-07
6.62348735e-07
6.62348725e-07
6.62348758e-07
)
;

boundaryField
{
    closed
    {
        type            calculated;
        value           uniform 0;
    }
    open
    {
        type            calculated;
        value           uniform 0;
    }
    sides
    {
        type            empty;
    }
}


// ************************************************************************* //
