/*--------------------------------*- C++ -*----------------------------------*\
| =========                 |                                                 |
| \\      /  F ield         | OpenFOAM: The Open Source CFD Toolbox           |
|  \\    /   O peration     | Version:  2206                                  |
|   \\  /    A nd           | Website:  www.openfoam.com                      |
|    \\/     M anipulation  |                                                 |
\*---------------------------------------------------------------------------*/
FoamFile
{
    version     2.0;
    format      ascii;
    arch        "LSB;label=32;scalar=64";
    class       volScalarField;
    location    "1.74e-05";
    object      rho;
}
// * * * * * * * * * * * * * * * * * * * * * * * * * * * * * * * * * * * * * //

dimensions      [1 -3 0 0 0 0 0];

internalField   nonuniform List<scalar> 
3183
(
1.03926466
1.03926466
1.03926466
1.03926466
1.03926466
1.03926466
1.03926466
1.03926466
1.03926466
1.03926466
1.03926466
1.03926466
1.03926466
1.03926466
1.03926466
1.03926466
1.03926466
1.03926466
1.03926466
1.03926466
1.03926466
1.03926466
1.03926466
1.03926466
1.03926466
1.03926466
1.03926466
1.03926466
1.03926466
1.03926466
1.03926466
1.03926466
1.03926466
1.03926466
1.03926466
1.03926466
1.03926466
1.03926466
1.03926466
1.03926466
1.03926466
1.03926466
1.03926466
1.03926466
1.03926466
1.03926466
1.03926466
1.03926466
1.03926466
1.03926466
1.03926466
1.03926466
1.03926466
1.03926466
1.03926466
1.03926466
1.03926466
1.03926466
1.03926466
1.03926466
1.03926466
1.03926466
1.03926466
1.03926466
1.03926466
1.03926466
1.03926466
1.03926466
1.03926466
1.03926466
1.03926466
1.03926466
1.03926466
1.03926466
1.03926466
1.03926466
1.03926466
1.03926466
1.03926466
1.03926466
1.03926466
1.03926466
1.03926466
1.03926466
1.03926466
1.03926466
1.03926466
1.03926466
1.03926466
1.03926466
1.03926466
1.03926466
1.03926466
1.03926466
1.03926466
1.03926466
1.03926466
1.03926466
1.03926466
1.03926466
1.03926466
1.03926466
1.03926466
1.03926466
1.03926466
1.03926466
1.03926466
1.03926466
1.03926466
1.03926466
1.03926466
1.03926466
1.03926466
1.03926466
1.03926466
1.03926466
1.03926466
1.03926466
1.03926466
1.03926466
1.03926466
1.03926466
1.03926466
1.03926466
1.03926466
1.03926466
1.03926466
1.03926466
1.03926466
1.03926466
1.03926466
1.03926466
1.03926466
1.03926466
1.03926466
1.03926466
1.03926466
1.03926466
1.03926466
1.03926466
1.03926466
1.03926466
1.03926466
1.03926466
1.03926466
1.03926466
1.03926466
1.03926466
1.03926466
1.03926466
1.03926466
1.03926466
1.03926466
1.03926466
1.03926466
1.03926466
1.03926466
1.03926466
1.03926466
1.03926466
1.03926466
1.03926466
1.03926466
1.03926466
1.03926466
1.03926466
1.03926466
1.03926466
1.03926466
1.03926466
1.03926466
1.03926466
1.03926466
1.03926466
1.03926466
1.03926466
1.03926466
1.03926466
1.03926466
1.03926466
1.03926466
1.03926466
1.03926466
1.03926466
1.03926466
1.03926466
1.03926466
1.03926466
1.03926466
1.03926466
1.03926466
1.03926466
1.03926466
1.03926466
1.03926466
1.03926466
1.03926466
1.03926466
1.03926466
1.03926466
1.03926466
1.03926466
1.03926466
1.03926466
1.03926466
1.03926466
1.03926466
1.03926466
1.03926466
1.03926466
1.03926466
1.03926466
1.03926466
1.03926466
1.03926466
1.03926466
1.03926466
1.03926466
1.03926466
1.03926466
1.03926466
1.03926466
1.03926466
1.03926466
1.03926466
1.03926466
1.03926466
1.03926466
1.03926466
1.03926466
1.03926466
1.03926466
1.03926466
1.03926466
1.03926466
1.03926466
1.03926466
1.03926466
1.03926466
1.03926466
1.03926466
1.03926466
1.03926466
1.03926466
1.03926466
1.03926466
1.03926466
1.03926466
1.03926466
1.03926466
1.03926466
1.03926466
1.03926466
1.03926466
1.03926466
1.03926466
1.03926466
1.03926466
1.03926466
1.03926466
1.03926466
1.03926466
1.03926466
1.03926466
1.03926466
1.03926466
1.03926466
1.03926466
1.03926466
1.03926466
1.03926466
1.03926466
1.03926466
1.03926466
1.03926466
1.03926466
1.03926466
1.03926466
1.03926466
1.03926466
1.03926466
1.03926466
1.03926466
1.03926466
1.03926466
1.03926466
1.03926466
1.03926466
1.03926466
1.03926466
1.03926466
1.03926466
1.03926466
1.03926466
1.03926466
1.03926466
1.03926466
1.03926466
1.03926466
1.03926466
1.03926466
1.03926466
1.03926466
1.03926466
1.03926466
1.03926466
1.03926466
1.03926466
1.03926466
1.03926466
1.03926466
1.03926466
1.03926466
1.03926466
1.03926466
1.03926466
1.03926466
1.03926466
1.03926466
1.03926466
1.03926466
1.03926466
1.03926466
1.03926466
1.03926466
1.03926466
1.03926466
1.03926466
1.03926466
1.03926466
1.03926466
1.03926466
1.03926466
1.03926466
1.03926466
1.03926466
1.03926466
1.03926466
1.03926466
1.03926466
1.03926466
1.03926466
1.03926466
1.03926466
1.03926466
1.03926466
1.03926466
1.03926466
1.03926466
1.03926466
1.03926466
1.03926466
1.03926466
1.03926466
1.03926466
1.03926466
1.03926466
1.03926466
1.03926466
1.03926466
1.03926466
1.03926466
1.03926466
1.03926466
1.03926466
1.03926466
1.03926466
1.03926466
1.03926466
1.03926466
1.03926466
1.03926466
1.03926466
1.03926466
1.03926466
1.03926466
1.03926466
1.03926466
1.03926466
1.03926466
1.03926466
1.03926466
1.03926466
1.03926466
1.03926466
1.03926466
1.03926466
1.03926466
1.03926466
1.03926466
1.03926466
1.03926466
1.03926466
1.03926466
1.03926466
1.03926466
1.03926466
1.03926466
1.03926466
1.03926466
1.03926466
1.03926466
1.03926466
1.03926466
1.03926466
1.03926466
1.03926466
1.03926466
1.03926466
1.03926466
1.03926466
1.03926466
1.03926466
1.03926466
1.03926466
1.03926466
1.03926466
1.03926466
1.03926466
1.03926466
1.03926466
1.03926466
1.03926466
1.03926466
1.03926466
1.03926466
1.03926466
1.03926466
1.03926466
1.03926466
1.03926466
1.03926466
1.03926466
1.03926466
1.03926466
1.03926466
1.03926466
1.03926466
1.03926466
1.03926466
1.03926466
1.03926466
1.03926466
1.03926466
1.03926466
1.03926466
1.03926466
1.03926466
1.03926466
1.03926466
1.03926466
1.03926466
1.03926466
1.03926466
1.03926466
1.03926466
1.03926466
1.03926466
1.03926466
1.03926466
1.03926466
1.03926466
1.03926466
1.03926466
1.03926466
1.03926466
1.03926466
1.03926466
1.03926466
1.03926466
1.03926466
1.03926466
1.03926466
1.03926466
1.03926466
1.03926466
1.03926466
1.03926466
1.03926466
1.03926466
1.03926466
1.03926466
1.03926466
1.03926466
1.03926466
1.03926466
1.03926466
1.03926466
1.03926466
1.03926466
1.03926466
1.03926466
1.03926466
1.03926466
1.03926466
1.03926466
1.03926466
1.03926466
1.03926466
1.03926466
1.03926466
1.03926466
1.03926466
1.03926466
1.03926466
1.03926466
1.03926466
1.03926466
1.03926466
1.03926466
1.03926466
1.03926466
1.03926466
1.03926466
1.03926466
1.03926466
1.03926466
1.03926466
1.03926466
1.03926466
1.03926466
1.03926466
1.03926466
1.03926466
1.03926466
1.03926466
1.03926466
1.03926466
1.03926466
1.03926466
1.03926466
1.03926466
1.03926466
1.03926466
1.03926466
1.03926466
1.03926466
1.03926466
1.03926466
1.03926466
1.03926466
1.03926466
1.03926466
1.03926466
1.03926466
1.03926466
1.03926466
1.03926466
1.03926466
1.03926466
1.03926466
1.03926466
1.03926466
1.03926466
1.03926466
1.03926466
1.03926466
1.03926466
1.03926466
1.03926466
1.03926466
1.03926466
1.03926466
1.03926466
1.03926466
1.03926466
1.03926466
1.03926466
1.03926466
1.03926466
1.03926466
1.03926466
1.03926466
1.03926466
1.03926466
1.03926466
1.03926466
1.03926466
1.03926466
1.03926466
1.03926466
1.03926466
1.03926466
1.03926466
1.03926466
1.03926466
1.03926466
1.03926466
1.03926466
1.03926466
1.03926466
1.03926466
1.03926466
1.03926466
1.03926466
1.03926466
1.03926466
1.03926466
1.03926466
1.03926466
1.03926466
1.03926466
1.03926466
1.03926466
1.03926466
1.03926466
1.03926466
1.03926466
1.03926466
1.03926466
1.03926466
1.03926466
1.03926466
1.03926466
1.03926466
1.03926466
1.03926466
1.03926466
1.03926466
1.03926466
1.03926466
1.03926466
1.03926466
1.03926466
1.03926466
1.03926466
1.03926466
1.03926466
1.03926466
1.03926466
1.03926466
1.03926466
1.03926466
1.03926466
1.03926466
1.03926466
1.03926466
1.03926466
1.03926466
1.03926466
1.03926466
1.03926466
1.03926466
1.03926466
1.03926466
1.03926466
1.03926466
1.03926466
1.03926466
1.03926466
1.03926466
1.03926466
1.03926466
1.03926466
1.03926466
1.03926466
1.03926466
1.03926466
1.03926466
1.03926466
1.03926466
1.03926466
1.03926466
1.03926466
1.03926466
1.03926466
1.03926466
1.03926466
1.03926466
1.03926466
1.03926466
1.03926466
1.03926466
1.03926466
1.03926466
1.03926466
1.03926466
1.03926466
1.03926466
1.03926466
1.03926466
1.03926466
1.03926466
1.03926466
1.03926466
1.03926466
1.03926466
1.03926466
1.03926466
1.03926466
1.03926466
1.03926466
1.03926466
1.03926466
1.03926466
1.03926466
1.03926466
1.03926466
1.03926466
1.03926466
1.03926466
1.03926466
1.03926466
1.03926466
1.03926466
1.03926466
1.03926466
1.03926466
1.03926466
1.03926466
1.03926466
1.03926466
1.03926466
1.03926466
1.03926466
1.03926466
1.03926466
1.03926466
1.03926466
1.03926466
1.03926466
1.03926466
1.03926466
1.03926466
1.03926466
1.03926466
1.03926466
1.03926466
1.03926466
1.03926466
1.03926466
1.03926466
1.03926466
1.03926466
1.03926466
1.03926466
1.03926466
1.03926466
1.03926466
1.03926466
1.03926466
1.03926466
1.03926466
1.03926466
1.03926466
1.03926466
1.03926466
1.03926466
1.03926466
1.03926466
1.03926466
1.03926466
1.03926466
1.03926466
1.03926466
1.03926466
1.03926466
1.03926466
1.03926466
1.03926466
1.03926466
1.03926466
1.03926466
1.03926466
1.03926466
1.03926466
1.03926466
1.03926466
1.03926466
1.03926466
1.03926466
1.03926466
1.03926466
1.03926466
1.03926466
1.03926466
1.03926466
1.03926466
1.03926466
1.03926466
1.03926466
1.03926466
1.03926466
1.03926466
1.03926466
1.03926466
1.03926466
1.03926466
1.03926466
1.03926466
1.03926466
1.03926466
1.03926466
1.03926466
1.03926466
1.03926466
1.03926466
1.03926466
1.03926466
1.03926466
1.03926466
1.03926466
1.03926466
1.03926466
1.03926466
1.03926466
1.03926466
1.03926466
1.03926466
1.03926466
1.03926466
1.03926466
1.03926466
1.03926466
1.03926466
1.03926466
1.03926466
1.03926466
1.03926466
1.03926466
1.03926466
1.03926466
1.03926466
1.03926466
1.03926466
1.03926466
1.03926466
1.03926466
1.03926466
1.03926466
1.03926466
1.03926466
1.03926466
1.03926466
1.03926466
1.03926466
1.03926466
1.03926466
1.03926466
1.03926466
1.03926466
1.03926466
1.03926466
1.03926466
1.03926466
1.03926466
1.03926466
1.03926466
1.03926466
1.03926466
1.03926466
1.03926466
1.03926466
1.03926466
1.03926466
1.03926466
1.03926466
1.03926466
1.03926466
1.03926466
1.03926466
1.03926466
1.03926466
1.03926466
1.03926466
1.03926466
1.03926466
1.03926466
1.03926466
1.03926466
1.03926466
1.03926466
1.03926466
1.03926466
1.03926466
1.03926466
1.03926466
1.03926466
1.03926466
1.03926466
1.03926466
1.03926466
1.03926466
1.03926466
1.03926466
1.03926466
1.03926466
1.03926466
1.03926466
1.03926466
1.03926466
1.03926466
1.03926466
1.03926466
1.03926466
1.03926466
1.03926466
1.03926466
1.03926466
1.03926466
1.03926466
1.03926466
1.03926466
1.03926466
1.03926466
1.03926466
1.03926466
1.03926466
1.03926466
1.03926466
1.03926466
1.03926466
1.03926466
1.03926466
1.03926466
1.03926466
1.03926466
1.03926466
1.03926466
1.03926466
1.03926466
1.03926466
1.03926466
1.03926466
1.03926466
1.03926466
1.03926466
1.03926466
1.03926466
1.03926466
1.03926466
1.03926466
1.03926466
1.03926466
1.03926466
1.03926466
1.03926466
1.03926466
1.03926466
1.03926466
1.03926466
1.03926466
1.03926466
1.03926466
1.03926466
1.03926466
1.03926466
1.03926466
1.03926466
1.03926466
1.03926466
1.03926466
1.03926466
1.03926466
1.03926466
1.03926466
1.03926466
1.03926466
1.03926466
1.03926466
1.03926466
1.03926466
1.03926466
1.03926466
1.03926466
1.03926466
1.03926466
1.03926466
1.03926466
1.03926466
1.03926466
1.03926466
1.03926466
1.03926466
1.03926466
1.03926466
1.03926466
1.03926466
1.03926466
1.03926466
1.03926466
1.03926466
1.03926466
1.03926466
1.03926466
1.03926466
1.03926466
1.03926466
1.03926466
1.03926466
1.03926466
1.03926466
1.03926466
1.03926466
1.03926466
1.03926466
1.03926466
1.03926466
1.03926466
1.03926466
1.03926466
1.03926466
1.03926466
1.03926466
1.03926466
1.03926466
1.03926466
1.03926466
1.03926466
1.03926466
1.03926466
1.03926466
1.03926466
1.03926466
1.03926466
1.03926466
1.03926466
1.03926466
1.03926466
1.03926466
1.03926466
1.03926466
1.03926466
1.03926466
1.03926466
1.03926466
1.03926466
1.03926466
1.03926466
1.03926466
1.03926466
1.03926466
1.03926466
1.03926466
1.03926466
1.03926466
1.03926466
1.03926466
1.03926466
1.03926466
1.03926466
1.03926466
1.03926466
1.03926466
1.03926466
1.03926466
1.03926466
1.03926466
1.03926466
1.03926466
1.03926466
1.03926466
1.03926466
1.03926466
1.03926466
1.03926466
1.03926466
1.03926466
1.03926466
1.03926466
1.03926466
1.03926466
1.03926466
1.03926466
1.03926466
1.03926466
1.03926466
1.03926466
1.03926466
1.03926466
1.03926466
1.03926466
1.03926466
1.03926466
1.03926466
1.03926466
1.03926466
1.03926466
1.03926466
1.03926466
1.03926466
1.03926466
1.03926466
1.03926466
1.03926466
1.03926466
1.03926466
1.03926466
1.03926466
1.03926466
1.03926466
1.03926466
1.03926466
1.03926466
1.03926466
1.03926466
1.03926466
1.03926466
1.03926466
1.03926466
1.03926466
1.03926466
1.03926466
1.03926466
1.03926466
1.03926466
1.03926466
1.03926466
1.03926466
1.03926466
1.03926466
1.03926466
1.03926466
1.03926466
1.03926466
1.03926466
1.03926466
1.03926466
1.03926466
1.03926466
1.03926466
1.03926466
1.03926466
1.03926466
1.03926466
1.03926466
1.03926466
1.03926466
1.03926466
1.03926466
1.03926466
1.03926466
1.03926466
1.03926466
1.03926466
1.03926466
1.03926466
1.03926466
1.03926466
1.03926466
1.03926466
1.03926466
1.03926466
1.03926466
1.03926466
1.03926466
1.03926466
1.03926466
1.03926466
1.03926466
1.03926466
1.03926466
1.03926466
1.03926466
1.03926466
1.03926466
1.03926466
1.03926466
1.03926466
1.03926466
1.03926466
1.03926466
1.03926466
1.03926466
1.03926466
1.03926466
1.03926466
1.03926466
1.03926466
1.03926466
1.03926466
1.03926466
1.03926466
1.03926466
1.03926466
1.03926466
1.03926466
1.03926466
1.03926466
1.03926466
1.03926466
1.03926466
1.03926466
1.03926466
1.03926466
1.03926466
1.03926466
1.03926466
1.03926466
1.03926466
1.03926466
1.03926466
1.03926466
1.03926466
1.03926466
1.03926466
1.03926466
1.03926466
1.03926466
1.03926466
1.03926466
1.03926466
1.03926466
1.03926466
1.03926466
1.03926466
1.03926466
1.03926466
1.03926466
1.03926466
1.03926466
1.03926466
1.03926466
1.03926466
1.03926466
1.03926466
1.03926466
1.03926466
1.03926466
1.03926466
1.03926466
1.03926466
1.03926466
1.03926466
1.03926466
1.03926466
1.03926466
1.03926466
1.03926466
1.03926466
1.03926466
1.03926466
1.03926466
1.03926466
1.03926466
1.03926466
1.03926466
1.03926466
1.03926466
1.03926466
1.03926466
1.03926466
1.03926466
1.03926466
1.03926466
1.03926466
1.03926466
1.03926466
1.03926466
1.03926466
1.03926466
1.03926466
1.03926466
1.03926466
1.03926466
1.03926466
1.03926466
1.03926466
1.03926466
1.03926466
1.03926466
1.03926466
1.03926466
1.03926466
1.03926466
1.03926466
1.03926466
1.03926466
1.03926466
1.03926466
1.03926466
1.03926466
1.03926466
1.03926466
1.03926466
1.03926466
1.03926466
1.03926466
1.03926466
1.03926466
1.03926466
1.03926466
1.03926466
1.03926466
1.03926466
1.03926466
1.03926466
1.03926466
1.03926466
1.03926466
1.03926466
1.03926466
1.03926466
1.03926466
1.03926466
1.03926466
1.03926466
1.03926466
1.03926466
1.03926466
1.03926466
1.03926466
1.03926466
1.03926466
1.03926466
1.03926466
1.03926466
1.03926466
1.03926466
1.03926466
1.03926466
1.03926466
1.03926466
1.03926466
1.03926466
1.03926466
1.03926466
1.03926466
1.03926466
1.03926466
1.03926466
1.03926466
1.03926466
1.03926466
1.03926466
1.03926466
1.03926466
1.03926466
1.03926466
1.03926466
1.03926466
1.03926466
1.03926466
1.03926466
1.03926466
1.03926466
1.03926466
1.03926466
1.03926466
1.03926466
1.03926466
1.03926466
1.03926466
1.03926466
1.03926466
1.03926466
1.03926466
1.03926466
1.03926466
1.03926466
1.03926466
1.03926466
1.03926466
1.03926466
1.03926466
1.03926466
1.03926466
1.03926466
1.03926466
1.03926466
1.03926466
1.03926466
1.03926466
1.03926466
1.03926466
1.03926466
1.03926466
1.03926466
1.03926466
1.03926466
1.03926466
1.03926466
1.03926466
1.03926466
1.03926466
1.03926466
1.03926466
1.03926466
1.03926466
1.03926466
1.03926466
1.03926466
1.03926466
1.03926466
1.03926466
1.03926466
1.03926466
1.03926466
1.03926466
1.03926466
1.03926466
1.03926466
1.03926466
1.03926466
1.03926466
1.03926466
1.03926466
1.03926466
1.03926466
1.03926466
1.03926466
1.03926466
1.03926466
1.03926466
1.03926466
1.03926466
1.03926466
1.03926466
1.03926466
1.03926466
1.03926466
1.03926466
1.03926466
1.03926466
1.03926466
1.03926466
1.03926466
1.03926466
1.03926466
1.03926466
1.03926466
1.03926466
1.03926466
1.03926466
1.03926466
1.03926466
1.03926466
1.03926466
1.03926466
1.03926466
1.03926466
1.03926466
1.03926466
1.03926466
1.03926466
1.03926466
1.03926466
1.03926466
1.03926466
1.03926466
1.03926466
1.03926466
1.03926466
1.03926466
1.03926466
1.03926466
1.03926466
1.03926466
1.03926466
1.03926466
1.03926466
1.03926466
1.03926466
1.03926466
1.03926466
1.03926466
1.03926466
1.03926466
1.03926466
1.03926466
1.03926466
1.03926466
1.03926466
1.03926466
1.03926466
1.03926466
1.03926466
1.03926466
1.03926466
1.03926466
1.03926466
1.03926466
1.03926466
1.03926466
1.03926466
1.03926466
1.03926466
1.03926466
1.03926466
1.03926466
1.03926466
1.03926466
1.03926466
1.03926466
1.03926466
1.03926466
1.03926466
1.03926466
1.03926466
1.03926466
1.03926466
1.03926466
1.03926466
1.03926466
1.03926466
1.03926466
1.03926466
1.03926466
1.03926466
1.03926466
1.03926466
1.03926466
1.03926466
1.03926466
1.03926466
1.03926466
1.03926466
1.03926466
1.03926466
1.03926466
1.03926466
1.03926466
1.03926466
1.03926466
1.03926466
1.03926466
1.03926466
1.03926466
1.03926466
1.03926466
1.03926466
1.03926466
1.03926466
1.03926466
1.03926466
1.03926466
1.03926466
1.03926466
1.03926466
1.03926466
1.03926466
1.03926466
1.03926466
1.03926466
1.03926466
1.03926466
1.03926466
1.03926466
1.03926466
1.03926466
1.03926466
1.03926466
1.03926466
1.03926466
1.03926466
1.03926466
1.03926466
1.03926466
1.03926466
1.03926466
1.03926466
1.03926466
1.03926466
1.03926466
1.03926466
1.03926466
1.03926466
1.03926466
1.03926466
1.03926466
1.03926466
1.03926466
1.03926466
1.03926466
1.03926466
1.03926466
1.03926466
1.03926466
1.03926466
1.03926466
1.03926466
1.03926466
1.03926466
1.03926466
1.03926466
1.03926466
1.03926466
1.03926466
1.03926466
1.03926466
1.03926466
1.03926466
1.03926466
1.03926466
1.03926466
1.03926466
1.03926466
1.03926466
1.03926466
1.03926466
1.03926466
1.03926466
1.03926466
1.03926466
1.03926466
1.03926466
1.03926466
1.03926466
1.03926466
1.03926466
1.03926466
1.03926466
1.03926466
1.03926466
1.03926466
1.03926466
1.03926466
1.03926466
1.03926466
1.03926466
1.03926466
1.03926466
1.03926466
1.03926466
1.03926466
1.03926466
1.03926466
1.03926466
1.03926466
1.03926466
1.03926466
1.03926466
1.03926466
1.03926466
1.03926466
1.03926466
1.03926466
1.03926466
1.03926466
1.03926466
1.03926466
1.03926466
1.03926466
1.03926466
1.03926466
1.03926466
1.03926466
1.03926466
1.03926466
1.03926466
1.03926466
1.03926466
1.03926466
1.03926466
1.03926466
1.03926466
1.03926466
1.03926466
1.03926466
1.03926466
1.03926466
1.03926466
1.03926466
1.03926466
1.03926466
1.03926466
1.03926466
1.03926466
1.03926466
1.03926466
1.03926466
1.03926466
1.03926466
1.03926466
1.03926466
1.03926466
1.03926466
1.03926466
1.03926466
1.03926466
1.03926466
1.03926466
1.03926466
1.03926466
1.03926466
1.03926466
1.03926466
1.03926466
1.03926466
1.03926466
1.03926466
1.03926466
1.03926466
1.03926466
1.03926466
1.03926466
1.03926466
1.03926466
1.03926466
1.03926466
1.03926466
1.03926466
1.03926466
1.03926466
1.03926466
1.03926466
1.03926466
1.03926466
1.03926466
1.03926466
1.03926466
1.03926466
1.03926466
1.03926466
1.03926466
1.03926466
1.03926466
1.03926466
1.03926466
1.03926466
1.03926466
1.03926466
1.03926466
1.03926466
1.03926466
1.03926466
1.03926466
1.03926466
1.03926466
1.03926466
1.03926466
1.03926466
1.03926466
1.03926466
1.03926466
1.03926466
1.03926466
1.03926466
1.03926466
1.03926466
1.03926466
1.03926466
1.03926466
1.03926466
1.03926466
1.03926466
1.03926466
1.03926466
1.03926466
1.03926466
1.03926466
1.03926466
1.03926466
1.03926466
1.03926466
1.03926466
1.03926466
1.03926466
1.03926466
1.03926466
1.03926466
1.03926466
1.03926466
1.03926466
1.03926466
1.03926466
1.03926466
1.03926466
1.03926466
1.03926466
1.03926466
1.03926466
1.03926466
1.03926466
1.03926466
1.03926466
1.03926466
1.03926466
1.03926466
1.03926466
1.03926466
1.03926466
1.03926465
1.03926465
1.03926465
1.03926465
1.03926465
1.03926465
1.03926465
1.03926465
1.03926465
1.03926465
1.03926465
1.03926465
1.03926465
1.03926465
1.03926465
1.03926464
1.03926464
1.03926464
1.03926464
1.03926464
1.03926464
1.03926464
1.03926464
1.03926463
1.03926463
1.03926463
1.03926463
1.03926463
1.03926463
1.03926462
1.03926462
1.03926462
1.03926462
1.03926461
1.03926461
1.03926461
1.03926461
1.0392646
1.0392646
1.0392646
1.03926459
1.03926459
1.03926458
1.03926458
1.03926458
1.03926457
1.03926457
1.03926456
1.03926456
1.03926455
1.03926454
1.03926454
1.03926453
1.03926452
1.03926452
1.03926451
1.0392645
1.03926449
1.03926448
1.03926448
1.03926447
1.03926446
1.03926444
1.03926443
1.03926442
1.03926441
1.0392644
1.03926438
1.03926437
1.03926435
1.03926434
1.03926432
1.03926431
1.03926429
1.03926427
1.03926425
1.03926423
1.03926421
1.03926419
1.03926416
1.03926414
1.03926411
1.03926409
1.03926406
1.03926403
1.039264
1.03926397
1.03926394
1.0392639
1.03926387
1.03926383
1.03926379
1.03926375
1.03926371
1.03926366
1.03926361
1.03926357
1.03926352
1.03926346
1.03926341
1.03926335
1.03926329
1.03926323
1.03926317
1.0392631
1.03926303
1.03926295
1.03926288
1.0392628
1.03926272
1.03926263
1.03926254
1.03926245
1.03926235
1.03926225
1.03926215
1.03926204
1.03926193
1.03926181
1.03926169
1.03926157
1.03926144
1.0392613
1.03926116
1.03926102
1.03926086
1.03926071
1.03926054
1.03926038
1.0392602
1.03926002
1.03925983
1.03925964
1.03925943
1.03925923
1.03925901
1.03925879
1.03925855
1.03925831
1.03925807
1.03925781
1.03925754
1.03925727
1.03925698
1.03925669
1.03925639
1.03925607
1.03925575
1.03925541
1.03925507
1.03925471
1.03925434
1.03925396
1.03925357
1.03925317
1.03925275
1.03925232
1.03925188
1.03925142
1.03925095
1.03925046
1.03924996
1.03924945
1.03924892
1.03924837
1.03924781
1.03924723
1.03924664
1.03924603
1.0392454
1.03924475
1.03924409
1.0392434
1.0392427
1.03924198
1.03924124
1.03924048
1.0392397
1.0392389
1.03923808
1.03923724
1.03923637
1.03923549
1.03923458
1.03923365
1.03923269
1.03923172
1.03923072
1.03922969
1.03922865
1.03922757
1.03922648
1.03922535
1.03922421
1.03922303
1.03922183
1.03922061
1.03921936
1.03921808
1.03921677
1.03921544
1.03921408
1.0392127
1.03921128
1.03920984
1.03920837
1.03920687
1.03920534
1.03920378
1.0392022
1.03920059
1.03919895
1.03919727
1.03919557
1.03919385
1.03919209
1.0391903
1.03918849
1.03918664
1.03918477
1.03918287
1.03918094
1.03917898
1.039177
1.03917498
1.03917294
1.03917087
1.03916878
1.03916665
1.03916451
1.03916233
1.03916013
1.0391579
1.03915565
1.03915337
1.03915107
1.03914874
1.0391464
1.03914402
1.03914163
1.03913922
1.03913678
1.03913433
1.03913185
1.03912936
1.03912685
1.03912432
1.03912177
1.03911921
1.03911664
1.03911405
1.03911144
1.03910883
1.0391062
1.03910357
1.03910092
1.03909827
1.03909561
1.03909294
1.03909027
1.0390876
1.03908492
1.03908224
1.03907956
1.03907688
1.0390742
1.03907153
1.03906886
1.0390662
1.03906354
1.03906089
1.03905825
1.03905562
1.039053
1.0390504
1.03904781
1.03904524
1.03904268
1.03904014
1.03903762
1.03903513
1.03903265
1.0390302
1.03902777
1.03902537
1.039023
1.03902066
1.03901834
1.03901606
1.03901381
1.03901159
1.03900941
1.03900727
1.03900516
1.03900309
1.03900105
1.03899906
1.03899711
1.03899521
1.03899334
1.03899153
1.03898975
1.03898802
1.03898634
1.03898471
1.03898313
1.0389816
1.03898011
1.03897868
1.0389773
1.03897597
1.0389747
1.03897347
1.0389723
1.03897119
1.03897013
1.03896912
1.03896817
1.03896728
1.03896644
1.03896566
1.03896493
1.03896426
1.03896364
1.03896308
1.03896258
1.03896213
1.03896174
1.0389614
1.03896112
1.03896089
1.03896072
1.0389606
1.03896054
1.03896052
1.03896056
1.03896066
1.0389608
1.03896099
1.03896124
1.03896153
1.03896187
1.03896226
1.03896269
1.03896318
1.0389637
1.03896427
1.03896488
1.03896554
1.03896624
1.03896697
1.03896775
1.03896856
1.03896941
1.03897029
1.03897121
1.03897216
1.03897315
1.03897416
1.03897521
1.03897628
1.03897738
1.0389785
1.03897965
1.03898083
1.03898202
1.03898324
1.03898447
1.03898573
1.038987
1.03898828
1.03898959
1.0389909
1.03899223
1.03899357
1.03899492
1.03899627
1.03899764
1.03899901
1.03900039
1.03900177
1.03900316
1.03900454
1.03900593
1.03900732
1.03900871
1.0390101
1.03901148
1.03901286
1.03901424
1.03901561
1.03901698
1.03901833
1.03901969
1.03902103
1.03902237
1.03902369
1.03902501
1.03902631
1.03902761
1.03902889
1.03903016
1.03903142
1.03903266
1.03903389
1.03903511
1.03903632
1.0390375
1.03903868
1.03903984
1.03904098
1.03904211
1.03904323
1.03904432
1.03904541
1.03904647
1.03904752
1.03904856
1.03904957
1.03905058
1.03905156
1.03905253
1.03905349
1.03905443
1.03905535
1.03905626
1.03905715
1.03905803
1.03905889
1.03905974
1.03906057
1.03906139
1.03906219
1.03906298
1.03906375
1.03906452
1.03906526
1.039066
1.03906672
1.03906743
1.03906813
1.03906882
1.03906949
1.03907016
1.03907081
1.03907145
1.03907208
1.0390727
1.03907331
1.03907391
1.03907451
1.03907509
1.03907566
1.03907623
1.03907679
1.03907734
1.03907788
1.03907842
1.03907895
1.03907947
1.03907998
1.03908049
1.03908099
1.03908149
1.03908198
1.03908247
1.03908295
1.03908342
1.03908389
1.03908436
1.03908482
1.03908528
1.03908573
1.03908618
1.03908663
1.03908707
1.03908751
1.03908794
1.03908838
1.0390888
1.03908923
1.03908965
1.03909007
1.03909049
1.0390909
1.03909131
1.03909172
1.03909212
1.03909252
1.03909292
1.03909332
1.03909371
1.03909411
1.03909449
1.03909488
1.03909526
1.03909564
1.03909602
1.03909639
1.03909677
1.03909713
1.0390975
1.03909786
1.03909822
1.03909858
1.03909893
1.03909928
1.03909963
1.03909997
1.03910031
1.03910065
1.03910098
1.03910131
1.03910164
1.03910196
1.03910228
1.0391026
1.03910291
1.03910322
1.03910352
1.03910382
1.03910412
1.03910441
1.0391047
1.03910499
1.03910527
1.03910554
1.03910582
1.03910608
1.03910635
1.03910661
1.03910687
1.03910712
1.03910737
1.03910761
1.03910786
1.03910809
1.03910833
1.03910856
1.03910878
1.03910901
1.03910923
1.03910944
1.03910965
1.03910986
1.03911007
1.03911027
1.03911047
1.03911067
1.03911087
1.03911106
1.03911125
1.03911143
1.03911162
1.0391118
1.03911198
1.03911216
1.03911234
1.03911251
1.03911269
1.03911286
1.03911303
1.0391132
1.03911337
1.03911354
1.03911371
1.03911388
1.03911404
1.03911421
1.03911438
1.03911454
1.03911471
1.03911488
1.03911504
1.03911521
1.03911538
1.03911555
1.03911572
1.03911589
1.03911606
1.03911623
1.03911641
1.03911658
1.03911676
1.03911694
1.03911711
1.03911729
1.03911748
1.03911766
1.03911784
1.03911803
1.03911822
1.0391184
1.03911859
1.03911879
1.03911898
1.03911917
1.03911937
1.03911956
1.03911976
1.03911996
1.03912016
1.03912036
1.03912057
1.03912077
1.03912097
1.03912118
1.03912138
1.03912159
1.0391218
1.039122
1.03912221
1.03912242
1.03912262
1.03912283
1.03912304
1.03912324
1.03912345
1.03912365
1.03912386
1.03912406
1.03912427
1.03912447
1.03912467
1.03912487
1.03912507
1.03912526
1.03912546
1.03912565
1.03912584
1.03912603
1.03912622
1.03912641
1.03912659
1.03912677
1.03912695
1.03912713
1.03912731
1.03912748
1.03912765
1.03912782
1.03912799
1.03912815
1.03912832
1.03912848
1.03912863
1.03912879
1.03912894
1.03912909
1.03912924
1.03912939
1.03912953
1.03912968
1.03912982
1.03912996
1.03913009
1.03913023
1.03913036
1.03913049
1.03913062
1.03913075
1.03913087
1.039131
1.03913112
1.03913124
1.03913136
1.03913148
1.03913159
1.03913171
1.03913183
1.03913194
1.03913205
1.03913216
1.03913228
1.03913239
1.03913249
1.0391326
1.03913271
1.03913282
1.03913292
1.03913303
1.03913313
1.03913324
1.03913334
1.03913345
1.03913355
1.03913365
1.03913375
1.03913385
1.03913395
1.03913405
1.03913415
1.03913425
1.03913435
1.03913445
1.03913455
1.03913464
1.03913474
1.03913484
1.03913493
1.03913503
1.03913512
1.03913521
1.03913531
1.0391354
1.03913549
1.03913559
1.03913568
1.03913577
1.03913586
1.03913595
1.03913604
1.03913613
1.03913622
1.03913631
1.0391364
1.03913649
1.03913658
1.03913667
1.03913676
1.03913684
1.03913693
1.03913702
1.03913711
1.0391372
1.03913729
1.03913738
1.03913747
1.03913756
1.03913766
1.03913775
1.03913784
1.03913794
1.03913803
1.03913813
1.03913823
1.03913833
1.03913843
1.03913853
1.03913863
1.03913874
1.03913885
1.03913896
1.03913907
1.03913919
1.03913931
1.03913943
1.03913956
1.03913968
1.03913982
1.03913996
1.0391401
1.03914025
1.0391404
1.03914056
1.03914073
1.0391409
1.03914108
1.03914127
1.03914148
1.03914169
1.03914191
1.03914214
1.03914239
1.03914265
1.03914293
1.03914322
1.03914353
1.03914387
1.03914422
1.03914459
1.03914499
1.03914541
1.03914585
1.03914633
1.03914683
1.03914737
1.03914793
1.03914853
1.03914917
1.03914984
1.03915054
1.03915129
1.03915207
1.03915289
1.03915375
1.03915465
1.03915558
1.03915656
1.03915756
1.03915861
1.03915968
1.03916078
1.03916191
1.03916307
1.03916423
1.03916542
1.03916661
1.0391678
1.03916899
1.03917017
1.03917133
1.03917247
1.03917357
1.03917464
1.03917566
1.03917663
1.03917754
1.03917838
1.03917916
1.03917986
1.03918049
1.03918104
1.03918151
1.0391819
1.03918223
1.03918248
1.03918267
1.0391828
1.03918288
1.03918292
1.03918293
1.03918291
1.03918316
1.0391831
1.03919229
1.03919218
1.03941929
1.03941917
1.0415699
1.04158236
0.865457021
0.86540261
0.443206919
0.415487068
0.32352142
0.314564802
0.285174057
0.28203795
0.270523735
0.269466674
0.265035571
0.264752687
0.263353395
0.263297609
0.262922192
0.262913795
0.262825199
0.262824344
0.262805729
0.26280566
0.262802123
0.262802076
0.262801426
0.26280137
0.262801215
0.262801151
0.262801068
0.262800994
0.262800914
0.262800831
0.262800744
0.262800652
0.262800556
0.262800455
0.262800351
0.262800242
0.262800129
0.262800013
0.262799893
0.26279977
0.262799643
0.262799513
0.262799381
0.262799245
0.262799108