/*--------------------------------*- C++ -*----------------------------------*\
| =========                 |                                                 |
| \\      /  F ield         | OpenFOAM: The Open Source CFD Toolbox           |
|  \\    /   O peration     | Version:  2206                                  |
|   \\  /    A nd           | Website:  www.openfoam.com                      |
|    \\/     M anipulation  |                                                 |
\*---------------------------------------------------------------------------*/
FoamFile
{
    version     2.0;
    format      ascii;
    arch        "LSB;label=32;scalar=64";
    class       volScalarField;
    location    "1.74e-05";
    object      sourcePV;
}
// * * * * * * * * * * * * * * * * * * * * * * * * * * * * * * * * * * * * * //

dimensions      [1 -3 -1 0 0 0 0];

internalField   nonuniform List<scalar> 
3183
(
0
0
0
0
0
0
0
0
0
0
0
0
0
0
0
0
0
0
0
0
0
0
0
0
0
0
0
0
0
0
0
0
0
0
0
0
0
0
0
0
0
0
0
0
0
0
0
0
0
0
0
0
0
0
0
0
0
0
0
0
0
0
0
0
0
0
0
0
0
0
0
0
0
0
0
0
0
0
0
0
0
0
0
0
0
0
0
0
0
0
0
0
0
0
0
0
0
0
0
0
0
0
0
0
0
0
0
0
0
0
0
0
0
0
0
0
0
0
0
0
0
0
0
0
0
0
0
0
0
0
0
0
0
0
0
0
0
0
0
0
0
0
0
0
0
0
0
0
0
0
0
0
0
0
0
0
0
0
0
0
0
0
0
0
0
0
0
0
0
0
0
0
0
0
0
0
0
0
0
0
0
0
0
0
0
0
0
0
0
0
0
0
0
0
0
0
0
0
0
0
0
0
0
0
0
0
0
0
0
0
0
0
0
0
0
0
0
0
0
0
0
0
0
0
0
0
0
0
0
0
0
0
0
0
0
0
0
0
0
0
0
0
0
0
0
0
0
0
0
0
0
0
0
0
0
0
0
0
0
0
0
0
0
0
0
0
0
0
0
0
0
0
0
0
0
0
0
0
0
0
0
0
0
0
0
0
0
0
0
0
0
0
0
0
0
0
0
0
0
0
0
0
0
0
0
0
0
0
0
0
0
0
0
0
0
0
0
0
0
0
0
0
0
0
0
0
0
0
0
0
0
0
0
0
0
0
0
0
0
0
0
0
0
0
0
0
0
0
0
0
0
0
0
0
0
0
0
0
0
0
0
0
0
0
0
0
0
0
0
0
0
0
0
0
0
0
0
0
0
0
0
0
0
0
0
0
0
0
0
0
0
0
0
0
0
0
0
0
0
0
0
0
0
0
0
0
0
0
0
0
0
0
0
0
0
0
0
0
0
0
0
0
0
0
0
0
0
0
0
0
0
0
0
0
0
0
0
0
0
0
0
0
0
0
0
0
0
0
0
0
0
0
0
0
0
0
0
0
0
0
0
0
0
0
0
0
0
0
0
0
0
0
0
0
0
0
0
0
0
0
0
0
0
0
0
0
0
0
0
0
0
0
0
0
0
0
0
0
0
0
0
0
0
0
0
0
0
0
0
0
0
0
0
0
0
0
0
0
0
0
0
0
0
0
0
0
0
0
0
0
0
0
0
0
0
0
0
0
0
0
0
0
0
0
0
0
0
0
0
0
0
0
0
0
0
0
0
0
0
0
0
0
0
0
0
0
0
0
0
0
0
0
0
0
0
0
0
0
0
0
0
0
0
0
0
0
0
0
0
0
0
0
0
0
0
0
0
0
0
0
0
0
0
0
0
0
0
0
0
0
0
0
0
0
0
0
0
0
0
0
0
0
0
0
0
0
0
0
0
0
0
0
0
0
0
0
0
0
0
0
0
0
0
0
0
0
0
0
0
0
0
0
0
0
0
0
0
0
0
0
0
0
0
0
0
0
0
0
0
0
0
0
0
0
0
0
0
0
0
0
0
0
0
0
0
0
0
0
0
0
0
0
0
0
0
0
0
0
0
0
0
0
0
0
0
0
0
0
0
0
0
0
0
0
0
0
0
0
0
0
0
0
0
0
0
0
0
0
0
0
0
0
0
0
0
0
0
0
0
0
0
0
0
0
0
0
0
0
0
0
0
0
0
0
0
0
0
0
0
0
0
0
0
0
0
0
0
0
0
0
0
0
0
0
0
0
0
0
0
0
0
0
0
0
0
0
0
0
0
0
0
0
0
0
0
0
0
0
0
0
0
0
0
0
0
0
0
0
0
0
0
0
0
0
0
0
0
0
0
0
0
0
0
0
0
0
0
0
0
0
0
0
0
0
0
0
0
0
0
0
0
0
0
0
0
0
0
0
0
0
0
0
0
0
0
0
0
0
0
0
0
0
0
0
0
0
0
0
0
0
0
0
0
0
0
0
0
0
0
0
0
0
0
0
0
0
0
0
0
0
0
0
0
0
0
0
0
0
0
0
0
0
0
0
0
0
0
0
0
0
0
0
0
0
0
0
0
0
0
0
0
0
0
0
0
0
0
0
0
0
0
0
0
0
0
0
0
0
0
0
0
0
0
0
0
0
0
0
0
0
0
0
0
0
0
0
0
0
0
0
0
0
0
0
0
0
0
0
0
0
0
0
0
0
0
0
0
0
0
0
0
0
0
0
0
0
0
0
0
0
0
0
0
0
0
0
0
0
0
0
0
0
0
0
0
0
0
0
0
0
0
0
0
0
0
0
0
0
0
0
0
0
0
0
0
0
0
0
0
0
0
0
0
0
0
0
0
0
0
0
0
0
0
0
0
0
0
0
0
0
0
0
0
0
0
0
0
0
0
0
0
0
0
0
0
0
0
0
0
0
0
0
0
0
0
0
0
0
0
0
0
0
0
0
0
0
0
0
0
0
0
0
0
0
0
0
0
0
0
0
0
0
0
0
0
0
0
0
0
0
0
0
0
0
0
0
0
0
0
0
0
0
0
0
0
0
0
0
0
0
0
0
0
0
0
0
0
0
0
0
0
0
0
0
0
0
0
0
0
0
0
0
0
0
0
0
0
0
0
0
0
0
0
0
0
0
0
0
0
0
0
0
0
0
0
0
0
0
0
0
0
0
0
0
0
0
0
0
0
0
0
0
0
0
0
0
0
0
0
0
0
0
0
0
0
0
0
0
0
0
0
0
0
0
0
0
0
0
0
0
0
0
0
0
0
0
0
0
0
0
0
0
0
0
0
0
0
0
0
0
0
0
0
0
0
0
0
0
0
0
0
0
0
0
0
0
0
0
0
0
0
0
0
0
0
0
0
0
0
0
0
0
0
0
0
0
0
0
0
0
0
0
0
0
0
0
0
0
0
0
0
0
0
0
0
0
0
0
0
0
0
0
0
0
0
0
0
0
0
0
0
0
0
0
0
0
0
0
0
0
0
0
0
0
0
0
0
0
0
0
0
0
0
0
0
0
0
0
0
0
0
0
0
0
0
0
0
0
0
0
0
0
0
0
0
0
0
0
0
0
0
0
0
0
0
0
0
0
0
0
0
0
0
0
0
0
0
0
0
0
0
0
0
0
0
0
0
0
0
0
0
0
0
0
0
0
0
0
0
0
0
0
0
0
0
0
0
0
0
0
0
0
0
0
0
0
0
0
0
0
0
0
0
0
0
0
0
0
0
0
0
0
0
0
0
0
0
0
0
0
0
0
0
0
0
0
0
0
0
0
0
0
0
0
0
0
0
0
0
0
0
0
0
0
0
0
0
0
0
0
0
0
0
0
0
0
0
0
0
0
0
0
0
0
0
0
0
0
0
0
0
0
0
0
0
0
0
0
0
0
0
0
0
0
0
0
0
0
0
0
0
0
0
0
0
0
0
0
0
0
0
0
0
0
0
0
0
0
0
0
0
0
0
0
0
0
0
0
0
0
0
0
0
0
0
0
0
0
0
0
0
0
0
0
0
0
0
0
0
0
0
0
0
0
0
0
0
0
0
0
0
0
0
0
0
0
0
0
0
0
0
0
0
0
0
0
0
0
0
0
0
0
0
0
0
0
0
0
0
0
0
0
0
0
0
0
0
0
0
0
0
0
0
0
0
0
0
0
0
0
0
0
0
0
0
0
0
0
0
0
0
0
0
0
0
0
0
0
0
0
0
0
0
0
0
0
0
0
0
0
0
0
0
0
0
0
0
0
0
0
0
0
0
0
0
0
0
0
0
0
0
0
0
0
0
0
0
0
0
0
0
0
0
0
0
0
0
0
0
0
0
0
0
0
0
0
0
0
0
0
0
0
0
0
0
0
0
0
0
0
0
0
0
0
0
0
0
0
0
0
0
0
0
0
0
0
0
0
0
0
0
0
0
0
0
0
0
0
0
0
0
0
0
0
0
0
0
0
0
0
0
0
0
0
0
0
0
0
0
0
0
0
0
0
0
0
0
0
0
0
0
0
0
0
0
0
0
0
0
0
0
0
0
0
0
0
0
0
0
0
0
0
0
0
0
0
0
0
0
0
0
0
0
0
0
0
0
0
0
0
0
0
0
0
0
0
0
0
0
0
0
0
0
0
0
0
0
0
0
0
0
0
0
0
0
0
0
0
0
0
0
0
0
0
0
0
0
0
0
0
0
0
0
0
0
0
0
0
0
0
0
0
0
0
0
0
0
0
0
0
0
0
0
0
0
0
0
0
0
0
0
0
0
0
0
0
0
0
0
0
0
0
0
0
0
0
0
0
0
0
0
0
0
0
0
0
0
0
0
0
0
0
0
0
0
0
0
0
0
0
0
0
0
0
0
0
0
0
0
0
0
0
0
0
0
0
0
0
0
0
0
0
0
0
0
0
0
0
0
0
0
0
0
0
0
0
0
0
0
0
0
0
0
0
0
0
0
0
0
0
0
0
0
0
0
0
0
0
0
0
0
0
0
0
0
0
0
0
0
0
0
0
0
0
0
0
0
0
0
0
0
0
0
0
0
0
0
0
0
0
0
0
0
0
0
0
0
0
0
0
0
0
0
0
0
0
0
0
0
0
0
0
0
0
0
0
0
0
0
0
0
0
0
0
0
0
0
0
0
0
0
0
0
0
0
0
0
0
0
0
0
0
0
0
0
0
0
0
0
0
0
0
0
0
0
0
0
0
0
0
0
0
0
0
0
0
0
0
0
0
0
0
0
0
0
0
0
0
0
0
0
0
0
0
0
0
0
0
0
0
0
0
0
0
0
0
0
0
0
0
0
0
0
0
0
0
0
0
0
0
0
0
0
0
0
0
0
0
0
0
0
0
0
0
0
0
0
0
0
0
0
0
0
0
0
0
0
0
0
0
0
0
0
0
0
0
0
0
0
0
0
0
0
0
0
0
0
0
0
0
0
0
0
0
0
0
0
0
0
0
0
0
0
0
0
0
0
0
0
0
0
0
0
0
0
0
0
0
0
0
0
0
0
0
0
0
0
0
0
0
0
0
0
0
0
0
0
0
0
0
0
0
0
0
0
0
0
0
0
0
0
0
0
0
0
0
0
0
0
0
0
0
0
0
0
0
0
0
0
0
0
0
0
0
0
0
0
0
0
0
0
0
0
0
0
0
0
0
0
0
0
0
0
0
0
0
0
0
0
0
0
0
0
0
0
0
0
0
0
0
0
0
0
0
0
0
0
0
0
0
0
0
0
0
0
0
0
0
0
0
0
0
0
0
0
0
0
0
0
0
0
0
0
0
0
0
0
0
0
0
0
0
0
0
0
0
0
0
0
0
0
0
0
0
0
0
0
2.50714397e-299
1.2568111e-299
1.30901864e-296
6.62756854e-297
6.77237612e-294
3.46276033e-294
3.47184647e-291
1.79255399e-291
1.763596e-288
9.19389588e-289
8.87669327e-286
4.67198194e-286
4.42701109e-283
2.35219401e-283
2.1876129e-280
1.17329222e-280
1.07108365e-277
5.7982859e-278
5.19590653e-275
2.83888835e-275
2.49732838e-272
1.37696905e-272
1.18920602e-269
6.616932e-270
5.61042526e-267
3.15011885e-267
2.62229277e-264
1.48531945e-264
1.21423323e-261
6.94038706e-262
5.56989199e-259
3.21234182e-259
2.53106129e-256
1.47313016e-256
1.13934858e-253
6.68900677e-254
5.08036346e-251
3.00843883e-251
2.24389546e-248
1.34018861e-248
9.81668516e-246
5.91318193e-246
4.25368699e-243
2.58399562e-243
1.82552547e-240
1.11830784e-240
7.75915614e-238
4.79306244e-238
3.2660819e-235
2.03436641e-235
1.36146539e-232
8.55049125e-233
5.61996056e-230
3.55860145e-230
2.2971344e-227
1.46647196e-227
9.29703634e-225
5.98347064e-225
3.72550617e-222
2.41710503e-222
1.47803749e-219
9.66669225e-220
5.80524935e-217
3.827158e-217
2.25718165e-214
1.49991339e-214
8.68753025e-212
5.81863931e-212
3.30965966e-209
2.23416542e-209
1.24795673e-206
8.49024033e-207
4.65710319e-204
3.19305557e-204
1.71989615e-201
1.18835112e-201
6.28532023e-199
4.37626629e-199
2.27278873e-196
1.59459738e-196
8.1313692e-194
5.74848215e-194
2.87810423e-191
2.05010179e-191
1.0077472e-188
7.23238841e-189
3.49029116e-186
2.52368305e-186
1.19563349e-183
8.70955456e-184
4.05061388e-181
2.97252178e-181
1.35702718e-178
1.00318393e-178
4.49529551e-176
3.34749122e-176
1.47226326e-173
1.10432541e-173
4.76676957e-171
3.60136533e-171
1.52555036e-168
1.16086538e-168
4.8255095e-166
3.69820878e-166
1.50842162e-163
1.16424499e-163
4.65920817e-161
3.62149028e-161
1.42185776e-158
1.11292243e-158
4.28644941e-156
3.37846688e-156
1.27637261e-153
1.01295947e-153
3.75347874e-151
2.9993027e-151
1.08994182e-148
8.76880071e-149
3.12477877e-146
2.53095941e-146
8.84327276e-144
7.2108437e-144
2.47009168e-141
2.02754764e-141
6.80840145e-139
5.62555646e-139
1.85153556e-136
1.53989724e-136
4.96699234e-134
4.15785302e-134
1.31415297e-131
1.10716847e-131
3.42848629e-129
2.90695357e-129
8.8180478e-127
7.52404361e-127
2.23543325e-124
1.91936934e-124
5.58434048e-122
4.824597e-122
1.37435991e-119
1.19469142e-119
3.3315052e-117
2.91363498e-117
7.95207084e-115
6.99659911e-115
1.86854264e-112
1.65384198e-112
4.32102528e-110
3.84710111e-110
9.83114217e-108
8.80394861e-108
2.19999088e-105
1.9814879e-105
4.84058107e-103
4.38464754e-103
1.04685612e-100
9.53585794e-101
2.22451471e-98
2.03756684e-98
4.64280547e-96
4.27590798e-96
9.51376516e-94
8.80923658e-94
1.9132512e-91
1.78099097e-91
3.77442243e-89
3.53190613e-89
7.30111112e-87
6.86721577e-87
1.38413118e-84
1.3084746e-84
2.57035604e-82
2.4419674e-82
4.67306676e-80
4.46136987e-80
8.31293186e-78
7.97443744e-78
1.44605757e-75
1.39370074e-75
2.45818774e-73
2.38009289e-73
4.08078257e-71
3.96891454e-71
6.61076642e-69
6.45774251e-69
1.04423775e-66
1.02441184e-66
1.60702106e-64
1.58298973e-64
2.4072844e-62
2.38054931e-62
3.50668609e-60
3.48013817e-60
4.96224221e-58
4.93916292e-58
6.81370216e-56
6.7934423e-56
9.06746717e-54
9.03385452e-54
1.1679303e-51
1.15887373e-51
1.45396817e-49
1.43287433e-49
1.74668996e-47
1.71265785e-47
2.02130945e-45
2.02034964e-45
2.24855297e-43
2.24053824e-43
2.40043715e-41
2.38309241e-41
2.45303459e-39
2.42680224e-39
2.39340136e-37
2.36017687e-37
2.22312137e-35
2.18912019e-35
1.95936495e-33
1.92165348e-33
1.63257321e-31
1.63236964e-31
1.28011067e-29
1.27907168e-29
9.40431248e-28
9.38236686e-28
6.43447531e-26
6.40189812e-26
4.07251693e-24
4.03773469e-24
2.36509123e-22
2.33839294e-22
1.24786979e-20
1.23395351e-20
5.90866468e-19
5.85968929e-19
2.47201141e-17
2.45497898e-17
8.95475605e-16
8.95530553e-16
2.73139676e-14
2.72941864e-14
6.74486433e-13
6.74316884e-13
1.56069621e-11
1.55710546e-11
1.89896192e-08
1.90200615e-08
0.0630656793
0.258026765
6.93469623
8.34275594
9.23177349
8.4205951
3.32729201
2.7607561
0.615928286
0.497012909
0.133236072
0.11976544
0.0291242488
0.027100968
0.00571558485
0.00551623947
0.00103013787
0.00102271058
0.000179165392
0.000179218648
3.45542238e-05
3.45740711e-05
1.16608853e-05
1.16733211e-05
8.30511914e-06
8.30611551e-06
7.8434443e-06
7.84343263e-06
7.78359979e-06
7.78362324e-06
7.77633471e-06
7.77634755e-06
7.77549085e-06
7.77550755e-06
7.77539273e-06
7.77541831e-06
7.77539052e-06
7.7753922e-06
7.77539156e-06
7.77537788e-06
7.77539816e-06
7.77538473e-06
7.77539484e-06
7.77538924e-06
7.775402e-06
7.77538453e-06
7.77540315e-06
7.77539033e-06
7.7754021e-06
7.77539449e-06
7.77540381e-06
7.77539784e-06
7.77540313e-06
7.77539473e-06
7.77540582e-06
7.77539422e-06
7.77539131e-06
7.77541485e-06
7.77538431e-06
7.77540092e-06
7.77539515e-06
7.77539516e-06
7.7753866e-06
7.77539363e-06
7.77538388e-06
7.77539481e-06
7.77538448e-06
7.77540384e-06
7.77538297e-06
7.77540049e-06
7.77538324e-06
7.77539135e-06
7.77538858e-06
7.77539757e-06
7.77538261e-06
7.77540671e-06
7.77538238e-06
7.7754086e-06
7.77539031e-06
7.77540141e-06
7.77539473e-06
7.77538764e-06
7.77539339e-06
7.77538764e-06
7.77539933e-06
7.77538998e-06
7.77539368e-06
7.77538953e-06
7.77539907e-06
7.77537996e-06
7.7754163e-06
7.77538054e-06
7.77540734e-06
7.77538798e-06
7.77541121e-06
7.7753819e-06
7.77540507e-06
7.77539125e-06
7.77540161e-06
7.77539631e-06
7.77540439e-06
7.77538916e-06
7.77540032e-06
7.7753909e-06
7.77538898e-06
7.77540753e-06
7.77538574e-06
7.7753952e-06
7.77539494e-06
7.77538854e-06
7.77539473e-06
7.77539411e-06
7.77538684e-06
7.77539371e-06
7.77538925e-06
7.775399e-06
7.77537794e-06
7.77540703e-06
7.77538229e-06
7.7754126e-06
7.77538016e-06
7.77541315e-06
7.77537751e-06
7.77539778e-06
7.77539912e-06
7.77540311e-06
7.77538801e-06
7.77541218e-06
7.77538856e-06
7.77540689e-06
7.7754019e-06
7.77540141e-06
7.77540584e-06
7.77540799e-06
7.77539841e-06
7.77541489e-06
7.77539661e-06
7.7754065e-06
7.775394e-06
7.77540076e-06
7.77539483e-06
7.77539151e-06
7.77539094e-06
7.77539935e-06
7.77538499e-06
7.77539489e-06
7.77538082e-06
7.77540801e-06
7.77538788e-06
7.77538887e-06
7.77541335e-06
7.77537595e-06
7.77541056e-06
7.77538572e-06
7.77540669e-06
7.77539707e-06
7.77540397e-06
7.77538506e-06
7.77540505e-06
7.77538311e-06
7.77541573e-06
7.77538363e-06
7.77542207e-06
7.77538588e-06
7.77542163e-06
7.77539016e-06
7.77539839e-06
7.77540204e-06
7.77539718e-06
7.77538144e-06
7.77539842e-06
7.775388e-06
7.77539099e-06
7.77540611e-06
7.77538104e-06
7.77541999e-06
7.77542185e-06
7.7756808e-06
7.77570103e-06
7.77795794e-06
7.77793655e-06
7.77568428e-06
7.77568751e-06
7.77542427e-06
7.7754121e-06
7.77539665e-06
7.7754031e-06
7.77539474e-06
7.77540136e-06
7.77539686e-06
7.77540871e-06
7.7753852e-06
7.77541173e-06
7.77539522e-06
7.77540337e-06
7.77539538e-06
7.77540316e-06
7.77538985e-06
7.77540343e-06
7.77539017e-06
7.77541315e-06
7.7753861e-06
7.77541954e-06
7.775383e-06
7.77541611e-06
7.77539061e-06
7.7754001e-06
7.77539862e-06
7.77540842e-06
7.77540093e-06
7.77540675e-06
7.77540175e-06
7.77540731e-06
7.77539317e-06
7.77540725e-06
7.77539862e-06
7.77540435e-06
7.77539939e-06
7.77539647e-06
7.77540728e-06
7.77539864e-06
7.77539899e-06
7.77539507e-06
7.77541196e-06
7.77539088e-06
7.77539676e-06
7.77541571e-06
7.7753818e-06
7.77540978e-06
7.77540335e-06
7.77540085e-06
7.77540998e-06
7.77540071e-06
7.7753994e-06
7.77540233e-06
7.77540978e-06
7.77540523e-06
7.77540773e-06
7.77540328e-06
7.7754051e-06
7.77540741e-06
7.77541874e-06
7.77538983e-06
7.77542612e-06
7.77538238e-06
7.77541966e-06
7.77538866e-06
7.77540954e-06
7.77539614e-06
7.775393e-06
7.77541048e-06
7.77539721e-06
7.77540197e-06
7.77539902e-06
7.7754117e-06
7.77540292e-06
7.77539056e-06
7.77541184e-06
7.77539903e-06
7.77541188e-06
7.77540816e-06
7.7754091e-06
7.77540555e-06
7.77539766e-06
7.77540522e-06
7.77538661e-06
7.7754096e-06
7.77539375e-06
7.77540584e-06
7.77539241e-06
7.77541758e-06
7.77538363e-06
7.77540758e-06
7.77540583e-06
7.77540044e-06
7.77541134e-06
7.77540211e-06
7.77540359e-06
7.77540905e-06
7.77539455e-06
7.7754091e-06
7.77539917e-06
7.77540175e-06
7.77539718e-06
7.77540348e-06
7.77539702e-06
7.77539989e-06
7.77540589e-06
7.77540117e-06
7.77540568e-06
7.77540701e-06
7.77540524e-06
7.7754129e-06
7.77538765e-06
7.77539924e-06
7.77540498e-06
7.77539883e-06
7.77540814e-06
7.77541426e-06
7.77540739e-06
7.77541029e-06
7.77541267e-06
7.7754103e-06
7.77540859e-06
7.77540145e-06
7.77541128e-06
7.77540444e-06
7.77539988e-06
7.77539269e-06
7.7754164e-06
7.7753853e-06
7.77541507e-06
7.77539069e-06
7.77541039e-06
7.77540455e-06
7.77540118e-06
7.77541212e-06
7.77540097e-06
7.77541501e-06
7.77538933e-06
7.77541425e-06
7.77538061e-06
7.77541944e-06
7.77539598e-06
7.77542281e-06
7.77539719e-06
7.77540128e-06
7.7754086e-06
7.77541268e-06
7.7754053e-06
7.77541063e-06
7.775399e-06
7.77540822e-06
7.77540192e-06
7.77540628e-06
7.7754042e-06
7.7754056e-06
7.77541468e-06
7.77540189e-06
7.77540514e-06
7.7754091e-06
7.77541767e-06
7.77540682e-06
7.77541063e-06
7.7754156e-06
7.77540685e-06
7.7754051e-06
7.77541034e-06
7.77540997e-06
7.7753996e-06
7.77541438e-06
7.77540867e-06
7.77540537e-06
7.77540462e-06
7.77539612e-06
7.77540538e-06
7.77540982e-06
7.77540077e-06
7.77541271e-06
7.77540275e-06
7.77540325e-06
7.77540948e-06
7.77540987e-06
7.7754082e-06
7.77540799e-06
7.77540131e-06
7.77541322e-06
7.77540286e-06
7.77541965e-06
7.77540172e-06
7.77541548e-06
7.77540898e-06
7.77541372e-06
7.77540702e-06
7.77542379e-06
7.77540345e-06
7.77541557e-06
7.77540702e-06
7.77541782e-06
7.77541086e-06
7.77541083e-06
7.77540578e-06
7.77541405e-06
7.77540718e-06
7.77541631e-06
7.77540766e-06
7.77540037e-06
7.77542153e-06
7.77539006e-06
7.77541408e-06
7.77539807e-06
7.77541242e-06
7.77540629e-06
7.77540782e-06
7.77541459e-06
7.77541238e-06
7.77540456e-06
7.77541348e-06
7.77540618e-06
7.77541246e-06
7.77541062e-06
7.77540864e-06
7.77539923e-06
7.77542372e-06
7.77538449e-06
7.77542507e-06
7.77539029e-06
7.77542356e-06
7.77540786e-06
7.77540494e-06
7.77541301e-06
7.77541462e-06
7.77541474e-06
7.77540797e-06
7.77540576e-06
7.77541416e-06
7.7754099e-06
7.77541353e-06
7.77541583e-06
7.775423e-06
7.77541114e-06
7.77541893e-06
7.77540334e-06
7.77543046e-06
7.77540296e-06
7.77542583e-06
7.77540901e-06
7.77541965e-06
7.7754071e-06
7.77541338e-06
7.7754139e-06
7.77541591e-06
7.77541733e-06
7.77541539e-06
7.77542259e-06
7.77540357e-06
7.77542887e-06
7.77540507e-06
7.77542041e-06
7.77541653e-06
7.77541092e-06
7.775422e-06
7.77540151e-06
7.77542062e-06
7.77541063e-06
7.77541752e-06
7.77541225e-06
7.77541792e-06
7.77541436e-06
7.77541526e-06
7.77541428e-06
7.77541475e-06
7.77541335e-06
7.7754049e-06
7.77540999e-06
7.77541879e-06
7.7754121e-06
7.7754087e-06
7.77541334e-06
7.77541776e-06
7.7754128e-06
7.77541205e-06
7.77540719e-06
7.77542148e-06
7.77540473e-06
7.77543353e-06
7.77541818e-06
7.77542013e-06
7.77541174e-06
7.77542687e-06
7.77540314e-06
7.77541694e-06
7.77540488e-06
7.77540939e-06
7.77541332e-06
7.77541977e-06
7.77541226e-06
7.77542597e-06
7.77541462e-06
7.7754087e-06
7.77541244e-06
7.77541391e-06
7.77541224e-06
7.77541979e-06
7.77540809e-06
7.77541358e-06
7.77541319e-06
7.77540536e-06
7.77541482e-06
7.77540528e-06
7.77542553e-06
7.7754046e-06
7.77543969e-06
7.77540332e-06
7.77543154e-06
7.775396e-06
7.77542966e-06
7.77540812e-06
7.77541516e-06
7.77541416e-06
7.77541687e-06
7.77541972e-06
7.77541544e-06
7.77542107e-06
7.77541536e-06
7.77540296e-06
7.77542688e-06
7.77540945e-06
7.77541678e-06
7.77541921e-06
7.77541744e-06
7.77541196e-06
7.77541632e-06
7.77541483e-06
7.77541758e-06
7.7754151e-06
7.77541709e-06
7.77541969e-06
7.77541535e-06
7.77541586e-06
7.77541922e-06
7.77541785e-06
7.77541891e-06
7.77541675e-06
7.7754192e-06
7.7754173e-06
7.77541875e-06
7.77541922e-06
7.77541997e-06
7.77541956e-06
7.7754202e-06
7.77542174e-06
7.7754219e-06
7.77542137e-06
7.77542289e-06
7.77542355e-06
7.77542353e-06
7.77542454e-06
7.77542545e-06
7.7754269e-06
7.77542734e-06
7.7754284e-06
7.77542978e-06
7.77543065e-06
7.7754322e-06
7.77543411e-06
7.77543597e-06
7.77543751e-06
7.77544034e-06
7.77544301e-06
7.77544621e-06
7.77544991e-06
7.77545366e-06
7.77545762e-06
7.77546158e-06
7.77546482e-06
7.77546699e-06
7.77546836e-06
7.7754693e-06
7.77547013e-06
7.77547003e-06
7.77547032e-06
7.77547034e-06
7.77547025e-06
7.7754704e-06
7.77547036e-06
7.77547018e-06
7.77547054e-06
7.77547014e-06
7.77547016e-06
7.77547021e-06
7.77547025e-06
7.77547022e-06
7.77547022e-06
7.77547028e-06
7.77547019e-06
7.77547008e-06
7.77547047e-06
)
;

boundaryField
{
    closed
    {
        type            calculated;
        value           uniform 0;
    }
    open
    {
        type            calculated;
        value           uniform 0;
    }
    sides
    {
        type            empty;
    }
}


// ************************************************************************* //
