/*--------------------------------*- C++ -*----------------------------------*\
| =========                 |                                                 |
| \\      /  F ield         | OpenFOAM: The Open Source CFD Toolbox           |
|  \\    /   O peration     | Version:  2206                                  |
|   \\  /    A nd           | Website:  www.openfoam.com                      |
|    \\/     M anipulation  |                                                 |
\*---------------------------------------------------------------------------*/
FoamFile
{
    version     2.0;
    format      ascii;
    arch        "LSB;label=32;scalar=64";
    class       volVectorField;
    location    "1.74e-05";
    object      U;
}
// * * * * * * * * * * * * * * * * * * * * * * * * * * * * * * * * * * * * * //

dimensions      [0 1 -1 0 0 0 0];

internalField   nonuniform List<vector> 
3183
(
(5.23940049e-13 0 0)
(2.45060209e-13 0 0)
(-3.81098373e-13 0 0)
(-4.78844581e-13 0 0)
(-1.84752387e-13 0 0)
(-1.37888343e-17 0 0)
(-1.03626291e-18 0 0)
(-1.04016052e-22 0 0)
(8.38312375e-20 0 0)
(2.94940727e-18 0 0)
(4.84815416e-14 0 0)
(3.26947315e-13 0 0)
(7.73033846e-13 0 0)
(3.22146779e-13 0 0)
(2.02712604e-13 0 0)
(-1.10515847e-14 0 0)
(-4.37303665e-13 0 0)
(-7.20657627e-13 0 0)
(-1.04485568e-12 0 0)
(-2.93145651e-13 0 0)
(3.60068179e-13 0 0)
(2.30247105e-16 0 0)
(1.7343102e-13 0 0)
(4.25563664e-13 0 0)
(5.11882589e-13 0 0)
(1.05872147e-12 0 0)
(9.26990954e-13 0 0)
(5.68834583e-13 0 0)
(2.07491121e-13 0 0)
(1.04476433e-13 0 0)
(-3.90233925e-14 0 0)
(4.93307641e-14 0 0)
(-5.33072788e-13 0 0)
(-7.90348524e-13 0 0)
(-7.06606821e-13 0 0)
(-7.24048281e-13 0 0)
(-1.20014311e-12 0 0)
(-1.46551768e-12 0 0)
(-1.17577141e-12 0 0)
(-9.24405142e-13 0 0)
(-5.90138773e-13 0 0)
(4.30640033e-14 0 0)
(7.3869847e-13 0 0)
(6.61604381e-13 0 0)
(1.32039298e-12 0 0)
(1.8969618e-12 0 0)
(1.73082745e-12 0 0)
(1.66937295e-12 0 0)
(1.20747464e-12 0 0)
(8.71828343e-13 0 0)
(1.76799542e-13 0 0)
(-1.44245146e-13 0 0)
(-1.17910483e-12 0 0)
(-1.30093621e-12 0 0)
(-1.75159769e-12 0 0)
(-2.47558656e-12 0 0)
(-3.0312371e-12 0 0)
(-3.62695472e-12 0 0)
(-4.23708238e-12 0 0)
(-4.46854258e-12 0 0)
(-4.77083268e-12 0 0)
(-5.43006093e-12 0 0)
(-5.33468512e-12 0 0)
(-6.04121929e-12 0 0)
(-5.5432943e-12 0 0)
(-6.02769988e-12 0 0)
(-6.19797824e-12 0 0)
(-5.88857613e-12 0 0)
(-6.0655113e-12 0 0)
(-6.66539376e-12 0 0)
(-6.69368002e-12 0 0)
(-6.82515815e-12 0 0)
(-6.30796078e-12 0 0)
(-6.95870577e-12 0 0)
(-7.84384332e-12 0 0)
(-7.30988087e-12 0 0)
(-7.95769975e-12 0 0)
(-7.75454773e-12 0 0)
(-8.01353003e-12 0 0)
(-8.29760389e-12 0 0)
(-9.53195308e-12 0 0)
(-8.12753243e-12 0 0)
(-8.78950808e-12 0 0)
(-9.57660748e-12 0 0)
(-9.06802864e-12 0 0)
(-8.60409768e-12 0 0)
(-9.44876372e-12 0 0)
(-9.7133288e-12 0 0)
(-9.10581131e-12 0 0)
(-9.60796155e-12 0 0)
(-1.05199336e-11 0 0)
(-1.02268572e-11 0 0)
(-9.69128078e-12 0 0)
(-9.95337564e-12 0 0)
(-1.04549728e-11 0 0)
(-1.08552119e-11 0 0)
(-1.07527818e-11 0 0)
(-1.02809321e-11 0 0)
(-1.08573785e-11 0 0)
(-1.07012034e-11 0 0)
(-1.07571494e-11 0 0)
(-1.14694931e-11 0 0)
(-1.12330479e-11 0 0)
(-1.06945987e-11 0 0)
(-9.9746494e-12 0 0)
(-1.07753802e-11 0 0)
(-1.08518431e-11 0 0)
(-1.14977353e-11 0 0)
(-1.2134412e-11 0 0)
(-1.17073216e-11 0 0)
(-1.05747032e-11 0 0)
(-1.12847409e-11 0 0)
(-1.05649102e-11 0 0)
(-1.17511376e-11 0 0)
(-1.0526891e-11 0 0)
(-1.11000568e-11 0 0)
(-1.06694794e-11 0 0)
(-9.85064201e-12 0 0)
(-1.04478294e-11 0 0)
(-1.1151145e-11 0 0)
(-1.15183705e-11 0 0)
(-1.05914101e-11 0 0)
(-1.00080007e-11 0 0)
(-1.08531126e-11 0 0)
(-1.17278748e-11 0 0)
(-1.1173307e-11 0 0)
(-1.26201765e-11 0 0)
(-1.20081855e-11 0 0)
(-1.13278956e-11 0 0)
(-1.22955276e-11 0 0)
(-1.2301692e-11 0 0)
(-1.15343769e-11 0 0)
(-1.32741425e-11 0 0)
(-1.3081165e-11 0 0)
(-1.10168433e-11 0 0)
(-1.36822916e-11 0 0)
(-1.3124773e-11 0 0)
(-1.26163011e-11 0 0)
(-1.34144746e-11 0 0)
(-1.26415182e-11 0 0)
(-1.36783016e-11 0 0)
(-1.31459425e-11 0 0)
(-1.37665143e-11 0 0)
(-1.40403219e-11 0 0)
(-1.2624661e-11 0 0)
(-1.3634761e-11 0 0)
(-1.36668047e-11 0 0)
(-1.48376704e-11 0 0)
(-1.35710613e-11 0 0)
(-1.37094172e-11 0 0)
(-1.47764211e-11 0 0)
(-1.46261886e-11 0 0)
(-1.38374655e-11 0 0)
(-1.43243872e-11 0 0)
(-1.44452439e-11 0 0)
(-1.31539922e-11 0 0)
(-1.44297885e-11 0 0)
(-1.44237887e-11 0 0)
(-1.33607174e-11 0 0)
(-1.41142154e-11 0 0)
(-1.44145814e-11 0 0)
(-1.37438355e-11 0 0)
(-1.35012825e-11 0 0)
(-1.32573019e-11 0 0)
(-1.34522149e-11 0 0)
(-1.34970664e-11 0 0)
(-1.36791238e-11 0 0)
(-1.30265504e-11 0 0)
(-1.31326418e-11 0 0)
(-1.43854737e-11 0 0)
(-1.33815987e-11 0 0)
(-1.28185497e-11 0 0)
(-1.36959157e-11 0 0)
(-1.33551408e-11 0 0)
(-1.33249494e-11 0 0)
(-1.37563417e-11 0 0)
(-1.50012954e-11 0 0)
(-1.30715968e-11 0 0)
(-1.38632749e-11 0 0)
(-1.56769868e-11 0 0)
(-1.37888864e-11 0 0)
(-1.41949595e-11 0 0)
(-1.35350623e-11 0 0)
(-1.48175425e-11 0 0)
(-1.50493339e-11 0 0)
(-1.62491555e-11 0 0)
(-1.49833135e-11 0 0)
(-1.54283242e-11 0 0)
(-1.53811382e-11 0 0)
(-1.48249743e-11 0 0)
(-1.53050123e-11 0 0)
(-1.58415838e-11 0 0)
(-1.57825013e-11 0 0)
(-1.61574756e-11 0 0)
(-1.59577519e-11 0 0)
(-1.57098963e-11 0 0)
(-1.58240969e-11 0 0)
(-1.56636473e-11 0 0)
(-1.66515478e-11 0 0)
(-1.60183062e-11 0 0)
(-1.51581587e-11 0 0)
(-1.5890213e-11 0 0)
(-1.53931494e-11 0 0)
(-1.66127017e-11 0 0)
(-1.55963671e-11 0 0)
(-1.57917731e-11 0 0)
(-1.60820843e-11 0 0)
(-1.6097292e-11 0 0)
(-1.71335828e-11 0 0)
(-1.5521332e-11 0 0)
(-1.5360839e-11 0 0)
(-1.62376668e-11 0 0)
(-1.5486253e-11 0 0)
(-1.64514721e-11 0 0)
(-1.5802726e-11 0 0)
(-1.62701635e-11 0 0)
(-1.5842325e-11 0 0)
(-1.51424746e-11 0 0)
(-1.61845635e-11 0 0)
(-1.65640596e-11 0 0)
(-1.5986309e-11 0 0)
(-1.69075417e-11 0 0)
(-1.70856677e-11 0 0)
(-1.74276747e-11 0 0)
(-1.63098584e-11 0 0)
(-1.63336285e-11 0 0)
(-1.67602267e-11 0 0)
(-1.72180427e-11 0 0)
(-1.73445732e-11 0 0)
(-1.74004959e-11 0 0)
(-1.69035901e-11 0 0)
(-1.73703798e-11 0 0)
(-1.74390496e-11 0 0)
(-1.80685832e-11 0 0)
(-1.66456386e-11 0 0)
(-1.66982482e-11 0 0)
(-1.65432353e-11 0 0)
(-1.75234454e-11 0 0)
(-1.71630886e-11 0 0)
(-1.70052475e-11 0 0)
(-1.74735281e-11 0 0)
(-1.70648274e-11 0 0)
(-1.6255521e-11 0 0)
(-1.64727418e-11 0 0)
(-1.67984045e-11 0 0)
(-1.68667095e-11 0 0)
(-1.61710071e-11 0 0)
(-1.67821908e-11 0 0)
(-1.6047893e-11 0 0)
(-1.62215078e-11 0 0)
(-1.70010491e-11 0 0)
(-1.66292951e-11 0 0)
(-1.71043151e-11 0 0)
(-1.58827567e-11 0 0)
(-1.62760506e-11 0 0)
(-1.52124283e-11 0 0)
(-1.64861262e-11 0 0)
(-1.58011385e-11 0 0)
(-1.67625906e-11 0 0)
(-1.70871613e-11 0 0)
(-1.68645656e-11 0 0)
(-1.75554122e-11 0 0)
(-1.69310237e-11 0 0)
(-1.71480882e-11 0 0)
(-1.73959981e-11 0 0)
(-1.80998677e-11 0 0)
(-1.77895826e-11 0 0)
(-1.82765459e-11 0 0)
(-1.79509515e-11 0 0)
(-1.75239697e-11 0 0)
(-1.82613985e-11 0 0)
(-1.92908925e-11 0 0)
(-1.86086981e-11 0 0)
(-1.8539596e-11 0 0)
(-1.92862517e-11 0 0)
(-1.8337592e-11 0 0)
(-1.97337784e-11 0 0)
(-1.96989821e-11 0 0)
(-1.92050888e-11 0 0)
(-1.95022528e-11 0 0)
(-1.90892019e-11 0 0)
(-1.96993384e-11 0 0)
(-2.05105595e-11 0 0)
(-2.08564255e-11 0 0)
(-1.97886412e-11 0 0)
(-2.06170517e-11 0 0)
(-2.01559287e-11 0 0)
(-1.96770246e-11 0 0)
(-2.09512466e-11 0 0)
(-1.91276765e-11 0 0)
(-1.95253141e-11 0 0)
(-1.96210712e-11 0 0)
(-1.92694858e-11 0 0)
(-1.92987733e-11 0 0)
(-1.97907713e-11 0 0)
(-1.92353088e-11 0 0)
(-1.93452264e-11 0 0)
(-2.07393559e-11 0 0)
(-1.95961315e-11 0 0)
(-1.99496379e-11 0 0)
(-2.01101784e-11 0 0)
(-2.05605019e-11 0 0)
(-2.00644375e-11 0 0)
(-2.01661302e-11 0 0)
(-2.07855605e-11 0 0)
(-2.10755389e-11 0 0)
(-1.96356156e-11 0 0)
(-1.97182871e-11 0 0)
(-2.12028285e-11 0 0)
(-1.99200163e-11 0 0)
(-2.1266437e-11 0 0)
(-2.10164298e-11 0 0)
(-2.03537631e-11 0 0)
(-2.10411832e-11 0 0)
(-2.10971924e-11 0 0)
(-2.13993682e-11 0 0)
(-2.06505258e-11 0 0)
(-2.16729343e-11 0 0)
(-2.10579856e-11 0 0)
(-2.15111732e-11 0 0)
(-2.09387233e-11 0 0)
(-2.17897888e-11 0 0)
(-2.05800826e-11 0 0)
(-2.08537429e-11 0 0)
(-2.26079648e-11 0 0)
(-2.1186658e-11 0 0)
(-2.20759305e-11 0 0)
(-2.14645621e-11 0 0)
(-2.17876336e-11 0 0)
(-2.18037983e-11 0 0)
(-2.05641968e-11 0 0)
(-2.10685812e-11 0 0)
(-2.10055625e-11 0 0)
(-2.14338526e-11 0 0)
(-2.03609726e-11 0 0)
(-2.02275806e-11 0 0)
(-1.94151393e-11 0 0)
(-2.01568763e-11 0 0)
(-1.99632897e-11 0 0)
(-1.93329019e-11 0 0)
(-1.86240721e-11 0 0)
(-2.00475133e-11 0 0)
(-1.92918921e-11 0 0)
(-1.82196467e-11 0 0)
(-1.9303114e-11 0 0)
(-1.91490887e-11 0 0)
(-1.91864942e-11 0 0)
(-1.85625193e-11 0 0)
(-1.8626656e-11 0 0)
(-1.89679783e-11 0 0)
(-1.89153033e-11 0 0)
(-1.88692597e-11 0 0)
(-1.96227641e-11 0 0)
(-1.91466823e-11 0 0)
(-1.85383058e-11 0 0)
(-1.85250343e-11 0 0)
(-1.95237313e-11 0 0)
(-1.88604995e-11 0 0)
(-1.89761246e-11 0 0)
(-1.8339876e-11 0 0)
(-1.86066419e-11 0 0)
(-1.89432599e-11 0 0)
(-1.83730308e-11 0 0)
(-1.78730476e-11 0 0)
(-1.86469324e-11 0 0)
(-1.91802597e-11 0 0)
(-1.93116991e-11 0 0)
(-1.94469605e-11 0 0)
(-1.92939647e-11 0 0)
(-1.90810218e-11 0 0)
(-1.80279353e-11 0 0)
(-1.87138996e-11 0 0)
(-1.7381545e-11 0 0)
(-1.58335876e-11 0 0)
(-1.75541835e-11 0 0)
(-1.7974542e-11 0 0)
(-1.70082755e-11 0 0)
(-1.72240211e-11 0 0)
(-1.6787401e-11 0 0)
(-1.76724664e-11 0 0)
(-1.75716212e-11 0 0)
(-1.71119386e-11 0 0)
(-1.71696757e-11 0 0)
(-1.66950304e-11 0 0)
(-1.77127113e-11 0 0)
(-1.77928062e-11 0 0)
(-1.64326126e-11 0 0)
(-1.79160673e-11 0 0)
(-1.68958424e-11 0 0)
(-1.64204555e-11 0 0)
(-1.59288322e-11 0 0)
(-1.71752313e-11 0 0)
(-1.61581044e-11 0 0)
(-1.60407207e-11 0 0)
(-1.62228743e-11 0 0)
(-1.63886134e-11 0 0)
(-1.59237588e-11 0 0)
(-1.53890415e-11 0 0)
(-1.47526792e-11 0 0)
(-1.44827655e-11 0 0)
(-1.55715062e-11 0 0)
(-1.58914185e-11 0 0)
(-1.490871e-11 0 0)
(-1.53288744e-11 0 0)
(-1.58626218e-11 0 0)
(-1.59275332e-11 0 0)
(-1.54676484e-11 0 0)
(-1.52449169e-11 0 0)
(-1.42131959e-11 0 0)
(-1.56498642e-11 0 0)
(-1.53669183e-11 0 0)
(-1.46446578e-11 0 0)
(-1.39467049e-11 0 0)
(-1.43050305e-11 0 0)
(-1.60557881e-11 0 0)
(-1.42986564e-11 0 0)
(-1.43896545e-11 0 0)
(-1.41237082e-11 0 0)
(-1.52090815e-11 0 0)
(-1.47167207e-11 0 0)
(-1.4738984e-11 0 0)
(-1.42588942e-11 0 0)
(-1.41415164e-11 0 0)
(-1.36985339e-11 0 0)
(-1.3716216e-11 0 0)
(-1.3737674e-11 0 0)
(-1.37956607e-11 0 0)
(-1.36006378e-11 0 0)
(-1.35982493e-11 0 0)
(-1.31895236e-11 0 0)
(-1.33608947e-11 0 0)
(-1.38410111e-11 0 0)
(-1.39217184e-11 0 0)
(-1.32030789e-11 0 0)
(-1.27724046e-11 0 0)
(-1.3075069e-11 0 0)
(-1.35049854e-11 0 0)
(-1.29234045e-11 0 0)
(-1.27222004e-11 0 0)
(-1.32190965e-11 0 0)
(-1.28065859e-11 0 0)
(-1.286192e-11 0 0)
(-1.28753172e-11 0 0)
(-1.25097433e-11 0 0)
(-1.30700677e-11 0 0)
(-1.15520029e-11 0 0)
(-1.34519375e-11 0 0)
(-1.29081872e-11 0 0)
(-1.2165265e-11 0 0)
(-1.11280975e-11 0 0)
(-1.22463504e-11 0 0)
(-1.26078372e-11 0 0)
(-1.29709535e-11 0 0)
(-1.24884578e-11 0 0)
(-1.17485295e-11 0 0)
(-1.25748906e-11 0 0)
(-1.28741211e-11 0 0)
(-1.3132389e-11 0 0)
(-1.3047091e-11 0 0)
(-1.24898752e-11 0 0)
(-1.39574162e-11 0 0)
(-1.21475786e-11 0 0)
(-1.35359968e-11 0 0)
(-1.31102304e-11 0 0)
(-1.25918388e-11 0 0)
(-1.28874405e-11 0 0)
(-1.30955911e-11 0 0)
(-1.2124997e-11 0 0)
(-1.15469363e-11 0 0)
(-1.3184125e-11 0 0)
(-1.16987143e-11 0 0)
(-1.16326997e-11 0 0)
(-1.1298608e-11 0 0)
(-1.20311944e-11 0 0)
(-1.06402434e-11 0 0)
(-1.18143669e-11 0 0)
(-1.14797418e-11 0 0)
(-1.25663584e-11 0 0)
(-1.17958944e-11 0 0)
(-1.12790691e-11 0 0)
(-1.14495975e-11 0 0)
(-1.18272554e-11 0 0)
(-1.18950119e-11 0 0)
(-1.11277985e-11 0 0)
(-1.13429804e-11 0 0)
(-1.14903558e-11 0 0)
(-1.12465239e-11 0 0)
(-1.23325269e-11 0 0)
(-1.11705293e-11 0 0)
(-1.05175862e-11 0 0)
(-1.09334844e-11 0 0)
(-1.14568869e-11 0 0)
(-1.22087275e-11 0 0)
(-1.2125117e-11 0 0)
(-1.12091133e-11 0 0)
(-1.10951871e-11 0 0)
(-1.14632871e-11 0 0)
(-1.16087064e-11 0 0)
(-1.05475888e-11 0 0)
(-1.02654182e-11 0 0)
(-1.10967605e-11 0 0)
(-1.04325383e-11 0 0)
(-9.91303153e-12 0 0)
(-9.47931421e-12 0 0)
(-9.06683828e-12 0 0)
(-1.0031504e-11 0 0)
(-9.61219818e-12 0 0)
(-7.90545166e-12 0 0)
(-8.93824862e-12 0 0)
(-8.77335779e-12 0 0)
(-8.4370365e-12 0 0)
(-8.195241e-12 0 0)
(-8.29241215e-12 0 0)
(-8.63626936e-12 0 0)
(-8.80231215e-12 0 0)
(-8.27744539e-12 0 0)
(-8.83276539e-12 0 0)
(-7.52012153e-12 0 0)
(-7.87175995e-12 0 0)
(-8.23386744e-12 0 0)
(-8.72599431e-12 0 0)
(-7.66318816e-12 0 0)
(-7.24135751e-12 0 0)
(-8.55897519e-12 0 0)
(-7.49479624e-12 0 0)
(-7.28695077e-12 0 0)
(-8.27161345e-12 0 0)
(-7.03385216e-12 0 0)
(-6.62476492e-12 0 0)
(-8.26792146e-12 0 0)
(-6.94282011e-12 0 0)
(-6.0883391e-12 0 0)
(-7.17795289e-12 0 0)
(-7.39345063e-12 0 0)
(-6.33047137e-12 0 0)
(-6.09222224e-12 0 0)
(-5.93174096e-12 0 0)
(-5.52027833e-12 0 0)
(-6.17386802e-12 0 0)
(-6.86999469e-12 0 0)
(-5.79520417e-12 0 0)
(-5.98056156e-12 0 0)
(-6.32208092e-12 0 0)
(-7.09024085e-12 0 0)
(-5.74200068e-12 0 0)
(-5.08989622e-12 0 0)
(-5.84646778e-12 0 0)
(-5.78260863e-12 0 0)
(-5.33444889e-12 0 0)
(-4.80898105e-12 0 0)
(-4.8014554e-12 0 0)
(-4.52994038e-12 0 0)
(-5.79596859e-12 0 0)
(-5.01568366e-12 0 0)
(-5.39223898e-12 0 0)
(-4.67151337e-12 0 0)
(-4.80190823e-12 0 0)
(-4.05947286e-12 0 0)
(-4.70776712e-12 0 0)
(-4.46631097e-12 0 0)
(-4.40195933e-12 0 0)
(-4.97997059e-12 0 0)
(-4.23602437e-12 0 0)
(-3.59206667e-12 0 0)
(-4.13233564e-12 0 0)
(-3.14028593e-12 0 0)
(-2.37568844e-12 0 0)
(-3.22421256e-12 0 0)
(-2.1143801e-12 0 0)
(-2.1605886e-12 0 0)
(-2.64837761e-12 0 0)
(-2.72643662e-12 0 0)
(-1.53874624e-12 0 0)
(-1.64809572e-12 0 0)
(-1.39941567e-12 0 0)
(-1.72145816e-12 0 0)
(-1.85326217e-12 0 0)
(-1.21719349e-12 0 0)
(-9.66915139e-13 0 0)
(-9.62010031e-13 0 0)
(-8.61942197e-13 0 0)
(-4.4069145e-13 0 0)
(7.65080291e-13 0 0)
(-8.4270139e-13 0 0)
(-5.62832296e-13 0 0)
(-1.67113227e-13 0 0)
(3.10582977e-13 0 0)
(1.58248471e-13 0 0)
(4.89267618e-13 0 0)
(7.92020741e-13 0 0)
(1.02201197e-12 0 0)
(9.55633519e-13 0 0)
(2.1858799e-13 0 0)
(1.43281884e-12 0 0)
(-1.10660753e-13 0 0)
(5.11387983e-13 0 0)
(1.27458306e-12 0 0)
(1.37995365e-12 0 0)
(1.1824603e-12 0 0)
(1.30933738e-12 0 0)
(1.75038697e-12 0 0)
(1.42524799e-12 0 0)
(1.5895713e-12 0 0)
(1.04299087e-12 0 0)
(2.62477758e-12 0 0)
(7.16028535e-13 0 0)
(1.76151857e-12 0 0)
(8.46405664e-13 0 0)
(3.47815354e-13 0 0)
(1.0034406e-12 0 0)
(7.31531842e-13 0 0)
(8.73983618e-13 0 0)
(1.12854412e-12 0 0)
(9.26934337e-13 0 0)
(5.68490748e-13 0 0)
(1.33242638e-12 0 0)
(2.00843326e-12 0 0)
(1.53046758e-12 0 0)
(1.55312231e-12 0 0)
(1.55079835e-12 0 0)
(2.07730443e-12 0 0)
(1.2542405e-12 0 0)
(1.93955102e-12 0 0)
(1.20825524e-12 0 0)
(1.60187104e-12 0 0)
(1.01745879e-12 0 0)
(1.60175594e-12 0 0)
(1.38251735e-12 0 0)
(1.77544767e-12 0 0)
(1.36803871e-12 0 0)
(1.48026006e-12 0 0)
(1.07070255e-12 0 0)
(1.81303821e-12 0 0)
(1.02054199e-12 0 0)
(1.78376837e-12 0 0)
(1.57118781e-12 0 0)
(1.66193435e-12 0 0)
(1.48286184e-12 0 0)
(1.67543847e-12 0 0)
(1.02663509e-12 0 0)
(1.5632389e-12 0 0)
(1.73409204e-12 0 0)
(1.95323137e-12 0 0)
(1.78899901e-12 0 0)
(2.48572738e-12 0 0)
(1.62195313e-12 0 0)
(1.4429643e-12 0 0)
(1.70577407e-12 0 0)
(1.31225639e-12 0 0)
(1.95144003e-12 0 0)
(1.58882714e-12 0 0)
(2.48287542e-12 0 0)
(1.9244546e-12 0 0)
(2.50035589e-12 0 0)
(2.87508339e-12 0 0)
(2.1443036e-12 0 0)
(2.48330626e-12 0 0)
(1.47046038e-12 0 0)
(2.27030692e-12 0 0)
(1.42347323e-12 0 0)
(2.12038405e-12 0 0)
(3.00106184e-12 0 0)
(2.64772257e-12 0 0)
(1.71269601e-12 0 0)
(2.84364435e-12 0 0)
(2.30873007e-12 0 0)
(2.41508784e-12 0 0)
(2.27255834e-12 0 0)
(3.12948697e-12 0 0)
(3.35586682e-12 0 0)
(3.69749097e-12 0 0)
(2.56920644e-12 0 0)
(3.36767268e-12 0 0)
(3.42757294e-12 0 0)
(3.50374229e-12 0 0)
(3.74200044e-12 0 0)
(4.79497417e-12 0 0)
(3.86592735e-12 0 0)
(4.23711514e-12 0 0)
(4.19899937e-12 0 0)
(4.06614514e-12 0 0)
(5.10492418e-12 0 0)
(4.79206488e-12 0 0)
(4.88853188e-12 0 0)
(4.55844535e-12 0 0)
(4.31819107e-12 0 0)
(4.28444043e-12 0 0)
(5.42653071e-12 0 0)
(4.32098241e-12 0 0)
(5.12015871e-12 0 0)
(5.22509208e-12 0 0)
(5.63329367e-12 0 0)
(4.57642124e-12 0 0)
(4.87135628e-12 0 0)
(6.40237681e-12 0 0)
(6.13467511e-12 0 0)
(5.35864115e-12 0 0)
(5.41864583e-12 0 0)
(6.39594021e-12 0 0)
(7.19236332e-12 0 0)
(6.44359743e-12 0 0)
(6.58135316e-12 0 0)
(7.23959335e-12 0 0)
(6.37617174e-12 0 0)
(7.33304284e-12 0 0)
(8.37007264e-12 0 0)
(8.15598605e-12 0 0)
(7.93315572e-12 0 0)
(7.50313062e-12 0 0)
(7.60556756e-12 0 0)
(6.99077186e-12 0 0)
(6.80409596e-12 0 0)
(6.53707006e-12 0 0)
(7.18519915e-12 0 0)
(7.20742052e-12 0 0)
(6.85341771e-12 0 0)
(6.91551368e-12 0 0)
(6.9662371e-12 0 0)
(7.55659843e-12 0 0)
(6.59903864e-12 0 0)
(7.0438011e-12 0 0)
(6.46611319e-12 0 0)
(7.34618321e-12 0 0)
(7.32255695e-12 0 0)
(6.95306437e-12 0 0)
(7.78497556e-12 0 0)
(6.98827186e-12 0 0)
(7.23082986e-12 0 0)
(6.95497595e-12 0 0)
(7.81502878e-12 0 0)
(7.80068493e-12 0 0)
(7.48584887e-12 0 0)
(7.75988721e-12 0 0)
(6.80201153e-12 0 0)
(8.11376508e-12 0 0)
(6.93022613e-12 0 0)
(7.16702735e-12 0 0)
(7.47886466e-12 0 0)
(7.57848483e-12 0 0)
(7.5230443e-12 0 0)
(7.15457655e-12 0 0)
(7.54913154e-12 0 0)
(6.24126764e-12 0 0)
(7.49244698e-12 0 0)
(7.42055031e-12 0 0)
(6.65053941e-12 0 0)
(8.7014668e-12 0 0)
(7.51673792e-12 0 0)
(8.98464524e-12 0 0)
(8.27157755e-12 0 0)
(7.94172357e-12 0 0)
(8.54143624e-12 0 0)
(8.75493892e-12 0 0)
(7.30598726e-12 0 0)
(8.27962904e-12 0 0)
(7.75549325e-12 0 0)
(7.21714342e-12 0 0)
(5.93238415e-12 0 0)
(7.16576555e-12 0 0)
(7.36332968e-12 0 0)
(7.56030788e-12 0 0)
(7.51554508e-12 0 0)
(7.48645077e-12 0 0)
(7.70487285e-12 0 0)
(7.35995737e-12 0 0)
(7.85511293e-12 0 0)
(7.23252059e-12 0 0)
(7.19981239e-12 0 0)
(8.20090617e-12 0 0)
(7.12285116e-12 0 0)
(7.7563039e-12 0 0)
(6.83448245e-12 0 0)
(6.62932756e-12 0 0)
(7.32764861e-12 0 0)
(6.65167683e-12 0 0)
(7.03917048e-12 0 0)
(6.93654978e-12 0 0)
(7.19016016e-12 0 0)
(6.33908753e-12 0 0)
(7.36103228e-12 0 0)
(7.68033156e-12 0 0)
(6.84009904e-12 0 0)
(8.91310356e-12 0 0)
(6.57480667e-12 0 0)
(7.90407095e-12 0 0)
(8.56563702e-12 0 0)
(8.36263245e-12 0 0)
(8.45405171e-12 0 0)
(7.91509731e-12 0 0)
(7.88905967e-12 0 0)
(8.38834765e-12 0 0)
(8.29765808e-12 0 0)
(7.458588e-12 0 0)
(6.82917147e-12 0 0)
(9.10000221e-12 0 0)
(8.44549109e-12 0 0)
(7.20986822e-12 0 0)
(8.29571035e-12 0 0)
(8.02773857e-12 0 0)
(7.79811395e-12 0 0)
(8.01948028e-12 0 0)
(8.43827335e-12 0 0)
(9.12579754e-12 0 0)
(9.48632299e-12 0 0)
(9.41014419e-12 0 0)
(9.84829659e-12 0 0)
(1.06183324e-11 0 0)
(9.91784993e-12 0 0)
(9.34954796e-12 0 0)
(9.4962104e-12 0 0)
(9.91028353e-12 0 0)
(9.02591487e-12 0 0)
(9.11498583e-12 0 0)
(9.57334132e-12 0 0)
(7.80798166e-12 0 0)
(8.74285617e-12 0 0)
(9.09751742e-12 0 0)
(8.90902791e-12 0 0)
(8.31349893e-12 0 0)
(8.56083991e-12 0 0)
(8.74497368e-12 0 0)
(8.89694169e-12 0 0)
(8.7399535e-12 0 0)
(9.07562917e-12 0 0)
(8.88065768e-12 0 0)
(9.32926758e-12 0 0)
(8.97602565e-12 0 0)
(8.5766856e-12 0 0)
(8.04892536e-12 0 0)
(9.26039792e-12 0 0)
(8.05584531e-12 0 0)
(8.14904647e-12 0 0)
(7.69019952e-12 0 0)
(8.43576901e-12 0 0)
(8.99157055e-12 0 0)
(9.05569012e-12 0 0)
(8.92083944e-12 0 0)
(9.24166965e-12 0 0)
(9.5465521e-12 0 0)
(9.89517349e-12 0 0)
(9.01232261e-12 0 0)
(8.54428625e-12 0 0)
(9.64875053e-12 0 0)
(9.00959369e-12 0 0)
(8.77704804e-12 0 0)
(8.09367297e-12 0 0)
(9.35308813e-12 0 0)
(9.21436748e-12 0 0)
(9.56178351e-12 0 0)
(8.122914e-12 0 0)
(8.31704999e-12 0 0)
(8.78090609e-12 0 0)
(9.56930841e-12 0 0)
(8.92052882e-12 0 0)
(8.92472189e-12 0 0)
(8.77929249e-12 0 0)
(9.81787996e-12 0 0)
(9.70898042e-12 0 0)
(9.75599881e-12 0 0)
(9.20500936e-12 0 0)
(8.92753955e-12 0 0)
(9.54670246e-12 0 0)
(9.86953883e-12 0 0)
(1.09488826e-11 0 0)
(1.06819544e-11 0 0)
(1.06724508e-11 0 0)
(1.08076241e-11 0 0)
(1.05672886e-11 0 0)
(1.06187932e-11 0 0)
(1.13577333e-11 0 0)
(1.11977317e-11 0 0)
(1.12106237e-11 0 0)
(1.19092614e-11 0 0)
(1.07833092e-11 0 0)
(1.10094441e-11 0 0)
(1.05275656e-11 0 0)
(1.11235615e-11 0 0)
(1.10045094e-11 0 0)
(1.00035971e-11 0 0)
(1.07342941e-11 0 0)
(1.05879282e-11 0 0)
(1.07319207e-11 0 0)
(9.94694263e-12 0 0)
(1.11925462e-11 0 0)
(1.11680203e-11 0 0)
(1.03054829e-11 0 0)
(1.19635301e-11 0 0)
(1.12556503e-11 0 0)
(1.14678366e-11 0 0)
(1.04834189e-11 0 0)
(1.14150187e-11 0 0)
(1.13111432e-11 0 0)
(1.19916368e-11 0 0)
(1.29709891e-11 0 0)
(1.01105766e-11 0 0)
(1.14875384e-11 0 0)
(1.12234678e-11 0 0)
(1.14524461e-11 0 0)
(1.09275046e-11 0 0)
(1.0951398e-11 0 0)
(1.01895766e-11 0 0)
(1.03392787e-11 0 0)
(1.04781067e-11 0 0)
(1.06124934e-11 0 0)
(1.16223531e-11 0 0)
(1.05393635e-11 0 0)
(1.05432793e-11 0 0)
(9.3479308e-12 0 0)
(1.0546225e-11 0 0)
(1.01735675e-11 0 0)
(9.66395829e-12 0 0)
(9.98383378e-12 0 0)
(9.97918291e-12 0 0)
(9.16395416e-12 0 0)
(9.44079675e-12 0 0)
(1.01714943e-11 0 0)
(1.00787163e-11 0 0)
(9.80899566e-12 0 0)
(9.98335743e-12 0 0)
(1.00708304e-11 0 0)
(1.0066023e-11 0 0)
(9.5231061e-12 0 0)
(9.16084342e-12 0 0)
(9.96726455e-12 0 0)
(9.62766646e-12 0 0)
(9.77694307e-12 0 0)
(1.03183305e-11 0 0)
(1.00558066e-11 0 0)
(9.42573371e-12 0 0)
(9.389436e-12 0 0)
(1.00583068e-11 0 0)
(9.39263908e-12 0 0)
(1.01004065e-11 0 0)
(9.95840243e-12 0 0)
(1.00715094e-11 0 0)
(9.28729297e-12 0 0)
(8.91430104e-12 0 0)
(9.68013222e-12 0 0)
(9.45923054e-12 0 0)
(9.11016824e-12 0 0)
(8.16625617e-12 0 0)
(1.00835774e-11 0 0)
(9.33005196e-12 0 0)
(9.14970162e-12 0 0)
(7.45853573e-12 0 0)
(8.19920431e-12 0 0)
(8.33323937e-12 0 0)
(8.76282164e-12 0 0)
(8.80517658e-12 0 0)
(8.53444888e-12 0 0)
(9.62362882e-12 0 0)
(8.70615372e-12 0 0)
(8.78337385e-12 0 0)
(9.4848942e-12 0 0)
(9.86937316e-12 0 0)
(1.00771933e-11 0 0)
(1.04210898e-11 0 0)
(9.77118684e-12 0 0)
(1.01070451e-11 0 0)
(1.00421458e-11 0 0)
(9.92656771e-12 0 0)
(1.11338252e-11 0 0)
(1.02421646e-11 0 0)
(1.0464143e-11 0 0)
(1.00993274e-11 0 0)
(1.02035009e-11 0 0)
(1.04336271e-11 0 0)
(9.7503884e-12 0 0)
(1.06898166e-11 0 0)
(1.07407633e-11 0 0)
(9.61095729e-12 0 0)
(1.0568753e-11 0 0)
(9.7973706e-12 0 0)
(1.01287353e-11 0 0)
(1.06034331e-11 0 0)
(9.34468695e-12 0 0)
(9.95079542e-12 0 0)
(9.5369838e-12 0 0)
(1.01256874e-11 0 0)
(1.10551205e-11 0 0)
(1.08439243e-11 0 0)
(1.09163756e-11 0 0)
(1.06462035e-11 0 0)
(1.05609467e-11 0 0)
(1.02403178e-11 0 0)
(9.18643158e-12 0 0)
(9.51358238e-12 0 0)
(9.74047996e-12 0 0)
(9.65984165e-12 0 0)
(9.71204143e-12 0 0)
(9.78878633e-12 0 0)
(1.00029179e-11 0 0)
(9.79137469e-12 0 0)
(9.41879519e-12 0 0)
(1.04926029e-11 0 0)
(9.8735688e-12 0 0)
(1.02783402e-11 0 0)
(9.86035827e-12 0 0)
(1.05195873e-11 0 0)
(1.02998744e-11 0 0)
(1.00114161e-11 0 0)
(9.25242811e-12 0 0)
(9.79425328e-12 0 0)
(1.0004439e-11 0 0)
(9.98191069e-12 0 0)
(8.95373825e-12 0 0)
(9.39626761e-12 0 0)
(9.60472848e-12 0 0)
(9.16931282e-12 0 0)
(8.64641062e-12 0 0)
(8.720533e-12 0 0)
(8.65988028e-12 0 0)
(8.02679141e-12 0 0)
(8.08414256e-12 0 0)
(7.76861275e-12 0 0)
(7.18980069e-12 0 0)
(7.70858558e-12 0 0)
(7.52881399e-12 0 0)
(7.04379208e-12 0 0)
(6.90254482e-12 0 0)
(6.79821119e-12 0 0)
(6.57320446e-12 0 0)
(5.72679149e-12 0 0)
(5.95451158e-12 0 0)
(6.59647959e-12 0 0)
(5.77304869e-12 0 0)
(6.49425675e-12 0 0)
(5.67700936e-12 0 0)
(5.21775641e-12 0 0)
(4.9643235e-12 0 0)
(5.96422479e-12 0 0)
(5.01288143e-12 0 0)
(5.16455537e-12 0 0)
(4.61634056e-12 0 0)
(4.75951103e-12 0 0)
(4.73998275e-12 0 0)
(4.32698994e-12 0 0)
(5.00270662e-12 0 0)
(4.66963084e-12 0 0)
(4.78401671e-12 0 0)
(5.0979785e-12 0 0)
(5.2600466e-12 0 0)
(5.28573571e-12 0 0)
(5.34359141e-12 0 0)
(5.08614173e-12 0 0)
(4.37498884e-12 0 0)
(5.08095497e-12 0 0)
(4.20531953e-12 0 0)
(4.33886751e-12 0 0)
(3.59561678e-12 0 0)
(4.55280509e-12 0 0)
(3.29541611e-12 0 0)
(4.18044251e-12 0 0)
(3.97882782e-12 0 0)
(3.24220827e-12 0 0)
(3.96805197e-12 0 0)
(4.16794918e-12 0 0)
(5.08924115e-12 0 0)
(3.9000591e-12 0 0)
(4.26785099e-12 0 0)
(3.65355182e-12 0 0)
(5.35576874e-12 0 0)
(4.05365138e-12 0 0)
(3.96381641e-12 0 0)
(3.88196897e-12 0 0)
(3.5510536e-12 0 0)
(3.24990255e-12 0 0)
(2.91053459e-12 0 0)
(3.60638304e-12 0 0)
(3.7039355e-12 0 0)
(3.61528525e-12 0 0)
(4.24837827e-12 0 0)
(3.68176358e-12 0 0)
(2.85664386e-12 0 0)
(3.13823508e-12 0 0)
(3.22131417e-12 0 0)
(2.69947938e-12 0 0)
(2.77810189e-12 0 0)
(2.6699089e-12 0 0)
(1.86772449e-12 0 0)
(1.12226615e-12 0 0)
(1.15438165e-12 0 0)
(1.89023491e-12 0 0)
(1.50358404e-12 0 0)
(5.80377442e-13 0 0)
(5.77874179e-13 0 0)
(8.52329811e-13 0 0)
(5.85708593e-13 0 0)
(4.33330015e-13 0 0)
(1.34374617e-12 0 0)
(3.70495866e-13 0 0)
(-5.26160086e-14 0 0)
(-1.12611218e-13 0 0)
(-8.72688789e-13 0 0)
(-7.79726598e-13 0 0)
(-1.46103864e-13 0 0)
(-7.76132903e-13 0 0)
(-1.86858768e-13 0 0)
(-3.61384179e-13 0 0)
(-1.86332985e-12 0 0)
(2.90973756e-13 0 0)
(2.04936141e-14 0 0)
(-5.63166557e-13 0 0)
(-4.5596762e-13 0 0)
(-9.23506937e-13 0 0)
(-1.23149531e-12 0 0)
(-9.33804621e-13 0 0)
(-7.73034853e-13 0 0)
(-2.1049836e-12 0 0)
(-1.1354974e-12 0 0)
(-2.27365614e-12 0 0)
(-1.76142161e-12 0 0)
(-2.14238218e-12 0 0)
(-2.1113409e-12 0 0)
(-2.16586794e-12 0 0)
(-2.64587804e-12 0 0)
(-2.43202577e-12 0 0)
(-1.48530611e-12 0 0)
(-2.33102587e-12 0 0)
(-2.05545817e-12 0 0)
(-3.90990804e-12 0 0)
(-2.94384848e-12 0 0)
(-2.33044125e-12 0 0)
(-3.91286521e-12 0 0)
(-3.23820435e-12 0 0)
(-2.95896552e-12 0 0)
(-3.14746222e-12 0 0)
(-3.39631924e-12 0 0)
(-3.94466238e-12 0 0)
(-3.34683106e-12 0 0)
(-3.12582991e-12 0 0)
(-2.83315843e-12 0 0)
(-3.74006954e-12 0 0)
(-4.55283868e-12 0 0)
(-4.08222212e-12 0 0)
(-4.05994035e-12 0 0)
(-4.44267086e-12 0 0)
(-3.85977804e-12 0 0)
(-5.22264083e-12 0 0)
(-3.77506749e-12 0 0)
(-3.94807725e-12 0 0)
(-3.30270422e-12 0 0)
(-3.97161535e-12 0 0)
(-3.85648842e-12 0 0)
(-4.11473288e-12 0 0)
(-4.88180636e-12 0 0)
(-4.08720263e-12 0 0)
(-4.2496442e-12 0 0)
(-4.49080543e-12 0 0)
(-4.05403921e-12 0 0)
(-3.96743302e-12 0 0)
(-3.46922462e-12 0 0)
(-4.29179986e-12 0 0)
(-3.91975409e-12 0 0)
(-4.52779537e-12 0 0)
(-3.42627752e-12 0 0)
(-3.65242015e-12 0 0)
(-3.44422364e-12 0 0)
(-3.68718053e-12 0 0)
(-3.99549916e-12 0 0)
(-3.88847832e-12 0 0)
(-4.56437976e-12 0 0)
(-4.49018322e-12 0 0)
(-4.10867102e-12 0 0)
(-4.95688397e-12 0 0)
(-4.44199756e-12 0 0)
(-4.65321763e-12 0 0)
(-3.43820227e-12 0 0)
(-5.13200105e-12 0 0)
(-3.32962585e-12 0 0)
(-4.32422058e-12 0 0)
(-5.35973919e-12 0 0)
(-5.09466487e-12 0 0)
(-5.14776475e-12 0 0)
(-6.1938234e-12 0 0)
(-6.93809343e-12 0 0)
(-5.88266628e-12 0 0)
(-6.24430557e-12 0 0)
(-6.2112762e-12 0 0)
(-6.4270847e-12 0 0)
(-6.24988084e-12 0 0)
(-6.994585e-12 0 0)
(-7.02453105e-12 0 0)
(-6.90646783e-12 0 0)
(-7.09477851e-12 0 0)
(-7.3514038e-12 0 0)
(-7.26430383e-12 0 0)
(-7.57253073e-12 0 0)
(-7.36521761e-12 0 0)
(-6.80350902e-12 0 0)
(-7.24056672e-12 0 0)
(-7.6348962e-12 0 0)
(-7.80380863e-12 0 0)
(-8.12311154e-12 0 0)
(-7.55261104e-12 0 0)
(-8.44380799e-12 0 0)
(-8.36382748e-12 0 0)
(-8.49556544e-12 0 0)
(-8.18807676e-12 0 0)
(-9.5350681e-12 0 0)
(-8.37974513e-12 0 0)
(-9.24112889e-12 0 0)
(-9.24303138e-12 0 0)
(-9.53588529e-12 0 0)
(-9.1915446e-12 0 0)
(-9.46212602e-12 0 0)
(-9.08015608e-12 0 0)
(-7.97319012e-12 0 0)
(-8.91134795e-12 0 0)
(-9.63787212e-12 0 0)
(-8.66561028e-12 0 0)
(-8.57545251e-12 0 0)
(-9.03176388e-12 0 0)
(-8.51927698e-12 0 0)
(-9.03616959e-12 0 0)
(-9.82878963e-12 0 0)
(-9.37786773e-12 0 0)
(-9.13939187e-12 0 0)
(-9.70875824e-12 0 0)
(-8.86200248e-12 0 0)
(-8.71100556e-12 0 0)
(-9.47291264e-12 0 0)
(-9.58616669e-12 0 0)
(-8.54133973e-12 0 0)
(-8.83683469e-12 0 0)
(-9.98870392e-12 0 0)
(-9.47960176e-12 0 0)
(-9.44286912e-12 0 0)
(-8.91668836e-12 0 0)
(-1.00432838e-11 0 0)
(-9.91587834e-12 0 0)
(-1.06229884e-11 0 0)
(-1.06120068e-11 0 0)
(-1.06252532e-11 0 0)
(-1.11666338e-11 0 0)
(-1.15803543e-11 0 0)
(-1.1440389e-11 0 0)
(-1.14568688e-11 0 0)
(-1.20923446e-11 0 0)
(-1.11923439e-11 0 0)
(-1.04075282e-11 0 0)
(-1.22710156e-11 0 0)
(-1.17501869e-11 0 0)
(-1.15981914e-11 0 0)
(-1.13630448e-11 0 0)
(-1.17967326e-11 0 0)
(-1.15246848e-11 0 0)
(-1.23234077e-11 0 0)
(-1.14555168e-11 0 0)
(-1.18714844e-11 0 0)
(-1.13328044e-11 0 0)
(-1.04214852e-11 0 0)
(-1.16137137e-11 0 0)
(-1.24292594e-11 0 0)
(-1.21498592e-11 0 0)
(-1.18581588e-11 0 0)
(-1.22756016e-11 0 0)
(-1.221961e-11 0 0)
(-1.26873813e-11 0 0)
(-1.10208047e-11 0 0)
(-1.17420502e-11 0 0)
(-1.20207083e-11 0 0)
(-1.15613803e-11 0 0)
(-1.12144048e-11 0 0)
(-1.15819738e-11 0 0)
(-1.15222742e-11 0 0)
(-1.10557383e-11 0 0)
(-1.16743522e-11 0 0)
(-1.13515091e-11 0 0)
(-1.16195748e-11 0 0)
(-1.19832037e-11 0 0)
(-1.17232066e-11 0 0)
(-1.19270182e-11 0 0)
(-1.25903671e-11 0 0)
(-1.24696453e-11 0 0)
(-1.21783895e-11 0 0)
(-1.29491149e-11 0 0)
(-1.20843421e-11 0 0)
(-1.19215964e-11 0 0)
(-1.21472843e-11 0 0)
(-1.15619442e-11 0 0)
(-1.31330295e-11 0 0)
(-1.23662041e-11 0 0)
(-1.21291032e-11 0 0)
(-1.20604744e-11 0 0)
(-1.20162298e-11 0 0)
(-1.18643572e-11 0 0)
(-1.17819184e-11 0 0)
(-1.24430753e-11 0 0)
(-1.14491403e-11 0 0)
(-1.18180414e-11 0 0)
(-1.25434449e-11 0 0)
(-1.19828013e-11 0 0)
(-1.19888062e-11 0 0)
(-1.17056854e-11 0 0)
(-1.15719552e-11 0 0)
(-1.13275878e-11 0 0)
(-1.20040485e-11 0 0)
(-1.18495511e-11 0 0)
(-1.25214782e-11 0 0)
(-1.25262386e-11 0 0)
(-1.22856154e-11 0 0)
(-1.25853445e-11 0 0)
(-1.21258118e-11 0 0)
(-1.22463924e-11 0 0)
(-1.24148402e-11 0 0)
(-1.19208205e-11 0 0)
(-1.14015475e-11 0 0)
(-1.1845304e-11 0 0)
(-1.19444792e-11 0 0)
(-1.15187838e-11 0 0)
(-1.26002857e-11 0 0)
(-1.19002092e-11 0 0)
(-1.15450622e-11 0 0)
(-1.29112959e-11 0 0)
(-1.28508348e-11 0 0)
(-1.23852297e-11 0 0)
(-1.19784784e-11 0 0)
(-1.24591789e-11 0 0)
(-1.19259269e-11 0 0)
(-1.24978209e-11 0 0)
(-1.19569187e-11 0 0)
(-1.29777428e-11 0 0)
(-1.22940288e-11 0 0)
(-1.21756741e-11 0 0)
(-1.1761265e-11 0 0)
(-1.225529e-11 0 0)
(-1.20282092e-11 0 0)
(-1.2417971e-11 0 0)
(-1.17205326e-11 0 0)
(-1.17726705e-11 0 0)
(-1.24058491e-11 0 0)
(-1.18186873e-11 0 0)
(-1.13167011e-11 0 0)
(-1.1658054e-11 0 0)
(-1.15735388e-11 0 0)
(-1.07899218e-11 0 0)
(-1.17936215e-11 0 0)
(-1.18753369e-11 0 0)
(-1.13797804e-11 0 0)
(-1.06726585e-11 0 0)
(-1.22399989e-11 0 0)
(-1.10444416e-11 0 0)
(-1.06468517e-11 0 0)
(-1.08447496e-11 0 0)
(-1.19429064e-11 0 0)
(-1.04557532e-11 0 0)
(-1.15461564e-11 0 0)
(-1.04207578e-11 0 0)
(-1.04594588e-11 0 0)
(-1.08899884e-11 0 0)
(-1.10073113e-11 0 0)
(-1.06052977e-11 0 0)