/*--------------------------------*- C++ -*----------------------------------*\
| =========                 |                                                 |
| \\      /  F ield         | OpenFOAM: The Open Source CFD Toolbox           |
|  \\    /   O peration     | Version:  2206                                  |
|   \\  /    A nd           | Website:  www.openfoam.com                      |
|    \\/     M anipulation  |                                                 |
\*---------------------------------------------------------------------------*/
FoamFile
{
    version     2.0;
    format      ascii;
    arch        "LSB;label=32;scalar=64";
    class       volScalarField;
    location    "1.02e-05";
    object      p;
}
// * * * * * * * * * * * * * * * * * * * * * * * * * * * * * * * * * * * * * //

dimensions      [1 -1 -2 0 0 0 0];

internalField   nonuniform List<scalar> 
3183
(
101325
101325
101325
101325
101325
101325
101325
101325
101325
101325
101325
101325
101325
101325
101325
101325
101325
101325
101325
101325
101325
101325
101325
101325
101325
101325
101325
101325
101325
101325
101325
101325
101325
101325
101325
101325
101325
101325
101325
101325
101325
101325
101325
101325
101325
101325
101325
101325
101325
101325
101325
101325
101325
101325
101325
101325
101325
101325
101325
101325
101325
101325
101325
101325
101325
101325
101325
101325
101325
101325
101325
101325
101325
101325
101325
101325
101325
101325
101325
101325
101325
101325
101325
101325
101325
101325
101325
101325
101325
101325
101325
101325
101325
101325
101325
101325
101325
101325
101325
101325
101325
101325
101325
101325
101325
101325
101325
101325
101325
101325
101325
101325
101325
101325
101325
101325
101325
101325
101325
101325
101325
101325
101325
101325
101325
101325
101325
101325
101325
101325
101325
101325
101325
101325
101325
101325
101325
101325
101325
101325
101325
101325
101325
101325
101325
101325
101325
101325
101325
101325
101325
101325
101325
101325
101325
101325
101325
101325
101325
101325
101325
101325
101325
101325
101325
101325
101325
101325
101325
101325
101325
101325
101325
101325
101325
101325
101325
101325
101325
101325
101325
101325
101325
101325
101325
101325
101325
101325
101325
101325
101325
101325
101325
101325
101325
101325
101325
101325
101325
101325
101325
101325
101325
101325
101325
101325
101325
101325
101325
101325
101325
101325
101325
101325
101325
101325
101325
101325
101325
101325
101325
101325
101325
101325
101325
101325
101325
101325
101325
101325
101325
101325
101325
101325
101325
101325
101325
101325
101325
101325
101325
101325
101325
101325
101325
101325
101325
101325
101325
101325
101325
101325
101325
101325
101325
101325
101325
101325
101325
101325
101325
101325
101325
101325
101325
101325
101325
101325
101325
101325
101325
101325
101325
101325
101325
101325
101325
101325
101325
101325
101325
101325
101325
101325
101325
101325
101325
101325
101325
101325
101325
101325
101325
101325
101325
101325
101325
101325
101325
101325
101325
101325
101325
101325
101325
101325
101325
101325
101325
101325
101325
101325
101325
101325
101325
101325
101325
101325
101325
101325
101325
101325
101325
101325
101325
101325
101325
101325
101325
101325
101325
101325
101325
101325
101325
101325
101325
101325
101325
101325
101325
101325
101325
101325
101325
101325
101325
101325
101325
101325
101325
101325
101325
101325
101325
101325
101325
101325
101325
101325
101325
101325
101325
101325
101325
101325
101325
101325
101325
101325
101325
101325
101325
101325
101325
101325
101325
101325
101325
101325
101325
101325
101325
101325
101325
101325
101325
101325
101325
101325
101325
101325
101325
101325
101325
101325
101325
101325
101325
101325
101325
101325
101325
101325
101325
101325
101325
101325
101325
101325
101325
101325
101325
101325
101325
101325
101325
101325
101325
101325
101325
101325
101325
101325
101325
101325
101325
101325
101325
101325
101325
101325
101325
101325
101325
101325
101325
101325
101325
101325
101325
101325
101325
101325
101325
101325
101325
101325
101325
101325
101325
101325
101325
101325
101325
101325
101325
101325
101325
101325
101325
101325
101325
101325
101325
101325
101325
101325
101325
101325
101325
101325
101325
101325
101325
101325
101325
101325
101325
101325
101325
101325
101325
101325
101325
101325
101325
101325
101325
101325
101325
101325
101325
101325
101325
101325
101325
101325
101325
101325
101325
101325
101325
101325
101325
101325
101325
101325
101325
101325
101325
101325
101325
101325
101325
101325
101325
101325
101325
101325
101325
101325
101325
101325
101325
101325
101325
101325
101325
101325
101325
101325
101325
101325
101325
101325
101325
101325
101325
101325
101325
101325
101325
101325
101325
101325
101325
101325
101325
101325
101325
101325
101325
101325
101325
101325
101325
101325
101325
101325
101325
101325
101325
101325
101325
101325
101325
101325
101325
101325
101325
101325
101325
101325
101325
101325
101325
101325
101325
101325
101325
101325
101325
101325
101325
101325
101325
101325
101325
101325
101325
101325
101325
101325
101325
101325
101325
101325
101325
101325
101325
101325
101325
101325
101325
101325
101325
101325
101325
101325
101325
101325
101325
101325
101325
101325
101325
101325
101325
101325
101325
101325
101325
101325
101325
101325
101325
101325
101325
101325
101325
101325
101325
101325
101325
101325
101325
101325
101325
101325
101325
101325
101325
101325
101325
101325
101325
101325
101325
101325
101325
101325
101325
101325
101325
101325
101325
101325
101325
101325
101325
101325
101325
101325
101325
101325
101325
101325
101325
101325
101325
101325
101325
101325
101325
101325
101325
101325
101325
101325
101325
101325
101325
101325
101325
101325
101325
101325
101325
101325
101325
101325
101325
101325
101325
101325
101325
101325
101325
101325
101325
101325
101325
101325
101325
101325
101325
101325
101325
101325
101325
101325
101325
101325
101325
101325
101325
101325
101325
101325
101325
101325
101325
101325
101325
101325
101325
101325
101325
101325
101325
101325
101325
101325
101325
101325
101325
101325
101325
101325
101325
101325
101325
101325
101325
101325
101325
101325
101325
101325
101325
101325
101325
101325
101325
101325
101325
101325
101325
101325
101325
101325
101325
101325
101325
101325
101325
101325
101325
101325
101325
101325
101325
101325
101325
101325
101325
101325
101325
101325
101325
101325
101325
101325
101325
101325
101325
101325
101325
101325
101325
101325
101325
101325
101325
101325
101325
101325
101325
101325
101325
101325
101325
101325
101325
101325
101325
101325
101325
101325
101325
101325
101325
101325
101325
101325
101325
101325
101325
101325
101325
101325
101325
101325
101325
101325
101325
101325
101325
101325
101325
101325
101325
101325
101325
101325
101325
101325
101325
101325
101325
101325
101325
101325
101325
101325
101325
101325
101325
101325
101325
101325
101325
101325
101325
101325
101325
101325
101325
101325
101325
101325
101325
101325
101325
101325
101325
101325
101325
101325
101325
101325
101325
101325
101325
101325
101325
101325
101325
101325
101325
101325
101325
101325
101325
101325
101325
101325
101325
101325
101325
101325
101325
101325
101325
101325
101325
101325
101325
101325
101325
101325
101325
101325
101325
101325
101325
101325
101325
101325
101325
101325
101325
101325
101325
101325
101325
101325
101325
101325
101325
101325
101325
101325
101325
101325
101325
101325
101325
101325
101325
101325
101325
101325
101325
101325
101325
101325
101325
101325
101325
101325
101325
101325
101325
101325
101325
101325
101325
101325
101325
101325
101325
101325
101325
101325
101325
101325
101325
101325
101325
101325
101325
101325
101325
101325
101325
101325
101325
101325
101325
101325
101325
101325
101325
101325
101325
101325
101325
101325
101325
101325
101325
101325
101325
101325
101325
101325
101325
101325
101325
101325
101325
101325
101325
101325
101325
101325
101325
101325
101325
101325
101325
101325
101325
101325
101325
101325
101325
101325
101325
101325
101325
101325
101325
101325
101325
101325
101325
101325
101325
101325
101325
101325
101325
101325
101325
101325
101325
101325
101325
101325
101325
101325
101325
101325
101325
101325
101325
101325
101325
101325
101325
101325
101325
101325
101325
101325
101325
101325
101325
101325
101325
101325
101325
101325
101325
101325
101325
101325
101325
101325
101325
101325
101325
101325
101325
101325
101325
101325
101325
101325
101325
101325
101325
101325
101325
101325
101325
101325
101325
101325
101325
101325
101325
101325
101325
101325
101325
101325
101325
101325
101325
101325
101325
101325
101325
101325
101325
101325
101325
101325
101325
101325
101325
101325
101325
101325
101325
101325
101325
101325
101325
101325
101325
101325
101325
101325
101325
101325
101325
101325
101325
101325
101325
101325
101325
101325
101325
101325
101325
101325
101325
101325
101325
101325
101325
101325
101325
101325
101325
101325
101325
101325
101325
101325
101325
101325
101325
101325
101325
101325
101325
101325
101325
101325
101325
101325
101325
101325
101325
101325
101325
101325
101325
101325
101325
101325
101325
101325
101325
101325
101325
101325
101325
101325
101325
101325
101325
101325
101325
101325
101325
101325
101325
101325
101325
101325
101325
101325
101325
101325
101325
101325
101325
101325
101325
101325
101325
101325
101325
101325
101325
101325
101325
101325
101325
101325
101325
101325
101325
101325
101325
101325
101325
101325
101325
101325
101325
101325
101325
101325
101325
101325
101325
101325
101325
101325
101325
101325
101325
101325
101325
101325
101325
101325
101325
101325
101325
101325
101325
101325
101325
101325
101325
101325
101325
101325
101325
101325
101325
101325
101325
101325
101325
101325
101325
101325
101325
101325
101325
101325
101325
101325
101325
101325
101325
101325
101325
101325
101325
101325
101325
101325
101325
101325
101325
101325
101325
101325
101325
101325
101325
101325
101325
101325
101325
101325
101325
101325
101325
101325
101325
101325
101325
101325
101325
101325
101325
101325
101325
101325
101325
101325
101325
101325
101325
101325
101325
101325
101325
101325
101325
101325
101325
101325
101325
101325
101325
101325
101325
101325
101325
101325
101325
101325
101325
101325
101325
101325
101325
101325
101325
101325
101325
101325
101325
101325
101325
101325
101325
101325
101325
101325
101325
101325
101325
101325
101325
101325
101325
101325
101325
101325
101325
101325
101325
101325
101325
101325
101325
101325
101325
101325
101325
101325
101325
101325
101325
101325
101325
101325
101325
101325
101325
101325
101325
101325
101325
101325
101325
101325
101325
101325
101325
101325
101325
101325
101325
101325
101325
101325
101325
101325
101325
101325
101325
101325
101325
101325
101325
101325
101325
101325
101325
101325
101325
101325
101325
101325
101325
101325
101325
101325
101325
101325
101325
101325
101325
101325
101325
101325
101325
101325
101325
101325
101325
101325
101325
101325
101325
101325
101325
101325
101325
101325
101325
101325
101325
101325
101325
101325
101325
101325
101325
101325
101325
101325
101325
101325
101325
101325
101325
101325
101325
101325
101325
101325
101325
101325
101325
101325
101325
101325
101325
101325
101325
101325
101325
101325
101325
101325
101325
101325
101325
101325
101325
101325
101325
101325
101325
101325
101325
101325
101325
101325
101325
101325
101325
101325
101325
101325
101325
101325
101325
101325
101325
101325
101325
101325
101325
101325
101325
101325
101325
101325
101325
101325
101325
101325
101325
101325
101325
101325
101325
101325
101325
101325
101325
101325
101325
101325
101325
101325
101325
101325
101325
101325
101325
101325
101325
101325
101325
101325
101325
101325
101325
101325
101325
101325
101325
101325
101325
101325
101325
101325
101325
101325
101325
101325
101325
101325
101325
101325
101325
101325
101325
101325
101325
101325
101325
101325
101325
101325
101325
101325
101325
101325
101325
101325
101325
101325
101325
101325
101325
101325
101325
101325
101325
101325
101325
101325
101325
101325
101325
101325
101325
101325
101325
101325
101325
101325
101325
101325
101325
101325
101325
101325
101325
101325
101325
101325
101325
101325
101325
101325
101325
101325
101325
101325
101325
101325
101325
101325
101325
101325
101325
101325
101325
101325
101325
101325
101325
101325
101325
101325
101325
101325
101325
101325
101325
101325
101325
101325
101325
101325
101325
101325
101325
101325
101325
101325
101325
101325
101325
101325
101325
101325
101325
101325
101325
101325
101325
101325
101325
101325
101325
101325
101325
101325
101325
101325
101325
101325
101325
101325
101325
101325
101325
101325
101325
101325
101325
101325
101325
101325
101325
101325
101325
101325
101325
101325
101325
101325
101325
101325
101325
101325
101325
101325
101325
101325
101325
101325
101325
101325
101325
101325
101325
101325
101325
101325
101325
101325
101325
101325
101325
101325
101325
101325
101325
101325
101325
101325
101325
101325
101325
101325
101325
101325
101325
101325
101325
101325
101325
101325
101325
101325
101325
101325
101325
101325
101325
101325
101325
101325
101325
101325
101325
101325
101325
101325
101325
101325
101325
101325
101325
101325
101325
101325
101325
101325
101325
101325
101325
101325
101325
101325
101325
101325
101325
101325
101325
101325
101325
101325
101325
101325
101325
101325
101325
101325
101325
101325
101325
101325
101325
101325
101325
101325
101325
101325
101325
101325
101325
101325
101325
101325
101325
101325
101325
101325
101325
101325
101325
101325
101325
101325
101325
101325
101325
101325
101325
101325
101325
101325
101325
101325
101325
101325
101325
101325
101325
101325
101325
101325
101325
101325
101325
101325
101325
101325
101325
101325
101325
101325
101325
101325
101325
101325
101325
101325
101325
101325
101325
101325
101325
101325
101325
101325
101325
101325
101325
101325
101325
101325
101325
101325
101325
101325
101325
101325
101325
101325
101325
101325
101325
101325
101325
101325
101325
101325
101325
101325
101325
101325
101325
101325
101325
101325
101325
101325
101325
101325
101325
101325
101325
101325
101325
101325
101325
101325
101325
101325
101325
101325
101325
101325
101325
101325
101325
101325
101325
101325
101325
101325
101325
101325
101325
101325
101325
101325
101325
101325
101325
101325
101325
101325
101325
101325
101325
101325
101325
101325
101325
101325
101325
101325
101325
101325
101325
101325
101325
101325
101325
101325
101325
101325
101325
101325
101325
101325
101325
101325
101325
101325
101325
101325
101325
101325
101325
101325
101325
101325
101325
101325
101325
101325
101325
101325
101325
101325
101325
101325
101325
101325
101325
101325
101325
101325
101325
101325
101325
101325
101325
101325
101325
101325
101325
101325
101325
101325
101325
101325
101325
101325
101325
101325
101325
101325
101325
101325
101325
101325
101325
101325
101325
101325
101325
101325
101325
101325
101325
101325
101325
101325
101325
101325
101325
101325
101325
101325
101325
101325
101325
101325
101325
101325
101325
101325
101325
101325
101325
101325
101325
101325
101325
101325
101325
101325
101325
101325
101325
101325
101325
101325
101325
101325
101325
101325
101325
101325
101325
101325
101325
101325
101325
101325
101325
101325
101325
101325
101325
101325
101325
101325
101325
101325
101325
101324.999
101324.999
101324.999
101324.999
101324.999
101324.999
101324.999
101324.999
101324.999
101324.999
101324.999
101324.999
101324.999
101324.999
101324.999
101324.999
101324.998
101324.998
101324.998
101324.998
101324.998
101324.998
101324.998
101324.998
101324.997
101324.997
101324.997
101324.997
101324.997
101324.996
101324.996
101324.996
101324.995
101324.995
101324.995
101324.994
101324.994
101324.994
101324.993
101324.993
101324.992
101324.992
101324.991
101324.991
101324.99
101324.989
101324.989
101324.988
101324.987
101324.986
101324.986
101324.985
101324.984
101324.983
101324.981
101324.98
101324.979
101324.978
101324.976
101324.975
101324.973
101324.971
101324.97
101324.968
101324.966
101324.964
101324.961
101324.959
101324.956
101324.954
101324.951
101324.948
101324.945
101324.941
101324.938
101324.934
101324.93
101324.926
101324.922
101324.917
101324.912
101324.907
101324.902
101324.896
101324.89
101324.884
101324.877
101324.87
101324.863
101324.855
101324.847
101324.838
101324.829
101324.819
101324.809
101324.799
101324.787
101324.776
101324.764
101324.751
101324.737
101324.723
101324.708
101324.692
101324.676
101324.659
101324.641
101324.622
101324.602
101324.582
101324.56
101324.537
101324.513
101324.489
101324.463
101324.435
101324.407
101324.377
101324.346
101324.314
101324.28
101324.245
101324.208
101324.169
101324.129
101324.087
101324.044
101323.998
101323.951
101323.902
101323.85
101323.797
101323.741
101323.684
101323.624
101323.561
101323.496
101323.429
101323.359
101323.286
101323.21
101323.132
101323.051
101322.967
101322.88
101322.789
101322.696
101322.599
101322.498
101322.394
101322.287
101322.176
101322.061
101321.942
101321.82
101321.693
101321.563
101321.428
101321.289
101321.146
101320.998
101320.846
101320.689
101320.528
101320.362
101320.191
101320.015
101319.835
101319.649
101319.459
101319.263
101319.063
101318.857
101318.645
101318.429
101318.207
101317.98
101317.748
101317.51
101317.266
101317.017
101316.763
101316.503
101316.238
101315.967
101315.691
101315.41
101315.123
101314.83
101314.533
101314.23
101313.922
101313.609
101313.29
101312.967
101312.639
101312.306
101311.968
101311.625
101311.279
101310.927
101310.572
101310.213
101309.849
101309.482
101309.112
101308.738
101308.361
101307.981
101307.598
101307.213
101306.825
101306.435
101306.044
101305.65
101305.256
101304.86
101304.464
101304.068
101303.671
101303.274
101302.877
101302.482
101302.087
101301.694
101301.302
101300.912
101300.525
101300.14
101299.758
101299.38
101299.005
101298.634
101298.268
101297.906
101297.549
101297.198
101296.852
101296.513
101296.179
101295.853
101295.533
101295.22
101294.916
101294.619
101294.33
101294.05
101293.778
101293.516
101293.262
101293.019
101292.785
101292.561
101292.347
101292.143
101291.95
101291.768
101291.597
101291.437
101291.288
101291.15
101291.023
101290.908
101290.804
101290.712
101290.632
101290.563
101290.505
101290.459
101290.425
101290.402
101290.391
101290.39
101290.401
101290.423
101290.456
101290.5
101290.554
101290.619
101290.693
101290.778
101290.873
101290.977
101291.09
101291.212
101291.343
101291.483
101291.631
101291.786
101291.949
101292.119
101292.296
101292.479
101292.669
101292.864
101293.065
101293.271
101293.482
101293.697
101293.916
101294.139
101294.365
101294.594
101294.825
101295.059
101295.295
101295.532
101295.77
101296.009
101296.249
101296.489
101296.729
101296.969
101297.208
101297.446
101297.682
101297.918
101298.151
101298.383
101298.612
101298.839
101299.063
101299.285
101299.503
101299.719
101299.931
101300.139
101300.344
101300.546
101300.743
101300.937
101301.127
101301.313
101301.494
101301.672
101301.846
101302.015
101302.18
101302.341
101302.498
101302.65
101302.799
101302.943
101303.083
101303.22
101303.352
101303.48
101303.605
101303.726
101303.843
101303.956
101304.066
101304.173
101304.276
101304.376
101304.473
101304.567
101304.657
101304.745
101304.83
101304.912
101304.992
101305.069
101305.144
101305.216
101305.286
101305.354
101305.42
101305.483
101305.545
101305.604
101305.662
101305.718
101305.773
101305.826
101305.877
101305.927
101305.975
101306.022
101306.067
101306.111
101306.154
101306.196
101306.236
101306.276
101306.314
101306.352
101306.388
101306.424
101306.459
101306.493
101306.526
101306.558
101306.59
101306.621
101306.652
101306.683
101306.713
101306.742
101306.772
101306.801
101306.831
101306.86
101306.889
101306.918
101306.948
101306.978
101307.008
101307.039
101307.07
101307.102
101307.135
101307.168
101307.203
101307.238
101307.274
101307.311
101307.349
101307.388
101307.428
101307.47
101307.513
101307.557
101307.602
101307.649
101307.697
101307.746
101307.796
101307.848
101307.9
101307.954
101308.009
101308.065
101308.121
101308.179
101308.237
101308.296
101308.356
101308.416
101308.476
101308.536
101308.597
101308.657
101308.718
101308.778
101308.837
101308.896
101308.955
101309.012
101309.069
101309.124
101309.179
101309.232
101309.283
101309.333
101309.382
101309.429
101309.475
101309.518
101309.56
101309.601
101309.639
101309.676
101309.71
101309.743
101309.775
101309.804
101309.832
101309.858
101309.883
101309.906
101309.928
101309.948
101309.968
101309.986
101310.003
101310.019
101310.034
101310.048
101310.062
101310.075
101310.087
101310.099
101310.111
101310.122
101310.133
101310.144
101310.155
101310.165
101310.176
101310.186
101310.196
101310.206
101310.217
101310.227
101310.236
101310.246
101310.255
101310.264
101310.273
101310.281
101310.288
101310.295
101310.301
101310.305
101310.309
101310.311
101310.312
101310.31
101310.307
101310.302
101310.294
101310.284
101310.271
101310.254
101310.234
101310.211
101310.184
101310.152
101310.117
101310.077
101310.032
101309.983
101309.93
101309.872
101309.81
101309.745
101309.676
101309.606
101309.535
101309.464
101309.395
101309.331
101309.274
101309.227
101309.194
101309.178
101309.185
101309.219
101309.285
101309.391
101309.54
101309.74
101309.994
101310.306
101310.676
101311.101
101311.573
101312.077
101312.584
101313.054
101313.422
101313.587
101313.38
101313.184
101312.91
101316.244
101315.373
101315.074
101314.9
101314.848
101314.655
101314.484
101314.186
101313.851
101313.441
101313.008
101312.557
101312.111
101311.677
101311.265
101310.881
101310.529
101310.211
101309.927
101309.677
101309.461
101309.276
101309.122
101308.994
101308.892
101308.814
101308.756
101308.716
101308.693
101308.685
101308.689
101308.704
101308.728
101308.76
101308.799
101308.843
101308.892
101308.944
101308.998
101309.054
101309.112
101309.17
101309.228
101309.286
101309.343
101309.399
101309.454
101309.508
101309.56
101309.61
101309.659
101309.706
101309.751
101309.793
101309.834
101309.873
101309.91
101309.945
101309.977
101310.008
101310.037
101310.065
101310.09
101310.114
101310.136
101310.156
101310.175
101310.192
101310.208
101310.223
101310.236
101310.248
101310.259
101310.268
101310.277
101310.284
101310.29
101310.296
101310.3
101310.304
101310.307
101310.309
101310.31
101310.311
101310.311
101310.311
101310.31
101310.308
101310.306
101310.303
101310.3
101310.297
101310.293
101310.289
101310.284
101310.279
101310.274
101310.268
101310.263
101310.257
101310.251
101310.244
101310.238
101310.231
101310.224
101310.217
101310.21
101310.202
101310.195
101310.188
101310.18
101310.172
101310.165
101310.157
101310.149
101310.141
101310.133
101310.125
101310.117
101310.109
101310.101
101310.093
101310.085
101310.077
101310.069
101310.061
101310.053
101310.045
101310.037
101310.029
101310.021
101310.013
101310.005
101309.997
101309.988
101309.98
101309.972
101309.964
101309.956
101309.947
101309.939
101309.93
101309.922
101309.913
101309.905
101309.896
101309.887
101309.878
101309.869
101309.86
101309.85
101309.841
101309.831
101309.821
101309.811
101309.801
101309.79
101309.78
101309.769
101309.758
101309.746
101309.734
101309.723
101309.71
101309.698
101309.685
101309.672
101309.658
101309.645
101309.63
101309.616
101309.601
101309.586
101309.57
101309.554
101309.538
101309.521
101309.504
101309.486
101309.468
101309.449
101309.43
101309.41
101309.39
101309.37
101309.35
101309.329
101309.308
101309.286
101309.264
101309.241
101309.218
101309.195
101309.171
101309.147
101309.122
101309.097
101309.072
101309.046
101309.02
101308.994
101308.967
101308.94
101308.913
101308.885
101308.857
101308.829
101308.801
101308.772
101308.743
101308.714
101308.685
101308.655
101308.626
101308.596
101308.566
101308.536
101308.506
101308.475
101308.445
101308.414
101308.384
101308.353
101308.323
101308.292
101308.262
101308.232
101308.201
101308.171
101308.141
101308.11
101308.08
101308.05
101308.021
101307.991
101307.961
101307.932
101307.903
101307.874
101307.845
101307.816
101307.788
101307.76
101307.732
101307.705
101307.677
101307.65
101307.623
101307.597
101307.57
101307.544
101307.519
101307.493
101307.468
101307.443
101307.419
101307.394
101307.37
101307.347
101307.323
101307.3
101307.278
101307.255
101307.233
101307.211
101307.189
101307.168
101307.147
101307.126
101307.106
101307.086
101307.066
101307.046
101307.026
101307.007
101306.988
101306.969
101306.951
101306.932
101306.914
101306.896
101306.879
101306.861
101306.844
101306.826
101306.809
101306.792
101306.775
101306.758
101306.742
101306.725
101306.709
101306.692
101306.676
101306.66
101306.644
101306.627
101306.611
101306.595
101306.579
101306.563
101306.547
101306.531
101306.515
101306.499
101306.482
101306.466
101306.45
101306.434
101306.417
101306.401
101306.384
101306.367
101306.35
101306.333
101306.316
101306.299
101306.282
101306.264
101306.247
101306.229
101306.211
101306.193
101306.175
101306.156
101306.138
101306.119
101306.1
101306.081
101306.061
101306.042
101306.022
101306.001
101305.981
101305.961
101305.94
101305.919
101305.897
101305.876
101305.854
101305.832
101305.809
101305.786
101305.763
101305.74
101305.717
101305.693
101305.668
101305.644
101305.619
101305.594
101305.568
101305.543
101305.516
101305.49
101305.463
101305.436
101305.408
101305.38
101305.351
101305.323
101305.293
101305.264
101305.234
101305.203
101305.172
101305.141
101305.109
101305.077
101305.044
101305.011
101304.977
101304.943
101304.908
101304.873
101304.837
101304.801
101304.764
101304.727
101304.689
101304.65
101304.611
101304.571
101304.531
101304.49
101304.448
101304.406
101304.363
101304.32
101304.275
101304.23
101304.185
101304.138
101304.091
101304.043
101303.995
101303.945
101303.895
101303.844
101303.792
101303.74
101303.686
101303.632
101303.577
101303.521
101303.464
101303.406
101303.347
101303.288
101303.227
101303.165
101303.103
101303.04
101302.975
101302.91
101302.844
101302.776
101302.708
101302.638
101302.568
101302.497
101302.424
101302.35
101302.276
101302.2
101302.123
101302.046
101301.967
101301.887
101301.806
101301.723
101301.64
101301.556
101301.47
101301.383
101301.296
101301.207
101301.117
101301.026
101300.933
101300.84
101300.746
101300.65
101300.554
101300.456
101300.357
101300.257
101300.156
101300.054
101299.951
101299.847
101299.742
101299.636
101299.529
101299.421
101299.311
101299.201
101299.09
101298.978
101298.865
101298.751
101298.637
101298.521
101298.405
101298.287
101298.169
101298.05
101297.931
101297.81
101297.689
101297.567
101297.445
101297.322
101297.198
101297.074
101296.949
101296.824
101296.698
101296.572
101296.446
101296.319
101296.191
101296.064
101295.936
101295.807
101295.679
101295.551
101295.422
101295.293
101295.164
101295.035
101294.907
101294.778
101294.649
101294.521
101294.392
101294.264
101294.136
101294.009
101293.881
101293.754
101293.623
101293.484
101293.335
101293.176
101293.008
101292.829
101292.64
101292.439
101292.228
101292.005
101291.771
101291.526
101291.271
101291.007
101290.736
101290.46
101290.182
101289.906
101289.636
101289.38
101289.145
101288.941
101288.781
101288.679
101288.653
101288.723
101288.913
101289.248
101289.758
101290.471
101291.417
101292.623
101294.11
101295.891
101297.965
101300.315
101302.903
101305.669
101308.531
101311.39
101314.136
101316.665
101318.884
101320.732
101322.185
101323.255
101323.99
101324.457
101324.731
101324.878
101324.949
101324.981
101324.994
101324.998
101325
101325
101325
101325
101325
101325
101325
101325
101325
101325
101325
101325
101325
101325
101325
101325
101325
101325
101325
101325
101325
101325
101325
)
;

boundaryField
{
    closed
    {
        type            zeroGradient;
    }
    open
    {
        type            waveTransmissive;
        gamma           1.25;
        fieldInf        101325;
        lInf            1;
        value           uniform 101325;
    }
    sides
    {
        type            empty;
    }
}


// ************************************************************************* //
