/*--------------------------------*- C++ -*----------------------------------*\
| =========                 |                                                 |
| \\      /  F ield         | OpenFOAM: The Open Source CFD Toolbox           |
|  \\    /   O peration     | Version:  2206                                  |
|   \\  /    A nd           | Website:  www.openfoam.com                      |
|    \\/     M anipulation  |                                                 |
\*---------------------------------------------------------------------------*/
FoamFile
{
    version     2.0;
    format      ascii;
    arch        "LSB;label=32;scalar=64";
    class       surfaceScalarField;
    location    "1.02e-05";
    object      phi;
}
// * * * * * * * * * * * * * * * * * * * * * * * * * * * * * * * * * * * * * //

dimensions      [1 0 -1 0 0 0 0];

oriented        oriented;

internalField   nonuniform List<scalar> 
3182
(
3.62555471e-18
-3.02696068e-18
3.30472925e-19
-1.40087712e-18
-1.93101615e-21
-1.54517261e-23
-1.12700872e-24
-2.19370101e-29
7.68635385e-25
1.86195934e-23
8.95392335e-22
1.69476448e-18
3.5606786e-18
-1.71846569e-18
1.89076058e-18
-7.80383592e-19
-1.2410954e-18
-4.24707273e-18
-3.63528064e-18
4.591615e-18
3.90755708e-20
4.27847908e-22
2.49654744e-21
1.49463043e-18
2.78927257e-18
1.85512845e-18
3.39185106e-18
8.41124168e-19
1.64364797e-18
-5.36053263e-20
-2.47087854e-18
-2.27288594e-18
-6.98728005e-18
-5.06431578e-18
-2.82132716e-18
-2.37072769e-19
-1.03611664e-18
-1.34826507e-18
-4.96226179e-19
-4.20350938e-19
-2.70666876e-18
-3.17445809e-18
-1.95581444e-18
-1.3106263e-18
-1.29274395e-18
-1.52149134e-18
-1.19781819e-18
-1.3083647e-18
-4.36738757e-19
3.33800032e-19
1.95329738e-18
2.62643838e-18
3.36539935e-18
5.53233125e-18
6.51211397e-18
7.82895477e-18
9.77237224e-18
1.06446859e-17
1.2162074e-17
1.36824141e-17
1.43398762e-17
1.54076832e-17
1.58211037e-17
1.475272e-17
1.54586385e-17
1.58861615e-17
1.52319048e-17
1.52307977e-17
1.3942067e-17
1.1727517e-17
1.04444742e-17
9.69116257e-18
7.89216552e-18
7.37054487e-18
6.05824168e-18
5.19748851e-18
4.28498882e-18
3.06495046e-18
2.28989237e-18
1.1074807e-18
1.04614267e-18
-1.1429414e-18
-1.74133265e-19
-2.93651316e-18
-4.90105301e-18
-6.4756519e-18
-7.79453973e-18
-8.72681911e-18
-8.28579146e-18
-1.1310847e-17
-1.28249498e-17
-1.36132992e-17
-1.470928e-17
-1.72762549e-17
-1.65432333e-17
-1.83447091e-17
-1.70613485e-17
-1.85131454e-17
-1.64344615e-17
-1.71791173e-17
-1.50739098e-17
-1.8794682e-17
-2.01190453e-17
-1.77745514e-17
-1.91712775e-17
-1.67547409e-17
-1.81647516e-17
-1.84385015e-17
-2.03294188e-17
-2.15558194e-17
-2.30742301e-17
-2.03348128e-17
-2.07585852e-17
-1.90592454e-17
-2.09700923e-17
-1.88929093e-17
-2.01625164e-17
-1.88352442e-17
-2.10587946e-17
-2.01545657e-17
-2.22498544e-17
-2.59078526e-17
-2.92493387e-17
-2.86215785e-17
-2.59092378e-17
-2.48962392e-17
-2.71535342e-17
-2.89851647e-17
-3.0318032e-17
-3.14091686e-17
-3.18946999e-17
-3.09387934e-17
-3.26989212e-17
-3.21904924e-17
-3.25039114e-17
-3.12167679e-17
-3.13243691e-17
-2.94099988e-17
-3.18269105e-17
-2.95721226e-17
-3.11330263e-17
-3.03467464e-17
-3.00869355e-17
-2.80065674e-17
-3.21274237e-17
-2.97736932e-17
-3.08605619e-17
-3.19556988e-17
-3.58744081e-17
-3.55167713e-17
-3.72698634e-17
-3.78186622e-17
-3.75676513e-17
-3.74768716e-17
-3.56200868e-17
-3.8045917e-17
-3.6211489e-17
-3.59049842e-17
-3.69561322e-17
-3.67567336e-17
-3.77770732e-17
-3.98002523e-17
-3.97389847e-17
-3.63594851e-17
-3.77749755e-17
-3.73272555e-17
-4.08895301e-17
-3.94882984e-17
-4.17260332e-17
-4.19398489e-17
-4.29396444e-17
-4.21026079e-17
-4.30827144e-17
-4.6339605e-17
-4.60105043e-17
-4.55974819e-17
-4.52305299e-17
-4.57386689e-17
-4.88814442e-17
-5.27191232e-17
-5.22907629e-17
-5.44186355e-17
-5.55404711e-17
-5.2433779e-17
-5.22569275e-17
-5.15756359e-17
-5.34451753e-17
-5.14646364e-17
-5.39324053e-17
-5.22561225e-17
-5.26542877e-17
-5.06139892e-17
-5.17333423e-17
-5.02623493e-17
-5.35125363e-17
-5.05457032e-17
-5.05134142e-17
-5.12712881e-17
-5.1239971e-17
-5.31934537e-17
-5.12582718e-17
-5.18680575e-17
-5.42359963e-17
-5.56414148e-17
-5.34265289e-17
-5.35978402e-17
-4.99084712e-17
-4.75257448e-17
-4.97395005e-17
-5.1164434e-17
-4.95578483e-17
-5.23735971e-17
-4.93424741e-17
-5.64641051e-17
-5.37341742e-17
-5.73561234e-17
-5.64396333e-17
-5.90017325e-17
-6.31326744e-17
-5.92074459e-17
-6.31439012e-17
-6.08542536e-17
-6.07299073e-17
-5.74335391e-17
-5.89471956e-17
-5.95146632e-17
-6.00283259e-17
-5.8653514e-17
-5.67428124e-17
-5.68948873e-17
-5.84304506e-17
-5.96577531e-17
-6.2846302e-17
-6.01506725e-17
-6.39770566e-17
-6.30663099e-17
-6.57794914e-17
-6.67892903e-17
-6.61328463e-17
-6.77744526e-17
-6.73801022e-17
-6.62557292e-17
-6.53135511e-17
-6.30717281e-17
-6.67399426e-17
-6.72504862e-17
-6.67588857e-17
-6.59031855e-17
-6.81453133e-17
-6.84809733e-17
-6.83843285e-17
-6.85571837e-17
-7.09503034e-17
-6.96130868e-17
-7.50864432e-17
-7.1956272e-17
-7.19252879e-17
-7.27905442e-17
-7.58494238e-17
-7.74698345e-17
-7.77651311e-17
-7.89982901e-17
-7.89349031e-17
-8.01717293e-17
-8.10526581e-17
-8.05772218e-17
-7.99466571e-17
-7.79893317e-17
-7.93870449e-17
-8.02976874e-17
-7.8923328e-17
-7.83833188e-17
-8.06193449e-17
-8.05638883e-17
-7.90798228e-17
-8.33667123e-17
-8.10299217e-17
-8.33633024e-17
-8.55548053e-17
-8.63172769e-17
-8.70751409e-17
-9.01223828e-17
-9.00264105e-17
-8.7565732e-17
-8.68134776e-17
-8.8817183e-17
-8.98293863e-17
-8.88175092e-17
-8.81065682e-17
-8.83818642e-17
-8.7499115e-17
-9.21225199e-17
-9.47687156e-17
-9.56815321e-17
-9.19735732e-17
-9.10912942e-17
-9.19801419e-17
-8.84007678e-17
-9.21961328e-17
-9.11886796e-17
-9.5340085e-17
-9.69892267e-17
-9.71047776e-17
-9.65416837e-17
-9.31613352e-17
-9.09318184e-17
-9.1986551e-17
-9.04232637e-17
-9.03366745e-17
-9.15632195e-17
-8.79060443e-17
-9.15349963e-17
-9.10678959e-17
-9.33766285e-17
-9.62112563e-17
-9.90637317e-17
-9.84452898e-17
-9.78503014e-17
-9.81462823e-17
-1.00249233e-16
-1.01459623e-16
-1.00639005e-16
-1.02473121e-16
-1.00048494e-16
-1.01292902e-16
-9.89417661e-17
-1.00186853e-16
-9.71990788e-17
-9.81804942e-17
-9.75454206e-17
-9.47616563e-17
-9.40152249e-17
-9.26764289e-17
-9.26628658e-17
-9.22477828e-17
-9.36912314e-17
-9.31745499e-17
-9.49353942e-17
-9.63153622e-17
-9.68606129e-17
-9.46838002e-17
-9.35710223e-17
-9.26146389e-17
-8.90337637e-17
-9.00635493e-17
-8.95318723e-17
-8.90742308e-17
-8.93250859e-17
-8.79490829e-17
-8.74866129e-17
-8.64564292e-17
-8.74048865e-17
-9.06520657e-17
-9.08472126e-17
-8.57064778e-17
-8.55674098e-17
-8.91103922e-17
-9.05076666e-17
-9.31249711e-17
-9.02993254e-17
-9.05722237e-17
-8.80270337e-17
-8.91889463e-17
-9.14445379e-17
-9.10754137e-17
-9.40370821e-17
-9.04800384e-17
-8.64002242e-17
-8.60564827e-17
-8.49897316e-17
-8.54152461e-17
-8.48091426e-17
-8.64965225e-17
-8.95980502e-17
-9.25595387e-17
-9.31666384e-17
-9.12639493e-17
-8.89955066e-17
-8.94176829e-17
-8.81437022e-17
-8.82694449e-17
-8.9711622e-17
-8.20004285e-17
-8.04995619e-17
-7.92757414e-17
-7.99613442e-17
-8.15608935e-17
-8.13496407e-17
-7.74706204e-17
-8.04815942e-17
-7.89566638e-17
-7.20291771e-17
-7.05355478e-17
-6.78976067e-17
-6.96909082e-17
-6.70124981e-17
-6.62074272e-17
-6.61119396e-17
-6.38842688e-17
-6.22784411e-17
-6.78642904e-17
-6.40341959e-17
-6.91125372e-17
-6.45560666e-17
-6.65205712e-17
-6.38686453e-17
-6.34170712e-17
-6.16408144e-17
-6.28002054e-17
-6.13487095e-17
-6.23525658e-17
-6.18944168e-17
-5.85003924e-17
-6.17456451e-17
-6.32746346e-17
-6.60957626e-17
-6.59840884e-17
-6.5985201e-17
-6.45696638e-17
-6.71353447e-17
-6.2407871e-17
-6.34286334e-17
-5.91203286e-17
-6.10332435e-17
-5.95057606e-17
-6.08673768e-17
-6.07421584e-17
-6.16241793e-17
-5.84779088e-17
-6.05140909e-17
-6.21445369e-17
-6.10923262e-17
-6.21139504e-17
-6.17538108e-17
-6.37334013e-17
-5.98409602e-17
-6.07203014e-17
-5.80970398e-17
-5.66835379e-17
-5.47462124e-17
-5.67798519e-17
-5.47898566e-17
-5.72419122e-17
-5.32473093e-17
-5.15396279e-17
-5.04217021e-17
-4.48751476e-17
-4.74368655e-17
-4.99834903e-17
-4.85018846e-17
-4.56723722e-17
-4.51299164e-17
-4.4147733e-17
-4.42282761e-17
-4.23197729e-17
-4.16336469e-17
-3.77208142e-17
-3.86822131e-17
-3.64382432e-17
-4.02570079e-17
-3.39620321e-17
-3.1778595e-17
-3.4180036e-17
-3.25416763e-17
-3.18187068e-17
-3.21617762e-17
-3.04469982e-17
-2.83014077e-17
-2.97518024e-17
-2.75307212e-17
-3.05851452e-17
-3.09702346e-17
-2.97487988e-17
-3.33346326e-17
-3.3929509e-17
-3.35593968e-17
-3.57359903e-17
-3.51997325e-17
-3.35267511e-17
-3.60990981e-17
-3.54325863e-17
-3.81781329e-17
-3.52278683e-17
-3.47957951e-17
-3.15223448e-17
-3.29356051e-17
-3.24328372e-17
-3.26237039e-17
-3.03387835e-17
-3.45989855e-17
-3.26959397e-17
-3.18297351e-17
-3.32790815e-17
-3.29646934e-17
-3.61774961e-17
-3.58780367e-17
-3.42850145e-17
-3.37429381e-17
-3.74338886e-17
-3.51122656e-17
-3.49375164e-17
-3.43132009e-17
-3.18507738e-17
-3.52156165e-17
-3.10559941e-17
-2.99583853e-17
-2.84700315e-17
-2.64335211e-17
-2.78248177e-17
-3.01030947e-17
-2.85887101e-17
-3.04009888e-17
-2.83242207e-17
-2.81883632e-17
-2.52941229e-17
-2.6623919e-17
-2.28270295e-17
-2.31854325e-17
-1.89690392e-17
-2.16926221e-17
-1.7903162e-17
-1.71289242e-17
-1.82082636e-17
-1.66075469e-17
-1.79284212e-17
-1.6514306e-17
-1.48925634e-17
-1.50808691e-17
-1.35103241e-17
-1.51266083e-17
-1.571357e-17
-1.53519703e-17
-1.63433659e-17
-1.66995552e-17
-1.75256569e-17
-1.62496969e-17
-1.49230961e-17
-1.55149037e-17
-1.33169052e-17
-1.04003222e-17
-1.0673004e-17
-8.70520262e-18
-8.93831601e-18
-7.77980331e-18
-5.51578686e-18
-7.49817709e-18
-4.72162721e-18
-5.96833668e-18
-3.4055304e-18
-2.62133572e-18
2.83130381e-19
-2.33334938e-18
1.73723711e-18
1.47246163e-18
-8.40305961e-19
2.0043702e-18
6.38856055e-19
6.61882463e-19
-1.1649244e-18
-9.9327329e-19
8.56003619e-19
-2.48985495e-18
-1.94726539e-19
-9.027452e-19
-2.51864299e-18
-2.73865285e-18
-3.30591276e-18
-2.41282762e-18
-2.22376167e-18
1.96273107e-18
1.35112671e-18
6.75329515e-18
5.71400033e-18
7.8944766e-18
8.49765167e-18
7.5043497e-18
6.86924922e-18
8.20659974e-18
8.63194151e-18
1.05167054e-17
1.1345354e-17
1.50364722e-17
1.45697257e-17
1.43498493e-17
1.80250553e-17
1.58434649e-17
1.41880686e-17
1.68152721e-17
1.41883939e-17
1.54084396e-17
1.25129078e-17
1.49028053e-17
1.44903022e-17
1.48224049e-17
1.40131451e-17
1.02114874e-17
1.28472698e-17
1.57460121e-17
1.34578109e-17
1.62660352e-17
1.45753253e-17
1.46119788e-17
1.55445203e-17
1.49168013e-17
1.13127976e-17
1.44272588e-17
1.54206721e-17
1.43384817e-17
1.10569652e-17
1.18477333e-17
1.22008859e-17
1.33027569e-17
1.36629858e-17
1.76075031e-17
1.78959589e-17
2.20191264e-17
2.09480385e-17
2.18084068e-17
2.35751783e-17
2.38534262e-17
2.08318759e-17
2.29874713e-17
2.1384903e-17
2.4194665e-17
2.43454011e-17
2.50578458e-17
2.49148976e-17
2.74079329e-17
2.39389054e-17
2.36753442e-17
2.67412374e-17
2.68011507e-17
2.72762469e-17
2.82103508e-17
2.76480789e-17
2.8194192e-17
3.03559046e-17
3.02512169e-17
3.28397811e-17
3.3982532e-17
3.39091765e-17
3.42050206e-17
3.47940235e-17
3.62714883e-17
3.68321662e-17
3.40029345e-17
3.8359101e-17
3.75845452e-17
3.80513862e-17
4.10142372e-17
4.00485579e-17
3.7140347e-17
4.19977172e-17
3.78845428e-17
3.71958772e-17
3.53022347e-17
3.91227135e-17
3.9751939e-17
3.85417517e-17
3.47017317e-17
3.72663519e-17
3.5802389e-17
3.39548269e-17
3.24182668e-17
3.54889405e-17
3.59113905e-17
3.76247751e-17
3.69056287e-17
3.80045785e-17
4.1491894e-17
3.85119666e-17
4.31296691e-17
4.44345037e-17
4.17146175e-17
3.93498018e-17
3.63227395e-17
3.71137031e-17
3.7017724e-17
3.79386029e-17
3.84111041e-17
3.9299207e-17
3.77979227e-17
4.05609102e-17
3.58534771e-17
4.02833778e-17
3.54814188e-17
3.8209277e-17
3.54657395e-17
3.5243188e-17
3.60005406e-17
3.71557692e-17
3.47393982e-17
3.52137502e-17
3.48833388e-17
3.44977682e-17
3.77725283e-17
3.65367393e-17
3.8597592e-17
4.04099705e-17
4.11563103e-17
4.00147559e-17
3.79364315e-17
3.73734479e-17
3.79645184e-17
4.02393114e-17
3.57762313e-17
3.88325426e-17
3.81089355e-17
4.01171245e-17
4.37653147e-17
4.2565893e-17
4.17626141e-17
4.10919102e-17
4.20086267e-17
4.26188817e-17
4.30717355e-17
4.05532059e-17
4.19597516e-17
4.06661732e-17
4.05457884e-17
4.24642218e-17
4.03389196e-17
4.06595615e-17
3.91197689e-17
3.75632875e-17
3.5091387e-17
3.47706753e-17
3.74411179e-17
3.69458874e-17
3.82459678e-17
3.58070659e-17
3.29867699e-17
3.55022615e-17
3.41396437e-17
3.35420249e-17
3.41044327e-17
3.33085643e-17
3.38518946e-17
3.40573469e-17
3.27552682e-17
3.17417742e-17
3.03369579e-17
2.95762852e-17
2.91947191e-17
2.57235118e-17
2.43694021e-17
2.68832038e-17
3.0157564e-17
3.09505173e-17
3.25232588e-17
3.38275403e-17
3.58327729e-17
3.63272955e-17
3.52940456e-17
3.2331113e-17
3.53133368e-17
3.63120264e-17
3.73968493e-17
3.4503025e-17
3.3750679e-17
3.62888398e-17
3.37653837e-17
3.52107657e-17
3.97619919e-17
3.47221459e-17
3.44928124e-17
3.66689209e-17
3.44005255e-17
3.4886962e-17
3.42058014e-17
3.45506776e-17
3.83837381e-17
4.06341151e-17
3.7154517e-17
3.83478864e-17
3.77608734e-17
3.873441e-17
4.09815407e-17
4.12604978e-17
3.8618046e-17
3.75146913e-17
3.57653477e-17
3.85347424e-17
3.76749024e-17
3.78043064e-17
3.70737907e-17
3.800649e-17
3.54389551e-17
3.92692779e-17
4.02554546e-17
3.78378478e-17
4.08521183e-17
3.59458211e-17
3.65071679e-17
4.01987904e-17
3.38833155e-17
3.33222316e-17
3.63424742e-17
3.23154309e-17
3.43256934e-17
3.55000725e-17
3.50590409e-17
3.57791035e-17
3.62882538e-17
3.23730603e-17
3.38744633e-17
3.17246631e-17
3.43042676e-17
3.26891415e-17
3.6250118e-17
3.20596009e-17
3.43933644e-17
3.68898853e-17
3.36025116e-17
3.39301413e-17
3.19710145e-17
2.95366367e-17
3.08595243e-17
3.42662319e-17
3.72785546e-17
3.73948393e-17
3.5582636e-17
3.6375402e-17
3.306585e-17
3.64656012e-17
4.00278987e-17
3.81311074e-17
3.53818024e-17
3.72100709e-17
3.90506194e-17
3.91043009e-17
3.89969361e-17
3.72380564e-17
3.75183392e-17
3.83715943e-17
3.65779241e-17
3.8319568e-17
3.91481757e-17
3.96356134e-17
3.96092799e-17
4.07230864e-17
4.27774643e-17
4.59465713e-17
4.51090037e-17
4.38049267e-17
4.51181645e-17
4.8021009e-17
4.50466049e-17
4.53654341e-17
4.2804171e-17
3.96388545e-17
4.3969663e-17
4.12417456e-17
4.56747704e-17
4.46757593e-17
4.67231896e-17
4.72287989e-17
4.89866733e-17
5.23375808e-17
5.11711923e-17
5.17522256e-17
5.14695352e-17
5.14311428e-17
5.24149436e-17
5.36424167e-17
5.37081685e-17
5.43700671e-17
5.37288856e-17
5.12379261e-17
5.05846159e-17
5.09282816e-17
4.88154029e-17
4.41452115e-17
4.30472757e-17
4.54809641e-17
4.69530039e-17
4.49569979e-17
4.53564779e-17
4.33116559e-17
4.28165833e-17
4.19324569e-17
4.05635469e-17
4.41280341e-17
4.16160143e-17
4.47757297e-17
4.24101061e-17
4.55743688e-17
4.69722599e-17
4.59023299e-17
5.09816785e-17
4.8501613e-17
4.89537766e-17
4.51629065e-17
4.69821881e-17
4.97728505e-17
4.92267719e-17
4.65565656e-17
4.84082713e-17
4.83337521e-17
4.57562729e-17
4.41528151e-17
4.58390316e-17
4.61079056e-17
4.51120586e-17
4.49613276e-17
4.68648835e-17
4.68087766e-17
4.72362164e-17
4.5774619e-17
4.69776275e-17
4.65576028e-17
4.67266367e-17
4.58516082e-17
4.69600008e-17
4.27830892e-17
4.50686471e-17
4.38551686e-17
4.20533757e-17
4.4316904e-17
4.77913251e-17
4.71708511e-17
4.98757625e-17
5.13313467e-17
5.00710454e-17
5.12656492e-17
5.07700734e-17
5.00011059e-17
4.80770347e-17
4.99083942e-17
4.96661395e-17
5.00202152e-17
5.39886236e-17
5.62720741e-17
5.67792715e-17
5.63729452e-17
5.79021284e-17
5.83254251e-17
5.97405165e-17
6.14703338e-17
5.7235823e-17
5.81250457e-17
5.52254578e-17
5.69268992e-17
5.66105853e-17
5.62762953e-17
5.8241296e-17
5.80661039e-17
5.83336424e-17
5.65836344e-17
5.8026822e-17
5.84585883e-17
6.03519811e-17
5.78822521e-17
6.08513378e-17
6.20400876e-17
5.9245936e-17
5.84335435e-17
5.77962134e-17
6.01127329e-17
6.09693609e-17
5.84239194e-17
6.30127546e-17
6.24754991e-17
6.41027883e-17
6.46124019e-17
6.35497454e-17
6.29710553e-17
6.73524407e-17
6.85693164e-17
6.3736745e-17
6.53579054e-17
6.46547308e-17
6.01749167e-17
6.14260962e-17
6.16473141e-17
5.88125169e-17
5.73699405e-17
5.67161633e-17
5.66300735e-17
5.68570708e-17
5.41397739e-17
5.64974706e-17
5.83121075e-17
5.86807907e-17
5.67036052e-17
5.69531245e-17
5.64198287e-17
5.61374663e-17
5.25577466e-17
5.0730046e-17
5.12925648e-17
5.25166429e-17
5.05255023e-17
4.99349049e-17
4.7578073e-17
4.92207246e-17
5.07008274e-17
4.98197285e-17
4.81616415e-17
5.13652419e-17
5.06006982e-17
4.94551106e-17
5.08687817e-17
5.15247994e-17
5.00994505e-17
4.90572889e-17
4.81931531e-17
4.81068089e-17
4.5649595e-17
4.5345713e-17
4.38832251e-17
4.11019531e-17
4.54998611e-17
4.30824406e-17
4.47526021e-17
4.20401015e-17
4.31271016e-17
3.87059958e-17
3.72540738e-17
3.79405075e-17
3.78955243e-17
3.5294593e-17
3.22694155e-17
3.39996104e-17
3.35744452e-17
3.01075026e-17
3.10835999e-17
2.8235653e-17
3.03338296e-17
2.59472042e-17
2.68401146e-17
2.18358484e-17
2.10613252e-17
1.93615108e-17
1.94778857e-17
1.69939526e-17
1.5997312e-17
1.4577319e-17
1.04315817e-17
9.06962843e-18
6.07728749e-18
3.97998604e-18
6.29636239e-18
5.65800646e-18
6.76366793e-18
6.54232262e-18
1.07784367e-17
1.21688639e-17
1.47175033e-17
1.64626486e-17
1.35549358e-17
1.36754552e-17
1.64536716e-17
1.42986145e-17
1.3921907e-17
1.27350327e-17
1.40187911e-17
1.01302342e-17
1.21238768e-17
1.53432955e-17
1.96255829e-17
1.72180128e-17
1.52054687e-17
1.44128638e-17
1.73015839e-17
1.26829645e-17
1.27906394e-17
9.3630232e-18
5.6138584e-18
8.17918781e-18
4.65892192e-18
6.0946345e-18
6.60955624e-18
7.87222345e-18
9.22999727e-18
8.81081286e-18
9.37957043e-18
9.14955982e-18
7.44549382e-18
4.56628826e-18
4.94857431e-18
5.1882227e-18
2.7083913e-18
4.11838708e-18
3.01915464e-18
2.79399495e-18
4.94361457e-18
4.94260334e-18
3.28580996e-18
4.79559153e-18
3.6661105e-18
4.30596975e-18
1.52615655e-18
7.52808818e-19
-2.8645399e-18
-3.1472846e-18
-2.72716507e-18
-2.90983188e-18
-4.38668147e-18
-2.51310481e-18
-6.75978311e-18
-6.32077925e-18
-9.61709341e-18
-1.04961297e-17
-9.41058415e-18
-1.18251513e-17
-1.0571193e-17
-8.49661587e-18
-9.31367598e-18
-9.05241177e-18
-1.08043517e-17
-1.36623481e-17
-1.14110736e-17
-1.3080261e-17
-1.39476269e-17
-1.60468014e-17
-1.74126027e-17
-1.54658665e-17
-1.74524568e-17
-1.39390936e-17
-1.82055481e-17
-1.88285958e-17
-2.1906704e-17
-1.99650566e-17
-2.35922289e-17
-2.31785938e-17
-2.29474789e-17
-2.57404735e-17
-2.93902459e-17
-3.08638166e-17
-2.89227859e-17
-2.96711181e-17
-2.97542683e-17
-3.21441234e-17
-3.37686428e-17
-3.38883912e-17
-3.20966885e-17
-3.21801176e-17
-3.20036312e-17
-3.17898572e-17
-2.88773615e-17
-2.8642526e-17
-2.52113337e-17
-2.45288515e-17
-2.59136033e-17
-2.12448535e-17
-2.18059354e-17
-2.17480651e-17
-1.912958e-17
-2.0893405e-17
-2.00610558e-17
-2.16392493e-17
-2.18827092e-17
-1.78706613e-17
-2.04138362e-17
-1.96176744e-17
-2.25012971e-17
-2.09967286e-17
-2.4482201e-17
-2.16988387e-17
-2.37538685e-17
-2.07464355e-17
-1.89548071e-17
-1.99106058e-17
-1.91928487e-17
-2.17158751e-17
-2.15872102e-17
-2.17893099e-17
-2.03835129e-17
-2.26887775e-17
-2.59941478e-17
-2.36315762e-17
-2.77656367e-17
-2.57318707e-17
-2.68458134e-17
-2.71036456e-17
-2.87200185e-17
-2.78081216e-17
-2.89431639e-17
-2.86057474e-17
-3.26502641e-17
-2.88688748e-17
-3.23312172e-17
-3.56162882e-17
-3.77065889e-17
-3.44291875e-17
-3.82415534e-17
-3.85242933e-17
-3.81020024e-17
-3.63752919e-17
-3.8718718e-17
-3.7023615e-17
-4.05747158e-17
-3.58293698e-17
-3.93193906e-17
-3.75327301e-17
-3.43233514e-17
-3.72514462e-17
-3.64655872e-17
-3.72440459e-17
-3.49503505e-17
-3.7369824e-17
-3.37996305e-17
-3.56699321e-17
-3.55041691e-17
-3.67907156e-17
-3.62834377e-17
-3.53586996e-17
-3.63669517e-17
-3.92025416e-17
-3.68557772e-17
-3.83981838e-17
-3.93030937e-17
-4.01521591e-17
-4.40402341e-17
-4.35727926e-17
-4.25291359e-17
-4.13327648e-17
-3.94934121e-17
-3.77615017e-17
-3.83608484e-17
-3.75057054e-17
-3.48087467e-17
-3.94065473e-17
-4.25520447e-17
-4.07375566e-17
-4.06984191e-17
-3.66517324e-17
-3.77079221e-17
-3.92650619e-17
-3.93286021e-17
-4.10956983e-17
-4.10679176e-17
-4.29638417e-17
-4.09900954e-17
-3.86954469e-17
-3.64337813e-17
-4.10781968e-17
-4.00557976e-17
-3.82998876e-17
-3.87083533e-17
-3.54894914e-17
-3.68654525e-17
-3.73082702e-17
-3.86960506e-17
-3.67478467e-17
-4.03766861e-17
-3.74056326e-17
-3.78098821e-17
-3.57602008e-17
-3.57440233e-17
-3.34586053e-17
-3.47334056e-17
-3.64888148e-17
-3.59529257e-17
-3.52158305e-17
-3.52673973e-17
-3.87793724e-17
-3.58591606e-17
-3.48694289e-17
-3.46786117e-17
-3.48921704e-17
-3.90372236e-17
-4.32934016e-17
-4.11242137e-17
-4.60324771e-17
-4.78537809e-17
-4.64886239e-17
-4.13207732e-17
-4.32003979e-17
-4.41817771e-17
-4.24200619e-17
-4.17059858e-17
-4.02876474e-17
-4.53869575e-17
-4.48687401e-17
-4.52950274e-17
-4.47538305e-17
-4.42886687e-17
-4.7401716e-17
-5.02731976e-17
-5.04751134e-17
-5.44956105e-17
-5.4393779e-17
-5.26114284e-17
-5.39968809e-17
-5.26655069e-17
-5.3990711e-17
-5.29166192e-17
-5.5064475e-17
-5.42467578e-17
-5.33222361e-17
-5.18706418e-17
-5.37990324e-17
-5.54783018e-17
-5.39311115e-17
-5.45675492e-17
-5.42524895e-17
-5.62734604e-17
-5.64817471e-17
-5.69487678e-17
-5.98791242e-17
-6.06126369e-17
-6.27255253e-17
-6.62507855e-17
-6.26139396e-17
-6.11286534e-17
-6.28216589e-17
-6.22105684e-17
-6.31783018e-17
-6.09943939e-17
-6.12428946e-17
-6.00981156e-17
-5.88609942e-17
-5.95565555e-17
-6.04027079e-17
-5.9535137e-17
-6.30742565e-17
-5.96715973e-17
-6.23275911e-17
-6.0375303e-17
-5.78615172e-17
-5.73356787e-17
-5.79251369e-17
-5.67257331e-17
-5.60077442e-17
-5.5746139e-17
-5.42020826e-17
-5.64383764e-17
-5.59818427e-17
-5.34589268e-17
-5.55759114e-17
-5.52664072e-17
-5.43652221e-17
-5.41039917e-17
-5.47907274e-17
-5.05482681e-17
-5.15871586e-17
-5.16551147e-17
-5.11924594e-17
-5.00807857e-17
-4.89533562e-17
-4.58470626e-17
-4.57390943e-17
-4.17713252e-17
-4.19366368e-17
-4.33662031e-17
-4.16287835e-17
-4.12507446e-17
-4.35811232e-17
-4.21861507e-17
-4.22102123e-17
-4.1659934e-17
-3.91062395e-17
-3.86172511e-17
-4.05802457e-17
-4.079941e-17
-3.81061217e-17
-4.20213433e-17
-4.03357997e-17
-4.29137678e-17
-3.978384e-17
-4.28076575e-17
-4.40685485e-17
-4.09416332e-17
-3.96812713e-17
-3.97324161e-17
-3.98119396e-17
-4.03149427e-17
-4.14205077e-17
-3.99218784e-17
-3.80946345e-17
-4.10694489e-17
-3.8458788e-17
-3.49110437e-17
-3.69424474e-17
-3.38272428e-17
-3.50442361e-17
-3.2739351e-17
-2.93722311e-17
-2.81843383e-17
-2.803922e-17
-2.94216124e-17
-3.04856616e-17
-3.23731413e-17
-3.11997253e-17
-2.97556847e-17
-2.82538507e-17
-3.15854311e-17
-3.32626463e-17
-3.31882894e-17
-3.21439762e-17
-3.06628908e-17
-3.21024147e-17
-3.73686616e-17
-3.47105789e-17
-3.6163385e-17
-3.7024326e-17
-3.87017408e-17
-4.11617782e-17
-4.28208177e-17
-4.15962601e-17
-4.36839641e-17
-4.37929703e-17
-4.69578588e-17
-4.60335883e-17
-4.39707398e-17
-3.98942654e-17
-4.20749127e-17
-4.37489057e-17
-4.53780026e-17
-4.53775174e-17
-4.73499841e-17
-5.04045913e-17
-5.23491235e-17
-4.83999379e-17
-4.624723e-17
-4.84987858e-17
-5.02140229e-17
-4.80778727e-17
-4.69448626e-17
-4.55454143e-17
-4.48384948e-17
-4.70804164e-17
-5.00860385e-17
-5.08352804e-17
-4.85136639e-17
-5.14082692e-17
-5.05470704e-17
-4.76596172e-17
-4.70446738e-17
-5.06328895e-17
-4.94807842e-17
-5.28147625e-17
-5.06668564e-17
-5.04980543e-17
-4.69329341e-17
-4.8184065e-17
-4.99607714e-17
-4.82044081e-17
-5.0211985e-17
-4.90452777e-17
-4.79118604e-17
-4.83054878e-17
-4.7523732e-17
-4.87417081e-17
-4.80516096e-17
-4.88339489e-17
-4.85248569e-17
-5.02892337e-17
-4.95012013e-17
-4.88819357e-17
-5.11143797e-17
-5.27950128e-17
-5.39112255e-17
-5.50696897e-17
-5.8093012e-17
-5.69608532e-17
-5.96214027e-17
-5.60093346e-17
-5.66536984e-17
-5.40465837e-17
-5.45736129e-17
-5.5224486e-17
-5.57142841e-17
-5.48837839e-17
-5.48541531e-17
-5.18163622e-17
-5.51121389e-17
-5.64102242e-17
-5.44248171e-17
-5.50863639e-17
-5.51523183e-17
-5.38574892e-17
-5.44592374e-17
-5.40238561e-17
-5.38392552e-17
-5.2954556e-17
-5.35069987e-17
-5.19578381e-17
-5.13668538e-17
-5.23628442e-17
-5.25028243e-17
-4.85576688e-17
-4.75355602e-17
-4.82472936e-17
-4.92481794e-17
-5.12893205e-17
-5.30800848e-17
-5.30318102e-17
-5.10603e-17
-5.14944687e-17
-5.10431189e-17
-5.03294983e-17
-4.76147237e-17
-4.90695011e-17
-4.65143597e-17
-4.53522371e-17
-4.48148634e-17
-4.57411325e-17
-4.4767342e-17
-4.36576429e-17
-4.20844248e-17
-4.42169459e-17
-4.23296657e-17
-4.07551962e-17
-4.25068307e-17
-4.01477328e-17
-3.99269548e-17
-3.98019967e-17
-3.93025283e-17
-3.90807078e-17
-3.56210559e-17
-3.32639215e-17
-3.49832223e-17
-3.31532296e-17
-3.40936834e-17
-3.5266337e-17
-3.30996777e-17
-3.43387691e-17
-3.06551106e-17
-2.84766907e-17
-2.97205988e-17
-3.0443247e-17
-2.84917713e-17
-3.1365118e-17
-2.76573566e-17
-2.95339791e-17
-2.82866632e-17
-2.7060496e-17
-2.70812863e-17
-2.51551894e-17
-2.41991151e-17
-2.18369638e-17
-2.59671252e-17
-2.44415626e-17
-2.65533197e-17
-2.51475634e-17
-2.16199609e-17
-2.54396369e-17
-2.46086424e-17
-2.31699064e-17
-2.13971209e-17
-2.37146812e-17
-1.77246654e-17
-2.14194845e-17
-2.15788543e-17
-2.11527863e-17
-1.95745464e-17
-1.7059163e-17
-1.97272674e-17
-1.94825345e-17
-1.70312162e-17
-1.70262197e-17
-1.42048828e-17
-1.46437955e-17
-1.56644477e-17
-1.34394255e-17
-1.42349906e-17
-1.44511232e-17
-1.5185367e-17
-1.13672311e-17
-1.14642715e-17
-1.05720735e-17
-1.25157931e-17
-1.40507482e-17
-1.29155089e-17
-1.00407765e-17
-1.16421848e-17
-1.24765012e-17
-1.00572418e-17
-1.24519874e-17
-1.59142996e-17
-1.60769912e-17
-1.27805766e-17
-1.25988416e-17
-1.35662489e-17
-1.4298452e-17
-1.09200823e-17
-1.03510796e-17
-1.31798381e-17
-1.32412491e-17
-1.58461837e-17
-1.35636406e-17
-1.56757841e-17
-1.74443108e-17
-1.22945845e-17
-1.45982449e-17
-1.89643801e-17
-1.81642296e-17
-1.81151103e-17
-1.81254361e-17
-2.16135914e-17
-2.23286574e-17
-2.39251936e-17
-2.22427802e-17
-1.86600553e-17
-1.58575958e-17
-1.74813178e-17
-1.58798715e-17
-1.83530951e-17
-2.02377761e-17
-1.9430111e-17
-1.26771011e-17
-1.24825543e-17
-1.69832441e-17
-1.62090399e-17
-1.42756703e-17
-1.77971968e-17
-1.60894965e-17
-1.72504428e-17
-1.55719187e-17
-1.39429192e-17
-1.44294796e-17
-1.52892471e-17
-1.43193428e-17
-1.43458832e-17
-1.8529021e-17
-1.63579392e-17
-1.32439944e-17
-1.19399791e-17
-1.32889457e-17
-8.17122448e-18
-7.40578897e-18
-6.55136777e-18
-6.15989793e-18
-1.07741997e-17
-9.25873985e-18
-9.75553594e-18
-1.06179226e-17
-9.51190449e-18
-1.05869516e-17
-1.16936042e-17
-1.29095342e-17
-1.51025596e-17
-1.48537408e-17
-1.41103246e-17
-1.5183427e-17
-1.0814833e-17
-1.05260937e-17
-1.1542693e-17
-8.39928909e-18
-7.07299149e-18
-8.14905253e-19
1.30838593e-18
5.98580162e-19
1.05239384e-19
1.53902555e-18
9.82516237e-19
1.70188861e-18
6.28587607e-18
5.60882894e-18
5.38694282e-18
7.526052e-18
7.90342561e-18
6.68045282e-18
5.4194161e-18
5.41665905e-18
9.93867203e-18
1.09831561e-17
1.15879266e-17
1.50267629e-17
1.29191404e-17
1.06738169e-17
1.03265048e-17
1.39760039e-17
1.42534247e-17
1.2139391e-17
1.29139297e-17
1.377373e-17
1.4537579e-17
1.51357426e-17
1.43491945e-17
1.49838096e-17
1.40673366e-17
1.79834337e-17
1.84898933e-17
1.78472739e-17
2.06496802e-17
1.96327345e-17
2.15044993e-17
1.51268637e-17
1.67029654e-17
1.73336947e-17
1.65988087e-17
1.85774768e-17
1.99626709e-17
1.84387413e-17
2.05864219e-17
2.30726422e-17
2.32422721e-17
2.28713006e-17
2.40477965e-17
2.15417187e-17
2.48635862e-17
2.47404202e-17
2.54503587e-17
2.61194039e-17
2.52782685e-17
2.69927089e-17
3.06158147e-17
2.88362981e-17
2.87341913e-17
2.68518939e-17
3.04095538e-17
3.27391004e-17
2.97257384e-17
3.11654735e-17
3.3085791e-17
3.55325553e-17
3.39244037e-17
3.42323204e-17
3.7651804e-17
4.03626265e-17
3.77873386e-17
3.66837815e-17
3.71611412e-17
3.91118095e-17
3.91029342e-17
3.76211082e-17
3.79284896e-17
4.17892087e-17
4.00678112e-17
3.8854837e-17
3.85851814e-17
4.2733085e-17
4.23390866e-17
4.51636824e-17
4.67409818e-17
4.65085457e-17
4.45981254e-17
4.61104817e-17
4.49567844e-17
4.4938725e-17
4.69281737e-17
4.98760681e-17
4.7861321e-17
4.77848579e-17
4.79994663e-17
5.15419771e-17
5.23499759e-17
5.10019709e-17
5.28833014e-17
5.37302313e-17
5.3799578e-17
5.62898805e-17
5.30155105e-17
5.26190203e-17
5.44756339e-17
5.46056644e-17
5.56156542e-17
5.26768106e-17
5.24448731e-17
5.25605165e-17
5.64859641e-17
6.00449746e-17
6.14390636e-17
6.08352302e-17
6.11034295e-17
6.32905638e-17
6.49336911e-17
6.43401032e-17
6.13980212e-17
6.43288646e-17
6.34420482e-17
6.5477952e-17
6.91643241e-17
7.1112309e-17
6.91593969e-17
6.8381952e-17
6.97548468e-17
6.81134278e-17
6.94057451e-17
7.07609508e-17
7.20831889e-17
7.2543463e-17
7.43999931e-17
7.61950534e-17
7.33095876e-17
7.22869666e-17
7.17327091e-17
7.26772512e-17
7.15250571e-17
7.24182948e-17
7.10116332e-17
7.07960877e-17
7.11174243e-17
7.18189921e-17
7.21664508e-17
7.23995656e-17
7.18367475e-17
7.35480128e-17
7.40322656e-17
7.19569029e-17
7.33736936e-17
7.20541278e-17
7.29853305e-17
7.1926378e-17
7.09267959e-17
7.10950171e-17
7.25210591e-17
7.62529921e-17
7.6628369e-17
7.42492597e-17
7.8609012e-17
7.93996722e-17
8.184563e-17
8.13284844e-17
8.5524896e-17
8.04833192e-17
8.30369094e-17
8.40740297e-17
8.53117475e-17
8.4467595e-17
8.35633749e-17
8.49301876e-17
8.77031225e-17
8.5598505e-17
8.83708921e-17
9.39260311e-17
9.25253766e-17
9.35609161e-17
9.45003931e-17
9.58154267e-17
9.49968878e-17
9.65634541e-17
9.7201194e-17
9.51267589e-17
9.80217138e-17
9.65190417e-17
9.3717871e-17
9.58128183e-17
9.51837361e-17
9.65878442e-17
9.44454257e-17
9.62259395e-17
9.92105866e-17
9.56419827e-17
9.75953149e-17
9.82868528e-17
9.46694488e-17
9.6787309e-17
9.77152849e-17
9.88926227e-17
9.77693567e-17
9.45976463e-17
9.37598737e-17
9.47958526e-17
9.39651215e-17
9.56285121e-17
9.78736892e-17
9.3617551e-17
9.25685188e-17
9.63170011e-17
9.35281346e-17
9.37610231e-17
9.5130116e-17
9.52498283e-17
9.76884531e-17
9.93471149e-17
9.83581637e-17
1.01242252e-16
9.72912892e-17
9.687389e-17
9.8638024e-17
9.33822145e-17
9.69250631e-17
9.68528615e-17
9.98246817e-17
1.02023794e-16
1.03975246e-16
1.01035169e-16
1.00296144e-16
1.02633117e-16
1.00517925e-16
1.02834721e-16
1.05291951e-16
1.06774143e-16
1.08293757e-16
1.0800336e-16