/*--------------------------------*- C++ -*----------------------------------*\
| =========                 |                                                 |
| \\      /  F ield         | OpenFOAM: The Open Source CFD Toolbox           |
|  \\    /   O peration     | Version:  2206                                  |
|   \\  /    A nd           | Website:  www.openfoam.com                      |
|    \\/     M anipulation  |                                                 |
\*---------------------------------------------------------------------------*/
FoamFile
{
    version     2.0;
    format      ascii;
    arch        "LSB;label=32;scalar=64";
    class       volScalarField;
    location    "1.02e-05";
    object      PVsourcePV;
}
// * * * * * * * * * * * * * * * * * * * * * * * * * * * * * * * * * * * * * //

dimensions      [1 -3 -1 0 0 0 0];

internalField   nonuniform List<scalar> 
3183
(
0
0
0
0
0
0
0
0
0
0
0
0
0
0
0
0
0
0
0
0
0
0
0
0
0
0
0
0
0
0
0
0
0
0
0
0
0
0
0
0
0
0
0
0
0
0
0
0
0
0
0
0
0
0
0
0
0
0
0
0
0
0
0
0
0
0
0
0
0
0
0
0
0
0
0
0
0
0
0
0
0
0
0
0
0
0
0
0
0
0
0
0
0
0
0
0
0
0
0
0
0
0
0
0
0
0
0
0
0
0
0
0
0
0
0
0
0
0
0
0
0
0
0
0
0
0
0
0
0
0
0
0
0
0
0
0
0
0
0
0
0
0
0
0
0
0
0
0
0
0
0
0
0
0
0
0
0
0
0
0
0
0
0
0
0
0
0
0
0
0
0
0
0
0
0
0
0
0
0
0
0
0
0
0
0
0
0
0
0
0
0
0
0
0
0
0
0
0
0
0
0
0
0
0
0
0
0
0
0
0
0
0
0
0
0
0
0
0
0
0
0
0
0
0
0
0
0
0
0
0
0
0
0
0
0
0
0
0
0
0
0
0
0
0
0
0
0
0
0
0
0
0
0
0
0
0
0
0
0
0
0
0
0
0
0
0
0
0
0
0
0
0
0
0
0
0
0
0
0
0
0
0
0
0
0
0
0
0
0
0
0
0
0
0
0
0
0
0
0
0
0
0
0
0
0
0
0
0
0
0
0
0
0
0
0
0
0
0
0
0
0
0
0
0
0
0
0
0
0
0
0
0
0
0
0
0
0
0
0
0
0
0
0
0
0
0
0
0
0
0
0
0
0
0
0
0
0
0
0
0
0
0
0
0
0
0
0
0
0
0
0
0
0
0
0
0
0
0
0
0
0
0
0
0
0
0
0
0
0
0
0
0
0
0
0
0
0
0
0
0
0
0
0
0
0
0
0
0
0
0
0
0
0
0
0
0
0
0
0
0
0
0
0
0
0
0
0
0
0
0
0
0
0
0
0
0
0
0
0
0
0
0
0
0
0
0
0
0
0
0
0
0
0
0
0
0
0
0
0
0
0
0
0
0
0
0
0
0
0
0
0
0
0
0
0
0
0
0
0
0
0
0
0
0
0
0
0
0
0
0
0
0
0
0
0
0
0
0
0
0
0
0
0
0
0
0
0
0
0
0
0
0
0
0
0
0
0
0
0
0
0
0
0
0
0
0
0
0
0
0
0
0
0
0
0
0
0
0
0
0
0
0
0
0
0
0
0
0
0
0
0
0
0
0
0
0
0
0
0
0
0
0
0
0
0
0
0
0
0
0
0
0
0
0
0
0
0
0
0
0
0
0
0
0
0
0
0
0
0
0
0
0
0
0
0
0
0
0
0
0
0
0
0
0
0
0
0
0
0
0
0
0
0
0
0
0
0
0
0
0
0
0
0
0
0
0
0
0
0
0
0
0
0
0
0
0
0
0
0
0
0
0
0
0
0
0
0
0
0
0
0
0
0
0
0
0
0
0
0
0
0
0
0
0
0
0
0
0
0
0
0
0
0
0
0
0
0
0
0
0
0
0
0
0
0
0
0
0
0
0
0
0
0
0
0
0
0
0
0
0
0
0
0
0
0
0
0
0
0
0
0
0
0
0
0
0
0
0
0
0
0
0
0
0
0
0
0
0
0
0
0
0
0
0
0
0
0
0
0
0
0
0
0
0
0
0
0
0
0
0
0
0
0
0
0
0
0
0
0
0
0
0
0
0
0
0
0
0
0
0
0
0
0
0
0
0
0
0
0
0
0
0
0
0
0
0
0
0
0
0
0
0
0
0
0
0
0
0
0
0
0
0
0
0
0
0
0
0
0
0
0
0
0
0
0
0
0
0
0
0
0
0
0
0
0
0
0
0
0
0
0
0
0
0
0
0
0
0
0
0
0
0
0
0
0
0
0
0
0
0
0
0
0
0
0
0
0
0
0
0
0
0
0
0
0
0
0
0
0
0
0
0
0
0
0
0
0
0
0
0
0
0
0
0
0
0
0
0
0
0
0
0
0
0
0
0
0
0
0
0
0
0
0
0
0
0
0
0
0
0
0
0
0
0
0
0
0
0
0
0
0
0
0
0
0
0
0
0
0
0
0
0
0
0
0
0
0
0
0
0
0
0
0
0
0
0
0
0
0
0
0
0
0
0
0
0
0
0
0
0
0
0
0
0
0
0
0
0
0
0
0
0
0
0
0
0
0
0
0
0
0
0
0
0
0
0
0
0
0
0
0
0
0
0
0
0
0
0
0
0
0
0
0
0
0
0
0
0
0
0
0
0
0
0
0
0
0
0
0
0
0
0
0
0
0
0
0
0
0
0
0
0
0
0
0
0
0
0
0
0
0
0
0
0
0
0
0
0
0
0
0
0
0
0
0
0
0
0
0
0
0
0
0
0
0
0
0
0
0
0
0
0
0
0
0
0
0
0
0
0
0
0
0
0
0
0
0
0
0
0
0
0
0
0
0
0
0
0
0
0
0
0
0
0
0
0
0
0
0
0
0
0
0
0
0
0
0
0
0
0
0
0
0
0
0
0
0
0
0
0
0
0
0
0
0
0
0
0
0
0
0
0
0
0
0
0
0
0
0
0
0
0
0
0
0
0
0
0
0
0
0
0
0
0
0
0
0
0
0
0
0
0
0
0
0
0
0
0
0
0
0
0
0
0
0
0
0
0
0
0
0
0
0
0
0
0
0
0
0
0
0
0
0
0
0
0
0
0
0
0
0
0
0
0
0
0
0
0
0
0
0
0
0
0
0
0
0
0
0
0
0
0
0
0
0
0
0
0
0
0
0
0
0
0
0
0
0
0
0
0
0
0
0
0
0
0
0
0
0
0
0
0
0
0
0
0
0
0
0
0
0
0
0
0
0
0
0
0
0
0
0
0
0
0
0
0
0
0
0
0
0
0
0
0
0
0
0
0
0
0
0
0
0
0
0
0
0
0
0
0
0
0
0
0
0
0
0
0
0
0
0
0
0
0
0
0
0
0
0
0
0
0
0
0
0
0
0
0
0
0
0
0
0
0
0
0
0
0
0
0
0
0
0
0
0
0
0
0
0
0
0
0
0
0
0
0
0
0
0
0
0
0
0
0
0
0
0
0
0
0
0
0
0
0
0
0
0
0
0
0
0
0
0
0
0
0
0
0
0
0
0
0
0
0
0
0
0
0
0
0
0
0
0
0
0
0
0
0
0
0
0
0
0
0
0
0
0
0
0
0
0
0
0
0
0
0
0
0
0
0
0
0
0
0
0
0
0
0
0
0
0
0
0
0
0
0
0
0
0
0
0
0
0
0
0
0
0
0
0
0
0
0
0
0
0
0
0
0
0
0
0
0
0
0
0
0
0
0
0
0
0
0
0
0
0
0
0
0
0
0
0
0
0
0
0
0
0
0
0
0
0
0
0
0
0
0
0
0
0
0
0
0
0
0
0
0
0
0
0
0
0
0
0
0
0
0
0
0
0
0
0
0
0
0
0
0
0
0
0
0
0
0
0
0
0
0
0
0
0
0
0
0
0
0
0
0
0
0
0
0
0
0
0
0
0
0
0
0
0
0
0
0
0
0
0
0
0
0
0
0
0
0
0
0
0
0
0
0
0
0
0
0
0
0
0
0
0
0
0
0
0
0
0
0
0
0
0
0
0
0
0
0
0
0
0
0
0
0
0
0
0
0
0
0
0
0
0
0
0
0
0
0
0
0
0
0
0
0
0
0
0
0
0
0
0
0
0
0
0
0
0
0
0
0
0
0
0
0
0
0
0
0
0
0
0
0
0
0
0
0
0
0
0
0
0
0
0
0
0
0
0
0
0
0
0
0
0
0
0
0
0
0
0
0
0
0
0
0
0
0
0
0
0
0
0
0
0
0
0
0
0
0
0
0
0
0
0
0
0
0
0
0
0
0
0
0
0
0
0
0
0
0
0
0
0
0
0
0
0
0
0
0
0
0
0
0
0
0
0
0
0
0
0
0
0
0
0
0
0
0
0
0
0
0
0
0
0
0
0
0
0
0
0
0
0
0
0
0
0
0
0
0
0
0
0
0
0
0
0
0
0
0
0
0
0
0
0
0
0
0
0
0
0
0
0
0
0
0
0
0
0
0
0
0
0
0
0
0
0
0
0
0
0
0
0
0
0
0
0
0
0
0
0
0
0
0
0
0
0
0
0
0
0
0
0
0
0
0
0
0
0
0
0
0
0
0
0
0
0
0
0
0
0
0
0
0
0
0
0
0
0
0
0
0
0
0
0
0
0
0
0
0
0
0
0
0
0
0
0
0
0
0
0
0
0
0
0
0
0
0
0
0
0
0
0
0
0
0
0
0
0
0
0
0
0
0
0
0
0
0
0
0
0
0
0
0
0
0
0
0
0
0
0
0
0
0
0
0
0
0
0
0
0
0
0
0
0
0
0
0
0
0
0
0
0
0
0
0
0
0
0
0
0
0
0
0
0
0
0
0
0
0
0
0
0
0
0
0
0
0
0
0
0
0
0
0
0
0
0
0
0
0
0
0
0
0
0
0
0
0
0
0
0
0
0
0
0
0
0
0
0
0
0
0
0
0
0
0
0
0
0
0
0
0
0
0
0
0
0
0
0
0
0
0
0
0
0
0
0
0
0
0
0
0
0
0
0
0
0
0
0
0
0
0
0
0
0
0
0
0
0
0
0
0
0
0
0
0
0
0
0
0
0
0
0
0
0
0
0
0
0
0
0
0
0
0
0
0
0
0
0
0
0
0
0
0
0
0
0
0
0
0
0
0
0
0
0
0
0
0
0
0
0
0
0
0
0
0
0
0
0
0
0
0
0
0
0
0
0
0
0
0
0
0
0
0
0
0
0
0
0
0
0
0
0
0
0
0
0
0
0
0
0
0
0
0
0
0
0
0
0
0
0
0
0
0
0
0
0
0
0
0
0
0
0
0
0
0
0
0
0
0
0
0
0
0
0
0
0
0
0
0
0
0
0
0
0
0
0
0
0
0
0
0
0
0
0
0
0
0
0
0
0
0
0
0
0
0
0
0
0
0
0
0
0
0
0
0
0
0
0
0
0
0
0
0
0
0
0
0
0
0
0
0
0
0
0
0
0
0
0
0
0
0
0
0
0
0
0
0
0
0
0
0
0
0
0
0
0
0
0
0
0
0
0
0
0
0
0
0
0
0
0
0
0
0
0
0
0
0
0
0
0
0
0
0
0
0
0
0
0
0
0
0
0
0
0
0
0
0
0
0
0
0
0
0
0
0
0
0
0
0
0
0
0
0
0
0
0
0
0
0
0
0
0
0
0
0
0
0
0
0
0
0
0
0
0
0
0
0
0
0
0
0
0
0
0
0
0
0
0
0
0
0
0
0
0
0
0
1.85652487e-298
0
1.91038259e-295
0
1.92568231e-292
0
1.90218176e-289
0
1.84192292e-286
0
1.74897333e-283
0
1.6289932e-280
2.55671134e-282
1.48868947e-277
5.10114499e-279
1.3352266e-274
6.94827023e-276
1.17566165e-271
8.12054408e-273
1.01646031e-268
8.68300885e-270
8.63132298e-266
8.73019393e-267
7.2000532e-263
8.37254632e-264
5.90136646e-260
7.72402405e-261
4.75346229e-257
6.89200141e-258
3.76344265e-254
5.97009235e-255
2.92921256e-251
5.03399509e-252
2.2416868e-248
4.14006413e-249
1.68702423e-245
3.32605888e-246
1.24867624e-242
2.61340246e-243
9.09109904e-240
2.01028915e-240
6.51138006e-237
1.51506913e-237
4.58847381e-234
1.11947745e-234
3.18160992e-231
8.1142582e-232
2.17095363e-228
5.77215691e-229
1.45786481e-225
4.03142987e-226
9.63567081e-223
2.76543493e-223
6.26868423e-220
1.86372856e-220
4.01447932e-217
1.23432993e-217
2.53084808e-214
8.03543105e-215
1.5707592e-211
5.14284872e-212
9.59797412e-209
3.23661668e-209
5.77421354e-206
2.0032644e-206
3.42029409e-203
1.21955837e-203
1.99481507e-200
7.30355306e-201
1.14556272e-197
4.30304503e-198
6.47765547e-195
2.49438775e-195
3.6066377e-192
1.42275009e-192
1.97730245e-189
7.98535854e-190
1.0673997e-186
4.41042688e-187
5.67360588e-184
2.39718468e-184
2.96934957e-181
1.28223171e-181
1.53011035e-178
6.74964e-179
7.76300402e-176
3.49658686e-176
3.87762699e-173
1.78260009e-173
1.90683034e-170
8.94337715e-171
9.23093274e-168
4.41545284e-168
4.39887223e-165
2.14515708e-165
2.06334095e-162
1.02549415e-162
9.52583523e-160
4.82362648e-160
4.3281557e-157
2.23230106e-157
1.9352294e-154
1.01633931e-154
8.51432892e-152
4.55193254e-152
3.68563151e-149
2.00532269e-149
1.56952565e-146
8.68880781e-147
6.57457515e-144
3.70233325e-144
2.70865441e-141
1.55123588e-141
1.09740251e-138
6.39014041e-139
4.37159941e-136
2.58768757e-136
1.7120169e-133
1.02994991e-133
6.5901554e-131
4.02858233e-131
2.49301579e-128
1.54826122e-128
9.26644134e-126
5.84535316e-126
3.38353791e-123
2.16752905e-123
1.21340339e-120
7.89249046e-121
4.2728295e-118
2.82136572e-118
1.4770529e-115
9.89909902e-116
5.01111108e-113
3.40808884e-113
1.66805324e-110
1.15102807e-110
5.44623909e-108
3.81235988e-108
1.74365093e-105
1.23794098e-105
5.47211425e-103
3.93967643e-103
1.68279516e-100
1.22835249e-100
5.06904219e-98
3.75080721e-98
1.49508815e-95
1.1212246e-95
4.31589074e-93
3.27976056e-93
1.21882479e-90
9.38375282e-91
3.3656635e-88
2.62473762e-88
9.08313766e-86
7.17374315e-86
2.39441094e-83
1.91476918e-83
6.16174988e-81
4.98816516e-81
1.54695844e-78
1.2674872e-78
3.78642108e-76
3.13927197e-76
9.02898987e-74
7.57318946e-74
2.09589388e-71
1.77807676e-71
4.73208022e-69
4.05951393e-69
1.03822231e-66
9.00428459e-67
2.21132886e-64
1.9383943e-64
4.56743941e-62
4.04558325e-62
9.13773087e-60
8.17621434e-60
1.76844711e-57
1.59806214e-57
3.30614565e-55
3.01640208e-55
5.96148644e-53
5.48985677e-53
1.03501266e-50
9.61745359e-51
1.72690976e-48
1.61866028e-48
2.76316091e-46
2.61169198e-46
4.22984181e-44
4.03015361e-44
6.17819526e-42
5.93179219e-42
8.58422737e-40
8.30212762e-40
1.13067634e-37
1.10107561e-37
1.40617989e-35
1.37823116e-35
1.64360285e-33
1.62056571e-33
1.79574424e-31
1.78008504e-31
1.82212324e-29
1.81443776e-29
1.70379496e-27
1.69178285e-27
1.45428093e-25
1.45479852e-25
1.1194484e-23
1.11768107e-23
7.65495345e-22
7.60060844e-22
4.55665455e-20
4.49740182e-20
2.29598604e-18
2.27675291e-18
9.39948476e-17
9.36362714e-17
2.93082069e-15
2.92384617e-15
2.08628459e-11
2.19017316e-11
0.0186952615
0.0743805185
0.735910408
0.768086213
0.387996537
0.321150929
0.0549549877
0.0441852266
0.00856959995
0.00781222412
0.00133549337
0.0012802373
0.000185987397
0.000185060082
2.43962587e-05
2.44983881e-05
3.45940079e-06
3.47212111e-06
9.77939796e-07
9.77953309e-07
7.06278167e-07
7.06448868e-07
6.79106286e-07
6.79128642e-07
6.76570381e-07
6.7657158e-07
6.76346555e-07
6.76346953e-07
6.76326437e-07
6.7632865e-07
6.76326358e-07
6.76327336e-07
6.76325493e-07
6.76327849e-07
6.76324149e-07
6.76327334e-07
6.76325904e-07
6.76325945e-07
6.76325974e-07
6.76325337e-07
6.76326853e-07
6.76325163e-07
6.76327224e-07
6.76325867e-07
6.76326619e-07
6.76326448e-07
6.76326821e-07
6.76325893e-07
6.76326391e-07
6.76326381e-07
6.76326687e-07
6.76325378e-07
6.76327358e-07
6.76325958e-07
6.76326389e-07
6.76326607e-07
6.7632594e-07
6.76326508e-07
6.76326029e-07
6.7632628e-07
6.76326405e-07
6.76326729e-07
6.76326053e-07
6.76326139e-07
6.76326503e-07
6.76325744e-07
6.76327049e-07
6.76326197e-07
6.76326429e-07
6.76325242e-07
6.76325642e-07
6.76326159e-07
6.76325409e-07
6.76326907e-07
6.76325852e-07
6.76326946e-07
6.76326394e-07
6.76327041e-07
6.76326628e-07
6.76326749e-07
6.76325679e-07
6.76327062e-07
6.76325975e-07
6.76326664e-07
6.76326694e-07
6.76326236e-07
6.76326876e-07
6.76325334e-07
6.763271e-07
6.76325369e-07
6.76326642e-07
6.76326122e-07
6.76326441e-07
6.7632659e-07
6.76326672e-07
6.7632703e-07
6.76326328e-07
6.76326586e-07
6.76327003e-07
6.76326863e-07
6.7632589e-07
6.76327403e-07
6.76326444e-07
6.76327549e-07
6.76326412e-07
6.76326706e-07
6.76326306e-07
6.76326327e-07
6.76326203e-07
6.76326943e-07
6.76325841e-07
6.76325988e-07
6.76326166e-07
6.76326359e-07
6.76325879e-07
6.76326644e-07
6.76325738e-07
6.76327016e-07
6.76325915e-07
6.76327618e-07
6.76325549e-07
6.76327548e-07
6.76325783e-07
6.76327406e-07
6.76326236e-07
6.76327247e-07
6.76325864e-07
6.76327099e-07
6.7632609e-07
6.76327726e-07
6.76325575e-07
6.76327341e-07
6.76327654e-07
6.76327335e-07
6.76327307e-07
6.7632633e-07
6.76328302e-07
6.76326291e-07
6.76326952e-07
6.76326251e-07
6.76326521e-07
6.76326496e-07
6.76326068e-07
6.76326151e-07
6.76326609e-07
6.76326168e-07
6.7632621e-07
6.7632658e-07
6.76326968e-07
6.76326077e-07
6.76327381e-07
6.76325182e-07
6.76327912e-07
6.76325765e-07
6.76327309e-07
6.76326764e-07
6.76325979e-07
6.7632649e-07
6.76327168e-07
6.76326911e-07
6.763281e-07
6.763262e-07
6.76327841e-07
6.7632646e-07
6.7632757e-07
6.76326564e-07
6.76326613e-07
6.7632676e-07
6.76326273e-07
6.7632622e-07
6.76327046e-07
6.76326497e-07
6.76325762e-07
6.76326511e-07
6.76327327e-07
6.76326855e-07
6.76327137e-07
6.76327814e-07
6.76326668e-07
6.76328012e-07
6.76327748e-07
6.76327751e-07
6.76328071e-07
6.76327277e-07
6.76327349e-07
6.76326769e-07
6.76326375e-07
6.76326911e-07
6.76326943e-07
6.76327223e-07
6.7632738e-07
6.76326193e-07
6.76327913e-07
6.7632718e-07
6.76327774e-07
6.76326594e-07
6.76326935e-07
6.76326472e-07
6.76327099e-07
6.76326001e-07
6.76328008e-07
6.76326697e-07
6.7632787e-07
6.76326205e-07
6.76327397e-07
6.76326683e-07
6.76327133e-07
6.76326603e-07
6.76328142e-07
6.76327383e-07
6.76328152e-07
6.76326909e-07
6.76327554e-07
6.76327277e-07
6.76327169e-07
6.76327671e-07
6.76327015e-07
6.76327319e-07
6.76326849e-07
6.76327519e-07
6.76327305e-07
6.76327493e-07
6.76326634e-07
6.76326513e-07
6.76327302e-07
6.76326205e-07
6.76327395e-07
6.76327073e-07
6.76327252e-07
6.7632793e-07
6.7632704e-07
6.76326903e-07
6.76327847e-07
6.76327406e-07
6.7632747e-07
6.76327643e-07
6.76326984e-07
6.76328074e-07
6.76327355e-07
6.76328344e-07
6.76326919e-07
6.76328129e-07
6.76327139e-07
6.76328145e-07
6.76326509e-07
6.76328311e-07
6.76326678e-07
6.76328136e-07
6.7632614e-07
6.76326929e-07
6.76327777e-07
6.76327585e-07
6.7632784e-07
6.7632748e-07
6.76326686e-07
6.76328049e-07
6.76327099e-07
6.76327988e-07
6.76327951e-07
6.76327077e-07
6.76328027e-07
6.76327462e-07
6.76328405e-07
6.76326666e-07
6.7632897e-07
6.76326697e-07
6.76327424e-07
6.76326795e-07
6.76327747e-07
6.76326715e-07
6.76328627e-07
6.76326498e-07
6.76327203e-07
6.76327524e-07
6.76327029e-07
6.76328045e-07
6.76327633e-07
6.7632797e-07
6.76327528e-07
6.76327583e-07
6.76327608e-07
6.76327662e-07
6.76326727e-07
6.76328053e-07
6.76327622e-07
6.76326665e-07
6.76327274e-07
6.76326867e-07
6.76327528e-07
6.76327725e-07
6.76327151e-07
6.76328073e-07
6.76327363e-07
6.76327567e-07
6.76327233e-07
6.76327199e-07
6.7632687e-07
6.76327815e-07
6.76327694e-07
6.76327931e-07
6.76327447e-07
6.76327712e-07
6.76327489e-07
6.76328136e-07
6.76327408e-07
6.76328236e-07
6.76327473e-07
6.76327483e-07
6.7632736e-07
6.76328337e-07
6.76327912e-07
6.76328044e-07
6.76327172e-07
6.76327861e-07
6.76327431e-07
6.76327627e-07
6.76328381e-07
6.76326721e-07
6.76328933e-07
6.76326989e-07
6.7632813e-07
6.76327256e-07
6.76328323e-07
6.7632721e-07
6.76328325e-07
6.76327387e-07
6.7632754e-07
6.76328133e-07
6.76327941e-07
6.7632846e-07
6.76327065e-07
6.76328269e-07
6.76327588e-07
6.76327723e-07
6.76327631e-07
6.76327991e-07
6.76327511e-07
6.76327793e-07
6.76327006e-07
6.763281e-07
6.76327622e-07
6.76328379e-07
6.7632702e-07
6.76328113e-07
6.76328361e-07
6.76328219e-07
6.76327711e-07
6.76327822e-07
6.76328027e-07
6.76327343e-07
6.76328551e-07
6.7632845e-07
6.76327279e-07
6.76327508e-07
6.76328524e-07
6.76326925e-07
6.76329036e-07
6.76327351e-07
6.76327421e-07
6.76328146e-07
6.76328503e-07
6.76327459e-07
6.76328026e-07
6.76328056e-07
6.76328537e-07
6.76328332e-07
6.76328025e-07
6.76329004e-07
6.7632826e-07
6.76328808e-07
6.76328585e-07
6.76328564e-07
6.76328518e-07
6.76328536e-07
6.76327734e-07
6.76328164e-07
6.76327415e-07
6.76328384e-07
6.76328432e-07
6.76328602e-07
6.76328136e-07
6.76328201e-07
6.76328438e-07
6.76327735e-07
6.76328708e-07
6.76327116e-07
6.76328174e-07
6.76327771e-07
6.76327698e-07
6.76328326e-07
6.76327931e-07
6.76328045e-07
6.76327812e-07
6.76327953e-07
6.76328481e-07
6.76328225e-07
6.76329033e-07
6.76328324e-07
6.7632845e-07
6.76328383e-07
6.76328159e-07
6.76327943e-07
6.76327867e-07
6.76329067e-07
6.76327744e-07
6.76328341e-07
6.76327685e-07
6.76328671e-07
6.76328558e-07
6.76328244e-07
6.76328527e-07
6.76328804e-07
6.76327825e-07
6.76328836e-07
6.76328816e-07
6.76327988e-07
6.76328747e-07
6.76328259e-07
6.7632805e-07
6.76328494e-07
6.76327894e-07
6.76329057e-07
6.76327778e-07
6.76329166e-07
6.76328885e-07
6.76328693e-07
6.76328951e-07
6.76328668e-07
6.76327786e-07
6.76328806e-07
6.76328466e-07
6.76328678e-07
6.76328953e-07
6.7632932e-07
6.76328359e-07
6.76328627e-07
6.76327989e-07
6.76329303e-07
6.76328445e-07
6.76329485e-07
6.76328532e-07
6.76328898e-07
6.76328021e-07
6.76328998e-07
6.7632842e-07
6.76329311e-07
6.76328699e-07
6.76329352e-07
6.76328589e-07
6.76328604e-07
6.76328967e-07
6.7632829e-07
6.76328972e-07
6.7632854e-07
6.76329316e-07
6.76329098e-07
6.76328436e-07
6.76329048e-07
6.76328908e-07
6.76328604e-07
6.76329108e-07
6.76329228e-07
6.76328381e-07
6.76329419e-07
6.76328145e-07
6.76330009e-07
6.76328838e-07
6.7632889e-07
6.76329178e-07
6.76328879e-07
6.76329688e-07
6.76328144e-07
6.76328495e-07
6.76329618e-07
6.76327933e-07
6.76329772e-07
6.76328118e-07
6.76329755e-07
6.76328308e-07
6.76329042e-07
6.7632819e-07
6.76329249e-07
6.76327948e-07
6.76328961e-07
6.76328368e-07
6.76328681e-07
6.76328916e-07
6.76328157e-07
6.76329829e-07
6.76328436e-07
6.76329876e-07
6.76328842e-07
6.76329215e-07
6.76328835e-07
6.76330472e-07
6.7632749e-07
6.76329956e-07
6.76327722e-07
6.76329986e-07
6.76327827e-07
6.76329789e-07
6.76328081e-07
6.76330131e-07
6.76329224e-07
6.76329249e-07
6.76329405e-07
6.76329304e-07
6.76329397e-07
6.76329059e-07
6.76329143e-07
6.7632934e-07
6.76328874e-07
6.76329389e-07
6.76329454e-07
6.76329593e-07
6.7632944e-07
6.76329265e-07
6.76329513e-07
6.76329365e-07
6.76329327e-07
6.76329626e-07
6.76329657e-07
6.76329686e-07
6.76329674e-07
6.76329724e-07
6.76329735e-07
6.76329897e-07
6.76329935e-07
6.76329972e-07
6.76330084e-07
6.76330148e-07
6.76330277e-07
6.76330357e-07
6.76330397e-07
6.76330541e-07
6.76330623e-07
6.76330652e-07
6.76330743e-07
6.76330832e-07
6.76330934e-07
6.76330967e-07
6.76331006e-07
6.7633108e-07
6.76331082e-07
6.76331111e-07
6.76331142e-07
6.76331162e-07
6.76331124e-07
6.76331174e-07
6.76331153e-07
6.76331156e-07
6.76331156e-07
6.76331161e-07
6.76331163e-07
6.76331175e-07
6.76331165e-07
6.76331166e-07
6.76331151e-07
6.76331137e-07
6.76331168e-07
6.76331155e-07
6.7633116e-07
6.76331165e-07
6.76331158e-07
6.76331169e-07
6.76331165e-07
6.76331161e-07
6.76331175e-07
6.76331154e-07
6.76331161e-07
6.76331154e-07
6.76331168e-07
6.76331165e-07
6.76331157e-07
6.76331164e-07
6.76331151e-07
6.76331143e-07
6.76331177e-07
)
;

boundaryField
{
    closed
    {
        type            calculated;
        value           uniform 0;
    }
    open
    {
        type            calculated;
        value           uniform 0;
    }
    sides
    {
        type            empty;
    }
}


// ************************************************************************* //
