/*--------------------------------*- C++ -*----------------------------------*\
| =========                 |                                                 |
| \\      /  F ield         | OpenFOAM: The Open Source CFD Toolbox           |
|  \\    /   O peration     | Version:  2206                                  |
|   \\  /    A nd           | Website:  www.openfoam.com                      |
|    \\/     M anipulation  |                                                 |
\*---------------------------------------------------------------------------*/
FoamFile
{
    version     2.0;
    format      ascii;
    arch        "LSB;label=32;scalar=64";
    class       volScalarField;
    location    "1.02e-05";
    object      rho;
}
// * * * * * * * * * * * * * * * * * * * * * * * * * * * * * * * * * * * * * //

dimensions      [1 -3 0 0 0 0 0];

internalField   nonuniform List<scalar> 
3183
(
1.03926466
1.03926466
1.03926466
1.03926466
1.03926466
1.03926466
1.03926466
1.03926466
1.03926466
1.03926466
1.03926466
1.03926466
1.03926466
1.03926466
1.03926466
1.03926466
1.03926466
1.03926466
1.03926466
1.03926466
1.03926466
1.03926466
1.03926466
1.03926466
1.03926466
1.03926466
1.03926466
1.03926466
1.03926466
1.03926466
1.03926466
1.03926466
1.03926466
1.03926466
1.03926466
1.03926466
1.03926466
1.03926466
1.03926466
1.03926466
1.03926466
1.03926466
1.03926466
1.03926466
1.03926466
1.03926466
1.03926466
1.03926466
1.03926466
1.03926466
1.03926466
1.03926466
1.03926466
1.03926466
1.03926466
1.03926466
1.03926466
1.03926466
1.03926466
1.03926466
1.03926466
1.03926466
1.03926466
1.03926466
1.03926466
1.03926466
1.03926466
1.03926466
1.03926466
1.03926466
1.03926466
1.03926466
1.03926466
1.03926466
1.03926466
1.03926466
1.03926466
1.03926466
1.03926466
1.03926466
1.03926466
1.03926466
1.03926466
1.03926466
1.03926466
1.03926466
1.03926466
1.03926466
1.03926466
1.03926466
1.03926466
1.03926466
1.03926466
1.03926466
1.03926466
1.03926466
1.03926466
1.03926466
1.03926466
1.03926466
1.03926466
1.03926466
1.03926466
1.03926466
1.03926466
1.03926466
1.03926466
1.03926466
1.03926466
1.03926466
1.03926466
1.03926466
1.03926466
1.03926466
1.03926466
1.03926466
1.03926466
1.03926466
1.03926466
1.03926466
1.03926466
1.03926466
1.03926466
1.03926466
1.03926466
1.03926466
1.03926466
1.03926466
1.03926466
1.03926466
1.03926466
1.03926466
1.03926466
1.03926466
1.03926466
1.03926466
1.03926466
1.03926466
1.03926466
1.03926466
1.03926466
1.03926466
1.03926466
1.03926466
1.03926466
1.03926466
1.03926466
1.03926466
1.03926466
1.03926466
1.03926466
1.03926466
1.03926466
1.03926466
1.03926466
1.03926466
1.03926466
1.03926466
1.03926466
1.03926466
1.03926466
1.03926466
1.03926466
1.03926466
1.03926466
1.03926466
1.03926466
1.03926466
1.03926466
1.03926466
1.03926466
1.03926466
1.03926466
1.03926466
1.03926466
1.03926466
1.03926466
1.03926466
1.03926466
1.03926466
1.03926466
1.03926466
1.03926466
1.03926466
1.03926466
1.03926466
1.03926466
1.03926466
1.03926466
1.03926466
1.03926466
1.03926466
1.03926466
1.03926466
1.03926466
1.03926466
1.03926466
1.03926466
1.03926466
1.03926466
1.03926466
1.03926466
1.03926466
1.03926466
1.03926466
1.03926466
1.03926466
1.03926466
1.03926466
1.03926466
1.03926466
1.03926466
1.03926466
1.03926466
1.03926466
1.03926466
1.03926466
1.03926466
1.03926466
1.03926466
1.03926466
1.03926466
1.03926466
1.03926466
1.03926466
1.03926466
1.03926466
1.03926466
1.03926466
1.03926466
1.03926466
1.03926466
1.03926466
1.03926466
1.03926466
1.03926466
1.03926466
1.03926466
1.03926466
1.03926466
1.03926466
1.03926466
1.03926466
1.03926466
1.03926466
1.03926466
1.03926466
1.03926466
1.03926466
1.03926466
1.03926466
1.03926466
1.03926466
1.03926466
1.03926466
1.03926466
1.03926466
1.03926466
1.03926466
1.03926466
1.03926466
1.03926466
1.03926466
1.03926466
1.03926466
1.03926466
1.03926466
1.03926466
1.03926466
1.03926466
1.03926466
1.03926466
1.03926466
1.03926466
1.03926466
1.03926466
1.03926466
1.03926466
1.03926466
1.03926466
1.03926466
1.03926466
1.03926466
1.03926466
1.03926466
1.03926466
1.03926466
1.03926466
1.03926466
1.03926466
1.03926466
1.03926466
1.03926466
1.03926466
1.03926466
1.03926466
1.03926466
1.03926466
1.03926466
1.03926466
1.03926466
1.03926466
1.03926466
1.03926466
1.03926466
1.03926466
1.03926466
1.03926466
1.03926466
1.03926466
1.03926466
1.03926466
1.03926466
1.03926466
1.03926466
1.03926466
1.03926466
1.03926466
1.03926466
1.03926466
1.03926466
1.03926466
1.03926466
1.03926466
1.03926466
1.03926466
1.03926466
1.03926466
1.03926466
1.03926466
1.03926466
1.03926466
1.03926466
1.03926466
1.03926466
1.03926466
1.03926466
1.03926466
1.03926466
1.03926466
1.03926466
1.03926466
1.03926466
1.03926466
1.03926466
1.03926466
1.03926466
1.03926466
1.03926466
1.03926466
1.03926466
1.03926466
1.03926466
1.03926466
1.03926466
1.03926466
1.03926466
1.03926466
1.03926466
1.03926466
1.03926466
1.03926466
1.03926466
1.03926466
1.03926466
1.03926466
1.03926466
1.03926466
1.03926466
1.03926466
1.03926466
1.03926466
1.03926466
1.03926466
1.03926466
1.03926466
1.03926466
1.03926466
1.03926466
1.03926466
1.03926466
1.03926466
1.03926466
1.03926466
1.03926466
1.03926466
1.03926466
1.03926466
1.03926466
1.03926466
1.03926466
1.03926466
1.03926466
1.03926466
1.03926466
1.03926466
1.03926466
1.03926466
1.03926466
1.03926466
1.03926466
1.03926466
1.03926466
1.03926466
1.03926466
1.03926466
1.03926466
1.03926466
1.03926466
1.03926466
1.03926466
1.03926466
1.03926466
1.03926466
1.03926466
1.03926466
1.03926466
1.03926466
1.03926466
1.03926466
1.03926466
1.03926466
1.03926466
1.03926466
1.03926466
1.03926466
1.03926466
1.03926466
1.03926466
1.03926466
1.03926466
1.03926466
1.03926466
1.03926466
1.03926466
1.03926466
1.03926466
1.03926466
1.03926466
1.03926466
1.03926466
1.03926466
1.03926466
1.03926466
1.03926466
1.03926466
1.03926466
1.03926466
1.03926466
1.03926466
1.03926466
1.03926466
1.03926466
1.03926466
1.03926466
1.03926466
1.03926466
1.03926466
1.03926466
1.03926466
1.03926466
1.03926466
1.03926466
1.03926466
1.03926466
1.03926466
1.03926466
1.03926466
1.03926466
1.03926466
1.03926466
1.03926466
1.03926466
1.03926466
1.03926466
1.03926466
1.03926466
1.03926466
1.03926466
1.03926466
1.03926466
1.03926466
1.03926466
1.03926466
1.03926466
1.03926466
1.03926466
1.03926466
1.03926466
1.03926466
1.03926466
1.03926466
1.03926466
1.03926466
1.03926466
1.03926466
1.03926466
1.03926466
1.03926466
1.03926466
1.03926466
1.03926466
1.03926466
1.03926466
1.03926466
1.03926466
1.03926466
1.03926466
1.03926466
1.03926466
1.03926466
1.03926466
1.03926466
1.03926466
1.03926466
1.03926466
1.03926466
1.03926466
1.03926466
1.03926466
1.03926466
1.03926466
1.03926466
1.03926466
1.03926466
1.03926466
1.03926466
1.03926466
1.03926466
1.03926466
1.03926466
1.03926466
1.03926466
1.03926466
1.03926466
1.03926466
1.03926466
1.03926466
1.03926466
1.03926466
1.03926466
1.03926466
1.03926466
1.03926466
1.03926466
1.03926466
1.03926466
1.03926466
1.03926466
1.03926466
1.03926466
1.03926466
1.03926466
1.03926466
1.03926466
1.03926466
1.03926466
1.03926466
1.03926466
1.03926466
1.03926466
1.03926466
1.03926466
1.03926466
1.03926466
1.03926466
1.03926466
1.03926466
1.03926466
1.03926466
1.03926466
1.03926466
1.03926466
1.03926466
1.03926466
1.03926466
1.03926466
1.03926466
1.03926466
1.03926466
1.03926466
1.03926466
1.03926466
1.03926466
1.03926466
1.03926466
1.03926466
1.03926466
1.03926466
1.03926466
1.03926466
1.03926466
1.03926466
1.03926466
1.03926466
1.03926466
1.03926466
1.03926466
1.03926466
1.03926466
1.03926466
1.03926466
1.03926466
1.03926466
1.03926466
1.03926466
1.03926466
1.03926466
1.03926466
1.03926466
1.03926466
1.03926466
1.03926466
1.03926466
1.03926466
1.03926466
1.03926466
1.03926466
1.03926466
1.03926466
1.03926466
1.03926466
1.03926466
1.03926466
1.03926466
1.03926466
1.03926466
1.03926466
1.03926466
1.03926466
1.03926466
1.03926466
1.03926466
1.03926466
1.03926466
1.03926466
1.03926466
1.03926466
1.03926466
1.03926466
1.03926466
1.03926466
1.03926466
1.03926466
1.03926466
1.03926466
1.03926466
1.03926466
1.03926466
1.03926466
1.03926466
1.03926466
1.03926466
1.03926466
1.03926466
1.03926466
1.03926466
1.03926466
1.03926466
1.03926466
1.03926466
1.03926466
1.03926466
1.03926466
1.03926466
1.03926466
1.03926466
1.03926466
1.03926466
1.03926466
1.03926466
1.03926466
1.03926466
1.03926466
1.03926466
1.03926466
1.03926466
1.03926466
1.03926466
1.03926466
1.03926466
1.03926466
1.03926466
1.03926466
1.03926466
1.03926466
1.03926466
1.03926466
1.03926466
1.03926466
1.03926466
1.03926466
1.03926466
1.03926466
1.03926466
1.03926466
1.03926466
1.03926466
1.03926466
1.03926466
1.03926466
1.03926466
1.03926466
1.03926466
1.03926466
1.03926466
1.03926466
1.03926466
1.03926466
1.03926466
1.03926466
1.03926466
1.03926466
1.03926466
1.03926466
1.03926466
1.03926466
1.03926466
1.03926466
1.03926466
1.03926466
1.03926466
1.03926466
1.03926466
1.03926466
1.03926466
1.03926466
1.03926466
1.03926466
1.03926466
1.03926466
1.03926466
1.03926466
1.03926466
1.03926466
1.03926466
1.03926466
1.03926466
1.03926466
1.03926466
1.03926466
1.03926466
1.03926466
1.03926466
1.03926466
1.03926466
1.03926466
1.03926466
1.03926466
1.03926466
1.03926466
1.03926466
1.03926466
1.03926466
1.03926466
1.03926466
1.03926466
1.03926466
1.03926466
1.03926466
1.03926466
1.03926466
1.03926466
1.03926466
1.03926466
1.03926466
1.03926466
1.03926466
1.03926466
1.03926466
1.03926466
1.03926466
1.03926466
1.03926466
1.03926466
1.03926466
1.03926466
1.03926466
1.03926466
1.03926466
1.03926466
1.03926466
1.03926466
1.03926466
1.03926466
1.03926466
1.03926466
1.03926466
1.03926466
1.03926466
1.03926466
1.03926466
1.03926466
1.03926466
1.03926466
1.03926466
1.03926466
1.03926466
1.03926466
1.03926466
1.03926466
1.03926466
1.03926466
1.03926466
1.03926466
1.03926466
1.03926466
1.03926466
1.03926466
1.03926466
1.03926466
1.03926466
1.03926466
1.03926466
1.03926466
1.03926466
1.03926466
1.03926466
1.03926466
1.03926466
1.03926466
1.03926466
1.03926466
1.03926466
1.03926466
1.03926466
1.03926466
1.03926466
1.03926466
1.03926466
1.03926466
1.03926466
1.03926466
1.03926466
1.03926466
1.03926466
1.03926466
1.03926466
1.03926466
1.03926466
1.03926466
1.03926466
1.03926466
1.03926466
1.03926466
1.03926466
1.03926466
1.03926466
1.03926466
1.03926466
1.03926466
1.03926466
1.03926466
1.03926466
1.03926466
1.03926466
1.03926466
1.03926466
1.03926466
1.03926466
1.03926466
1.03926466
1.03926466
1.03926466
1.03926466
1.03926466
1.03926466
1.03926466
1.03926466
1.03926466
1.03926466
1.03926466
1.03926466
1.03926466
1.03926466
1.03926466
1.03926466
1.03926466
1.03926466
1.03926466
1.03926466
1.03926466
1.03926466
1.03926466
1.03926466
1.03926466
1.03926466
1.03926466
1.03926466
1.03926466
1.03926466
1.03926466
1.03926466
1.03926466
1.03926466
1.03926466
1.03926466
1.03926466
1.03926466
1.03926466
1.03926466
1.03926466
1.03926466
1.03926466
1.03926466
1.03926466
1.03926466
1.03926466
1.03926466
1.03926466
1.03926466
1.03926466
1.03926466
1.03926466
1.03926466
1.03926466
1.03926466
1.03926466
1.03926466
1.03926466
1.03926466
1.03926466
1.03926466
1.03926466
1.03926466
1.03926466
1.03926466
1.03926466
1.03926466
1.03926466
1.03926466
1.03926466
1.03926466
1.03926466
1.03926466
1.03926466
1.03926466
1.03926466
1.03926466
1.03926466
1.03926466
1.03926466
1.03926466
1.03926466
1.03926466
1.03926466
1.03926466
1.03926466
1.03926466
1.03926466
1.03926466
1.03926466
1.03926466
1.03926466
1.03926466
1.03926466
1.03926466
1.03926466
1.03926466
1.03926466
1.03926466
1.03926466
1.03926466
1.03926466
1.03926466
1.03926466
1.03926466
1.03926466
1.03926466
1.03926466
1.03926466
1.03926466
1.03926466
1.03926466
1.03926466
1.03926466
1.03926466
1.03926466
1.03926466
1.03926466
1.03926466
1.03926466
1.03926466
1.03926466
1.03926466
1.03926466
1.03926466
1.03926466
1.03926466
1.03926466
1.03926466
1.03926466
1.03926466
1.03926466
1.03926466
1.03926466
1.03926466
1.03926466
1.03926466
1.03926466
1.03926466
1.03926466
1.03926466
1.03926466
1.03926466
1.03926466
1.03926466
1.03926466
1.03926466
1.03926466
1.03926466
1.03926466
1.03926466
1.03926466
1.03926466
1.03926466
1.03926466
1.03926466
1.03926466
1.03926466
1.03926466
1.03926466
1.03926466
1.03926466
1.03926466
1.03926466
1.03926466
1.03926466
1.03926466
1.03926466
1.03926466
1.03926466
1.03926466
1.03926466
1.03926466
1.03926466
1.03926466
1.03926466
1.03926466
1.03926466
1.03926466
1.03926466
1.03926466
1.03926466
1.03926466
1.03926466
1.03926466
1.03926466
1.03926466
1.03926466
1.03926466
1.03926466
1.03926466
1.03926466
1.03926466
1.03926466
1.03926466
1.03926466
1.03926466
1.03926466
1.03926466
1.03926466
1.03926466
1.03926466
1.03926466
1.03926466
1.03926466
1.03926466
1.03926466
1.03926466
1.03926466
1.03926466
1.03926466
1.03926466
1.03926466
1.03926466
1.03926466
1.03926466
1.03926466
1.03926466
1.03926466
1.03926466
1.03926466
1.03926466
1.03926466
1.03926466
1.03926466
1.03926466
1.03926466
1.03926466
1.03926466
1.03926466
1.03926466
1.03926466
1.03926466
1.03926466
1.03926466
1.03926466
1.03926466
1.03926466
1.03926466
1.03926466
1.03926466
1.03926466
1.03926466
1.03926466
1.03926466
1.03926466
1.03926466
1.03926466
1.03926466
1.03926466
1.03926466
1.03926466
1.03926466
1.03926466
1.03926466
1.03926466
1.03926466
1.03926466
1.03926466
1.03926466
1.03926466
1.03926466
1.03926466
1.03926466
1.03926466
1.03926466
1.03926466
1.03926466
1.03926466
1.03926466
1.03926466
1.03926466
1.03926466
1.03926466
1.03926466
1.03926466
1.03926466
1.03926466
1.03926466
1.03926466
1.03926466
1.03926466
1.03926466
1.03926466
1.03926466
1.03926466
1.03926466
1.03926466
1.03926466
1.03926466
1.03926466
1.03926466
1.03926466
1.03926466
1.03926466
1.03926466
1.03926466
1.03926466
1.03926466
1.03926466
1.03926466
1.03926466
1.03926466
1.03926466
1.03926466
1.03926466
1.03926466
1.03926466
1.03926466
1.03926466
1.03926466
1.03926466
1.03926466
1.03926466
1.03926466
1.03926466
1.03926466
1.03926466
1.03926466
1.03926466
1.03926466
1.03926466
1.03926466
1.03926466
1.03926466
1.03926466
1.03926466
1.03926466
1.03926466
1.03926466
1.03926466
1.03926466
1.03926466
1.03926466
1.03926466
1.03926466
1.03926466
1.03926466
1.03926466
1.03926466
1.03926466
1.03926466
1.03926466
1.03926466
1.03926466
1.03926466
1.03926466
1.03926466
1.03926466
1.03926466
1.03926466
1.03926466
1.03926466
1.03926466
1.03926466
1.03926466
1.03926466
1.03926466
1.03926466
1.03926466
1.03926466
1.03926466
1.03926466
1.03926466
1.03926466
1.03926466
1.03926466
1.03926466
1.03926466
1.03926466
1.03926466
1.03926466
1.03926466
1.03926466
1.03926466
1.03926466
1.03926466
1.03926466
1.03926466
1.03926466
1.03926466
1.03926466
1.03926466
1.03926466
1.03926466
1.03926466
1.03926466
1.03926466
1.03926466
1.03926466
1.03926466
1.03926466
1.03926466
1.03926466
1.03926466
1.03926466
1.03926466
1.03926466
1.03926466
1.03926466
1.03926466
1.03926466
1.03926466
1.03926466
1.03926466
1.03926466
1.03926466
1.03926466
1.03926466
1.03926466
1.03926466
1.03926466
1.03926466
1.03926466
1.03926466
1.03926466
1.03926466
1.03926466
1.03926466
1.03926466
1.03926466
1.03926466
1.03926466
1.03926466
1.03926466
1.03926466
1.03926466
1.03926466
1.03926466
1.03926466
1.03926466
1.03926466
1.03926466
1.03926466
1.03926466
1.03926466
1.03926466
1.03926466
1.03926466
1.03926466
1.03926466
1.03926466
1.03926466
1.03926466
1.03926466
1.03926466
1.03926466
1.03926466
1.03926466
1.03926466
1.03926466
1.03926466
1.03926466
1.03926466
1.03926466
1.03926466
1.03926466
1.03926466
1.03926466
1.03926466
1.03926466
1.03926466
1.03926466
1.03926466
1.03926466
1.03926466
1.03926466
1.03926466
1.03926466
1.03926466
1.03926466
1.03926466
1.03926466
1.03926466
1.03926466
1.03926466
1.03926466
1.03926466
1.03926466
1.03926466
1.03926466
1.03926466
1.03926466
1.03926466
1.03926466
1.03926466
1.03926466
1.03926466
1.03926466
1.03926466
1.03926466
1.03926466
1.03926466
1.03926466
1.03926466
1.03926466
1.03926466
1.03926466
1.03926466
1.03926466
1.03926466
1.03926466
1.03926466
1.03926466
1.03926466
1.03926466
1.03926466
1.03926466
1.03926466
1.03926466
1.03926466
1.03926466
1.03926466
1.03926466
1.03926466
1.03926466
1.03926466
1.03926466
1.03926466
1.03926466
1.03926466
1.03926466
1.03926466
1.03926466
1.03926466
1.03926466
1.03926466
1.03926466
1.03926466
1.03926466
1.03926466
1.03926466
1.03926466
1.03926466
1.03926466
1.03926466
1.03926466
1.03926466
1.03926466
1.03926466
1.03926466
1.03926466
1.03926466
1.03926466
1.03926466
1.03926466
1.03926466
1.03926466
1.03926466
1.03926466
1.03926466
1.03926466
1.03926466
1.03926466
1.03926466
1.03926466
1.03926466
1.03926466
1.03926466
1.03926466
1.03926466
1.03926466
1.03926466
1.03926466
1.03926466
1.03926466
1.03926466
1.03926466
1.03926466
1.03926466
1.03926466
1.03926466
1.03926466
1.03926466
1.03926466
1.03926466
1.03926466
1.03926466
1.03926466
1.03926466
1.03926466
1.03926466
1.03926466
1.03926466
1.03926466
1.03926466
1.03926466
1.03926466
1.03926466
1.03926466
1.03926466
1.03926466
1.03926466
1.03926466
1.03926466
1.03926466
1.03926466
1.03926466
1.03926466
1.03926466
1.03926466
1.03926466
1.03926466
1.03926466
1.03926466
1.03926466
1.03926466
1.03926466
1.03926466
1.03926466
1.03926466
1.03926466
1.03926466
1.03926466
1.03926466
1.03926466
1.03926466
1.03926466
1.03926466
1.03926466
1.03926466
1.03926466
1.03926466
1.03926466
1.03926466
1.03926466
1.03926466
1.03926466
1.03926466
1.03926466
1.03926466
1.03926466
1.03926466
1.03926466
1.03926466
1.03926466
1.03926466
1.03926466
1.03926466
1.03926466
1.03926466
1.03926466
1.03926466
1.03926466
1.03926466
1.03926466
1.03926466
1.03926466
1.03926466
1.03926466
1.03926466
1.03926466
1.03926466
1.03926466
1.03926466
1.03926466
1.03926466
1.03926466
1.03926466
1.03926466
1.03926466
1.03926466
1.03926466
1.03926466
1.03926466
1.03926466
1.03926466
1.03926466
1.03926466
1.03926466
1.03926466
1.03926466
1.03926466
1.03926466
1.03926466
1.03926466
1.03926466
1.03926466
1.03926466
1.03926466
1.03926466
1.03926466
1.03926466
1.03926466
1.03926466
1.03926466
1.03926466
1.03926466
1.03926466
1.03926466
1.03926466
1.03926466
1.03926466
1.03926466
1.03926466
1.03926466
1.03926466
1.03926466
1.03926466
1.03926466
1.03926466
1.03926466
1.03926466
1.03926466
1.03926466
1.03926466
1.03926466
1.03926466
1.03926466
1.03926466
1.03926466
1.03926466
1.03926466
1.03926466
1.03926466
1.03926466
1.03926466
1.03926466
1.03926466
1.03926466
1.03926466
1.03926466
1.03926466
1.03926466
1.03926466
1.03926466
1.03926466
1.03926466
1.03926466
1.03926466
1.03926466
1.03926466
1.03926466
1.03926466
1.03926466
1.03926466
1.03926466
1.03926466
1.03926466
1.03926466
1.03926466
1.03926466
1.03926466
1.03926466
1.03926466
1.03926466
1.03926466
1.03926466
1.03926466
1.03926466
1.03926466
1.03926466
1.03926466
1.03926466
1.03926466
1.03926466
1.03926466
1.03926466
1.03926466
1.03926466
1.03926466
1.03926466
1.03926466
1.03926466
1.03926466
1.03926466
1.03926466
1.03926466
1.03926466
1.03926466
1.03926466
1.03926466
1.03926466
1.03926466
1.03926466
1.03926466
1.03926466
1.03926466
1.03926466
1.03926466
1.03926466
1.03926466
1.03926466
1.03926466
1.03926466
1.03926466
1.03926466
1.03926466
1.03926466
1.03926466
1.03926466
1.03926466
1.03926466
1.03926466
1.03926466
1.03926466
1.03926466
1.03926466
1.03926466
1.03926466
1.03926466
1.03926466
1.03926466
1.03926466
1.03926466
1.03926466
1.03926466
1.03926466
1.03926466
1.03926466
1.03926466
1.03926466
1.03926466
1.03926466
1.03926466
1.03926466
1.03926466
1.03926466
1.03926466
1.03926466
1.03926466
1.03926466
1.03926466
1.03926466
1.03926466
1.03926466
1.03926466
1.03926466
1.03926466
1.03926466
1.03926466
1.03926466
1.03926466
1.03926466
1.03926466
1.03926466
1.03926466
1.03926466
1.03926466
1.03926466
1.03926466
1.03926466
1.03926466
1.03926466
1.03926466
1.03926466
1.03926466
1.03926466
1.03926466
1.03926466
1.03926466
1.03926466
1.03926466
1.03926466
1.03926466
1.03926466
1.03926466
1.03926466
1.03926466
1.03926466
1.03926466
1.03926466
1.03926466
1.03926466
1.03926466
1.03926466
1.03926466
1.03926466
1.03926466
1.03926466
1.03926466
1.03926466
1.03926466
1.03926466
1.03926466
1.03926466
1.03926466
1.03926466
1.03926466
1.03926466
1.03926466
1.03926466
1.03926466
1.03926466
1.03926466
1.03926466
1.03926466
1.03926466
1.03926466
1.03926466
1.03926466
1.03926466
1.03926466
1.03926466
1.03926466
1.03926466
1.03926466
1.03926466
1.03926466
1.03926466
1.03926466
1.03926466
1.03926466
1.03926466
1.03926466
1.03926466
1.03926466
1.03926466
1.03926466
1.03926466
1.03926466
1.03926466
1.03926466
1.03926466
1.03926466
1.03926466
1.03926466
1.03926466
1.03926466
1.03926466
1.03926466
1.03926466
1.03926466
1.03926466
1.03926466
1.03926466
1.03926466
1.03926466
1.03926466
1.03926466
1.03926466
1.03926466
1.03926466
1.03926466
1.03926466
1.03926466
1.03926466
1.03926466
1.03926466
1.03926466
1.03926466
1.03926466
1.03926466
1.03926466
1.03926466
1.03926466
1.03926466
1.03926466
1.03926466
1.03926466
1.03926466
1.03926466
1.03926466
1.03926466
1.03926466
1.03926466
1.03926466
1.03926466
1.03926466
1.03926466
1.03926466
1.03926466
1.03926466
1.03926466
1.03926466
1.03926466
1.03926466
1.03926466
1.03926466
1.03926466
1.03926466
1.03926466
1.03926466
1.03926466
1.03926466
1.03926466
1.03926466
1.03926466
1.03926466
1.03926466
1.03926466
1.03926466
1.03926466
1.03926466
1.03926466
1.03926466
1.03926466
1.03926466
1.03926466
1.03926466
1.03926466
1.03926466
1.03926466
1.03926466
1.03926466
1.03926466
1.03926466
1.03926466
1.03926466
1.03926466
1.03926466
1.03926466
1.03926466
1.03926466
1.03926466
1.03926466
1.03926466
1.03926466
1.03926466
1.03926466
1.03926466
1.03926466
1.03926466
1.03926466
1.03926466
1.03926466
1.03926466
1.03926466
1.03926466
1.03926466
1.03926466
1.03926466
1.03926466
1.03926466
1.03926466
1.03926466
1.03926466
1.03926466
1.03926466
1.03926466
1.03926466
1.03926466
1.03926466
1.03926466
1.03926466
1.03926466
1.03926466
1.03926466
1.03926466
1.03926466
1.03926466
1.03926466
1.03926466
1.03926466
1.03926466
1.03926466
1.03926466
1.03926466
1.03926466
1.03926466
1.03926466
1.03926466
1.03926466
1.03926466
1.03926466
1.03926466
1.03926466
1.03926466
1.03926466
1.03926466
1.03926466
1.03926466
1.03926466
1.03926466
1.03926466
1.03926466
1.03926466
1.03926466
1.03926466
1.03926466
1.03926466
1.03926466
1.03926466
1.03926466
1.03926466
1.03926466
1.03926466
1.03926466
1.03926466
1.03926466
1.03926466
1.03926466
1.03926466
1.03926466
1.03926466
1.03926466
1.03926466
1.03926466
1.03926466
1.03926466
1.03926466
1.03926466
1.03926466
1.03926466
1.03926466
1.03926466
1.03926466
1.03926466
1.03926466
1.03926466
1.03926466
1.03926466
1.03926466
1.03926466
1.03926466
1.03926466
1.03926466
1.03926466
1.03926466
1.03926466
1.03926466
1.03926466
1.03926466
1.03926466
1.03926466
1.03926466
1.03926466
1.03926466
1.03926466
1.03926466
1.03926466
1.03926466
1.03926466
1.03926466
1.03926466
1.03926466
1.03926466
1.03926466
1.03926466
1.03926466
1.03926466
1.03926466
1.03926466
1.03926466
1.03926466
1.03926466
1.03926466
1.03926466
1.03926466
1.03926466
1.03926466
1.03926466
1.03926466
1.03926466
1.03926466
1.03926466
1.03926466
1.03926466
1.03926466
1.03926466
1.03926466
1.03926466
1.03926466
1.03926466
1.03926466
1.03926466
1.03926466
1.03926466
1.03926466
1.03926466
1.03926466
1.03926466
1.03926466
1.03926466
1.03926466
1.03926466
1.03926466
1.03926466
1.03926466
1.03926466
1.03926466
1.03926466
1.03926466
1.03926466
1.03926466
1.03926466
1.03926466
1.03926466
1.03926466
1.03926466
1.03926466
1.03926466
1.03926466
1.03926466
1.03926466
1.03926466
1.03926466
1.03926466
1.03926466
1.03926466
1.03926466
1.03926466
1.03926465
1.03926465
1.03926465
1.03926465
1.03926465
1.03926465
1.03926465
1.03926465
1.03926465
1.03926465
1.03926465
1.03926465
1.03926465
1.03926464
1.03926464
1.03926464
1.03926464
1.03926464
1.03926464
1.03926464
1.03926463
1.03926463
1.03926463
1.03926463
1.03926462
1.03926462
1.03926462
1.03926462
1.03926461
1.03926461
1.03926461
1.0392646
1.0392646
1.03926459
1.03926459
1.03926458
1.03926458
1.03926457
1.03926457
1.03926456
1.03926455
1.03926455
1.03926454
1.03926453
1.03926452
1.03926451
1.0392645
1.03926449
1.03926448
1.03926447
1.03926446
1.03926445
1.03926443
1.03926442
1.0392644
1.03926439
1.03926437
1.03926435
1.03926433
1.03926431
1.03926429
1.03926427
1.03926424
1.03926422
1.03926419
1.03926416
1.03926413
1.0392641
1.03926406
1.03926403
1.03926399
1.03926395
1.0392639
1.03926386
1.03926381
1.03926376
1.03926371
1.03926365
1.0392636
1.03926353
1.03926347
1.0392634
1.03926333
1.03926325
1.03926317
1.03926309
1.039263
1.03926291
1.03926281
1.0392627
1.0392626
1.03926248
1.03926236
1.03926224
1.0392621
1.03926197
1.03926182
1.03926167
1.03926151
1.03926134
1.03926116
1.03926098
1.03926079
1.03926058
1.03926037
1.03926015
1.03925991
1.03925967
1.03925942
1.03925915
1.03925887
1.03925858
1.03925827
1.03925796
1.03925762
1.03925728
1.03925691
1.03925654
1.03925614
1.03925573
1.0392553
1.03925485
1.03925439
1.0392539
1.0392534
1.03925287
1.03925232
1.03925175
1.03925116
1.03925054
1.0392499
1.03924924
1.03924855
1.03924783
1.03924708
1.03924631
1.0392455
1.03924467
1.03924381
1.03924291
1.03924199
1.03924103
1.03924003
1.039239
1.03923794
1.03923684
1.0392357
1.03923452
1.0392333
1.03923204
1.03923075
1.03922941
1.03922803
1.0392266
1.03922513
1.03922362
1.03922206
1.03922045
1.03921879
1.03921709
1.03921534
1.03921354
1.03921169
1.03920978
1.03920783
1.03920582
1.03920376
1.03920165
1.03919949
1.03919727
1.03919499
1.03919266
1.03919028
1.03918783
1.03918534
1.03918279
1.03918018
1.03917751
1.03917479
1.03917202
1.03916918
1.0391663
1.03916335
1.03916036
1.0391573
1.0391542
1.03915104
1.03914782
1.03914456
1.03914124
1.03913787
1.03913446
1.03913099
1.03912748
1.03912393
1.03912032
1.03911668
1.03911299
1.03910927
1.0391055
1.0391017
1.03909787
1.039094
1.0390901
1.03908617
1.03908222
1.03907824
1.03907425
1.03907023
1.0390662
1.03906215
1.0390581
1.03905403
1.03904996
1.03904589
1.03904182
1.03903776
1.0390337
1.03902965
1.03902561
1.0390216
1.0390176
1.03901363
1.03900968
1.03900576
1.03900188
1.03899804
1.03899424
1.03899048
1.03898677
1.03898311
1.0389795
1.03897596
1.03897247
1.03896906
1.0389657
1.03896243
1.03895922
1.03895609
1.03895305
1.03895009
1.03894721
1.03894443
1.03894174
1.03893914
1.03893664
1.03893424
1.03893194
1.03892975
1.03892766
1.03892568
1.03892381
1.03892206
1.03892041
1.03891888
1.03891747
1.03891617
1.03891499
1.03891393
1.03891298
1.03891216
1.03891145
1.03891086
1.03891039
1.03891004
1.0389098
1.03890968
1.03890968
1.03890979
1.03891002
1.03891035
1.0389108
1.03891136
1.03891202
1.03891279
1.03891366
1.03891463
1.03891569
1.03891686
1.03891811
1.03891946
1.03892089
1.0389224
1.03892399
1.03892566
1.03892741
1.03892922
1.03893111
1.03893305
1.03893505
1.03893711
1.03893923
1.03894139
1.03894359
1.03894584
1.03894812
1.03895044
1.03895279
1.03895517
1.03895756
1.03895998
1.03896241
1.03896486
1.03896731
1.03896977
1.03897223
1.0389747
1.03897715
1.0389796
1.03898204
1.03898447
1.03898689
1.03898928
1.03899166
1.03899401
1.03899633
1.03899864
1.03900091
1.03900315
1.03900536
1.03900753
1.03900967
1.03901178
1.03901384
1.03901587
1.03901786
1.0390198
1.03902171
1.03902357
1.03902539
1.03902717
1.03902891
1.0390306
1.03903225
1.03903386
1.03903543
1.03903695
1.03903843
1.03903987
1.03904127
1.03904262
1.03904394
1.03904522
1.03904646
1.03904766
1.03904882
1.03904995
1.03905105
1.0390521
1.03905313
1.03905412
1.03905508
1.03905601
1.03905691
1.03905779
1.03905863
1.03905945
1.03906024
1.039061
1.03906174
1.03906246
1.03906316
1.03906383
1.03906448
1.03906511
1.03906573
1.03906632
1.0390669
1.03906745
1.039068
1.03906852
1.03906903
1.03906953
1.03907001
1.03907047
1.03907093
1.03907137
1.03907179
1.03907221
1.03907261
1.03907301
1.03907339
1.03907377
1.03907413
1.03907449
1.03907484
1.03907518
1.03907551
1.03907584
1.03907616
1.03907647
1.03907679
1.03907709
1.0390774
1.0390777
1.039078
1.0390783
1.0390786
1.0390789
1.0390792
1.03907951
1.03907982
1.03908013
1.03908044
1.03908076
1.03908109
1.03908143
1.03908177
1.03908212
1.03908248
1.03908285
1.03908323
1.03908362
1.03908402
1.03908444
1.03908486
1.0390853
1.03908575
1.03908622
1.0390867
1.03908719
1.03908769
1.03908821
1.03908873
1.03908927
1.03908983
1.03909039
1.03909096
1.03909154
1.03909213
1.03909273
1.03909334
1.03909395
1.03909456
1.03909518
1.0390958
1.03909642
1.03909704
1.03909766
1.03909828
1.03909889
1.03909949
1.03910009
1.03910068
1.03910126
1.03910183
1.03910239
1.03910293
1.03910346
1.03910397
1.03910447
1.03910496
1.03910542
1.03910587
1.0391063
1.03910671
1.03910711
1.03910748
1.03910784
1.03910818
1.0391085
1.0391088
1.03910909
1.03910936
1.03910961
1.03910985
1.03911007
1.03911028
1.03911048
1.03911066
1.03911084
1.039111
1.03911116
1.0391113
1.03911144
1.03911158
1.0391117
1.03911183
1.03911195
1.03911206
1.03911218
1.03911229
1.0391124
1.0391125
1.03911261
1.03911272
1.03911282
1.03911293
1.03911303
1.03911314
1.03911324
1.03911333
1.03911343
1.03911352
1.03911361
1.03911369
1.03911377
1.03911384
1.0391139
1.03911394
1.03911398
1.039114
1.03911401
1.03911399
1.03911396
1.03911391
1.03911383
1.03911372
1.03911359
1.03911342
1.03911321
1.03911297
1.03911269
1.03911237
1.03911201
1.0391116
1.03911114
1.03911064
1.03911009
1.0391095
1.03910886
1.03910819
1.03910749
1.03910677
1.03910604
1.03910531
1.03910461
1.03910395
1.03910337
1.03910288
1.03910254
1.03910238
1.03910245
1.0391028
1.03910348
1.03910456
1.0391061
1.03910814
1.03911075
1.03911395
1.03911774
1.03912213
1.03912698
1.03913352
1.03913871
1.03919975
1.03920331
1.04094408
1.04093768
0.925094477
0.923696115
0.406483209
0.37607361
0.300126814
0.293733385
0.273128069
0.27153485
0.265104496
0.264799558
0.263210091
0.263172184
0.262856003
0.262852145
0.262797758
0.262796586
0.262787703
0.262786712
0.262784776
0.262783951
0.262783093
0.262782446
0.262781872
0.262781393
0.26278099
0.26278066
0.262780396
0.262780191
0.262780041
0.262779938
0.262779879
0.262779857
0.262779867
0.262779906
0.262779969
0.262780053
0.262780153
0.262780268
0.262780394
0.262780528
0.262780669
0.262780815
0.262780964
0.262781114
0.262781265