/*--------------------------------*- C++ -*----------------------------------*\
| =========                 |                                                 |
| \\      /  F ield         | OpenFOAM: The Open Source CFD Toolbox           |
|  \\    /   O peration     | Version:  2206                                  |
|   \\  /    A nd           | Website:  www.openfoam.com                      |
|    \\/     M anipulation  |                                                 |
\*---------------------------------------------------------------------------*/
FoamFile
{
    version     2.0;
    format      ascii;
    arch        "LSB;label=32;scalar=64";
    class       volVectorField;
    location    "1.02e-05";
    object      U;
}
// * * * * * * * * * * * * * * * * * * * * * * * * * * * * * * * * * * * * * //

dimensions      [0 1 -1 0 0 0 0];

internalField   nonuniform List<vector> 
3183
(
(2.77394061e-13 0 0)
(-1.44124784e-14 0 0)
(-1.76334429e-13 0 0)
(-1.19714462e-13 0 0)
(-1.09170091e-13 0 0)
(-4.50740194e-18 0 0)
(-3.56062192e-19 0 0)
(-2.240963e-23 0 0)
(1.47096812e-23 0 0)
(2.30778912e-19 0 0)
(5.37146178e-18 0 0)
(1.10993369e-13 0 0)
(4.29141433e-13 0 0)
(9.29730427e-14 0 0)
(1.40164035e-14 0 0)
(7.35694176e-14 0 0)
(-1.20028796e-13 0 0)
(-3.94975555e-13 0 0)
(-7.15196793e-13 0 0)
(-2.71200723e-14 0 0)
(3.60316446e-13 0 0)
(1.03063737e-16 0 0)
(3.0522344e-17 0 0)
(1.93473466e-13 0 0)
(2.85001687e-13 0 0)
(3.91716754e-13 0 0)
(4.44081542e-13 0 0)
(4.06430097e-13 0 0)
(1.28766896e-13 0 0)
(3.07346183e-13 0 0)
(-2.28651284e-13 0 0)
(-2.41098824e-13 0 0)
(-7.43156095e-13 0 0)
(-8.91970798e-13 0 0)
(-5.51746554e-13 0 0)
(-1.9408143e-13 0 0)
(-2.14184428e-13 0 0)
(-2.81451861e-13 0 0)
(-1.07484245e-13 0 0)
(-8.77999966e-14 0 0)
(-3.80487789e-13 0 0)
(-4.13646569e-13 0 0)
(-1.03437344e-13 0 0)
(-4.73589008e-13 0 0)
(-1.93768317e-13 0 0)
(-5.09338551e-14 0 0)
(-2.68441555e-13 0 0)
(-2.06566021e-13 0 0)
(-2.35871709e-13 0 0)
(4.18605468e-14 0 0)
(1.74954129e-13 0 0)
(6.20184926e-13 0 0)
(3.17092625e-13 0 0)
(7.40329943e-13 0 0)
(1.09354776e-12 0 0)
(1.0214526e-12 0 0)
(1.423215e-12 0 0)
(1.62426585e-12 0 0)
(1.77561849e-12 0 0)
(2.0394628e-12 0 0)
(2.22263906e-12 0 0)
(2.22258076e-12 0 0)
(2.41439343e-12 0 0)
(2.04484589e-12 0 0)
(2.40878988e-12 0 0)
(2.66949028e-12 0 0)
(2.28037377e-12 0 0)
(2.39560268e-12 0 0)
(2.43231153e-12 0 0)
(1.70749293e-12 0 0)
(1.80321671e-12 0 0)
(1.64201873e-12 0 0)
(1.49981139e-12 0 0)
(1.31506405e-12 0 0)
(1.24854339e-12 0 0)
(5.90682563e-13 0 0)
(7.71863443e-13 0 0)
(5.57597416e-13 0 0)
(3.66094288e-13 0 0)
(1.93652254e-13 0 0)
(1.07824964e-14 0 0)
(-1.27130593e-13 0 0)
(3.75799793e-13 0 0)
(-1.01742195e-12 0 0)
(-2.34266979e-13 0 0)
(-9.21664383e-13 0 0)
(-1.38074356e-12 0 0)
(-1.63904628e-12 0 0)
(-8.24716131e-13 0 0)
(-1.37711101e-12 0 0)
(-2.22796554e-12 0 0)
(-2.64608352e-12 0 0)
(-1.49028417e-12 0 0)
(-2.79136318e-12 0 0)
(-2.91815748e-12 0 0)
(-2.66899972e-12 0 0)
(-3.70492634e-12 0 0)
(-2.45157933e-12 0 0)
(-3.16602863e-12 0 0)
(-2.83721828e-12 0 0)
(-1.84670756e-12 0 0)
(-2.22002328e-12 0 0)
(-2.92368263e-12 0 0)
(-2.65451723e-12 0 0)
(-2.7821004e-12 0 0)
(-2.56262059e-12 0 0)
(-3.08996062e-12 0 0)
(-2.51172128e-12 0 0)
(-3.63654512e-12 0 0)
(-3.35974916e-12 0 0)
(-2.72026778e-12 0 0)
(-3.46583613e-12 0 0)
(-2.48273215e-12 0 0)
(-3.72766385e-12 0 0)
(-3.24064322e-12 0 0)
(-2.48962577e-12 0 0)
(-3.63116421e-12 0 0)
(-2.02735967e-12 0 0)
(-3.39831528e-12 0 0)
(-4.24935439e-12 0 0)
(-3.03565521e-12 0 0)
(-3.46696329e-12 0 0)
(-3.75366211e-12 0 0)
(-4.75376002e-12 0 0)
(-3.46276106e-12 0 0)
(-4.50206537e-12 0 0)
(-3.33466318e-12 0 0)
(-5.09554493e-12 0 0)
(-3.75236765e-12 0 0)
(-4.81648989e-12 0 0)
(-4.46174106e-12 0 0)
(-5.05783804e-12 0 0)
(-4.98595182e-12 0 0)
(-6.18584027e-12 0 0)
(-3.68108143e-12 0 0)
(-5.21356561e-12 0 0)
(-5.81255664e-12 0 0)
(-5.18905587e-12 0 0)
(-4.51598222e-12 0 0)
(-4.30697455e-12 0 0)
(-4.82895703e-12 0 0)
(-4.5877051e-12 0 0)
(-4.75402614e-12 0 0)
(-4.99402961e-12 0 0)
(-4.01790223e-12 0 0)
(-5.17281982e-12 0 0)
(-4.34559793e-12 0 0)
(-5.37018756e-12 0 0)
(-4.82431995e-12 0 0)
(-5.28280948e-12 0 0)
(-6.40414194e-12 0 0)
(-4.89343043e-12 0 0)
(-5.48355311e-12 0 0)
(-5.97602106e-12 0 0)
(-6.59097062e-12 0 0)
(-4.87698322e-12 0 0)
(-6.0269776e-12 0 0)
(-5.47880789e-12 0 0)
(-5.10408724e-12 0 0)
(-5.69017319e-12 0 0)
(-6.33251714e-12 0 0)
(-6.37012338e-12 0 0)
(-5.40452512e-12 0 0)
(-5.49389549e-12 0 0)
(-5.98175721e-12 0 0)
(-5.91500537e-12 0 0)
(-6.15285537e-12 0 0)
(-6.01918566e-12 0 0)
(-5.64167958e-12 0 0)
(-6.67638374e-12 0 0)
(-6.82643832e-12 0 0)
(-6.6179791e-12 0 0)
(-6.91598963e-12 0 0)
(-6.43192284e-12 0 0)
(-7.20981196e-12 0 0)
(-7.05739213e-12 0 0)
(-7.65571458e-12 0 0)
(-6.72525202e-12 0 0)
(-6.70994653e-12 0 0)
(-8.24994972e-12 0 0)
(-7.58197819e-12 0 0)
(-8.99544947e-12 0 0)
(-7.70787173e-12 0 0)
(-7.8476196e-12 0 0)
(-8.84559227e-12 0 0)
(-8.48704534e-12 0 0)
(-7.72795597e-12 0 0)
(-8.08513924e-12 0 0)
(-8.24905493e-12 0 0)
(-7.12449339e-12 0 0)
(-8.38903465e-12 0 0)
(-7.43140407e-12 0 0)
(-8.25022508e-12 0 0)
(-7.88289395e-12 0 0)
(-8.60768748e-12 0 0)
(-7.6564562e-12 0 0)
(-7.84674822e-12 0 0)
(-7.45438063e-12 0 0)
(-8.08181843e-12 0 0)
(-8.62196601e-12 0 0)
(-7.97106958e-12 0 0)
(-8.11082893e-12 0 0)
(-7.88362263e-12 0 0)
(-7.85380513e-12 0 0)
(-9.09353278e-12 0 0)
(-7.53948176e-12 0 0)
(-7.7609499e-12 0 0)
(-7.00767835e-12 0 0)
(-8.19602754e-12 0 0)
(-7.20890831e-12 0 0)
(-7.68294299e-12 0 0)
(-7.98992749e-12 0 0)
(-7.67480453e-12 0 0)
(-8.63523539e-12 0 0)
(-8.52415308e-12 0 0)
(-8.25924167e-12 0 0)
(-8.97476637e-12 0 0)
(-9.80769158e-12 0 0)
(-8.77926281e-12 0 0)
(-9.80684839e-12 0 0)
(-9.05710073e-12 0 0)
(-1.01879825e-11 0 0)
(-1.06806251e-11 0 0)
(-8.27576529e-12 0 0)
(-8.16765383e-12 0 0)
(-8.90957352e-12 0 0)
(-9.25978161e-12 0 0)
(-9.16265989e-12 0 0)
(-9.27404383e-12 0 0)
(-8.48540757e-12 0 0)
(-8.76270594e-12 0 0)
(-9.38975544e-12 0 0)
(-8.64175868e-12 0 0)
(-9.55324423e-12 0 0)
(-9.60231106e-12 0 0)
(-9.35704288e-12 0 0)
(-1.00172362e-11 0 0)
(-1.01284898e-11 0 0)
(-1.03984268e-11 0 0)
(-1.04656839e-11 0 0)
(-1.0333801e-11 0 0)
(-1.08226644e-11 0 0)
(-1.04846506e-11 0 0)
(-9.77400757e-12 0 0)
(-9.80978878e-12 0 0)
(-1.07036405e-11 0 0)
(-9.70411853e-12 0 0)
(-9.92342701e-12 0 0)
(-1.00328344e-11 0 0)
(-1.07708909e-11 0 0)
(-9.72210058e-12 0 0)
(-1.04928227e-11 0 0)
(-1.09861182e-11 0 0)
(-1.07919677e-11 0 0)
(-1.16736536e-11 0 0)
(-1.16428258e-11 0 0)
(-1.12321323e-11 0 0)
(-1.04133293e-11 0 0)
(-1.16493284e-11 0 0)
(-1.19666466e-11 0 0)
(-1.16663059e-11 0 0)
(-1.21611995e-11 0 0)
(-1.32850799e-11 0 0)
(-1.07915882e-11 0 0)
(-1.26143619e-11 0 0)
(-1.24369023e-11 0 0)
(-1.29868469e-11 0 0)
(-1.16581179e-11 0 0)
(-1.30335039e-11 0 0)
(-1.16272463e-11 0 0)
(-1.20012343e-11 0 0)
(-1.18273432e-11 0 0)
(-1.21703254e-11 0 0)
(-1.26373666e-11 0 0)
(-1.2606205e-11 0 0)
(-1.18876289e-11 0 0)
(-1.28283769e-11 0 0)
(-1.34471959e-11 0 0)
(-1.31386684e-11 0 0)
(-1.2299426e-11 0 0)
(-1.28267308e-11 0 0)
(-1.45980275e-11 0 0)
(-1.43523148e-11 0 0)
(-1.32665657e-11 0 0)
(-1.29895368e-11 0 0)
(-1.39912651e-11 0 0)
(-1.33861516e-11 0 0)
(-1.3574296e-11 0 0)
(-1.38721091e-11 0 0)
(-1.41803697e-11 0 0)
(-1.31238115e-11 0 0)
(-1.38140925e-11 0 0)
(-1.40602531e-11 0 0)
(-1.54690597e-11 0 0)
(-1.36190619e-11 0 0)
(-1.39886571e-11 0 0)
(-1.41722581e-11 0 0)
(-1.35768533e-11 0 0)
(-1.34868347e-11 0 0)
(-1.44635843e-11 0 0)
(-1.48846884e-11 0 0)
(-1.50554464e-11 0 0)
(-1.48248503e-11 0 0)
(-1.49605134e-11 0 0)
(-1.5094573e-11 0 0)
(-1.43987918e-11 0 0)
(-1.32664019e-11 0 0)
(-1.44575418e-11 0 0)
(-1.47970987e-11 0 0)
(-1.31385703e-11 0 0)
(-1.42925643e-11 0 0)
(-1.40081233e-11 0 0)
(-1.39045391e-11 0 0)
(-1.33688116e-11 0 0)
(-1.41670158e-11 0 0)
(-1.47523282e-11 0 0)
(-1.62151521e-11 0 0)
(-1.53569627e-11 0 0)
(-1.42723014e-11 0 0)
(-1.53439286e-11 0 0)
(-1.60302223e-11 0 0)
(-1.52527821e-11 0 0)
(-1.54491201e-11 0 0)
(-1.56340936e-11 0 0)
(-1.61949559e-11 0 0)
(-1.44446172e-11 0 0)
(-1.56411724e-11 0 0)
(-1.48450215e-11 0 0)
(-1.48540478e-11 0 0)
(-1.56640199e-11 0 0)
(-1.40443407e-11 0 0)
(-1.57475477e-11 0 0)
(-1.4136105e-11 0 0)
(-1.39685976e-11 0 0)
(-1.30588867e-11 0 0)
(-1.49468739e-11 0 0)
(-1.39457967e-11 0 0)
(-1.54844535e-11 0 0)
(-1.48668209e-11 0 0)
(-1.43871916e-11 0 0)
(-1.47029326e-11 0 0)
(-1.49448665e-11 0 0)
(-1.4270074e-11 0 0)
(-1.296077e-11 0 0)
(-1.39693706e-11 0 0)
(-1.40789231e-11 0 0)
(-1.43273616e-11 0 0)
(-1.30207096e-11 0 0)
(-1.39939106e-11 0 0)
(-1.32874331e-11 0 0)
(-1.31124349e-11 0 0)
(-1.36553279e-11 0 0)
(-1.40140158e-11 0 0)
(-1.36879746e-11 0 0)
(-1.32380308e-11 0 0)
(-1.3369116e-11 0 0)
(-1.42621877e-11 0 0)
(-1.37290043e-11 0 0)
(-1.44639629e-11 0 0)
(-1.40035026e-11 0 0)
(-1.35150002e-11 0 0)
(-1.37293263e-11 0 0)
(-1.42823311e-11 0 0)
(-1.41774144e-11 0 0)
(-1.30838364e-11 0 0)
(-1.46335306e-11 0 0)
(-1.39136536e-11 0 0)
(-1.40992227e-11 0 0)
(-1.34195836e-11 0 0)
(-1.35534021e-11 0 0)
(-1.23577337e-11 0 0)
(-1.40822098e-11 0 0)
(-1.28745113e-11 0 0)
(-1.33743209e-11 0 0)
(-1.38082036e-11 0 0)
(-1.52632597e-11 0 0)
(-1.42450289e-11 0 0)
(-1.32163687e-11 0 0)
(-1.4225622e-11 0 0)
(-1.36872614e-11 0 0)
(-1.3461436e-11 0 0)
(-1.35702545e-11 0 0)
(-1.32738353e-11 0 0)
(-1.27771294e-11 0 0)
(-1.2135721e-11 0 0)
(-1.32207785e-11 0 0)
(-1.19276398e-11 0 0)
(-1.2648532e-11 0 0)
(-1.21219852e-11 0 0)
(-1.20638462e-11 0 0)
(-1.24641611e-11 0 0)
(-1.19121546e-11 0 0)
(-1.08406543e-11 0 0)
(-1.10667253e-11 0 0)
(-1.03764267e-11 0 0)
(-1.04632384e-11 0 0)
(-1.0823463e-11 0 0)
(-1.06048591e-11 0 0)
(-9.91762233e-12 0 0)
(-9.71215571e-12 0 0)
(-9.35626153e-12 0 0)
(-1.03994769e-11 0 0)
(-1.01539775e-11 0 0)
(-1.09791275e-11 0 0)
(-9.86233944e-12 0 0)
(-9.31841841e-12 0 0)
(-9.22258653e-12 0 0)
(-1.06661232e-11 0 0)
(-9.66930198e-12 0 0)
(-9.40158465e-12 0 0)
(-1.03495979e-11 0 0)
(-8.91315385e-12 0 0)
(-9.14813848e-12 0 0)
(-9.90282547e-12 0 0)
(-9.84493959e-12 0 0)
(-9.09274312e-12 0 0)
(-9.77101979e-12 0 0)
(-1.03576019e-11 0 0)
(-1.05392175e-11 0 0)
(-1.05297258e-11 0 0)
(-9.38889927e-12 0 0)
(-9.39144613e-12 0 0)
(-9.00917952e-12 0 0)
(-9.05294831e-12 0 0)
(-9.69332421e-12 0 0)
(-9.47644408e-12 0 0)
(-9.27064228e-12 0 0)
(-9.08372216e-12 0 0)
(-9.77631257e-12 0 0)
(-8.13309557e-12 0 0)
(-9.03106677e-12 0 0)
(-1.05550027e-11 0 0)
(-9.43326264e-12 0 0)
(-9.01414083e-12 0 0)
(-9.94314913e-12 0 0)
(-8.74974848e-12 0 0)
(-1.03612755e-11 0 0)
(-9.29501833e-12 0 0)
(-8.04085414e-12 0 0)
(-8.4623749e-12 0 0)
(-8.51473714e-12 0 0)
(-9.44356283e-12 0 0)
(-8.27457132e-12 0 0)
(-7.83606847e-12 0 0)
(-7.69342808e-12 0 0)
(-8.85425403e-12 0 0)
(-7.34156574e-12 0 0)
(-7.46998298e-12 0 0)
(-7.58687222e-12 0 0)
(-7.40065292e-12 0 0)
(-7.54049522e-12 0 0)
(-6.68205609e-12 0 0)
(-6.69101787e-12 0 0)
(-7.15629622e-12 0 0)
(-6.98335423e-12 0 0)
(-6.17680724e-12 0 0)
(-5.99767979e-12 0 0)
(-5.76740561e-12 0 0)
(-5.81783307e-12 0 0)
(-5.29455867e-12 0 0)
(-5.6800871e-12 0 0)
(-5.05333895e-12 0 0)
(-4.70869116e-12 0 0)
(-4.9597575e-12 0 0)
(-5.42509644e-12 0 0)
(-5.13138192e-12 0 0)
(-4.3908741e-12 0 0)
(-4.30989857e-12 0 0)
(-4.73223987e-12 0 0)
(-4.66565084e-12 0 0)
(-3.99067746e-12 0 0)
(-4.75784591e-12 0 0)
(-4.62343971e-12 0 0)
(-5.21358906e-12 0 0)
(-4.69643556e-12 0 0)
(-5.52236798e-12 0 0)
(-5.27045186e-12 0 0)
(-5.70060372e-12 0 0)
(-5.2419903e-12 0 0)
(-5.24948389e-12 0 0)
(-5.41528294e-12 0 0)
(-5.64210106e-12 0 0)
(-5.36470573e-12 0 0)
(-5.17034752e-12 0 0)
(-5.47714981e-12 0 0)
(-4.83180489e-12 0 0)
(-4.67031464e-12 0 0)
(-5.82136736e-12 0 0)
(-4.8603014e-12 0 0)
(-4.81746446e-12 0 0)
(-5.10403299e-12 0 0)
(-5.31149118e-12 0 0)
(-5.885813e-12 0 0)
(-4.21555581e-12 0 0)
(-5.22700281e-12 0 0)
(-6.07236981e-12 0 0)
(-4.57234304e-12 0 0)
(-5.37418147e-12 0 0)
(-5.05269128e-12 0 0)
(-6.24410915e-12 0 0)
(-5.33980186e-12 0 0)
(-6.08985577e-12 0 0)
(-4.40022779e-12 0 0)
(-4.87003377e-12 0 0)
(-4.71967597e-12 0 0)
(-5.29548982e-12 0 0)
(-4.6987958e-12 0 0)
(-4.34170805e-12 0 0)
(-3.6376233e-12 0 0)
(-5.62967368e-12 0 0)
(-3.74778216e-12 0 0)
(-4.94725401e-12 0 0)
(-3.82312381e-12 0 0)
(-4.11275829e-12 0 0)
(-4.36436513e-12 0 0)
(-4.0232233e-12 0 0)
(-3.74531974e-12 0 0)
(-3.01945592e-12 0 0)
(-3.38444133e-12 0 0)
(-2.81590788e-12 0 0)
(-3.2630556e-12 0 0)
(-2.77153324e-12 0 0)
(-2.54933416e-12 0 0)
(-2.72139633e-12 0 0)
(-3.79191598e-12 0 0)
(-2.10399072e-12 0 0)
(-2.35298282e-12 0 0)
(-2.51148546e-12 0 0)
(-1.48165949e-12 0 0)
(-2.61347775e-12 0 0)
(-2.68096662e-12 0 0)
(-2.31307618e-12 0 0)
(-3.05576987e-12 0 0)
(-2.4509172e-12 0 0)
(-2.38648816e-12 0 0)
(-2.71535207e-12 0 0)
(-2.39508394e-12 0 0)
(-1.61717649e-12 0 0)
(-2.43574901e-12 0 0)
(-2.19468948e-12 0 0)
(-1.27078804e-12 0 0)
(-1.79558229e-12 0 0)
(-1.87282448e-12 0 0)
(-1.12207719e-12 0 0)
(-5.50573197e-13 0 0)
(-1.63084486e-12 0 0)
(-6.09064721e-13 0 0)
(-4.20598328e-13 0 0)
(-1.01357765e-12 0 0)
(-9.70309365e-13 0 0)
(3.03634105e-13 0 0)
(2.21852857e-13 0 0)
(8.06872382e-14 0 0)
(2.08215397e-13 0 0)
(-5.14750922e-13 0 0)
(5.61293205e-13 0 0)
(3.09654621e-13 0 0)
(1.53351299e-13 0 0)
(5.04382991e-13 0 0)
(-5.48026755e-13 0 0)
(2.19980679e-13 0 0)
(-4.97514085e-13 0 0)
(8.07109608e-13 0 0)
(-2.3364836e-13 0 0)
(-9.22378619e-13 0 0)
(1.10239473e-13 0 0)
(-7.86132505e-13 0 0)
(-4.70986317e-13 0 0)
(8.16460483e-14 0 0)
(7.04029287e-13 0 0)
(2.78716722e-13 0 0)
(-7.4327975e-13 0 0)
(1.35997252e-12 0 0)
(1.70933008e-12 0 0)
(1.76136415e-12 0 0)
(9.05071514e-13 0 0)
(7.16303546e-13 0 0)
(1.78289829e-12 0 0)
(9.80566219e-13 0 0)
(1.77915285e-12 0 0)
(7.99339175e-13 0 0)
(2.24084056e-12 0 0)
(2.52306977e-12 0 0)
(1.88022908e-12 0 0)
(2.69500061e-12 0 0)
(2.43168971e-12 0 0)
(2.86490925e-12 0 0)
(3.09321622e-12 0 0)
(2.14702402e-12 0 0)
(1.48067355e-12 0 0)
(2.71024663e-12 0 0)
(1.96365956e-12 0 0)
(2.50447159e-12 0 0)
(2.35543874e-12 0 0)
(2.88373998e-12 0 0)
(1.4295557e-12 0 0)
(1.61677686e-12 0 0)
(2.24007749e-12 0 0)
(2.40498954e-12 0 0)
(3.04370919e-12 0 0)
(2.25740109e-12 0 0)
(1.51528581e-12 0 0)
(2.35819396e-12 0 0)
(2.19913479e-12 0 0)
(2.28209382e-12 0 0)
(2.49028838e-12 0 0)
(2.70129619e-12 0 0)
(2.09925479e-12 0 0)
(2.15257353e-12 0 0)
(1.36259685e-12 0 0)
(1.98679016e-12 0 0)
(2.23794687e-12 0 0)
(1.67479835e-12 0 0)
(2.40511108e-12 0 0)
(2.95469163e-12 0 0)
(2.90875816e-12 0 0)
(3.26767697e-12 0 0)
(3.52960945e-12 0 0)
(2.8568119e-12 0 0)
(4.07057542e-12 0 0)
(3.99400824e-12 0 0)
(2.82200971e-12 0 0)
(3.04888061e-12 0 0)
(3.3097801e-12 0 0)
(3.84242304e-12 0 0)
(4.31230675e-12 0 0)
(3.46459287e-12 0 0)
(3.69723455e-12 0 0)
(3.95032733e-12 0 0)
(4.15553168e-12 0 0)
(4.39244227e-12 0 0)
(4.09970056e-12 0 0)
(4.02553575e-12 0 0)
(3.53209259e-12 0 0)
(4.30879405e-12 0 0)
(4.2848973e-12 0 0)
(4.57022659e-12 0 0)
(4.46878435e-12 0 0)
(4.78647766e-12 0 0)
(4.93418285e-12 0 0)
(4.60494904e-12 0 0)
(5.12170022e-12 0 0)
(6.00771827e-12 0 0)
(5.0833657e-12 0 0)
(6.23000147e-12 0 0)
(4.95521702e-12 0 0)
(6.05338605e-12 0 0)
(5.86204841e-12 0 0)
(5.89104655e-12 0 0)
(6.56084596e-12 0 0)
(6.48575002e-12 0 0)
(5.96947086e-12 0 0)
(5.16707055e-12 0 0)
(6.26191585e-12 0 0)
(5.81558611e-12 0 0)
(5.83306967e-12 0 0)
(5.57072793e-12 0 0)
(6.11942983e-12 0 0)
(5.77355966e-12 0 0)
(5.40291345e-12 0 0)
(5.04570252e-12 0 0)
(5.92430775e-12 0 0)
(5.17236603e-12 0 0)
(5.62146992e-12 0 0)
(4.7526467e-12 0 0)
(5.27392868e-12 0 0)
(5.95290426e-12 0 0)
(5.65733604e-12 0 0)
(6.16081139e-12 0 0)
(6.43626336e-12 0 0)
(6.38174667e-12 0 0)
(6.34355207e-12 0 0)
(6.89784152e-12 0 0)
(7.01456064e-12 0 0)
(6.20617813e-12 0 0)
(5.28818319e-12 0 0)
(5.70828356e-12 0 0)
(5.73411038e-12 0 0)
(5.56990495e-12 0 0)
(6.2348739e-12 0 0)
(6.0874942e-12 0 0)
(5.63699426e-12 0 0)
(6.22086501e-12 0 0)
(5.85009117e-12 0 0)
(5.24099847e-12 0 0)
(6.4473351e-12 0 0)
(5.53480866e-12 0 0)
(5.27864778e-12 0 0)
(5.49550527e-12 0 0)
(5.52825345e-12 0 0)
(5.68023782e-12 0 0)
(5.88976063e-12 0 0)
(5.45247132e-12 0 0)
(5.5192977e-12 0 0)
(5.29034937e-12 0 0)
(5.43569655e-12 0 0)
(5.61588495e-12 0 0)
(6.05187657e-12 0 0)
(5.45201764e-12 0 0)
(6.53831805e-12 0 0)
(5.87959088e-12 0 0)
(6.00062197e-12 0 0)
(5.8973432e-12 0 0)
(5.85989022e-12 0 0)
(6.08971828e-12 0 0)
(5.97486793e-12 0 0)
(6.14951337e-12 0 0)
(5.24869387e-12 0 0)
(6.16641666e-12 0 0)
(6.36494022e-12 0 0)
(6.6902145e-12 0 0)
(5.99226469e-12 0 0)
(6.61700563e-12 0 0)
(6.73905048e-12 0 0)
(6.65245815e-12 0 0)
(6.5795695e-12 0 0)
(6.14873153e-12 0 0)
(6.22004991e-12 0 0)
(6.69578571e-12 0 0)
(6.06905336e-12 0 0)
(6.16380574e-12 0 0)
(6.36058691e-12 0 0)
(6.62581117e-12 0 0)
(6.19733582e-12 0 0)
(6.59325276e-12 0 0)
(4.84653953e-12 0 0)
(5.02916004e-12 0 0)
(5.70524033e-12 0 0)
(6.0201575e-12 0 0)
(5.90765746e-12 0 0)
(5.85043942e-12 0 0)
(4.71039415e-12 0 0)
(5.3384742e-12 0 0)
(5.31997017e-12 0 0)
(5.57497681e-12 0 0)
(5.23091187e-12 0 0)
(4.83660995e-12 0 0)
(5.77020231e-12 0 0)
(4.9277889e-12 0 0)
(4.59367002e-12 0 0)
(5.52722423e-12 0 0)
(4.4508264e-12 0 0)
(4.74145115e-12 0 0)
(4.12301765e-12 0 0)
(4.68181385e-12 0 0)
(3.81623924e-12 0 0)
(3.88737792e-12 0 0)
(4.94431427e-12 0 0)
(4.11040497e-12 0 0)
(5.29238809e-12 0 0)
(4.91358967e-12 0 0)
(5.87213865e-12 0 0)
(5.09427949e-12 0 0)
(6.28564297e-12 0 0)
(4.56006112e-12 0 0)
(5.275446e-12 0 0)
(6.19674122e-12 0 0)
(5.48179923e-12 0 0)
(5.76984041e-12 0 0)
(5.03837744e-12 0 0)
(5.27407567e-12 0 0)
(5.7510718e-12 0 0)
(5.50853504e-12 0 0)
(5.90674075e-12 0 0)
(5.38386032e-12 0 0)
(5.23736988e-12 0 0)
(4.91202728e-12 0 0)
(6.22748463e-12 0 0)
(5.12256565e-12 0 0)
(4.99410173e-12 0 0)
(5.29930566e-12 0 0)
(6.14668592e-12 0 0)
(6.13540073e-12 0 0)
(6.76929211e-12 0 0)
(5.77541848e-12 0 0)
(5.31090672e-12 0 0)
(6.56882168e-12 0 0)
(5.61004205e-12 0 0)
(6.92353953e-12 0 0)
(6.08702131e-12 0 0)
(5.66711139e-12 0 0)
(5.6859253e-12 0 0)
(5.57700446e-12 0 0)
(6.0860893e-12 0 0)
(5.81468024e-12 0 0)
(5.6718483e-12 0 0)
(6.06325863e-12 0 0)
(5.03530387e-12 0 0)
(5.52635347e-12 0 0)
(5.82302156e-12 0 0)
(6.31092985e-12 0 0)
(6.24242865e-12 0 0)
(6.23193689e-12 0 0)
(5.2053292e-12 0 0)
(6.06843195e-12 0 0)
(5.33069797e-12 0 0)
(5.6100681e-12 0 0)
(5.36405604e-12 0 0)
(5.28999084e-12 0 0)
(5.3121709e-12 0 0)
(5.31472833e-12 0 0)
(5.57299527e-12 0 0)
(5.61126148e-12 0 0)
(5.72411427e-12 0 0)
(4.4221947e-12 0 0)
(4.7805843e-12 0 0)
(5.95963096e-12 0 0)
(5.13631264e-12 0 0)
(5.38998184e-12 0 0)
(5.13533437e-12 0 0)
(5.23261457e-12 0 0)
(5.04283725e-12 0 0)
(5.82523112e-12 0 0)
(5.22635094e-12 0 0)
(5.44113527e-12 0 0)
(4.78881647e-12 0 0)
(5.03620819e-12 0 0)
(4.83339148e-12 0 0)
(5.01370369e-12 0 0)
(5.21119078e-12 0 0)
(5.58539959e-12 0 0)
(6.08888412e-12 0 0)
(5.22405482e-12 0 0)
(5.4955965e-12 0 0)
(5.45800048e-12 0 0)
(5.70180335e-12 0 0)
(4.83792242e-12 0 0)
(6.39107234e-12 0 0)
(6.57442944e-12 0 0)
(5.84256246e-12 0 0)
(5.14961892e-12 0 0)
(6.67312574e-12 0 0)
(5.45238375e-12 0 0)
(6.6062056e-12 0 0)
(5.18889689e-12 0 0)
(5.58932169e-12 0 0)
(5.61595069e-12 0 0)
(6.67744531e-12 0 0)
(5.76885827e-12 0 0)
(6.60196637e-12 0 0)
(6.1180519e-12 0 0)
(6.4220831e-12 0 0)
(6.93746979e-12 0 0)
(6.9848465e-12 0 0)
(5.82123243e-12 0 0)
(7.43912358e-12 0 0)
(7.36323247e-12 0 0)
(7.37548698e-12 0 0)
(5.70475187e-12 0 0)
(7.42229968e-12 0 0)
(6.91216357e-12 0 0)
(6.11609649e-12 0 0)
(6.38498552e-12 0 0)
(7.10027505e-12 0 0)
(7.38827503e-12 0 0)
(6.60263155e-12 0 0)
(6.6164587e-12 0 0)
(8.18874729e-12 0 0)
(7.65932584e-12 0 0)
(7.83051813e-12 0 0)
(7.44849763e-12 0 0)
(7.72023764e-12 0 0)
(8.55403317e-12 0 0)
(7.48459948e-12 0 0)
(8.48753078e-12 0 0)
(7.29104228e-12 0 0)
(9.39255534e-12 0 0)
(8.20993143e-12 0 0)
(8.43959521e-12 0 0)
(6.86674488e-12 0 0)
(7.3046684e-12 0 0)
(8.76728956e-12 0 0)
(6.89163709e-12 0 0)
(6.56826966e-12 0 0)
(7.12878676e-12 0 0)
(7.12194472e-12 0 0)
(7.30914295e-12 0 0)
(6.51205321e-12 0 0)
(6.82541481e-12 0 0)
(6.59427269e-12 0 0)
(6.61110952e-12 0 0)
(5.93762933e-12 0 0)
(6.22687398e-12 0 0)
(6.75244084e-12 0 0)
(6.71729061e-12 0 0)
(6.86410416e-12 0 0)
(6.67480342e-12 0 0)
(6.92833336e-12 0 0)
(7.87479301e-12 0 0)
(7.18629143e-12 0 0)
(7.23339735e-12 0 0)
(7.08204921e-12 0 0)
(7.04245189e-12 0 0)
(7.3082582e-12 0 0)
(7.20322629e-12 0 0)
(8.19681832e-12 0 0)
(7.38766467e-12 0 0)
(7.32371326e-12 0 0)
(7.15219384e-12 0 0)
(7.00009502e-12 0 0)
(6.87024362e-12 0 0)
(7.66293273e-12 0 0)
(7.36616592e-12 0 0)
(6.44318962e-12 0 0)
(6.75565066e-12 0 0)
(7.88833456e-12 0 0)
(7.05472579e-12 0 0)
(6.78132061e-12 0 0)
(8.23506964e-12 0 0)
(6.3678448e-12 0 0)
(6.88739982e-12 0 0)
(7.38990739e-12 0 0)
(7.30835134e-12 0 0)
(7.20891679e-12 0 0)
(5.8225395e-12 0 0)
(7.91411377e-12 0 0)
(6.84772658e-12 0 0)
(7.03978557e-12 0 0)
(6.89136756e-12 0 0)
(6.54896777e-12 0 0)
(7.43379623e-12 0 0)
(7.83554167e-12 0 0)
(7.25974028e-12 0 0)
(8.59573615e-12 0 0)
(8.06426809e-12 0 0)
(7.37842965e-12 0 0)
(7.67526026e-12 0 0)
(7.17241465e-12 0 0)
(7.54350157e-12 0 0)
(7.07624426e-12 0 0)
(7.94049036e-12 0 0)
(7.69323142e-12 0 0)
(9.177127e-12 0 0)
(8.67259828e-12 0 0)
(7.92170317e-12 0 0)
(8.98333177e-12 0 0)
(9.27436184e-12 0 0)
(9.27034794e-12 0 0)
(8.88288146e-12 0 0)
(8.38028632e-12 0 0)
(9.78762009e-12 0 0)
(8.4625708e-12 0 0)
(9.24233106e-12 0 0)
(8.17744251e-12 0 0)
(8.8646186e-12 0 0)
(8.84066286e-12 0 0)
(9.01298054e-12 0 0)
(8.632403e-12 0 0)
(9.08053886e-12 0 0)
(9.0339568e-12 0 0)
(8.56991908e-12 0 0)
(9.08099618e-12 0 0)
(9.67650802e-12 0 0)
(8.52759588e-12 0 0)
(9.66939227e-12 0 0)
(9.14025799e-12 0 0)
(1.02137947e-11 0 0)
(8.80916201e-12 0 0)
(8.68875074e-12 0 0)
(8.49857638e-12 0 0)
(9.17155497e-12 0 0)
(1.01348085e-11 0 0)
(9.60620958e-12 0 0)
(9.63736196e-12 0 0)
(1.02773919e-11 0 0)
(9.19726773e-12 0 0)
(9.90344515e-12 0 0)
(1.0842767e-11 0 0)
(1.06300654e-11 0 0)
(9.55797583e-12 0 0)
(1.01081115e-11 0 0)
(9.5011751e-12 0 0)
(1.10967945e-11 0 0)
(8.9806782e-12 0 0)
(9.43317086e-12 0 0)
(9.44971594e-12 0 0)
(8.58161467e-12 0 0)
(8.39401699e-12 0 0)
(8.52682086e-12 0 0)
(9.43625032e-12 0 0)
(8.65925757e-12 0 0)
(8.23950287e-12 0 0)
(8.40732128e-12 0 0)
(9.78221727e-12 0 0)
(9.26702937e-12 0 0)
(8.58925967e-12 0 0)
(8.11674528e-12 0 0)
(8.67664423e-12 0 0)
(8.89006899e-12 0 0)
(7.85116394e-12 0 0)
(7.42712151e-12 0 0)
(7.96302745e-12 0 0)
(8.40611071e-12 0 0)
(7.70053209e-12 0 0)
(6.89055343e-12 0 0)
(7.57812691e-12 0 0)
(7.24833169e-12 0 0)
(8.47279147e-12 0 0)
(6.94373816e-12 0 0)
(8.47074764e-12 0 0)
(7.29850842e-12 0 0)
(7.14162248e-12 0 0)
(7.97048555e-12 0 0)
(8.03256505e-12 0 0)
(8.06318107e-12 0 0)
(7.29989144e-12 0 0)
(7.57447106e-12 0 0)
(7.302992e-12 0 0)
(7.09853523e-12 0 0)
(7.24494343e-12 0 0)
(7.5995969e-12 0 0)
(5.85866148e-12 0 0)
(7.16152444e-12 0 0)
(6.30055702e-12 0 0)
(6.83553089e-12 0 0)
(6.4097644e-12 0 0)
(6.83970856e-12 0 0)
(6.17757865e-12 0 0)
(6.6177403e-12 0 0)
(5.34748355e-12 0 0)
(6.30393468e-12 0 0)
(5.60951358e-12 0 0)
(4.71201024e-12 0 0)
(5.10734732e-12 0 0)
(5.23933728e-12 0 0)
(4.41136193e-12 0 0)
(4.95356544e-12 0 0)
(4.66766511e-12 0 0)
(3.91287408e-12 0 0)
(4.50142723e-12 0 0)
(4.10871149e-12 0 0)
(3.5370914e-12 0 0)
(3.08187714e-12 0 0)
(3.31114933e-12 0 0)
(3.65765511e-12 0 0)
(2.88390202e-12 0 0)
(2.88328836e-12 0 0)
(1.97567172e-12 0 0)
(1.53925149e-12 0 0)
(1.55279248e-12 0 0)
(1.2167803e-12 0 0)
(6.24800365e-13 0 0)
(8.90271016e-13 0 0)
(9.18798466e-13 0 0)
(9.66448907e-13 0 0)
(1.05258518e-12 0 0)
(1.09976403e-12 0 0)
(2.3768365e-12 0 0)
(1.98681832e-12 0 0)
(2.07389254e-12 0 0)
(2.82948892e-12 0 0)
(1.35599275e-12 0 0)
(2.37860491e-12 0 0)
(2.51714027e-12 0 0)
(2.10942537e-12 0 0)
(1.76145039e-12 0 0)
(2.38794535e-12 0 0)
(2.01967825e-12 0 0)
(2.26114498e-12 0 0)
(1.85394863e-12 0 0)
(3.09816881e-12 0 0)
(2.07018956e-12 0 0)
(2.40087957e-12 0 0)
(3.01580806e-12 0 0)
(1.70668012e-12 0 0)
(2.16768465e-12 0 0)
(2.20450336e-12 0 0)
(2.13225624e-12 0 0)
(7.3627358e-13 0 0)
(7.33842567e-13 0 0)
(1.71436198e-12 0 0)
(9.90505208e-13 0 0)
(1.16438356e-12 0 0)
(1.11319661e-12 0 0)
(1.30780892e-12 0 0)
(1.23502754e-12 0 0)
(1.31279084e-12 0 0)
(1.26866929e-12 0 0)
(1.5852749e-12 0 0)
(9.09084949e-13 0 0)
(2.13482356e-13 0 0)
(8.12284879e-13 0 0)
(-2.7375894e-14 0 0)
(1.18229384e-12 0 0)
(8.56487367e-13 0 0)
(3.20284697e-13 0 0)
(1.70261558e-13 0 0)
(1.00293814e-12 0 0)
(9.25789352e-13 0 0)
(1.06544375e-12 0 0)
(7.349838e-13 0 0)
(7.05930931e-13 0 0)
(-3.51182343e-13 0 0)
(5.98968001e-13 0 0)
(-5.11695391e-13 0 0)
(-5.75291214e-13 0 0)
(-8.36183029e-13 0 0)
(2.42330176e-13 0 0)
(-5.24168482e-13 0 0)
(-4.90784608e-13 0 0)
(-9.31652359e-14 0 0)
(-1.33425465e-12 0 0)
(-8.91584138e-13 0 0)
(-1.73403019e-12 0 0)
(-1.38856053e-12 0 0)
(-1.98659602e-12 0 0)
(-1.1517478e-12 0 0)
(-1.81844323e-12 0 0)
(-1.26567929e-12 0 0)
(-1.31311307e-12 0 0)
(-1.68754937e-12 0 0)
(-1.4622901e-12 0 0)
(-2.21840619e-12 0 0)
(-1.73314699e-12 0 0)
(-2.61407609e-12 0 0)
(-2.408271e-12 0 0)
(-2.71719393e-12 0 0)
(-1.9783331e-12 0 0)
(-2.63771469e-12 0 0)
(-2.32432671e-12 0 0)
(-2.60278871e-12 0 0)
(-3.03158802e-12 0 0)
(-3.01769555e-12 0 0)
(-3.53175925e-12 0 0)
(-2.87869807e-12 0 0)
(-3.85842269e-12 0 0)
(-3.56462124e-12 0 0)
(-3.88234694e-12 0 0)
(-4.20542947e-12 0 0)
(-4.49486664e-12 0 0)
(-3.8815637e-12 0 0)
(-5.13875923e-12 0 0)
(-4.35727143e-12 0 0)
(-4.52120419e-12 0 0)
(-4.81353454e-12 0 0)
(-5.60329422e-12 0 0)
(-5.21098867e-12 0 0)
(-4.390753e-12 0 0)
(-4.93329739e-12 0 0)
(-4.99201923e-12 0 0)
(-4.72996595e-12 0 0)
(-4.26564872e-12 0 0)
(-4.05822016e-12 0 0)
(-4.15296331e-12 0 0)
(-3.81413411e-12 0 0)
(-2.5513002e-12 0 0)
(-3.54473257e-12 0 0)
(-3.70099413e-12 0 0)
(-2.61972572e-12 0 0)
(-3.03003855e-12 0 0)
(-2.82177707e-12 0 0)
(-3.78046857e-12 0 0)
(-2.86406315e-12 0 0)
(-2.95046989e-12 0 0)
(-3.6517071e-12 0 0)
(-3.03093295e-12 0 0)
(-3.77688863e-12 0 0)
(-3.14055955e-12 0 0)
(-3.47025155e-12 0 0)
(-3.59173673e-12 0 0)
(-3.03536199e-12 0 0)
(-3.17151401e-12 0 0)
(-3.11858701e-12 0 0)
(-3.28135561e-12 0 0)
(-3.23940008e-12 0 0)
(-3.01736637e-12 0 0)
(-3.21368449e-12 0 0)
(-3.46609616e-12 0 0)
(-3.31307346e-12 0 0)
(-3.74821128e-12 0 0)
(-2.96351926e-12 0 0)
(-3.57745013e-12 0 0)
(-3.9755898e-12 0 0)
(-4.31339598e-12 0 0)
(-3.57737343e-12 0 0)
(-4.18591592e-12 0 0)
(-4.70444894e-12 0 0)
(-4.6746093e-12 0 0)
(-4.3947689e-12 0 0)
(-3.90875933e-12 0 0)
(-4.5305497e-12 0 0)
(-4.66093402e-12 0 0)
(-4.55992688e-12 0 0)
(-5.11848217e-12 0 0)
(-5.01897097e-12 0 0)
(-6.02328134e-12 0 0)
(-5.69603836e-12 0 0)
(-5.80309756e-12 0 0)
(-6.04427784e-12 0 0)
(-5.46640463e-12 0 0)
(-6.54220709e-12 0 0)
(-5.23369423e-12 0 0)
(-6.2695681e-12 0 0)
(-5.94460042e-12 0 0)
(-3.45882939e-12 0 0)
(-5.73941685e-12 0 0)
(-6.10504288e-12 0 0)
(-5.2228997e-12 0 0)
(-5.26758808e-12 0 0)
(-7.04934653e-12 0 0)
(-4.83098192e-12 0 0)
(-5.61742517e-12 0 0)
(-5.09548015e-12 0 0)
(-5.78597859e-12 0 0)
(-4.60671818e-12 0 0)
(-5.85644789e-12 0 0)
(-6.00915284e-12 0 0)
(-5.27376504e-12 0 0)
(-5.49193853e-12 0 0)
(-5.91686866e-12 0 0)
(-5.68447654e-12 0 0)
(-5.67614651e-12 0 0)
(-5.33254334e-12 0 0)
(-6.91487668e-12 0 0)
(-6.35129336e-12 0 0)
(-5.94931564e-12 0 0)
(-6.38957567e-12 0 0)
(-7.29484669e-12 0 0)
(-6.04713543e-12 0 0)
(-6.1298574e-12 0 0)
(-5.6722321e-12 0 0)
(-5.57176273e-12 0 0)
(-5.40768034e-12 0 0)
(-5.8581505e-12 0 0)
(-6.42377857e-12 0 0)
(-6.54173172e-12 0 0)
(-6.05939181e-12 0 0)
(-6.10573549e-12 0 0)
(-5.64954024e-12 0 0)
(-5.59485276e-12 0 0)
(-6.15465484e-12 0 0)
(-6.31890079e-12 0 0)
(-5.9545447e-12 0 0)
(-6.53551431e-12 0 0)
(-6.74258126e-12 0 0)
(-5.96134102e-12 0 0)
(-6.18936265e-12 0 0)
(-6.0245649e-12 0 0)
(-6.0404947e-12 0 0)
(-5.57247699e-12 0 0)
(-5.8549377e-12 0 0)
(-6.47656413e-12 0 0)
(-5.48971672e-12 0 0)
(-5.82420131e-12 0 0)
(-5.73635067e-12 0 0)
(-5.9022e-12 0 0)
(-5.43859029e-12 0 0)
(-6.19818219e-12 0 0)
(-5.95862858e-12 0 0)
(-5.5960466e-12 0 0)
(-5.29572309e-12 0 0)
(-5.38943722e-12 0 0)
(-5.36085346e-12 0 0)
(-5.41803209e-12 0 0)
(-5.63788581e-12 0 0)
(-5.24022837e-12 0 0)
(-4.99182994e-12 0 0)
(-6.83588658e-12 0 0)
(-5.86977168e-12 0 0)
(-5.17253231e-12 0 0)
(-5.22071292e-12 0 0)
(-5.18651378e-12 0 0)
(-6.19243622e-12 0 0)
(-5.96442349e-12 0 0)
(-6.43995006e-12 0 0)
(-7.09960098e-12 0 0)
(-6.90059871e-12 0 0)
(-7.04512772e-12 0 0)
(-6.43604192e-12 0 0)
(-6.49842003e-12 0 0)
(-7.67334889e-12 0 0)
(-6.57718909e-12 0 0)
(-6.39901434e-12 0 0)
(-6.35028728e-12 0 0)
(-5.97212501e-12 0 0)
(-6.90141866e-12 0 0)
(-7.10431478e-12 0 0)
(-6.61878371e-12 0 0)
(-7.1626484e-12 0 0)
(-6.55880413e-12 0 0)
(-7.87841456e-12 0 0)
(-7.98101734e-12 0 0)
(-7.6881676e-12 0 0)
(-8.4218311e-12 0 0)
(-8.11920471e-12 0 0)
(-8.19751324e-12 0 0)
(-8.94876829e-12 0 0)
(-8.29710218e-12 0 0)
(-8.41511676e-12 0 0)
(-7.52772779e-12 0 0)
(-8.15417877e-12 0 0)
(-8.83387425e-12 0 0)
(-7.91176602e-12 0 0)
(-7.79892815e-12 0 0)
(-8.55662423e-12 0 0)
(-8.3691027e-12 0 0)
(-7.9754112e-12 0 0)
(-8.84650155e-12 0 0)
(-9.38748936e-12 0 0)
(-7.7949474e-12 0 0)
(-8.71688126e-12 0 0)
(-8.33574896e-12 0 0)
(-9.95967798e-12 0 0)
(-8.82845022e-12 0 0)
(-1.00961839e-11 0 0)
(-9.50774748e-12 0 0)
(-9.32132838e-12 0 0)
(-9.50894027e-12 0 0)
(-9.80657977e-12 0 0)
(-9.79944174e-12 0 0)
(-9.84191654e-12 0 0)
(-9.5977886e-12 0 0)
(-9.54685004e-12 0 0)
(-8.97763686e-12 0 0)
(-7.91874717e-12 0 0)
(-9.67670518e-12 0 0)
(-9.37783655e-12 0 0)
(-9.63824986e-12 0 0)
(-9.3594644e-12 0 0)
(-9.42833006e-12 0 0)
(-9.26405939e-12 0 0)
(-9.41724996e-12 0 0)
(-8.89382181e-12 0 0)
(-8.44002326e-12 0 0)
(-9.13426447e-12 0 0)
(-9.12405532e-12 0 0)
(-8.44182996e-12 0 0)
(-8.99205874e-12 0 0)
(-7.84927603e-12 0 0)
(-8.2476807e-12 0 0)
(-9.01934614e-12 0 0)
(-7.73443591e-12 0 0)
(-8.26825883e-12 0 0)
(-8.43151489e-12 0 0)
(-9.30076994e-12 0 0)
(-8.21721053e-12 0 0)
(-8.05143381e-12 0 0)
(-8.41207694e-12 0 0)
(-8.10514982e-12 0 0)
(-6.97084504e-12 0 0)
(-7.61991563e-12 0 0)
(-7.55183957e-12 0 0)
(-7.49428964e-12 0 0)
(-8.21310437e-12 0 0)
(-6.72017042e-12 0 0)
(-6.21055257e-12 0 0)
(-6.17304532e-12 0 0)
(-7.15838411e-12 0 0)
(-6.52485821e-12 0 0)
(-6.99160065e-12 0 0)
(-6.27250744e-12 0 0)
(-6.06397855e-12 0 0)
(-7.06765946e-12 0 0)
(-5.75186284e-12 0 0)
(-5.38027948e-12 0 0)