/*--------------------------------*- C++ -*----------------------------------*\
| =========                 |                                                 |
| \\      /  F ield         | OpenFOAM: The Open Source CFD Toolbox           |
|  \\    /   O peration     | Version:  2206                                  |
|   \\  /    A nd           | Website:  www.openfoam.com                      |
|    \\/     M anipulation  |                                                 |
\*---------------------------------------------------------------------------*/
FoamFile
{
    version     2.0;
    format      ascii;
    arch        "LSB;label=32;scalar=64";
    class       volScalarField;
    location    "1.84e-05";
    object      p;
}
// * * * * * * * * * * * * * * * * * * * * * * * * * * * * * * * * * * * * * //

dimensions      [1 -1 -2 0 0 0 0];

internalField   nonuniform List<scalar> 
3183
(
101325
101325
101325
101325
101325
101325
101325
101325
101325
101325
101325
101325
101325
101325
101325
101325
101325
101325
101325
101325
101325
101325
101325
101325
101325
101325
101325
101325
101325
101325
101325
101325
101325
101325
101325
101325
101325
101325
101325
101325
101325
101325
101325
101325
101325
101325
101325
101325
101325
101325
101325
101325
101325
101325
101325
101325
101325
101325
101325
101325
101325
101325
101325
101325
101325
101325
101325
101325
101325
101325
101325
101325
101325
101325
101325
101325
101325
101325
101325
101325
101325
101325
101325
101325
101325
101325
101325
101325
101325
101325
101325
101325
101325
101325
101325
101325
101325
101325
101325
101325
101325
101325
101325
101325
101325
101325
101325
101325
101325
101325
101325
101325
101325
101325
101325
101325
101325
101325
101325
101325
101325
101325
101325
101325
101325
101325
101325
101325
101325
101325
101325
101325
101325
101325
101325
101325
101325
101325
101325
101325
101325
101325
101325
101325
101325
101325
101325
101325
101325
101325
101325
101325
101325
101325
101325
101325
101325
101325
101325
101325
101325
101325
101325
101325
101325
101325
101325
101325
101325
101325
101325
101325
101325
101325
101325
101325
101325
101325
101325
101325
101325
101325
101325
101325
101325
101325
101325
101325
101325
101325
101325
101325
101325
101325
101325
101325
101325
101325
101325
101325
101325
101325
101325
101325
101325
101325
101325
101325
101325
101325
101325
101325
101325
101325
101325
101325
101325
101325
101325
101325
101325
101325
101325
101325
101325
101325
101325
101325
101325
101325
101325
101325
101325
101325
101325
101325
101325
101325
101325
101325
101325
101325
101325
101325
101325
101325
101325
101325
101325
101325
101325
101325
101325
101325
101325
101325
101325
101325
101325
101325
101325
101325
101325
101325
101325
101325
101325
101325
101325
101325
101325
101325
101325
101325
101325
101325
101325
101325
101325
101325
101325
101325
101325
101325
101325
101325
101325
101325
101325
101325
101325
101325
101325
101325
101325
101325
101325
101325
101325
101325
101325
101325
101325
101325
101325
101325
101325
101325
101325
101325
101325
101325
101325
101325
101325
101325
101325
101325
101325
101325
101325
101325
101325
101325
101325
101325
101325
101325
101325
101325
101325
101325
101325
101325
101325
101325
101325
101325
101325
101325
101325
101325
101325
101325
101325
101325
101325
101325
101325
101325
101325
101325
101325
101325
101325
101325
101325
101325
101325
101325
101325
101325
101325
101325
101325
101325
101325
101325
101325
101325
101325
101325
101325
101325
101325
101325
101325
101325
101325
101325
101325
101325
101325
101325
101325
101325
101325
101325
101325
101325
101325
101325
101325
101325
101325
101325
101325
101325
101325
101325
101325
101325
101325
101325
101325
101325
101325
101325
101325
101325
101325
101325
101325
101325
101325
101325
101325
101325
101325
101325
101325
101325
101325
101325
101325
101325
101325
101325
101325
101325
101325
101325
101325
101325
101325
101325
101325
101325
101325
101325
101325
101325
101325
101325
101325
101325
101325
101325
101325
101325
101325
101325
101325
101325
101325
101325
101325
101325
101325
101325
101325
101325
101325
101325
101325
101325
101325
101325
101325
101325
101325
101325
101325
101325
101325
101325
101325
101325
101325
101325
101325
101325
101325
101325
101325
101325
101325
101325
101325
101325
101325
101325
101325
101325
101325
101325
101325
101325
101325
101325
101325
101325
101325
101325
101325
101325
101325
101325
101325
101325
101325
101325
101325
101325
101325
101325
101325
101325
101325
101325
101325
101325
101325
101325
101325
101325
101325
101325
101325
101325
101325
101325
101325
101325
101325
101325
101325
101325
101325
101325
101325
101325
101325
101325
101325
101325
101325
101325
101325
101325
101325
101325
101325
101325
101325
101325
101325
101325
101325
101325
101325
101325
101325
101325
101325
101325
101325
101325
101325
101325
101325
101325
101325
101325
101325
101325
101325
101325
101325
101325
101325
101325
101325
101325
101325
101325
101325
101325
101325
101325
101325
101325
101325
101325
101325
101325
101325
101325
101325
101325
101325
101325
101325
101325
101325
101325
101325
101325
101325
101325
101325
101325
101325
101325
101325
101325
101325
101325
101325
101325
101325
101325
101325
101325
101325
101325
101325
101325
101325
101325
101325
101325
101325
101325
101325
101325
101325
101325
101325
101325
101325
101325
101325
101325
101325
101325
101325
101325
101325
101325
101325
101325
101325
101325
101325
101325
101325
101325
101325
101325
101325
101325
101325
101325
101325
101325
101325
101325
101325
101325
101325
101325
101325
101325
101325
101325
101325
101325
101325
101325
101325
101325
101325
101325
101325
101325
101325
101325
101325
101325
101325
101325
101325
101325
101325
101325
101325
101325
101325
101325
101325
101325
101325
101325
101325
101325
101325
101325
101325
101325
101325
101325
101325
101325
101325
101325
101325
101325
101325
101325
101325
101325
101325
101325
101325
101325
101325
101325
101325
101325
101325
101325
101325
101325
101325
101325
101325
101325
101325
101325
101325
101325
101325
101325
101325
101325
101325
101325
101325
101325
101325
101325
101325
101325
101325
101325
101325
101325
101325
101325
101325
101325
101325
101325
101325
101325
101325
101325
101325
101325
101325
101325
101325
101325
101325
101325
101325
101325
101325
101325
101325
101325
101325
101325
101325
101325
101325
101325
101325
101325
101325
101325
101325
101325
101325
101325
101325
101325
101325
101325
101325
101325
101325
101325
101325
101325
101325
101325
101325
101325
101325
101325
101325
101325
101325
101325
101325
101325
101325
101325
101325
101325
101325
101325
101325
101325
101325
101325
101325
101325
101325
101325
101325
101325
101325
101325
101325
101325
101325
101325
101325
101325
101325
101325
101325
101325
101325
101325
101325
101325
101325
101325
101325
101325
101325
101325
101325
101325
101325
101325
101325
101325
101325
101325
101325
101325
101325
101325
101325
101325
101325
101325
101325
101325
101325
101325
101325
101325
101325
101325
101325
101325
101325
101325
101325
101325
101325
101325
101325
101325
101325
101325
101325
101325
101325
101325
101325
101325
101325
101325
101325
101325
101325
101325
101325
101325
101325
101325
101325
101325
101325
101325
101325
101325
101325
101325
101325
101325
101325
101325
101325
101325
101325
101325
101325
101325
101325
101325
101325
101325
101325
101325
101325
101325
101325
101325
101325
101325
101325
101325
101325
101325
101325
101325
101325
101325
101325
101325
101325
101325
101325
101325
101325
101325
101325
101325
101325
101325
101325
101325
101325
101325
101325
101325
101325
101325
101325
101325
101325
101325
101325
101325
101325
101325
101325
101325
101325
101325
101325
101325
101325
101325
101325
101325
101325
101325
101325
101325
101325
101325
101325
101325
101325
101325
101325
101325
101325
101325
101325
101325
101325
101325
101325
101325
101325
101325
101325
101325
101325
101325
101325
101325
101325
101325
101325
101325
101325
101325
101325
101325
101325
101325
101325
101325
101325
101325
101325
101325
101325
101325
101325
101325
101325
101325
101325
101325
101325
101325
101325
101325
101325
101325
101325
101325
101325
101325
101325
101325
101325
101325
101325
101325
101325
101325
101325
101325
101325
101325
101325
101325
101325
101325
101325
101325
101325
101325
101325
101325
101325
101325
101325
101325
101325
101325
101325
101325
101325
101325
101325
101325
101325
101325
101325
101325
101325
101325
101325
101325
101325
101325
101325
101325
101325
101325
101325
101325
101325
101325
101325
101325
101325
101325
101325
101325
101325
101325
101325
101325
101325
101325
101325
101325
101325
101325
101325
101325
101325
101325
101325
101325
101325
101325
101325
101325
101325
101325
101325
101325
101325
101325
101325
101325
101325
101325
101325
101325
101325
101325
101325
101325
101325
101325
101325
101325
101325
101325
101325
101325
101325
101325
101325
101325
101325
101325
101325
101325
101325
101325
101325
101325
101325
101325
101325
101325
101325
101325
101325
101325
101325
101325
101325
101325
101325
101325
101325
101325
101325
101325
101325
101325
101325
101325
101325
101325
101325
101325
101325
101325
101325
101325
101325
101325
101325
101325
101325
101325
101325
101325
101325
101325
101325
101325
101325
101325
101325
101325
101325
101325
101325
101325
101325
101325
101325
101325
101325
101325
101325
101325
101325
101325
101325
101325
101325
101325
101325
101325
101325
101325
101325
101325
101325
101325
101325
101325
101325
101325
101325
101325
101325
101325
101325
101325
101325
101325
101325
101325
101325
101325
101325
101325
101325
101325
101325
101325
101325
101325
101325
101325
101325
101325
101325
101325
101325
101325
101325
101325
101325
101325
101325
101325
101325
101325
101325
101325
101325
101325
101325
101325
101325
101325
101325
101325
101325
101325
101325
101325
101325
101325
101325
101325
101325
101325
101325
101325
101325
101325
101325
101325
101325
101325
101325
101325
101325
101325
101325
101325
101325
101325
101325
101325
101325
101325
101325
101325
101325
101325
101325
101325
101325
101325
101325
101325
101325
101325
101325
101325
101325
101325
101325
101325
101325
101325
101325
101325
101325
101325
101325
101325
101325
101325
101325
101325
101325
101325
101325
101325
101325
101325
101325
101325
101325
101325
101325
101325
101325
101325
101325
101325
101325
101325
101325
101325
101325
101325
101325
101325
101325
101325
101325
101325
101325
101325
101325
101325
101325
101325
101325
101325
101325
101325
101325
101325
101325
101325
101325
101325
101325
101325
101325
101325
101325
101325
101325
101325
101325
101325
101325
101325
101325
101325
101325
101325
101325
101325
101325
101325
101325
101325
101325
101325
101325
101325
101325
101325
101325
101325
101325
101325
101325
101325
101325
101325
101325
101325
101325
101325
101325
101325
101325
101325
101325
101325
101325
101325
101325
101325
101325
101325
101325
101325
101325
101325
101325
101325
101325
101325
101325
101325
101325
101325
101325
101325
101325
101325
101325
101325
101325
101325
101325
101325
101325
101325
101325
101325
101325
101325
101325
101325
101325
101325
101325
101325
101325
101325
101325
101325
101325
101325
101325
101325
101325
101325
101325
101325
101325
101325
101325
101325
101325
101325
101325
101325
101325
101325
101325
101325
101325
101325
101325
101325
101325
101325
101325
101325
101325
101325
101325
101325
101325
101325
101325
101325
101325
101325
101325
101325
101325
101325
101325
101325
101325
101325
101325
101325
101325
101325
101325
101325
101325
101325
101325
101325
101325
101325
101325
101325
101325
101325
101325
101325
101325
101325
101325
101325
101325
101325
101325
101325
101325
101325
101325
101325
101325
101325
101325
101325
101325
101325
101325
101325
101325
101325
101325
101325
101325
101325
101325
101325
101325
101325
101325
101325
101325
101325
101325
101325
101325
101325
101325
101325
101325
101325
101325
101325
101325
101325
101325
101325
101325
101325
101325
101325
101325
101325
101325
101325
101325
101325
101325
101325
101325
101325
101325
101325
101325
101325
101325
101325
101325
101325
101325
101325
101325
101325
101325
101325
101325
101325
101325
101325
101325
101325
101325
101325
101325
101325
101325
101325
101325
101325
101325
101325
101325
101325
101325
101325
101325
101325
101325
101325
101325
101325
101325
101325
101325
101325
101325
101325
101325
101325
101325
101325
101325
101325
101325
101325
101325
101325
101325
101325
101325
101325
101325
101325
101325
101325
101325
101325
101325
101325
101325
101325
101325
101325
101325
101325
101325
101325
101325
101325
101325
101325
101325
101325
101325
101325
101325
101325
101325
101325
101325
101325
101325
101325
101325
101325
101325
101325
101325
101325
101325
101325
101325
101325
101325
101325
101325
101325
101325
101325
101325
101325
101325
101325
101325
101325
101325
101325
101325
101325
101325
101325
101325
101325
101325
101325
101325
101324.999
101324.999
101324.999
101324.999
101324.999
101324.999
101324.999
101324.999
101324.999
101324.999
101324.999
101324.999
101324.999
101324.999
101324.999
101324.999
101324.999
101324.999
101324.999
101324.999
101324.998
101324.998
101324.998
101324.998
101324.998
101324.998
101324.998
101324.998
101324.998
101324.997
101324.997
101324.997
101324.997
101324.997
101324.997
101324.996
101324.996
101324.996
101324.996
101324.996
101324.995
101324.995
101324.995
101324.995
101324.994
101324.994
101324.994
101324.993
101324.993
101324.993
101324.992
101324.992
101324.991
101324.991
101324.991
101324.99
101324.99
101324.989
101324.988
101324.988
101324.987
101324.987
101324.986
101324.985
101324.984
101324.984
101324.983
101324.982
101324.981
101324.98
101324.979
101324.978
101324.977
101324.976
101324.974
101324.973
101324.972
101324.971
101324.969
101324.968
101324.966
101324.964
101324.963
101324.961
101324.959
101324.957
101324.955
101324.953
101324.95
101324.948
101324.946
101324.943
101324.94
101324.938
101324.935
101324.932
101324.929
101324.925
101324.922
101324.918
101324.914
101324.911
101324.906
101324.902
101324.898
101324.893
101324.888
101324.883
101324.878
101324.873
101324.867
101324.861
101324.855
101324.849
101324.842
101324.835
101324.828
101324.821
101324.813
101324.805
101324.797
101324.788
101324.779
101324.77
101324.76
101324.75
101324.739
101324.729
101324.717
101324.706
101324.694
101324.681
101324.668
101324.654
101324.64
101324.626
101324.611
101324.595
101324.579
101324.562
101324.545
101324.527
101324.508
101324.489
101324.469
101324.449
101324.427
101324.405
101324.383
101324.359
101324.335
101324.31
101324.284
101324.257
101324.229
101324.201
101324.171
101324.141
101324.109
101324.077
101324.043
101324.009
101323.973
101323.936
101323.898
101323.859
101323.819
101323.778
101323.735
101323.691
101323.646
101323.599
101323.551
101323.502
101323.451
101323.399
101323.345
101323.29
101323.234
101323.175
101323.115
101323.054
101322.991
101322.926
101322.859
101322.791
101322.721
101322.649
101322.575
101322.5
101322.422
101322.343
101322.261
101322.178
101322.092
101322.005
101321.915
101321.823
101321.729
101321.633
101321.535
101321.434
101321.332
101321.226
101321.119
101321.009
101320.897
101320.783
101320.666
101320.547
101320.425
101320.301
101320.174
101320.045
101319.913
101319.779
101319.642
101319.503
101319.361
101319.216
101319.069
101318.92
101318.767
101318.612
101318.455
101318.295
101318.132
101317.966
101317.798
101317.627
101317.454
101317.278
101317.1
101316.919
101316.735
101316.549
101316.36
101316.169
101315.975
101315.779
101315.58
101315.379
101315.176
101314.97
101314.762
101314.551
101314.339
101314.124
101313.907
101313.688
101313.467
101313.244
101313.018
101312.791
101312.563
101312.332
101312.099
101311.865
101311.63
101311.393
101311.154
101310.914
101310.673
101310.431
101310.187
101309.942
101309.697
101309.45
101309.203
101308.955
101308.706
101308.457
101308.208
101307.958
101307.708
101307.458
101307.208
101306.958
101306.708
101306.458
101306.209
101305.96
101305.712
101305.465
101305.218
101304.973
101304.728
101304.485
101304.243
101304.003
101303.764
101303.526
101303.291
101303.057
101302.825
101302.596
101302.368
101302.143
101301.921
101301.701
101301.483
101301.269
101301.057
101300.848
101300.642
101300.44
101300.241
101300.045
101299.853
101299.664
101299.479
101299.298
101299.12
101298.947
101298.778
101298.612
101298.451
101298.294
101298.142
101297.994
101297.85
101297.711
101297.577
101297.447
101297.322
101297.201
101297.086
101296.975
101296.869
101296.769
101296.673
101296.582
101296.496
101296.415
101296.339
101296.268
101296.202
101296.141
101296.085
101296.035
101295.989
101295.948
101295.913
101295.882
101295.856
101295.835
101295.819
101295.808
101295.802
101295.801
101295.804
101295.812
101295.824
101295.841
101295.863
101295.889
101295.919
101295.953
101295.992
101296.035
101296.082
101296.133
101296.188
101296.247
101296.309
101296.375
101296.444
101296.517
101296.594
101296.673
101296.756
101296.841
101296.93
101297.021
101297.115
101297.212
101297.311
101297.413
101297.517
101297.623
101297.731
101297.841
101297.953
101298.067
101298.182
101298.299
101298.418
101298.537
101298.658
101298.78
101298.903
101299.027
101299.152
101299.277
101299.403
101299.53
101299.657
101299.784
101299.912
101300.04
101300.168
101300.295
101300.423
101300.551
101300.678
101300.805
101300.932
101301.058
101301.183
101301.308
101301.433
101301.556
101301.679
101301.801
101301.923
101302.043
101302.162
101302.28
101302.398
101302.514
101302.629
101302.742
101302.855
101302.966
101303.076
101303.185
101303.293
101303.399
101303.504
101303.607
101303.709
101303.81
101303.91
101304.008
101304.104
101304.199
101304.293
101304.386
101304.477
101304.566
101304.655
101304.741
101304.827
101304.911
101304.994
101305.075
101305.156
101305.234
101305.312
101305.388
101305.464
101305.537
101305.61
101305.682
101305.752
101305.821
101305.889
101305.956
101306.022
101306.087
101306.151
101306.214
101306.275
101306.336
101306.396
101306.455
101306.514
101306.571
101306.627
101306.683
101306.738
101306.792
101306.846
101306.898
101306.95
101307.002
101307.052
101307.103
101307.152
101307.201
101307.249
101307.297
101307.344
101307.391
101307.437
101307.483
101307.528
101307.573
101307.617
101307.661
101307.704
101307.748
101307.79
101307.833
101307.874
101307.916
101307.957
101307.998
101308.039
101308.079
101308.119
101308.158
101308.197
101308.236
101308.275
101308.313
101308.351
101308.389
101308.426
101308.463
101308.5
101308.537
101308.573
101308.609
101308.644
101308.68
101308.715
101308.749
101308.784
101308.818
101308.851
101308.885
101308.918
101308.951
101308.983
101309.015
101309.047
101309.079
101309.11
101309.141
101309.171
101309.201
101309.231
101309.261
101309.29
101309.319
101309.347
101309.375
101309.403
101309.43
101309.457
101309.484
101309.511
101309.537
101309.562
101309.588
101309.613
101309.637
101309.662
101309.686
101309.709
101309.733
101309.756
101309.779
101309.801
101309.823
101309.845
101309.867
101309.888
101309.909
101309.929
101309.95
101309.97
101309.99
101310.01
101310.029
101310.049
101310.068
101310.087
101310.105
101310.124
101310.142
101310.16
101310.178
101310.196
101310.214
101310.232
101310.249
101310.267
101310.284
101310.302
101310.319
101310.336
101310.353
101310.37
101310.387
101310.405
101310.422
101310.439
101310.456
101310.473
101310.49
101310.507
101310.524
101310.542
101310.559
101310.576
101310.594
101310.611
101310.629
101310.646
101310.664
101310.682
101310.7
101310.718
101310.736
101310.754
101310.772
101310.791
101310.809
101310.827
101310.846
101310.865
101310.883
101310.902
101310.921
101310.94
101310.959
101310.978
101310.997
101311.016
101311.036
101311.055
101311.074
101311.093
101311.113
101311.132
101311.151
101311.171
101311.19
101311.209
101311.228
101311.247
101311.266
101311.285
101311.304
101311.323
101311.342
101311.361
101311.379
101311.398
101311.416
101311.435
101311.453
101311.471
101311.489
101311.507
101311.524
101311.542
101311.559
101311.576
101311.593
101311.61
101311.626
101311.643
101311.659
101311.675
101311.691
101311.707
101311.722
101311.737
101311.753
101311.768
101311.782
101311.797
101311.811
101311.825
101311.839
101311.853
101311.867
101311.881
101311.894
101311.907
101311.92
101311.933
101311.946
101311.958
101311.971
101311.983
101311.995
101312.007
101312.019
101312.03
101312.042
101312.053
101312.065
101312.076
101312.087
101312.098
101312.109
101312.12
101312.131
101312.141
101312.152
101312.163
101312.173
101312.183
101312.194
101312.204
101312.214
101312.224
101312.234
101312.244
101312.254
101312.264
101312.274
101312.283
101312.293
101312.303
101312.313
101312.322
101312.332
101312.341
101312.351
101312.36
101312.37
101312.379
101312.388
101312.398
101312.407
101312.416
101312.426
101312.435
101312.444
101312.454
101312.463
101312.472
101312.482
101312.491
101312.5
101312.51
101312.519
101312.528
101312.538
101312.548
101312.557
101312.567
101312.577
101312.587
101312.597
101312.607
101312.617
101312.627
101312.638
101312.649
101312.659
101312.671
101312.682
101312.693
101312.705
101312.717
101312.73
101312.742
101312.755
101312.769
101312.782
101312.797
101312.811
101312.826
101312.842
101312.858
101312.875
101312.892
101312.91
101312.929
101312.948
101312.968
101312.989
101313.011
101313.034
101313.058
101313.083
101313.108
101313.135
101313.163
101313.193
101313.223
101313.255
101313.289
101313.323
101313.36
101313.397
101313.437
101313.478
101313.52
101313.565
101313.611
101313.659
101313.709
101313.761
101313.814
101313.87
101313.927
101313.987
101314.048
101314.111
101314.176
101314.243
101314.312
101314.383
101314.455
101314.529
101314.604
101314.681
101314.759
101314.838
101314.918
101314.999
101315.081
101315.164
101315.247
101315.33
101315.413
101315.495
101315.578
101315.659
101315.74
101315.82
101315.899
101315.976
101316.051
101316.125
101316.196
101316.265
101316.332
101316.396
101316.458
101316.517
101316.573
101316.627
101316.677
101316.725
101316.771
101316.813
101316.854
101316.892
101316.928
101316.962
101316.995
101317.027
101317.058
101317.088
101317.118
101317.149
101317.181
101317.214
101317.25
101317.288
101317.329
101317.374
101317.423
101317.477
101317.537
101317.604
101317.677
101317.758
101317.846
101317.944
101318.05
101318.165
101318.289
101318.422
101318.563
101318.71
101318.862
101319.016
101319.168
101319.312
101319.441
101319.547
101319.615
101319.631
101319.572
101319.42
101319.179
101318.654
101318.153
101317.561
101319.648
101319.339
101319.25
101319.236
101319.326
101319.375
101319.446
101319.47
101319.518
101319.499
101319.474
101319.416
101319.348
101319.265
101319.175
101319.08
101318.982
101318.884
101318.786
101318.69
101318.596
101318.504
101318.416
101318.332
101318.251
101318.174
101318.101
101318.031
101317.966
101317.904
101317.845
101317.79
101317.738
101317.689
101317.644
101317.601
101317.561
101317.523
101317.487
101317.454
101317.423
101317.393
101317.366
101317.339
101317.315
101317.291
101317.269
101317.248
101317.228
101317.209
101317.19
101317.172
101317.155
101317.138
101317.121
101317.105
101317.089
101317.073
101317.057
101317.041
101317.025
101317.009
101316.992
101316.976
101316.959
101316.942
101316.924
101316.906
101316.887
101316.868
101316.849
101316.829
101316.808
101316.787
101316.765
101316.742
101316.719
101316.695
101316.671
101316.646
101316.62
101316.593
101316.566
101316.538
101316.509
101316.48
101316.45
101316.419
101316.387
101316.355
101316.323
101316.289
101316.255
101316.221
101316.186
101316.15
101316.114
101316.078
101316.041
101316.003
101315.965
101315.927
101315.888
101315.849
101315.81
101315.77
101315.73
101315.69
101315.649
101315.609
101315.568
101315.527
101315.486
101315.445
101315.404
101315.363
101315.322
101315.28
101315.239
101315.198
101315.157
101315.117
101315.076
101315.035
101314.995
101314.955
101314.915
101314.875
101314.836
101314.797
101314.758
101314.72
101314.681
101314.644
101314.606
101314.569
101314.532
101314.496
101314.46
101314.425
101314.389
101314.355
101314.321
101314.287
101314.253
101314.221
101314.188
101314.156
101314.125
101314.094
101314.063
101314.033
101314.004
101313.975
101313.946
101313.918
101313.89
101313.863
101313.836
101313.81
101313.784
101313.759
101313.734
101313.71
101313.686
101313.662
101313.64
101313.617
101313.595
101313.573
101313.552
101313.531
101313.511
101313.491
101313.471
101313.452
101313.433
101313.415
101313.397
101313.379
101313.362
101313.345
101313.328
101313.312
101313.296
101313.28
101313.265
101313.25
101313.236
101313.221
101313.207
101313.194
101313.18
101313.167
101313.154
101313.142
101313.129
101313.117
101313.105
101313.094
101313.082
101313.071
101313.06
101313.05
101313.039
101313.029
101313.019
101313.009
101312.999
101312.99
101312.98
101312.971
101312.962
101312.953
101312.945
101312.936
101312.928
101312.919
101312.911
101312.903
101312.896
101312.888
101312.88
101312.873
101312.865
101312.858
101312.851
101312.844
101312.837
101312.83
101312.824
101312.817
101312.811
101312.804
101312.798
101312.791
101312.785
101312.779
101312.773
101312.767
101312.761
101312.755
101312.75
101312.744
101312.738
101312.733
101312.727
101312.721
101312.716
101312.711
101312.705
101312.7
101312.695
101312.689
101312.684
101312.679
101312.674
101312.669
101312.664
101312.659
101312.654
101312.649
101312.644
101312.639
101312.634
101312.629
101312.624
101312.62
101312.615
101312.61
101312.605
101312.6
101312.596
101312.591
101312.586
101312.582
101312.577
101312.572
101312.568
101312.563
101312.558
101312.554
101312.549
101312.544
101312.54
101312.535
101312.531
101312.526
101312.521
101312.517
101312.512
101312.507
101312.503
101312.498
101312.494
101312.489
101312.484
101312.48
101312.475
101312.47
101312.466
101312.461
101312.456
101312.452
101312.447
101312.442
101312.438
101312.433
101312.428
101312.424
101312.419
101312.414
101312.409
101312.405
101312.4
101312.395
101312.39
101312.386
101312.381
101312.376
101312.371
101312.366
101312.361
101312.357
101312.352
101312.347
101312.342
101312.337
101312.332
101312.327
101312.322
101312.317
101312.312
101312.307
101312.302
101312.297
101312.292
101312.287
101312.282
101312.277
101312.271
101312.266
101312.261
101312.256
101312.251
101312.245
101312.24
101312.235
101312.23
101312.224
101312.219
101312.214
101312.208
101312.203
101312.198
101312.192
101312.187
101312.181
101312.176
101312.17
101312.165
101312.159
101312.154
101312.148
101312.142
101312.137
101312.131
101312.125
101312.12
101312.114
101312.108
101312.102
101312.096
101312.09
101312.085
101312.079
101312.073
101312.067
101312.061
101312.055
101312.049
101312.042
101312.036
101312.03
101312.024
101312.018
101312.011
101312.005
101311.999
101311.992
101311.986
101311.98
101311.973
101311.967
101311.96
101311.953
101311.947
101311.94
101311.933
101311.927
101311.92
101311.913
101311.906
101311.899
101311.892
101311.885
101311.878
101311.871
101311.864
101311.857
101311.85
101311.842
101311.835
101311.828
101311.82
101311.813
101311.805
101311.798
101311.79
101311.783
101311.775
101311.767
101311.76
101311.752
101311.744
101311.736
101311.728
101311.72
101311.712
101311.704
101311.696
101311.688
101311.68
101311.671
101311.663
101311.655
101311.646
101311.638
101311.629
101311.621
101311.612
101311.604
101311.595
101311.586
101311.578
101311.569
101311.56
101311.551
101311.542
101311.533
101311.524
101311.515
101311.506
101311.497
101311.488
101311.479
101311.47
101311.46
101311.451
101311.442
101311.433
101311.423
101311.414
101311.404
101311.395
101311.385
101311.376
101311.366
101311.357
101311.347
101311.338
101311.328
101311.318
101311.309
101311.299
101311.289
101311.279
101311.27
101311.26
101311.25
101311.24
101311.23
101311.22
101311.211
101311.201
101311.191
101311.181
101311.171
101311.161
101311.151
101311.141
101311.131
101311.121
101311.111
101311.102
101311.092
101311.082
101311.072
101311.062
101311.052
101311.042
101311.032
101311.02
101311.009
101310.996
101310.982
101310.968
101310.952
101310.936
101310.918
101310.899
101310.879
101310.857
101310.834
101310.81
101310.783
101310.755
101310.725
101310.694
101310.66
101310.624
101310.585
101310.544
101310.501
101310.454
101310.405
101310.351
101310.294
101310.232
101310.164
101310.09
101310.008
101309.916
101309.813
101309.695
101309.56
101309.405
101309.226
101309.02
101308.783
101308.511
101308.201
101307.848
101307.441
101306.967
101306.395
101305.678
101304.746
101303.508
101301.878
101299.84
101297.55
101295.459
101294.332
101295.055
101298.183
101303.492
101309.878
101315.799
101320.176
101322.821
101324.149
101324.712
101324.915
101324.978
101324.996
101325
101325
101325.001
101325.001
101325.001
101325.001
101325.001
101325.001
101325.001
101325.001
101325
101325
)
;

boundaryField
{
    closed
    {
        type            zeroGradient;
    }
    open
    {
        type            waveTransmissive;
        gamma           1.25;
        fieldInf        101325;
        lInf            1;
        value           uniform 101325;
    }
    sides
    {
        type            empty;
    }
}


// ************************************************************************* //
