/*--------------------------------*- C++ -*----------------------------------*\
| =========                 |                                                 |
| \\      /  F ield         | OpenFOAM: The Open Source CFD Toolbox           |
|  \\    /   O peration     | Version:  2206                                  |
|   \\  /    A nd           | Website:  www.openfoam.com                      |
|    \\/     M anipulation  |                                                 |
\*---------------------------------------------------------------------------*/
FoamFile
{
    version     2.0;
    format      ascii;
    arch        "LSB;label=32;scalar=64";
    class       surfaceScalarField;
    location    "1.84e-05";
    object      phi;
}
// * * * * * * * * * * * * * * * * * * * * * * * * * * * * * * * * * * * * * //

dimensions      [1 0 -1 0 0 0 0];

oriented        oriented;

internalField   nonuniform List<scalar> 
3182
(
6.50834031e-18
-1.77206928e-18
-3.57484747e-18
-2.50397064e-18
-1.14268961e-20
-5.29767073e-23
-3.66619679e-24
4.61049438e-25
1.37036768e-23
4.30828757e-22
3.23150277e-19
5.2574974e-18
3.82500329e-18
1.99635553e-18
9.51428943e-19
-1.61785305e-18
-6.07715909e-18
-4.47008319e-18
-6.31972631e-18
4.04645502e-18
8.75272986e-20
3.58541379e-19
1.69359036e-18
3.5555805e-18
5.19344006e-18
7.58555199e-18
3.60044624e-18
1.6748642e-18
6.93546353e-19
-8.51254523e-19
-6.83538091e-20
-1.42153882e-18
-4.55688197e-18
-4.79408033e-18
-4.95946561e-18
-5.9471899e-18
-8.1455852e-18
-7.05047669e-18
-6.07908654e-18
-2.99486645e-18
1.44375201e-20
1.66246926e-18
5.64234943e-18
8.08462348e-18
1.01263683e-17
9.75556594e-18
7.34505308e-18
5.18045999e-18
1.28750397e-18
-3.24785558e-18
-8.33991335e-18
-1.29731969e-17
-1.74513472e-17
-2.06917267e-17
-2.36266542e-17
-2.75116311e-17
-2.92637659e-17
-3.29402505e-17
-3.53498395e-17
-3.601977e-17
-3.86179908e-17
-3.95443676e-17
-4.08974674e-17
-4.21396482e-17
-4.446009e-17
-4.46857484e-17
-4.53560984e-17
-4.72606506e-17
-4.90231004e-17
-4.91500688e-17
-5.21052466e-17
-5.36138111e-17
-5.55090664e-17
-5.70439192e-17
-5.92741783e-17
-6.00819217e-17
-6.05569648e-17
-6.14179801e-17
-6.24780835e-17
-6.488852e-17
-6.63918045e-17
-6.63242377e-17
-6.75010125e-17
-7.01414299e-17
-6.90109048e-17
-6.9411082e-17
-7.05046215e-17
-7.1744784e-17
-7.07846843e-17
-7.23274827e-17
-7.44545436e-17
-7.46802965e-17
-7.5193197e-17
-7.2309688e-17
-7.39223285e-17
-7.46946602e-17
-7.30557253e-17
-7.29179355e-17
-7.27253915e-17
-6.87253484e-17
-7.33838908e-17
-7.28201095e-17
-7.1161645e-17
-7.21677613e-17
-7.53582433e-17
-7.61179986e-17
-7.59673766e-17
-7.5238767e-17
-7.72483337e-17
-7.52005718e-17
-7.5997195e-17
-7.84771515e-17
-7.93927488e-17
-7.79797813e-17
-8.07269741e-17
-8.21108909e-17
-7.9409844e-17
-8.11019809e-17
-8.14868301e-17
-8.39506898e-17
-8.13801027e-17
-8.08964088e-17
-8.25932835e-17
-7.87128721e-17
-8.03877661e-17
-8.27236681e-17
-8.06778212e-17
-8.06528886e-17
-7.97845923e-17
-8.09685652e-17
-8.60411376e-17
-8.66426561e-17
-8.33479858e-17
-8.37981025e-17
-8.1298226e-17
-7.89142989e-17
-8.29846632e-17
-8.53521638e-17
-8.31432739e-17
-8.43774701e-17
-8.40182129e-17
-8.44638059e-17
-8.44763512e-17
-8.46872037e-17
-8.20005087e-17
-8.67685816e-17
-8.89092565e-17
-8.59575588e-17
-8.65727536e-17
-8.74167332e-17
-8.66393566e-17
-8.962088e-17
-8.90303493e-17
-9.03338818e-17
-9.23991982e-17
-9.26125616e-17
-9.85970158e-17
-1.00443498e-16
-1.01033601e-16
-1.02152171e-16
-1.03241604e-16
-9.96893127e-17
-1.04243782e-16
-1.03155748e-16
-1.025422e-16
-1.04267205e-16
-1.04660486e-16
-1.05588557e-16
-1.04897981e-16
-1.05923148e-16
-1.04788079e-16
-1.09223488e-16
-1.08629147e-16
-1.07912716e-16
-1.07830731e-16
-1.07870172e-16
-1.04216339e-16
-1.06551717e-16
-1.04756829e-16
-1.08596244e-16
-1.08190554e-16
-1.06655298e-16
-1.08768025e-16
-1.10682328e-16
-1.09416684e-16
-1.09170798e-16
-1.11982513e-16
-1.10706796e-16
-1.08467451e-16
-1.11343319e-16
-1.09254397e-16
-1.10887051e-16
-1.1190161e-16
-1.09282108e-16
-1.09856004e-16
-1.10060787e-16
-1.14000792e-16
-1.13365588e-16
-1.12341524e-16
-1.12981215e-16
-1.11669219e-16
-1.12232232e-16
-1.0781648e-16
-1.10177607e-16
-1.06785019e-16
-1.1022935e-16
-1.0992669e-16
-1.12150592e-16
-1.0989968e-16
-1.11304652e-16
-1.08730745e-16
-1.0993488e-16
-1.07990849e-16
-1.11261628e-16
-1.10690012e-16
-1.10321234e-16
-1.14680879e-16
-1.13451308e-16
-1.14982306e-16
-1.17704407e-16
-1.15303343e-16
-1.11930191e-16
-1.10892379e-16
-1.10505036e-16
-1.13304827e-16
-1.12911149e-16
-1.11499063e-16
-1.12315974e-16
-1.15090553e-16
-1.12527257e-16
-1.13754378e-16
-1.13418496e-16
-1.1354624e-16
-1.15171523e-16
-1.15861419e-16
-1.17435272e-16
-1.13177569e-16
-1.15978919e-16
-1.1360898e-16
-1.16560934e-16
-1.17040755e-16
-1.15609215e-16
-1.16714637e-16
-1.19264229e-16
-1.19036193e-16
-1.16684671e-16
-1.17172307e-16
-1.19092741e-16
-1.18368444e-16
-1.14693836e-16
-1.16908575e-16
-1.16894319e-16
-1.14025555e-16
-1.15807245e-16
-1.16392743e-16
-1.18474545e-16
-1.20769383e-16
-1.18597589e-16
-1.19995754e-16
-1.2337372e-16
-1.21927429e-16
-1.2174814e-16
-1.20440766e-16
-1.20813641e-16
-1.20495189e-16
-1.19591569e-16
-1.20252498e-16
-1.22213162e-16
-1.21564828e-16
-1.25391178e-16
-1.20592519e-16
-1.19835021e-16
-1.22828108e-16
-1.22408986e-16
-1.21068117e-16
-1.23738437e-16
-1.22188463e-16
-1.20389342e-16
-1.19683002e-16
-1.20288812e-16
-1.21037364e-16
-1.21104887e-16
-1.21383565e-16
-1.23252368e-16
-1.2271598e-16
-1.25194829e-16
-1.2464532e-16
-1.23613429e-16
-1.25116192e-16
-1.26583528e-16
-1.27120592e-16
-1.26202816e-16
-1.24759392e-16
-1.27300807e-16
-1.25132545e-16
-1.24725687e-16
-1.25802553e-16
-1.25925608e-16
-1.28241129e-16
-1.31067162e-16
-1.31357294e-16
-1.32721866e-16
-1.31271761e-16
-1.3606759e-16
-1.33077525e-16
-1.33276945e-16
-1.35222334e-16
-1.31252851e-16
-1.31906688e-16
-1.34887508e-16
-1.34234109e-16
-1.34180409e-16
-1.33722584e-16
-1.36768313e-16
-1.34752517e-16
-1.35732094e-16
-1.33915819e-16
-1.3737348e-16
-1.37952754e-16
-1.36919554e-16
-1.37103339e-16
-1.40321519e-16
-1.41313104e-16
-1.38332616e-16
-1.36004045e-16
-1.34954883e-16
-1.31286784e-16
-1.31733304e-16
-1.35181908e-16
-1.32754812e-16
-1.30669685e-16
-1.33603353e-16
-1.3509059e-16
-1.36271934e-16
-1.36541431e-16
-1.34018346e-16
-1.36380715e-16
-1.35202716e-16
-1.35013987e-16
-1.3539712e-16
-1.37527756e-16
-1.35134118e-16
-1.38202607e-16
-1.34880991e-16
-1.35940513e-16
-1.3627312e-16
-1.37727233e-16
-1.34377407e-16
-1.36616453e-16
-1.31983955e-16
-1.3620702e-16
-1.33311667e-16
-1.32663306e-16
-1.28900163e-16
-1.28878996e-16
-1.27737568e-16
-1.28383401e-16
-1.27322123e-16
-1.25758539e-16
-1.23806838e-16
-1.2143052e-16
-1.21990392e-16
-1.20165654e-16
-1.2012123e-16
-1.22523337e-16
-1.22247361e-16
-1.24105763e-16
-1.25188489e-16
-1.23808003e-16
-1.23308403e-16
-1.21350514e-16
-1.21565364e-16
-1.2201951e-16
-1.18657966e-16
-1.19614368e-16
-1.20327775e-16
-1.18707071e-16
-1.15902651e-16
-1.17227799e-16
-1.17046972e-16
-1.15938164e-16
-1.11966576e-16
-1.1505612e-16
-1.12853976e-16
-1.07181761e-16
-1.07970452e-16
-1.0940395e-16
-1.10831175e-16
-1.07756644e-16
-1.09616829e-16
-1.08552389e-16
-1.05539021e-16
-1.08578252e-16
-1.13063247e-16
-1.06895386e-16
-1.13111936e-16
-1.11231847e-16
-1.07059791e-16
-1.0577823e-16
-1.03989737e-16
-1.05976984e-16
-1.05598277e-16
-9.95293837e-17
-1.02793166e-16
-1.0084118e-16
-1.03089834e-16
-1.03656224e-16
-9.87433841e-17
-9.8675385e-17
-9.71783606e-17
-9.7086399e-17
-9.57552238e-17
-9.5511741e-17
-9.42077452e-17
-9.93612433e-17
-1.00139222e-16
-9.98783023e-17
-9.91113869e-17
-9.64850371e-17
-9.95052491e-17
-9.8745142e-17
-9.85400568e-17
-9.58075392e-17
-9.65337175e-17
-9.53282849e-17
-9.72059359e-17
-9.73125479e-17
-9.44945854e-17
-9.36105597e-17
-9.15663198e-17
-9.27035098e-17
-9.45249977e-17
-9.28075399e-17
-9.25839015e-17
-9.15485258e-17
-8.76780184e-17
-8.81181014e-17
-9.0488251e-17
-8.74907641e-17
-8.45019241e-17
-8.71762146e-17
-9.09901759e-17
-8.82378606e-17
-8.92060419e-17
-8.84697493e-17
-8.67086785e-17
-8.16073906e-17
-8.26559405e-17
-8.39287896e-17
-8.63568383e-17
-8.24535516e-17
-8.45580952e-17
-8.74099053e-17
-8.40644787e-17
-8.53373305e-17
-8.41135535e-17
-8.38093859e-17
-8.52065781e-17
-8.54064907e-17
-8.45134444e-17
-8.57689279e-17
-8.33947911e-17
-8.26205288e-17
-8.03816877e-17
-7.9346935e-17
-7.64862577e-17
-7.87831662e-17
-7.63339738e-17
-7.87327063e-17
-7.41764036e-17
-7.5569832e-17
-7.45563677e-17
-7.55526188e-17
-7.61059193e-17
-7.67147494e-17
-7.60444352e-17
-7.44910592e-17
-7.48162811e-17
-7.43411456e-17
-7.4117855e-17
-6.89176637e-17
-7.00478268e-17
-7.1395239e-17
-6.96673424e-17
-6.76245644e-17
-6.91691942e-17
-6.93634885e-17
-7.02394844e-17
-7.09461529e-17
-7.32510075e-17
-7.13838653e-17
-6.93149618e-17
-7.21437475e-17
-7.03321474e-17
-7.16403736e-17
-7.38429745e-17
-6.80972894e-17
-6.6075295e-17
-6.6484015e-17
-6.21859291e-17
-5.94972372e-17
-5.95607623e-17
-5.83334946e-17
-6.11122038e-17
-6.04273064e-17
-5.75629298e-17
-5.90303371e-17
-5.67423162e-17
-5.50482235e-17
-5.68574242e-17
-5.8627917e-17
-6.01432013e-17
-6.3281332e-17
-5.70682632e-17
-5.79697636e-17
-5.75553093e-17
-5.85248276e-17
-6.0001886e-17
-5.72691018e-17
-5.41146541e-17
-5.41802607e-17
-4.9938196e-17
-5.01299065e-17
-5.09382179e-17
-4.99539729e-17
-4.59785419e-17
-4.79462745e-17
-4.52237155e-17
-4.56984815e-17
-4.37622237e-17
-4.76060624e-17
-4.53934914e-17
-4.46358778e-17
-4.40687528e-17
-4.37572754e-17
-4.26753897e-17
-4.36051746e-17
-4.57957562e-17
-4.53921248e-17
-4.16619429e-17
-4.27328878e-17
-4.17238988e-17
-3.93161191e-17
-4.00480843e-17
-3.95146205e-17
-4.44774569e-17
-4.2159422e-17
-4.39801242e-17
-4.26223837e-17
-4.19001178e-17
-4.07306966e-17
-4.23371445e-17
-4.03112482e-17
-3.65519433e-17
-3.4125409e-17
-3.05393647e-17
-3.13853593e-17
-3.00457123e-17
-2.9867952e-17
-3.11650458e-17
-3.01559796e-17
-3.09802954e-17
-2.69619858e-17
-2.61758357e-17
-2.98523848e-17
-2.43470673e-17
-2.24952509e-17
-2.00536107e-17
-1.6825689e-17
-1.30171339e-17
-1.27823026e-17
-8.94875377e-18
-8.27697905e-18
-6.71246728e-18
-5.11304476e-18
-6.5505981e-18
-7.37635877e-18
-6.41296296e-18
-8.65212504e-18
-6.41699728e-18
-6.1441911e-18
-2.93683986e-18
-5.98986515e-18
-4.91370104e-18
-5.19842647e-18
-6.06407586e-18
-4.9669861e-18
-5.65363428e-18
-6.59052198e-18
-4.381324e-18
-5.0759481e-18
-6.05534979e-18
-4.19004961e-18
-2.22243001e-18
-2.60875499e-19
-5.15898824e-20
3.91846975e-18
9.01306941e-18
6.07844334e-18
3.9340013e-18
2.7915462e-18
4.9958742e-18
4.11318679e-18
5.07481749e-18
3.23124011e-18
3.677533e-18
6.10842123e-18
4.96994129e-18
2.02806843e-18
5.13269441e-18
6.34798237e-18
6.91453704e-18
6.91218701e-18
9.96440119e-18
1.18267821e-17
1.22222392e-17
8.93255231e-18
8.95613459e-18
1.10997841e-17
1.06015477e-17
1.06427511e-17
7.32291072e-18
8.84781905e-18
8.77628052e-18
8.55957629e-18
1.2042518e-17
1.22879588e-17
1.2552565e-17
7.96483426e-18
8.50216912e-18
1.25721497e-17
1.2729587e-17
1.45316644e-17
1.42066772e-17
1.43483849e-17
1.18230128e-17
1.34292374e-17
1.25141152e-17
1.39844681e-17
1.44080668e-17
1.26434111e-17
1.43294319e-17
1.51951937e-17
1.67620077e-17
1.45431102e-17
1.33142472e-17
1.13063346e-17
1.19174053e-17
1.04271607e-17
1.16419718e-17
1.48508426e-17
1.40194785e-17
1.68973046e-17
1.57475829e-17
1.34099104e-17
1.48193414e-17
1.25971457e-17
1.30035791e-17
1.1481024e-17
1.64172176e-17
1.41877269e-17
1.71657062e-17
1.64754491e-17
1.74255818e-17
1.87756214e-17
1.7710457e-17
1.61858365e-17
1.57819327e-17
1.46503759e-17
1.82488169e-17
1.96655435e-17
2.0906899e-17
2.08507756e-17
1.96457764e-17
2.20173096e-17
2.28180064e-17
1.97977721e-17
1.9553307e-17
1.99624537e-17
2.53601768e-17
2.45055357e-17
2.53956709e-17
2.60350735e-17
2.52897695e-17
2.75321255e-17
2.85670825e-17
3.1082251e-17
2.71534023e-17
2.62545204e-17
2.78360023e-17
2.84254686e-17
2.86128619e-17
2.63840692e-17
3.02287612e-17
3.200204e-17
3.21063258e-17
3.19272608e-17
3.41318907e-17
3.13709482e-17
3.21796565e-17
3.21538928e-17
2.93972771e-17
2.85831015e-17
3.20230732e-17
3.28467666e-17
3.23007421e-17
3.23523442e-17
3.6093556e-17
3.64966674e-17
3.91447884e-17
3.64462886e-17
3.57815546e-17
3.80036857e-17
3.92497209e-17
3.81516293e-17
3.91866595e-17
3.79146759e-17
4.122363e-17
3.84648929e-17
3.95232609e-17
3.95190081e-17
4.11374721e-17
3.92477086e-17
3.74866786e-17
4.13255785e-17
4.28172817e-17
4.4306595e-17
4.28382644e-17
4.42866883e-17
4.6290513e-17
4.47434616e-17
4.24715193e-17
4.29784971e-17
4.81123861e-17
4.57600708e-17
4.54709532e-17
4.19582219e-17
4.05029645e-17
4.22577082e-17
4.26625479e-17
4.5044191e-17
4.35165099e-17
4.30539445e-17
3.97817931e-17
4.01266592e-17
4.05184954e-17
4.2518483e-17
4.26615475e-17
4.15042588e-17
4.2887578e-17
4.32269773e-17
4.41925332e-17
4.62112879e-17
4.43436199e-17
4.43478463e-17
4.4377137e-17
4.47419147e-17
4.19035182e-17
4.29048067e-17
3.95304853e-17
4.30381906e-17
4.41198512e-17
4.02004798e-17
4.1515847e-17
4.28971569e-17
4.24908198e-17
4.18487689e-17
4.35733212e-17
4.27404538e-17
4.54633285e-17
4.25465434e-17
4.50389948e-17
4.6795362e-17
4.57641941e-17
4.63679227e-17
4.80419709e-17
4.68600465e-17
4.71664821e-17
4.54482478e-17
4.81020109e-17
4.90547666e-17
4.89712086e-17
4.98177086e-17
4.96988925e-17
4.94609983e-17
4.89640411e-17
4.80288316e-17
4.63196603e-17
4.73708138e-17
4.76298687e-17
4.7423523e-17
4.79625681e-17
4.7508773e-17
4.70774522e-17
4.57914232e-17
5.16610721e-17
4.47017908e-17
4.63835188e-17
4.43432664e-17
4.57447913e-17
4.45445056e-17
4.96637998e-17
4.36401694e-17
4.63171907e-17
4.41648886e-17
4.51460222e-17
4.76125495e-17
4.66728383e-17
4.5724262e-17
4.36303938e-17
4.69627488e-17
4.37817236e-17
4.5569063e-17
4.76199114e-17
4.8076071e-17
5.13338788e-17
4.95537531e-17
4.84749721e-17
4.76666097e-17
4.70592135e-17
4.57766581e-17
4.38048265e-17
4.42592477e-17
4.56337824e-17
4.66255438e-17
4.71782441e-17
4.8765459e-17
4.72172065e-17
5.09871548e-17
5.06498657e-17
5.17608264e-17
4.98374086e-17
4.95316569e-17
5.14368212e-17
5.38888124e-17
5.43999168e-17
5.4307541e-17
5.5223396e-17
5.83782884e-17
5.88660535e-17
5.90008682e-17
5.73807626e-17
5.99968423e-17
5.76271919e-17
5.56148456e-17
5.75334176e-17
5.59029892e-17
6.02008558e-17
6.2303265e-17
6.28506735e-17
6.44324119e-17
6.46732489e-17
6.0898581e-17
6.11601571e-17
6.06492396e-17
6.44463448e-17
6.88800568e-17
6.35917109e-17
6.25093445e-17
6.19012711e-17
6.24332179e-17
6.17239874e-17
6.19043177e-17
6.32958538e-17
6.52055213e-17
6.61503416e-17
6.55289594e-17
6.60465064e-17
6.34898552e-17
6.38349172e-17
6.44634881e-17
6.20040476e-17
6.35722044e-17
6.57017868e-17
6.76925929e-17
6.83349097e-17
6.68594418e-17
6.64030416e-17
6.75798402e-17
6.17891282e-17
6.29757887e-17
6.17944502e-17
5.98325503e-17
6.16341935e-17
6.08513318e-17
6.25636194e-17
6.15150111e-17
6.22495465e-17
6.1156357e-17
6.51979208e-17
6.37993709e-17
6.5464968e-17
6.60378118e-17
6.75253348e-17
6.8135959e-17
6.68709236e-17
6.83651485e-17
6.63054726e-17
6.65830038e-17
6.79111031e-17
6.69990829e-17
6.72391486e-17
6.9510798e-17
6.83829398e-17
6.99062059e-17
6.79468006e-17
6.99662795e-17
6.92665992e-17
6.97708651e-17
6.974123e-17
6.84625792e-17
6.92716417e-17
7.12956542e-17
6.95585279e-17
6.94395202e-17
7.06209855e-17
7.31743182e-17
6.95315172e-17
7.38846716e-17
7.24893289e-17
7.09996368e-17
7.03844378e-17
7.1897549e-17
7.09097233e-17
7.0278041e-17
6.76522591e-17
7.04413867e-17
6.73755334e-17
6.68111812e-17
6.72097377e-17
6.65510146e-17
6.67548933e-17
6.76805422e-17
6.50683473e-17
6.38604613e-17
5.83465422e-17
6.28808227e-17
6.38830537e-17
6.49050057e-17
6.55332313e-17
6.56704025e-17
6.47766353e-17
6.29104193e-17
6.16891416e-17
5.93985563e-17
5.85348554e-17
5.84176599e-17
6.11012162e-17
5.93094831e-17
6.11516255e-17
5.94355493e-17
6.10567123e-17
5.78010368e-17
5.50603851e-17
5.45990442e-17
5.53359113e-17
5.46008876e-17
5.33834789e-17
5.38512687e-17
5.24243196e-17
5.23054652e-17
5.23673863e-17
5.54800808e-17
5.56079705e-17
5.61275967e-17
5.62890165e-17
6.02590328e-17
6.23259632e-17
6.35666513e-17
6.5268324e-17
6.55176642e-17
6.36558743e-17
6.42795801e-17
6.77787472e-17
6.65116168e-17
6.8315462e-17
6.97324544e-17
7.19539511e-17
7.22506185e-17
7.24758166e-17
7.0251596e-17
6.71861229e-17
6.53103297e-17
7.13227904e-17
6.87288279e-17
6.9921784e-17
6.89247792e-17
7.09666083e-17
6.59224599e-17
6.68616779e-17
6.8590923e-17
6.942543e-17
7.10222879e-17
6.96737179e-17
6.87881949e-17
6.72907011e-17
6.64776368e-17
6.48530506e-17
6.33636839e-17
6.38292529e-17
6.25199294e-17
5.83097907e-17
6.02180114e-17
6.22176784e-17
5.9340484e-17
6.09597512e-17
6.13759217e-17
5.7955636e-17
6.08061156e-17
6.14234407e-17
6.05302036e-17
5.66355981e-17
5.47390881e-17
5.29510706e-17
5.30442412e-17
5.42332719e-17
5.34449415e-17
5.21246526e-17
5.17094124e-17
4.98860102e-17
4.90856283e-17
4.94260734e-17
4.82913444e-17
4.66526551e-17
4.53089037e-17
4.55468933e-17
4.25202977e-17
4.42701597e-17
4.10174312e-17
3.93550799e-17
3.8602095e-17
3.84468179e-17
3.70754353e-17
3.67541734e-17
3.55513616e-17
3.53534065e-17
3.56535096e-17
3.81331958e-17
3.78142225e-17
3.45500042e-17
3.14706548e-17
3.11937716e-17
2.80068077e-17
2.97230166e-17
2.73991807e-17
2.7838099e-17
2.58419794e-17
2.61374905e-17
2.62423512e-17
2.41282293e-17
2.23130167e-17
2.17405507e-17
2.16838081e-17
1.86317705e-17
1.59834422e-17
1.62843868e-17
1.60085006e-17
1.51547695e-17
1.30655239e-17
1.51099313e-17
1.43237927e-17
1.5682913e-17
1.49319864e-17
1.68582434e-17
1.94692653e-17
1.86410016e-17
1.70256612e-17
1.90058887e-17
2.22903459e-17
1.99008029e-17
1.57055105e-17
1.58866913e-17
1.34815699e-17
1.43288807e-17
1.26866188e-17
1.22127124e-17
1.34805865e-17
1.21260794e-17
9.0219921e-18
1.28781182e-17
1.37920541e-17
1.42057032e-17
1.24325169e-17
1.0759075e-17
8.19581892e-18
7.48885567e-18
5.41217972e-18
5.81002834e-18
3.70334853e-18
2.18014775e-18
3.34471003e-18
3.95151133e-18
2.42533473e-18
8.79437803e-20
-8.08885675e-19
-1.54076385e-18
-3.3214979e-18
-3.52721917e-18
-8.72835659e-18
-3.36017999e-18
-4.09445229e-18
-8.37787837e-18
-8.20615394e-18
-9.62124769e-18
-1.1656263e-17
-1.02362223e-17
-1.23078829e-17
-9.50641413e-18
-1.24888584e-17
-1.39088609e-17
-1.28230611e-17
-1.5828463e-17
-1.51969291e-17
-1.40743687e-17
-1.90019513e-17
-1.72372064e-17
-1.66945575e-17
-1.64386862e-17
-1.87286855e-17
-1.92765379e-17
-1.72439485e-17
-1.95791283e-17
-2.57753393e-17
-2.43187878e-17
-2.42029373e-17
-2.37496997e-17
-2.32410775e-17
-2.49702725e-17
-2.51954911e-17
-2.61989809e-17
-2.56954046e-17
-2.76624974e-17
-2.66947117e-17
-2.80080202e-17
-2.93720407e-17
-3.28356588e-17
-3.05094365e-17
-2.89751104e-17
-3.23174326e-17
-2.98973519e-17
-3.43099631e-17
-3.35889811e-17
-3.37472113e-17
-3.55580873e-17
-3.84903542e-17
-3.70836573e-17
-3.60321935e-17
-3.51282459e-17
-3.41683551e-17
-3.4000607e-17
-3.56619211e-17
-3.60176367e-17
-3.71899016e-17
-3.76217103e-17
-3.99478383e-17
-4.08591116e-17
-4.01895333e-17
-3.910748e-17
-3.75063286e-17
-3.63002161e-17
-3.73342077e-17
-3.70981471e-17
-3.73611612e-17
-3.66960834e-17
-3.8239136e-17
-3.5285102e-17
-3.65734538e-17
-3.4727345e-17
-3.62937809e-17
-4.074424e-17
-4.37097216e-17
-4.56797505e-17
-4.43622928e-17
-4.72074852e-17
-4.82598373e-17
-5.09917901e-17
-5.36740638e-17
-5.14962765e-17
-5.41199711e-17
-5.51808243e-17
-5.62179583e-17
-5.42936519e-17
-5.53672289e-17
-5.29152919e-17
-5.48729008e-17
-5.75012812e-17
-5.68412275e-17
-5.46489681e-17
-5.78924851e-17
-5.6568839e-17
-5.54793586e-17
-6.11048495e-17
-6.3361054e-17
-6.07581621e-17
-6.38217327e-17
-6.33037647e-17
-6.18348308e-17
-6.2496814e-17
-6.25427417e-17
-6.15035125e-17
-5.84455968e-17
-5.95326093e-17
-6.06530072e-17
-6.28321356e-17
-6.28854278e-17
-6.711922e-17
-6.25668082e-17
-6.36632165e-17
-6.42914528e-17
-6.39152837e-17
-6.13274962e-17
-6.37809084e-17
-6.28222185e-17
-6.31022393e-17
-6.15075587e-17
-6.1809782e-17
-6.3301853e-17
-6.45755733e-17
-6.47271175e-17
-6.41650293e-17
-6.44813401e-17
-6.38589381e-17
-6.09077811e-17
-6.41670089e-17
-6.86994738e-17
-6.60403604e-17
-6.73426348e-17
-6.4934712e-17
-6.56580429e-17
-6.63493483e-17
-6.45354026e-17
-6.59325218e-17
-6.2966953e-17
-6.4247877e-17
-6.25616135e-17
-6.35850727e-17
-6.34784631e-17
-6.37538316e-17
-6.32301583e-17
-6.02251444e-17
-5.99024845e-17
-5.70445591e-17
-5.673857e-17
-5.48486725e-17
-5.77903151e-17
-5.93067351e-17
-5.8810548e-17
-5.73832657e-17
-6.10279241e-17
-6.26692251e-17
-6.11967402e-17
-6.3181369e-17
-6.18571036e-17
-6.01474675e-17
-6.0159205e-17
-6.08997988e-17
-6.11443895e-17
-6.30888562e-17
-6.18503239e-17
-6.1571092e-17
-6.20512854e-17
-6.34311662e-17
-6.17462694e-17
-6.52975624e-17
-6.58388417e-17
-6.66314431e-17
-6.68322986e-17
-6.4326348e-17
-6.59392795e-17
-6.27509645e-17
-6.32284711e-17
-6.60265366e-17
-6.7241435e-17
-6.60274869e-17
-7.15919499e-17
-6.94111273e-17
-7.15617535e-17
-7.44827963e-17
-7.19589539e-17
-7.18378562e-17
-7.24865747e-17
-7.13127965e-17
-7.27369249e-17
-7.33201369e-17
-7.44900171e-17
-7.46730787e-17
-7.10125728e-17
-7.31856625e-17
-7.54499065e-17
-7.68411045e-17
-7.45915247e-17
-7.26870848e-17
-7.35033772e-17
-7.50258666e-17
-7.3547047e-17
-7.54609286e-17
-7.44234812e-17
-7.66008615e-17
-7.54589436e-17
-7.79184684e-17
-7.66691372e-17
-7.73027736e-17
-7.87017382e-17
-7.64127679e-17
-7.54192473e-17
-7.61356795e-17
-7.61433268e-17
-7.62036018e-17
-7.49678054e-17
-7.71635158e-17
-7.52073211e-17
-7.81039274e-17
-7.49542745e-17
-7.62188636e-17
-7.71741304e-17
-7.30973398e-17
-7.50690386e-17
-7.94782883e-17
-7.9621455e-17
-8.17694626e-17
-8.12966255e-17
-8.01288073e-17
-7.7902671e-17
-7.91152904e-17
-7.8839443e-17
-7.4236349e-17
-7.69610684e-17
-7.76772496e-17
-7.2062232e-17
-7.59116231e-17
-7.58824633e-17
-7.78049692e-17
-7.76395092e-17
-7.68769282e-17
-7.7726524e-17
-7.70161143e-17
-7.81757473e-17
-7.52769269e-17
-7.36247871e-17
-7.44402814e-17
-7.00883782e-17
-7.33563816e-17
-7.37071233e-17
-7.3651823e-17
-7.34908829e-17
-7.36819858e-17
-7.44203586e-17
-7.576566e-17
-7.12051638e-17
-7.01578561e-17
-6.77439151e-17
-6.78474604e-17
-6.78361489e-17
-6.68028358e-17
-6.90971882e-17
-6.71693266e-17
-6.77305602e-17
-6.64685387e-17
-6.69165769e-17
-6.53137417e-17
-6.40794783e-17
-6.67169983e-17
-6.56989117e-17
-6.251818e-17
-6.10587409e-17
-6.17627815e-17
-6.21652246e-17
-6.06934308e-17
-6.1542199e-17
-6.08672038e-17
-5.89041377e-17
-6.08687521e-17
-6.11592166e-17
-5.75524891e-17
-5.66445497e-17
-5.67307326e-17
-5.60449538e-17
-5.71214128e-17
-5.71706416e-17
-5.54844545e-17
-5.60503769e-17
-5.37984301e-17
-5.39843181e-17
-5.57479061e-17
-5.57781949e-17
-5.7769504e-17
-5.69676759e-17
-5.64265188e-17
-5.53619384e-17
-5.59462235e-17
-5.90228481e-17
-5.69647728e-17
-5.27150766e-17
-5.42728955e-17
-5.51365069e-17
-5.6934971e-17
-5.45825415e-17
-5.51757623e-17
-5.26661053e-17
-5.14088165e-17
-5.46552601e-17
-5.78374015e-17
-5.57929722e-17
-5.56214089e-17
-5.42839339e-17
-5.43649368e-17
-5.26710762e-17
-4.76116585e-17
-4.71670899e-17
-4.76336571e-17
-4.80348834e-17
-4.86999661e-17
-4.52403162e-17
-4.84984119e-17
-4.80953804e-17
-4.23045643e-17
-4.69369142e-17
-4.91890078e-17
-5.11370134e-17
-5.13594319e-17
-5.23983652e-17
-5.20538589e-17
-4.95649939e-17
-5.02909795e-17
-5.03891888e-17
-4.98970886e-17
-4.78193947e-17
-4.93693667e-17
-5.07716602e-17
-4.70828678e-17
-4.60240388e-17
-4.72565127e-17
-4.96481144e-17
-4.96041136e-17
-5.00376752e-17
-4.82662439e-17
-4.8457765e-17
-4.72201894e-17
-4.43438769e-17
-4.31037952e-17
-4.26699361e-17
-4.11507908e-17
-4.00892851e-17
-4.10959051e-17
-4.0341127e-17
-3.8818901e-17
-3.57355787e-17
-3.77548963e-17
-4.01351437e-17
-3.55582232e-17
-3.63320165e-17
-3.60750325e-17
-3.5202205e-17
-3.56507703e-17
-3.48960746e-17
-3.48991699e-17
-3.64627831e-17
-3.20654809e-17
-2.91564485e-17
-2.9122218e-17
-3.14313553e-17
-3.41815156e-17
-3.51969745e-17
-3.30810601e-17
-3.47137879e-17
-3.5711979e-17
-3.07954459e-17
-3.08230114e-17
-3.24211152e-17
-3.46165671e-17
-3.55751052e-17
-3.51913689e-17
-3.51441692e-17
-3.26073876e-17
-3.37475865e-17
-3.55397234e-17
-3.29271525e-17
-3.6012256e-17
-3.57085954e-17
-3.30122653e-17
-3.18522857e-17
-3.46177794e-17
-2.93349164e-17
-3.10327907e-17
-3.12474935e-17
-3.45991499e-17
-3.55112225e-17
-3.11170644e-17
-3.21694942e-17
-3.26231892e-17
-3.37652371e-17
-3.21487178e-17
-3.09405716e-17
-3.0337166e-17
-3.0610932e-17
-2.76402434e-17
-2.57347242e-17
-2.68030857e-17
-2.51523873e-17
-2.48651639e-17
-2.63838974e-17
-2.987578e-17
-2.90594362e-17
-2.77077528e-17
-2.43039795e-17
-2.48949546e-17
-2.59868151e-17
-2.46773846e-17
-2.2839273e-17
-1.89523702e-17
-1.97011275e-17
-1.8133373e-17
-1.54837113e-17
-1.3974342e-17
-1.57299092e-17
-1.67102036e-17
-1.43692142e-17
-1.82324078e-17
-1.81825052e-17
-1.6331631e-17
-1.37859589e-17
-1.42784944e-17
-1.27895673e-17
-1.3486981e-17
-1.36294859e-17
-1.30396624e-17
-1.02886947e-17
-6.57458078e-18
-1.29648689e-18
-9.07138817e-19
2.78093602e-18
3.69656577e-18
8.57227661e-18
9.10463388e-18
1.0472582e-17
1.24930121e-17
1.72791273e-17
1.89483511e-17
2.453446e-17
2.8626379e-17
3.34896422e-17
3.15161986e-17
3.61369979e-17
3.79637443e-17
4.32154742e-17
5.07502399e-17
5.53935724e-17
6.18760244e-17
6.4897309e-17
7.29571012e-17
8.07530149e-17
8.7565451e-17
9.05173798e-17
9.95536567e-17
1.04369256e-16
1.09531951e-16
1.19231215e-16
1.28746829e-16
1.3869397e-16
1.5229215e-16
1.60868178e-16
1.74350311e-16
1.90623294e-16
2.07217749e-16
2.20050121e-16
2.40616055e-16
2.58740813e-16
2.77292668e-16
3.03838359e-16
3.27439175e-16
3.54593192e-16
3.8204004e-16
4.09096328e-16
4.4370695e-16
4.79795631e-16
5.17018825e-16
5.55561416e-16
5.97440955e-16
6.40881953e-16
6.87637193e-16
7.37553178e-16
7.94400975e-16
8.53122369e-16
9.16398851e-16
9.87122206e-16
1.05809213e-15
1.13679368e-15
1.21873752e-15
1.31088061e-15
1.40724099e-15
1.50789797e-15
1.62108998e-15
1.74061264e-15
1.86707184e-15
2.00510575e-15
2.15006945e-15
2.30974737e-15
2.47789656e-15
2.65709816e-15
2.85024362e-15
3.05534832e-15
3.27193135e-15
3.50779303e-15
3.76136365e-15
4.03252948e-15
4.32214033e-15
4.63329963e-15
4.96602771e-15
5.32637552e-15
5.70678409e-15
6.11797335e-15
6.55381445e-15
7.02455605e-15
7.52242157e-15
8.0600991e-15
8.63083101e-15
9.24301256e-15
9.90386027e-15
1.06047724e-14
1.13584251e-14
1.21616889e-14
1.30237953e-14
1.39409968e-14
1.49235327e-14
1.59705178e-14
1.70898942e-14
1.82895043e-14
1.95662939e-14
2.09356827e-14
2.23948445e-14
2.39572632e-14
2.5625828e-14
2.74093577e-14
2.93114294e-14
3.1344801e-14
3.35145584e-14
3.58371558e-14
3.8315553e-14
4.09608235e-14
4.37779205e-14
4.67891157e-14
5.0002527e-14
5.34309049e-14
5.70880525e-14
6.09928807e-14
6.51594306e-14
6.95994878e-14
7.43374253e-14
7.93894061e-14
8.47711843e-14
9.0517319e-14
9.66410309e-14
1.0316566e-13
1.1012511e-13
1.17539972e-13
1.25444463e-13
1.33863313e-13
1.42840065e-13
1.52400879e-13
1.62579929e-13
1.73427444e-13
1.84983847e-13
1.97282123e-13
2.10385324e-13
2.24334681e-13
2.39181074e-13
2.54986007e-13
2.71811762e-13
2.89714938e-13
3.08765812e-13
3.29040862e-13
3.50610294e-13
3.73555998e-13
3.97963411e-13
4.23923635e-13
4.51527889e-13
4.80883088e-13
5.12094472e-13
5.45274418e-13
5.8054778e-13
6.18036165e-13
6.57877234e-13
7.00215999e-13
7.45199903e-13
7.92996481e-13
8.4376893e-13
8.97694944e-13
9.54969324e-13
1.01579389e-12
1.08037956e-12
1.14895177e-12
1.22174828e-12
1.29901515e-12
1.38102396e-12
1.46805893e-12
1.56040818e-12
1.65839694e-12
1.76234455e-12
1.87260864e-12
1.98956068e-12
2.11359044e-12
2.24511172e-12
2.38455616e-12
2.5323918e-12
2.68909976e-12
2.85519912e-12
3.03122477e-12
3.21774732e-12
3.4153803e-12
3.62475194e-12
3.84653695e-12
4.08144304e-12
4.33022263e-12
4.59365422e-12
4.8725738e-12
5.16785535e-12
5.48042039e-12
5.81124959e-12
6.16135592e-12
6.53182666e-12
6.92379598e-12
7.33846517e-12
7.777093e-12
8.2410067e-12
8.73160586e-12
9.25036744e-12
9.79883636e-12
1.03786435e-11
1.09914999e-11
1.16392231e-11
1.23236961e-11
1.30469301e-11
1.38110191e-11
1.46181666e-11
1.54706996e-11
1.63710549e-11
1.73218083e-11
1.83256361e-11
1.93853792e-11
2.05040115e-11
2.1684657e-11
2.29305878e-11
2.42452708e-11
2.56322997e-11
2.70954791e-11
2.86387928e-11
3.02664177e-11
3.1982746e-11
3.37923751e-11
3.57001353e-11
3.77110854e-11
3.98305319e-11
4.20640378e-11
4.44174481e-11
4.68968576e-11
4.95086766e-11
5.22596235e-11
5.51567214e-11
5.82073311e-11
6.14191705e-11
6.48003053e-11
6.83591931e-11
7.21046746e-11
7.60460147e-11
8.01928869e-11
8.45554399e-11
8.91442623e-11
9.39704436e-11
9.90455728e-11
1.04381769e-10
1.09991698e-10
1.15888604e-10
1.22086311e-10
1.28599277e-10
1.35442592e-10
1.42632024e-10
1.50184036e-10
1.58115811e-10
1.66445296e-10
1.75191208e-10
1.84373091e-10
1.94011321e-10
2.0412716e-10
2.14742785e-10
2.2588131e-10
2.3756684e-10
2.49824498e-10
2.62680467e-10
2.76162029e-10
2.90297598e-10
3.05116778e-10
3.20650397e-10
3.36930539e-10
3.53990619e-10
3.71865408e-10
3.9059108e-10
4.10205283e-10
4.30747172e-10
4.52257465e-10
4.74778501e-10
4.98354296e-10
5.23030595e-10
5.48854938e-10
5.75876712e-10
6.0414722e-10
6.3371975e-10
6.64649611e-10
6.9699424e-10
7.30813248e-10
7.6616848e-10
8.03124112e-10
8.41746704e-10
8.82105278e-10
9.24271417e-10
9.68319293e-10
1.01432581e-09
1.06237062e-09
1.11253627e-09
1.16490823e-09
1.21957501e-09
1.27662824e-09
1.33616277e-09
1.39827674e-09
1.46307168e-09
1.53065263e-09
1.60112817e-09
1.6746106e-09
1.75121597e-09
1.83106421e-09
1.91427924e-09
2.00098904e-09
2.09132578e-09
2.18542591e-09
2.28343027e-09
2.38548421e-09
2.49173767e-09
2.6023453e-09
2.71746658e-09
2.83726591e-09
2.96191274e-09
3.09158166e-09
3.22645253e-09
3.36671059e-09
3.51254653e-09
3.66415668e-09
3.82174304e-09
3.98551345e-09
4.15568167e-09
4.33246749e-09
4.51609686e-09
4.70680197e-09
4.90482139e-09
5.11040014e-09
5.32378984e-09
5.54524876e-09
5.77504195e-09
6.01344135e-09
6.26072586e-09
6.51718146e-09
6.78310128e-09
7.0587857e-09
7.34454244e-09
7.64068663e-09
7.9475409e-09
8.26543544e-09
8.59470808e-09
8.93570436e-09
9.28877759e-09
9.65428888e-09
1.00326072e-08
1.04241096e-08
1.08291808e-08
1.12482136e-08
1.1681609e-08
1.21297759e-08
1.25931312e-08
1.30720998e-08
1.35671148e-08
1.40786172e-08
1.46070561e-08
1.51528884e-08
1.57165792e-08
1.62986013e-08
1.68994353e-08
1.75195697e-08
1.81595004e-08