/*--------------------------------*- C++ -*----------------------------------*\
| =========                 |                                                 |
| \\      /  F ield         | OpenFOAM: The Open Source CFD Toolbox           |
|  \\    /   O peration     | Version:  2206                                  |
|   \\  /    A nd           | Website:  www.openfoam.com                      |
|    \\/     M anipulation  |                                                 |
\*---------------------------------------------------------------------------*/
FoamFile
{
    version     2.0;
    format      ascii;
    arch        "LSB;label=32;scalar=64";
    class       volScalarField;
    location    "1.84e-05";
    object      rho;
}
// * * * * * * * * * * * * * * * * * * * * * * * * * * * * * * * * * * * * * //

dimensions      [1 -3 0 0 0 0 0];

internalField   nonuniform List<scalar> 
3183
(
1.03926466
1.03926466
1.03926466
1.03926466
1.03926466
1.03926466
1.03926466
1.03926466
1.03926466
1.03926466
1.03926466
1.03926466
1.03926466
1.03926466
1.03926466
1.03926466
1.03926466
1.03926466
1.03926466
1.03926466
1.03926466
1.03926466
1.03926466
1.03926466
1.03926466
1.03926466
1.03926466
1.03926466
1.03926466
1.03926466
1.03926466
1.03926466
1.03926466
1.03926466
1.03926466
1.03926466
1.03926466
1.03926466
1.03926466
1.03926466
1.03926466
1.03926466
1.03926466
1.03926466
1.03926466
1.03926466
1.03926466
1.03926466
1.03926466
1.03926466
1.03926466
1.03926466
1.03926466
1.03926466
1.03926466
1.03926466
1.03926466
1.03926466
1.03926466
1.03926466
1.03926466
1.03926466
1.03926466
1.03926466
1.03926466
1.03926466
1.03926466
1.03926466
1.03926466
1.03926466
1.03926466
1.03926466
1.03926466
1.03926466
1.03926466
1.03926466
1.03926466
1.03926466
1.03926466
1.03926466
1.03926466
1.03926466
1.03926466
1.03926466
1.03926466
1.03926466
1.03926466
1.03926466
1.03926466
1.03926466
1.03926466
1.03926466
1.03926466
1.03926466
1.03926466
1.03926466
1.03926466
1.03926466
1.03926466
1.03926466
1.03926466
1.03926466
1.03926466
1.03926466
1.03926466
1.03926466
1.03926466
1.03926466
1.03926466
1.03926466
1.03926466
1.03926466
1.03926466
1.03926466
1.03926466
1.03926466
1.03926466
1.03926466
1.03926466
1.03926466
1.03926466
1.03926466
1.03926466
1.03926466
1.03926466
1.03926466
1.03926466
1.03926466
1.03926466
1.03926466
1.03926466
1.03926466
1.03926466
1.03926466
1.03926466
1.03926466
1.03926466
1.03926466
1.03926466
1.03926466
1.03926466
1.03926466
1.03926466
1.03926466
1.03926466
1.03926466
1.03926466
1.03926466
1.03926466
1.03926466
1.03926466
1.03926466
1.03926466
1.03926466
1.03926466
1.03926466
1.03926466
1.03926466
1.03926466
1.03926466
1.03926466
1.03926466
1.03926466
1.03926466
1.03926466
1.03926466
1.03926466
1.03926466
1.03926466
1.03926466
1.03926466
1.03926466
1.03926466
1.03926466
1.03926466
1.03926466
1.03926466
1.03926466
1.03926466
1.03926466
1.03926466
1.03926466
1.03926466
1.03926466
1.03926466
1.03926466
1.03926466
1.03926466
1.03926466
1.03926466
1.03926466
1.03926466
1.03926466
1.03926466
1.03926466
1.03926466
1.03926466
1.03926466
1.03926466
1.03926466
1.03926466
1.03926466
1.03926466
1.03926466
1.03926466
1.03926466
1.03926466
1.03926466
1.03926466
1.03926466
1.03926466
1.03926466
1.03926466
1.03926466
1.03926466
1.03926466
1.03926466
1.03926466
1.03926466
1.03926466
1.03926466
1.03926466
1.03926466
1.03926466
1.03926466
1.03926466
1.03926466
1.03926466
1.03926466
1.03926466
1.03926466
1.03926466
1.03926466
1.03926466
1.03926466
1.03926466
1.03926466
1.03926466
1.03926466
1.03926466
1.03926466
1.03926466
1.03926466
1.03926466
1.03926466
1.03926466
1.03926466
1.03926466
1.03926466
1.03926466
1.03926466
1.03926466
1.03926466
1.03926466
1.03926466
1.03926466
1.03926466
1.03926466
1.03926466
1.03926466
1.03926466
1.03926466
1.03926466
1.03926466
1.03926466
1.03926466
1.03926466
1.03926466
1.03926466
1.03926466
1.03926466
1.03926466
1.03926466
1.03926466
1.03926466
1.03926466
1.03926466
1.03926466
1.03926466
1.03926466
1.03926466
1.03926466
1.03926466
1.03926466
1.03926466
1.03926466
1.03926466
1.03926466
1.03926466
1.03926466
1.03926466
1.03926466
1.03926466
1.03926466
1.03926466
1.03926466
1.03926466
1.03926466
1.03926466
1.03926466
1.03926466
1.03926466
1.03926466
1.03926466
1.03926466
1.03926466
1.03926466
1.03926466
1.03926466
1.03926466
1.03926466
1.03926466
1.03926466
1.03926466
1.03926466
1.03926466
1.03926466
1.03926466
1.03926466
1.03926466
1.03926466
1.03926466
1.03926466
1.03926466
1.03926466
1.03926466
1.03926466
1.03926466
1.03926466
1.03926466
1.03926466
1.03926466
1.03926466
1.03926466
1.03926466
1.03926466
1.03926466
1.03926466
1.03926466
1.03926466
1.03926466
1.03926466
1.03926466
1.03926466
1.03926466
1.03926466
1.03926466
1.03926466
1.03926466
1.03926466
1.03926466
1.03926466
1.03926466
1.03926466
1.03926466
1.03926466
1.03926466
1.03926466
1.03926466
1.03926466
1.03926466
1.03926466
1.03926466
1.03926466
1.03926466
1.03926466
1.03926466
1.03926466
1.03926466
1.03926466
1.03926466
1.03926466
1.03926466
1.03926466
1.03926466
1.03926466
1.03926466
1.03926466
1.03926466
1.03926466
1.03926466
1.03926466
1.03926466
1.03926466
1.03926466
1.03926466
1.03926466
1.03926466
1.03926466
1.03926466
1.03926466
1.03926466
1.03926466
1.03926466
1.03926466
1.03926466
1.03926466
1.03926466
1.03926466
1.03926466
1.03926466
1.03926466
1.03926466
1.03926466
1.03926466
1.03926466
1.03926466
1.03926466
1.03926466
1.03926466
1.03926466
1.03926466
1.03926466
1.03926466
1.03926466
1.03926466
1.03926466
1.03926466
1.03926466
1.03926466
1.03926466
1.03926466
1.03926466
1.03926466
1.03926466
1.03926466
1.03926466
1.03926466
1.03926466
1.03926466
1.03926466
1.03926466
1.03926466
1.03926466
1.03926466
1.03926466
1.03926466
1.03926466
1.03926466
1.03926466
1.03926466
1.03926466
1.03926466
1.03926466
1.03926466
1.03926466
1.03926466
1.03926466
1.03926466
1.03926466
1.03926466
1.03926466
1.03926466
1.03926466
1.03926466
1.03926466
1.03926466
1.03926466
1.03926466
1.03926466
1.03926466
1.03926466
1.03926466
1.03926466
1.03926466
1.03926466
1.03926466
1.03926466
1.03926466
1.03926466
1.03926466
1.03926466
1.03926466
1.03926466
1.03926466
1.03926466
1.03926466
1.03926466
1.03926466
1.03926466
1.03926466
1.03926466
1.03926466
1.03926466
1.03926466
1.03926466
1.03926466
1.03926466
1.03926466
1.03926466
1.03926466
1.03926466
1.03926466
1.03926466
1.03926466
1.03926466
1.03926466
1.03926466
1.03926466
1.03926466
1.03926466
1.03926466
1.03926466
1.03926466
1.03926466
1.03926466
1.03926466
1.03926466
1.03926466
1.03926466
1.03926466
1.03926466
1.03926466
1.03926466
1.03926466
1.03926466
1.03926466
1.03926466
1.03926466
1.03926466
1.03926466
1.03926466
1.03926466
1.03926466
1.03926466
1.03926466
1.03926466
1.03926466
1.03926466
1.03926466
1.03926466
1.03926466
1.03926466
1.03926466
1.03926466
1.03926466
1.03926466
1.03926466
1.03926466
1.03926466
1.03926466
1.03926466
1.03926466
1.03926466
1.03926466
1.03926466
1.03926466
1.03926466
1.03926466
1.03926466
1.03926466
1.03926466
1.03926466
1.03926466
1.03926466
1.03926466
1.03926466
1.03926466
1.03926466
1.03926466
1.03926466
1.03926466
1.03926466
1.03926466
1.03926466
1.03926466
1.03926466
1.03926466
1.03926466
1.03926466
1.03926466
1.03926466
1.03926466
1.03926466
1.03926466
1.03926466
1.03926466
1.03926466
1.03926466
1.03926466
1.03926466
1.03926466
1.03926466
1.03926466
1.03926466
1.03926466
1.03926466
1.03926466
1.03926466
1.03926466
1.03926466
1.03926466
1.03926466
1.03926466
1.03926466
1.03926466
1.03926466
1.03926466
1.03926466
1.03926466
1.03926466
1.03926466
1.03926466
1.03926466
1.03926466
1.03926466
1.03926466
1.03926466
1.03926466
1.03926466
1.03926466
1.03926466
1.03926466
1.03926466
1.03926466
1.03926466
1.03926466
1.03926466
1.03926466
1.03926466
1.03926466
1.03926466
1.03926466
1.03926466
1.03926466
1.03926466
1.03926466
1.03926466
1.03926466
1.03926466
1.03926466
1.03926466
1.03926466
1.03926466
1.03926466
1.03926466
1.03926466
1.03926466
1.03926466
1.03926466
1.03926466
1.03926466
1.03926466
1.03926466
1.03926466
1.03926466
1.03926466
1.03926466
1.03926466
1.03926466
1.03926466
1.03926466
1.03926466
1.03926466
1.03926466
1.03926466
1.03926466
1.03926466
1.03926466
1.03926466
1.03926466
1.03926466
1.03926466
1.03926466
1.03926466
1.03926466
1.03926466
1.03926466
1.03926466
1.03926466
1.03926466
1.03926466
1.03926466
1.03926466
1.03926466
1.03926466
1.03926466
1.03926466
1.03926466
1.03926466
1.03926466
1.03926466
1.03926466
1.03926466
1.03926466
1.03926466
1.03926466
1.03926466
1.03926466
1.03926466
1.03926466
1.03926466
1.03926466
1.03926466
1.03926466
1.03926466
1.03926466
1.03926466
1.03926466
1.03926466
1.03926466
1.03926466
1.03926466
1.03926466
1.03926466
1.03926466
1.03926466
1.03926466
1.03926466
1.03926466
1.03926466
1.03926466
1.03926466
1.03926466
1.03926466
1.03926466
1.03926466
1.03926466
1.03926466
1.03926466
1.03926466
1.03926466
1.03926466
1.03926466
1.03926466
1.03926466
1.03926466
1.03926466
1.03926466
1.03926466
1.03926466
1.03926466
1.03926466
1.03926466
1.03926466
1.03926466
1.03926466
1.03926466
1.03926466
1.03926466
1.03926466
1.03926466
1.03926466
1.03926466
1.03926466
1.03926466
1.03926466
1.03926466
1.03926466
1.03926466
1.03926466
1.03926466
1.03926466
1.03926466
1.03926466
1.03926466
1.03926466
1.03926466
1.03926466
1.03926466
1.03926466
1.03926466
1.03926466
1.03926466
1.03926466
1.03926466
1.03926466
1.03926466
1.03926466
1.03926466
1.03926466
1.03926466
1.03926466
1.03926466
1.03926466
1.03926466
1.03926466
1.03926466
1.03926466
1.03926466
1.03926466
1.03926466
1.03926466
1.03926466
1.03926466
1.03926466
1.03926466
1.03926466
1.03926466
1.03926466
1.03926466
1.03926466
1.03926466
1.03926466
1.03926466
1.03926466
1.03926466
1.03926466
1.03926466
1.03926466
1.03926466
1.03926466
1.03926466
1.03926466
1.03926466
1.03926466
1.03926466
1.03926466
1.03926466
1.03926466
1.03926466
1.03926466
1.03926466
1.03926466
1.03926466
1.03926466
1.03926466
1.03926466
1.03926466
1.03926466
1.03926466
1.03926466
1.03926466
1.03926466
1.03926466
1.03926466
1.03926466
1.03926466
1.03926466
1.03926466
1.03926466
1.03926466
1.03926466
1.03926466
1.03926466
1.03926466
1.03926466
1.03926466
1.03926466
1.03926466
1.03926466
1.03926466
1.03926466
1.03926466
1.03926466
1.03926466
1.03926466
1.03926466
1.03926466
1.03926466
1.03926466
1.03926466
1.03926466
1.03926466
1.03926466
1.03926466
1.03926466
1.03926466
1.03926466
1.03926466
1.03926466
1.03926466
1.03926466
1.03926466
1.03926466
1.03926466
1.03926466
1.03926466
1.03926466
1.03926466
1.03926466
1.03926466
1.03926466
1.03926466
1.03926466
1.03926466
1.03926466
1.03926466
1.03926466
1.03926466
1.03926466
1.03926466
1.03926466
1.03926466
1.03926466
1.03926466
1.03926466
1.03926466
1.03926466
1.03926466
1.03926466
1.03926466
1.03926466
1.03926466
1.03926466
1.03926466
1.03926466
1.03926466
1.03926466
1.03926466
1.03926466
1.03926466
1.03926466
1.03926466
1.03926466
1.03926466
1.03926466
1.03926466
1.03926466
1.03926466
1.03926466
1.03926466
1.03926466
1.03926466
1.03926466
1.03926466
1.03926466
1.03926466
1.03926466
1.03926466
1.03926466
1.03926466
1.03926466
1.03926466
1.03926466
1.03926466
1.03926466
1.03926466
1.03926466
1.03926466
1.03926466
1.03926466
1.03926466
1.03926466
1.03926466
1.03926466
1.03926466
1.03926466
1.03926466
1.03926466
1.03926466
1.03926466
1.03926466
1.03926466
1.03926466
1.03926466
1.03926466
1.03926466
1.03926466
1.03926466
1.03926466
1.03926466
1.03926466
1.03926466
1.03926466
1.03926466
1.03926466
1.03926466
1.03926466
1.03926466
1.03926466
1.03926466
1.03926466
1.03926466
1.03926466
1.03926466
1.03926466
1.03926466
1.03926466
1.03926466
1.03926466
1.03926466
1.03926466
1.03926466
1.03926466
1.03926466
1.03926466
1.03926466
1.03926466
1.03926466
1.03926466
1.03926466
1.03926466
1.03926466
1.03926466
1.03926466
1.03926466
1.03926466
1.03926466
1.03926466
1.03926466
1.03926466
1.03926466
1.03926466
1.03926466
1.03926466
1.03926466
1.03926466
1.03926466
1.03926466
1.03926466
1.03926466
1.03926466
1.03926466
1.03926466
1.03926466
1.03926466
1.03926466
1.03926466
1.03926466
1.03926466
1.03926466
1.03926466
1.03926466
1.03926466
1.03926466
1.03926466
1.03926466
1.03926466
1.03926466
1.03926466
1.03926466
1.03926466
1.03926466
1.03926466
1.03926466
1.03926466
1.03926466
1.03926466
1.03926466
1.03926466
1.03926466
1.03926466
1.03926466
1.03926466
1.03926466
1.03926466
1.03926466
1.03926466
1.03926466
1.03926466
1.03926466
1.03926466
1.03926466
1.03926466
1.03926466
1.03926466
1.03926466
1.03926466
1.03926466
1.03926466
1.03926466
1.03926466
1.03926466
1.03926466
1.03926466
1.03926466
1.03926466
1.03926466
1.03926466
1.03926466
1.03926466
1.03926466
1.03926466
1.03926466
1.03926466
1.03926466
1.03926466
1.03926466
1.03926466
1.03926466
1.03926466
1.03926466
1.03926466
1.03926466
1.03926466
1.03926466
1.03926466
1.03926466
1.03926466
1.03926466
1.03926466
1.03926466
1.03926466
1.03926466
1.03926466
1.03926466
1.03926466
1.03926466
1.03926466
1.03926466
1.03926466
1.03926466
1.03926466
1.03926466
1.03926466
1.03926466
1.03926466
1.03926466
1.03926466
1.03926466
1.03926466
1.03926466
1.03926466
1.03926466
1.03926466
1.03926466
1.03926466
1.03926466
1.03926466
1.03926466
1.03926466
1.03926466
1.03926466
1.03926466
1.03926466
1.03926466
1.03926466
1.03926466
1.03926466
1.03926466
1.03926466
1.03926466
1.03926466
1.03926466
1.03926466
1.03926466
1.03926466
1.03926466
1.03926466
1.03926466
1.03926466
1.03926466
1.03926466
1.03926466
1.03926466
1.03926466
1.03926466
1.03926466
1.03926466
1.03926466
1.03926466
1.03926466
1.03926466
1.03926466
1.03926466
1.03926466
1.03926466
1.03926466
1.03926466
1.03926466
1.03926466
1.03926466
1.03926466
1.03926466
1.03926466
1.03926466
1.03926466
1.03926466
1.03926466
1.03926466
1.03926466
1.03926466
1.03926466
1.03926466
1.03926466
1.03926466
1.03926466
1.03926466
1.03926466
1.03926466
1.03926466
1.03926466
1.03926466
1.03926466
1.03926466
1.03926466
1.03926466
1.03926466
1.03926466
1.03926466
1.03926466
1.03926466
1.03926466
1.03926466
1.03926466
1.03926466
1.03926466
1.03926466
1.03926466
1.03926466
1.03926466
1.03926466
1.03926466
1.03926466
1.03926466
1.03926466
1.03926466
1.03926466
1.03926466
1.03926466
1.03926466
1.03926466
1.03926466
1.03926466
1.03926466
1.03926466
1.03926466
1.03926466
1.03926466
1.03926466
1.03926466
1.03926466
1.03926466
1.03926466
1.03926466
1.03926466
1.03926466
1.03926466
1.03926466
1.03926466
1.03926466
1.03926466
1.03926466
1.03926466
1.03926466
1.03926466
1.03926466
1.03926466
1.03926466
1.03926466
1.03926466
1.03926466
1.03926466
1.03926466
1.03926466
1.03926466
1.03926466
1.03926466
1.03926466
1.03926466
1.03926466
1.03926466
1.03926466
1.03926466
1.03926466
1.03926466
1.03926466
1.03926466
1.03926466
1.03926466
1.03926466
1.03926466
1.03926466
1.03926466
1.03926466
1.03926466
1.03926466
1.03926466
1.03926466
1.03926466
1.03926466
1.03926466
1.03926466
1.03926466
1.03926466
1.03926466
1.03926466
1.03926466
1.03926466
1.03926466
1.03926466
1.03926466
1.03926466
1.03926466
1.03926466
1.03926466
1.03926466
1.03926466
1.03926466
1.03926466
1.03926466
1.03926466
1.03926466
1.03926466
1.03926466
1.03926466
1.03926466
1.03926466
1.03926466
1.03926466
1.03926466
1.03926466
1.03926466
1.03926466
1.03926466
1.03926466
1.03926466
1.03926466
1.03926466
1.03926466
1.03926466
1.03926466
1.03926466
1.03926466
1.03926466
1.03926466
1.03926466
1.03926466
1.03926466
1.03926466
1.03926466
1.03926466
1.03926466
1.03926466
1.03926466
1.03926466
1.03926466
1.03926466
1.03926466
1.03926466
1.03926466
1.03926466
1.03926466
1.03926466
1.03926466
1.03926466
1.03926466
1.03926466
1.03926466
1.03926466
1.03926466
1.03926466
1.03926466
1.03926466
1.03926466
1.03926466
1.03926466
1.03926466
1.03926466
1.03926466
1.03926466
1.03926466
1.03926466
1.03926466
1.03926466
1.03926466
1.03926466
1.03926466
1.03926466
1.03926466
1.03926466
1.03926466
1.03926466
1.03926466
1.03926466
1.03926466
1.03926466
1.03926466
1.03926466
1.03926466
1.03926466
1.03926466
1.03926466
1.03926466
1.03926466
1.03926466
1.03926466
1.03926466
1.03926466
1.03926466
1.03926466
1.03926466
1.03926466
1.03926466
1.03926466
1.03926466
1.03926466
1.03926466
1.03926466
1.03926466
1.03926466
1.03926466
1.03926466
1.03926466
1.03926466
1.03926466
1.03926466
1.03926466
1.03926466
1.03926466
1.03926466
1.03926466
1.03926466
1.03926466
1.03926466
1.03926466
1.03926466
1.03926466
1.03926466
1.03926466
1.03926466
1.03926466
1.03926466
1.03926466
1.03926466
1.03926466
1.03926466
1.03926466
1.03926466
1.03926466
1.03926466
1.03926466
1.03926466
1.03926466
1.03926466
1.03926466
1.03926466
1.03926466
1.03926466
1.03926466
1.03926466
1.03926466
1.03926466
1.03926466
1.03926466
1.03926466
1.03926466
1.03926466
1.03926466
1.03926466
1.03926466
1.03926466
1.03926466
1.03926466
1.03926466
1.03926466
1.03926466
1.03926466
1.03926466
1.03926466
1.03926466
1.03926466
1.03926466
1.03926466
1.03926466
1.03926466
1.03926466
1.03926466
1.03926466
1.03926466
1.03926466
1.03926466
1.03926466
1.03926466
1.03926466
1.03926466
1.03926466
1.03926466
1.03926466
1.03926466
1.03926466
1.03926466
1.03926466
1.03926466
1.03926466
1.03926466
1.03926466
1.03926466
1.03926466
1.03926466
1.03926466
1.03926466
1.03926466
1.03926466
1.03926466
1.03926466
1.03926466
1.03926466
1.03926466
1.03926466
1.03926466
1.03926466
1.03926466
1.03926466
1.03926466
1.03926466
1.03926466
1.03926466
1.03926466
1.03926466
1.03926466
1.03926466
1.03926466
1.03926466
1.03926466
1.03926466
1.03926466
1.03926466
1.03926466
1.03926466
1.03926466
1.03926466
1.03926466
1.03926466
1.03926466
1.03926466
1.03926466
1.03926466
1.03926466
1.03926466
1.03926466
1.03926466
1.03926466
1.03926466
1.03926466
1.03926466
1.03926466
1.03926466
1.03926466
1.03926466
1.03926466
1.03926466
1.03926466
1.03926466
1.03926466
1.03926466
1.03926466
1.03926466
1.03926466
1.03926466
1.03926466
1.03926466
1.03926466
1.03926466
1.03926466
1.03926466
1.03926466
1.03926466
1.03926466
1.03926466
1.03926466
1.03926466
1.03926466
1.03926466
1.03926466
1.03926466
1.03926466
1.03926466
1.03926466
1.03926466
1.03926466
1.03926466
1.03926466
1.03926466
1.03926466
1.03926466
1.03926466
1.03926466
1.03926466
1.03926466
1.03926466
1.03926466
1.03926466
1.03926466
1.03926466
1.03926466
1.03926466
1.03926466
1.03926466
1.03926466
1.03926466
1.03926466
1.03926466
1.03926466
1.03926466
1.03926466
1.03926466
1.03926466
1.03926466
1.03926466
1.03926466
1.03926466
1.03926466
1.03926466
1.03926466
1.03926466
1.03926466
1.03926466
1.03926466
1.03926466
1.03926466
1.03926466
1.03926466
1.03926466
1.03926466
1.03926466
1.03926466
1.03926466
1.03926466
1.03926466
1.03926466
1.03926466
1.03926466
1.03926466
1.03926466
1.03926466
1.03926466
1.03926466
1.03926466
1.03926466
1.03926466
1.03926466
1.03926466
1.03926466
1.03926466
1.03926466
1.03926466
1.03926466
1.03926466
1.03926466
1.03926466
1.03926466
1.03926466
1.03926466
1.03926466
1.03926466
1.03926466
1.03926466
1.03926466
1.03926466
1.03926466
1.03926466
1.03926466
1.03926466
1.03926466
1.03926466
1.03926466
1.03926466
1.03926466
1.03926466
1.03926466
1.03926466
1.03926466
1.03926466
1.03926466
1.03926466
1.03926466
1.03926466
1.03926466
1.03926466
1.03926466
1.03926466
1.03926466
1.03926466
1.03926466
1.03926466
1.03926466
1.03926466
1.03926466
1.03926466
1.03926466
1.03926466
1.03926466
1.03926466
1.03926466
1.03926466
1.03926466
1.03926466
1.03926466
1.03926466
1.03926466
1.03926466
1.03926466
1.03926466
1.03926466
1.03926466
1.03926466
1.03926466
1.03926466
1.03926466
1.03926466
1.03926466
1.03926466
1.03926466
1.03926466
1.03926466
1.03926466
1.03926466
1.03926466
1.03926466
1.03926466
1.03926466
1.03926466
1.03926466
1.03926466
1.03926466
1.03926466
1.03926466
1.03926466
1.03926466
1.03926466
1.03926466
1.03926466
1.03926466
1.03926466
1.03926466
1.03926466
1.03926466
1.03926466
1.03926466
1.03926466
1.03926466
1.03926466
1.03926466
1.03926466
1.03926466
1.03926466
1.03926466
1.03926466
1.03926466
1.03926466
1.03926466
1.03926466
1.03926466
1.03926466
1.03926466
1.03926466
1.03926466
1.03926466
1.03926466
1.03926466
1.03926466
1.03926466
1.03926465
1.03926465
1.03926465
1.03926465
1.03926465
1.03926465
1.03926465
1.03926465
1.03926465
1.03926465
1.03926465
1.03926465
1.03926465
1.03926465
1.03926465
1.03926464
1.03926464
1.03926464
1.03926464
1.03926464
1.03926464
1.03926464
1.03926464
1.03926463
1.03926463
1.03926463
1.03926463
1.03926463
1.03926463
1.03926462
1.03926462
1.03926462
1.03926462
1.03926462
1.03926461
1.03926461
1.03926461
1.0392646
1.0392646
1.0392646
1.03926459
1.03926459
1.03926459
1.03926458
1.03926458
1.03926457
1.03926457
1.03926457
1.03926456
1.03926456
1.03926455
1.03926454
1.03926454
1.03926453
1.03926452
1.03926452
1.03926451
1.0392645
1.03926449
1.03926449
1.03926448
1.03926447
1.03926446
1.03926445
1.03926444
1.03926442
1.03926441
1.0392644
1.03926439
1.03926437
1.03926436
1.03926435
1.03926433
1.03926431
1.0392643
1.03926428
1.03926426
1.03926424
1.03926422
1.0392642
1.03926418
1.03926415
1.03926413
1.03926411
1.03926408
1.03926405
1.03926402
1.03926399
1.03926396
1.03926393
1.0392639
1.03926386
1.03926382
1.03926378
1.03926374
1.0392637
1.03926366
1.03926361
1.03926357
1.03926352
1.03926347
1.03926341
1.03926336
1.0392633
1.03926324
1.03926318
1.03926311
1.03926304
1.03926297
1.0392629
1.03926282
1.03926275
1.03926266
1.03926258
1.03926249
1.0392624
1.0392623
1.0392622
1.0392621
1.03926199
1.03926188
1.03926176
1.03926164
1.03926152
1.03926139
1.03926126
1.03926112
1.03926097
1.03926082
1.03926067
1.03926051
1.03926034
1.03926017
1.03925999
1.03925981
1.03925962
1.03925942
1.03925922
1.03925901
1.03925879
1.03925856
1.03925833
1.03925809
1.03925784
1.03925758
1.03925732
1.03925704
1.03925676
1.03925646
1.03925616
1.03925585
1.03925552
1.03925519
1.03925485
1.03925449
1.03925413
1.03925375
1.03925336
1.03925296
1.03925255
1.03925212
1.03925169
1.03925124
1.03925077
1.03925029
1.0392498
1.0392493
1.03924878
1.03924824
1.03924769
1.03924713
1.03924654
1.03924595
1.03924533
1.0392447
1.03924405
1.03924339
1.03924271
1.03924201
1.03924129
1.03924055
1.03923979
1.03923902
1.03923822
1.03923741
1.03923657
1.03923571
1.03923484
1.03923394
1.03923302
1.03923208
1.03923111
1.03923013
1.03922912
1.03922809
1.03922704
1.03922596
1.03922486
1.03922373
1.03922258
1.03922141
1.03922021
1.03921899
1.03921774
1.03921646
1.03921516
1.03921384
1.03921249
1.03921111
1.03920971
1.03920828
1.03920682
1.03920534
1.03920383
1.0392023
1.03920073
1.03919915
1.03919753
1.03919589
1.03919422
1.03919252
1.0391908
1.03918904
1.03918727
1.03918546
1.03918363
1.03918177
1.03917989
1.03917798
1.03917605
1.03917408
1.0391721
1.03917008
1.03916805
1.03916598
1.0391639
1.03916179
1.03915965
1.03915749
1.03915531
1.03915311
1.03915088
1.03914864
1.03914637
1.03914408
1.03914177
1.03913944
1.03913709
1.03913473
1.03913235
1.03912994
1.03912753
1.0391251
1.03912265
1.03912019
1.03911771
1.03911523
1.03911273
1.03911022
1.0391077
1.03910517
1.03910264
1.03910009
1.03909754
1.03909499
1.03909243
1.03908987
1.0390873
1.03908474
1.03908217
1.03907961
1.03907704
1.03907448
1.03907193
1.03906938
1.03906683
1.03906429
1.03906177
1.03905925
1.03905674
1.03905425
1.03905177
1.0390493
1.03904685
1.03904441
1.039042
1.0390396
1.03903722
1.03903487
1.03903254
1.03903023
1.03902794
1.03902569
1.03902346
1.03902126
1.03901908
1.03901694
1.03901483
1.03901276
1.03901071
1.03900871
1.03900673
1.0390048
1.0390029
1.03900104
1.03899922
1.03899744
1.03899571
1.03899401
1.03899236
1.03899075
1.03898919
1.03898767
1.03898619
1.03898477
1.03898339
1.03898206
1.03898077
1.03897954
1.03897836
1.03897722
1.03897613
1.0389751
1.03897412
1.03897318
1.0389723
1.03897147
1.03897069
1.03896996
1.03896929
1.03896867
1.03896809
1.03896757
1.0389671
1.03896669
1.03896632
1.03896601
1.03896574
1.03896553
1.03896536
1.03896525
1.03896519
1.03896517
1.0389652
1.03896528
1.03896541
1.03896559
1.03896581
1.03896607
1.03896638
1.03896674
1.03896714
1.03896758
1.03896806
1.03896858
1.03896914
1.03896975
1.03897039
1.03897106
1.03897177
1.03897252
1.0389733
1.03897412
1.03897497
1.03897585
1.03897675
1.03897769
1.03897866
1.03897965
1.03898067
1.03898171
1.03898277
1.03898386
1.03898497
1.0389861
1.03898725
1.03898842
1.0389896
1.0389908
1.03899201
1.03899324
1.03899448
1.03899573
1.03899699
1.03899826
1.03899954
1.03900083
1.03900212
1.03900342
1.03900472
1.03900603
1.03900734
1.03900865
1.03900996
1.03901127
1.03901258
1.03901389
1.0390152
1.0390165
1.0390178
1.03901909
1.03902038
1.03902166
1.03902294
1.03902421
1.03902547
1.03902672
1.03902796
1.0390292
1.03903042
1.03903163
1.03903284
1.03903403
1.0390352
1.03903637
1.03903753
1.03903867
1.0390398
1.03904091
1.03904202
1.03904311
1.03904418
1.03904524
1.03904629
1.03904732
1.03904834
1.03904935
1.03905034
1.03905132
1.03905228
1.03905323
1.03905416
1.03905508
1.03905598
1.03905687
1.03905775
1.03905862
1.03905946
1.0390603
1.03906112
1.03906193
1.03906273
1.03906351
1.03906428
1.03906504
1.03906578
1.03906652
1.03906724
1.03906795
1.03906865
1.03906933
1.03907001
1.03907068
1.03907133
1.03907197
1.03907261
1.03907323
1.03907385
1.03907446
1.03907505
1.03907564
1.03907622
1.03907679
1.03907735
1.03907791
1.03907846
1.039079
1.03907953
1.03908006
1.03908058
1.03908109
1.0390816
1.0390821
1.0390826
1.03908309
1.03908357
1.03908405
1.03908452
1.03908499
1.03908546
1.03908592
1.03908637
1.03908682
1.03908727
1.03908771
1.03908815
1.03908858
1.03908901
1.03908944
1.03908986
1.03909028
1.03909069
1.03909111
1.03909152
1.03909192
1.03909232
1.03909272
1.03909312
1.03909351
1.0390939
1.03909429
1.03909467
1.03909505
1.03909543
1.0390958
1.03909617
1.03909654
1.03909691
1.03909727
1.03909763
1.03909798
1.03909833
1.03909868
1.03909903
1.03909937
1.03909971
1.03910005
1.03910038
1.03910071
1.03910104
1.03910136
1.03910168
1.039102
1.03910231
1.03910262
1.03910293
1.03910323
1.03910353
1.03910382
1.03910411
1.0391044
1.03910469
1.03910497
1.03910525
1.03910552
1.03910579
1.03910606
1.03910632
1.03910658
1.03910684
1.03910709
1.03910734
1.03910759
1.03910783
1.03910807
1.03910831
1.03910854
1.03910877
1.039109
1.03910922
1.03910944
1.03910966
1.03910988
1.03911009
1.0391103
1.03911051
1.03911071
1.03911091
1.03911111
1.03911131
1.03911151
1.0391117
1.03911189
1.03911208
1.03911227
1.03911246
1.03911264
1.03911283
1.03911301
1.03911319
1.03911337
1.03911355
1.03911373
1.0391139
1.03911408
1.03911426
1.03911443
1.03911461
1.03911478
1.03911496
1.03911514
1.03911531
1.03911549
1.03911566
1.03911584
1.03911601
1.03911619
1.03911637
1.03911654
1.03911672
1.0391169
1.03911708
1.03911726
1.03911744
1.03911762
1.03911781
1.03911799
1.03911817
1.03911836
1.03911855
1.03911873
1.03911892
1.03911911
1.0391193
1.03911949
1.03911968
1.03911987
1.03912007
1.03912026
1.03912045
1.03912065
1.03912084
1.03912104
1.03912124
1.03912143
1.03912163
1.03912183
1.03912203
1.03912222
1.03912242
1.03912262
1.03912282
1.03912301
1.03912321
1.03912341
1.0391236
1.0391238
1.039124
1.03912419
1.03912438
1.03912458
1.03912477
1.03912496
1.03912515
1.03912534
1.03912553
1.03912571
1.0391259
1.03912608
1.03912626
1.03912644
1.03912662
1.0391268
1.03912698
1.03912715
1.03912732
1.03912749
1.03912766
1.03912783
1.03912799
1.03912815
1.03912832
1.03912847
1.03912863
1.03912879
1.03912894
1.03912909
1.03912924
1.03912939
1.03912953
1.03912968
1.03912982
1.03912996
1.0391301
1.03913024
1.03913037
1.0391305
1.03913064
1.03913077
1.0391309
1.03913102
1.03913115
1.03913127
1.03913139
1.03913152
1.03913164
1.03913176
1.03913187
1.03913199
1.0391321
1.03913222
1.03913233
1.03913244
1.03913256
1.03913267
1.03913278
1.03913288
1.03913299
1.0391331
1.03913321
1.03913331
1.03913342
1.03913352
1.03913362
1.03913373
1.03913383
1.03913393
1.03913403
1.03913413
1.03913423
1.03913433
1.03913443
1.03913453
1.03913463
1.03913473
1.03913482
1.03913492
1.03913502
1.03913512
1.03913521
1.03913531
1.0391354
1.0391355
1.0391356
1.03913569
1.03913579
1.03913588
1.03913598
1.03913607
1.03913617
1.03913626
1.03913636
1.03913646
1.03913655
1.03913665
1.03913675
1.03913684
1.03913694
1.03913704
1.03913714
1.03913724
1.03913734
1.03913744
1.03913755
1.03913765
1.03913776
1.03913787
1.03913798
1.03913809
1.0391382
1.03913832
1.03913844
1.03913856
1.03913868
1.03913881
1.03913894
1.03913907
1.03913921
1.03913935
1.03913949
1.03913964
1.0391398
1.03913996
1.03914013
1.0391403
1.03914048
1.03914066
1.03914085
1.03914105
1.03914126
1.03914147
1.0391417
1.03914193
1.03914217
1.03914243
1.03914269
1.03914297
1.03914326
1.03914356
1.03914387
1.0391442
1.03914454
1.0391449
1.03914527
1.03914566
1.03914606
1.03914648
1.03914692
1.03914737
1.03914785
1.03914834
1.03914885
1.03914938
1.03914993
1.0391505
1.03915109
1.0391517
1.03915233
1.03915298
1.03915365
1.03915433
1.03915504
1.03915576
1.0391565
1.03915726
1.03915803
1.03915882
1.03915962
1.03916043
1.03916126
1.03916209
1.03916293
1.03916377
1.03916462
1.03916548
1.03916633
1.03916718
1.03916802
1.03916886
1.03916969
1.03917051
1.03917131
1.0391721
1.03917288
1.03917363
1.03917436
1.03917507
1.03917576
1.03917641
1.03917705
1.03917765
1.03917823
1.03917878
1.0391793
1.03917979
1.03918026
1.03918069
1.03918111
1.0391815
1.03918187
1.03918222
1.03918256
1.03918288
1.0391832
1.03918351
1.03918382
1.03918414
1.03918447
1.03918481
1.03918517
1.03918556
1.03918598
1.03918644
1.03918695
1.0391875
1.03918812
1.0391888
1.03918955
1.03919038
1.03919129
1.03919229
1.03919338
1.03919456
1.03919583
1.03919719
1.03919864
1.03920015
1.03920171
1.03920328
1.03920485
1.03920633
1.03920805
1.03920913
1.03922114
1.03922125
1.0394831
1.03948171
1.040192
1.04009112
0.858949541
0.857308504
0.448224842
0.419851147
0.326429546
0.317213854
0.286817725
0.283499653
0.271398886
0.27023124
0.265417261
0.265081655
0.263482758
0.263411062
0.262962307
0.262950139
0.262838919
0.262837253
0.26281254
0.262812193
0.262807102
0.26280685
0.262805734
0.262805498
0.262805125
0.262804905
0.262804673
0.262804474
0.26280428
0.2628041
0.262803929
0.262803768
0.262803617
0.262803474
0.262803339
0.262803213
0.262803094
0.262802983
0.262802879
0.262802781
0.262802689
0.262802602
0.262802521
0.262802445
0.262802373
0.262802305
0.262802241