/*--------------------------------*- C++ -*----------------------------------*\
| =========                 |                                                 |
| \\      /  F ield         | OpenFOAM: The Open Source CFD Toolbox           |
|  \\    /   O peration     | Version:  2206                                  |
|   \\  /    A nd           | Website:  www.openfoam.com                      |
|    \\/     M anipulation  |                                                 |
\*---------------------------------------------------------------------------*/
FoamFile
{
    version     2.0;
    format      ascii;
    arch        "LSB;label=32;scalar=64";
    class       volScalarField;
    location    "1.84e-05";
    object      sourcePV;
}
// * * * * * * * * * * * * * * * * * * * * * * * * * * * * * * * * * * * * * //

dimensions      [1 -3 -1 0 0 0 0];

internalField   nonuniform List<scalar> 
3183
(
0
0
0
0
0
0
0
0
0
0
0
0
0
0
0
0
0
0
0
0
0
0
0
0
0
0
0
0
0
0
0
0
0
0
0
0
0
0
0
0
0
0
0
0
0
0
0
0
0
0
0
0
0
0
0
0
0
0
0
0
0
0
0
0
0
0
0
0
0
0
0
0
0
0
0
0
0
0
0
0
0
0
0
0
0
0
0
0
0
0
0
0
0
0
0
0
0
0
0
0
0
0
0
0
0
0
0
0
0
0
0
0
0
0
0
0
0
0
0
0
0
0
0
0
0
0
0
0
0
0
0
0
0
0
0
0
0
0
0
0
0
0
0
0
0
0
0
0
0
0
0
0
0
0
0
0
0
0
0
0
0
0
0
0
0
0
0
0
0
0
0
0
0
0
0
0
0
0
0
0
0
0
0
0
0
0
0
0
0
0
0
0
0
0
0
0
0
0
0
0
0
0
0
0
0
0
0
0
0
0
0
0
0
0
0
0
0
0
0
0
0
0
0
0
0
0
0
0
0
0
0
0
0
0
0
0
0
0
0
0
0
0
0
0
0
0
0
0
0
0
0
0
0
0
0
0
0
0
0
0
0
0
0
0
0
0
0
0
0
0
0
0
0
0
0
0
0
0
0
0
0
0
0
0
0
0
0
0
0
0
0
0
0
0
0
0
0
0
0
0
0
0
0
0
0
0
0
0
0
0
0
0
0
0
0
0
0
0
0
0
0
0
0
0
0
0
0
0
0
0
0
0
0
0
0
0
0
0
0
0
0
0
0
0
0
0
0
0
0
0
0
0
0
0
0
0
0
0
0
0
0
0
0
0
0
0
0
0
0
0
0
0
0
0
0
0
0
0
0
0
0
0
0
0
0
0
0
0
0
0
0
0
0
0
0
0
0
0
0
0
0
0
0
0
0
0
0
0
0
0
0
0
0
0
0
0
0
0
0
0
0
0
0
0
0
0
0
0
0
0
0
0
0
0
0
0
0
0
0
0
0
0
0
0
0
0
0
0
0
0
0
0
0
0
0
0
0
0
0
0
0
0
0
0
0
0
0
0
0
0
0
0
0
0
0
0
0
0
0
0
0
0
0
0
0
0
0
0
0
0
0
0
0
0
0
0
0
0
0
0
0
0
0
0
0
0
0
0
0
0
0
0
0
0
0
0
0
0
0
0
0
0
0
0
0
0
0
0
0
0
0
0
0
0
0
0
0
0
0
0
0
0
0
0
0
0
0
0
0
0
0
0
0
0
0
0
0
0
0
0
0
0
0
0
0
0
0
0
0
0
0
0
0
0
0
0
0
0
0
0
0
0
0
0
0
0
0
0
0
0
0
0
0
0
0
0
0
0
0
0
0
0
0
0
0
0
0
0
0
0
0
0
0
0
0
0
0
0
0
0
0
0
0
0
0
0
0
0
0
0
0
0
0
0
0
0
0
0
0
0
0
0
0
0
0
0
0
0
0
0
0
0
0
0
0
0
0
0
0
0
0
0
0
0
0
0
0
0
0
0
0
0
0
0
0
0
0
0
0
0
0
0
0
0
0
0
0
0
0
0
0
0
0
0
0
0
0
0
0
0
0
0
0
0
0
0
0
0
0
0
0
0
0
0
0
0
0
0
0
0
0
0
0
0
0
0
0
0
0
0
0
0
0
0
0
0
0
0
0
0
0
0
0
0
0
0
0
0
0
0
0
0
0
0
0
0
0
0
0
0
0
0
0
0
0
0
0
0
0
0
0
0
0
0
0
0
0
0
0
0
0
0
0
0
0
0
0
0
0
0
0
0
0
0
0
0
0
0
0
0
0
0
0
0
0
0
0
0
0
0
0
0
0
0
0
0
0
0
0
0
0
0
0
0
0
0
0
0
0
0
0
0
0
0
0
0
0
0
0
0
0
0
0
0
0
0
0
0
0
0
0
0
0
0
0
0
0
0
0
0
0
0
0
0
0
0
0
0
0
0
0
0
0
0
0
0
0
0
0
0
0
0
0
0
0
0
0
0
0
0
0
0
0
0
0
0
0
0
0
0
0
0
0
0
0
0
0
0
0
0
0
0
0
0
0
0
0
0
0
0
0
0
0
0
0
0
0
0
0
0
0
0
0
0
0
0
0
0
0
0
0
0
0
0
0
0
0
0
0
0
0
0
0
0
0
0
0
0
0
0
0
0
0
0
0
0
0
0
0
0
0
0
0
0
0
0
0
0
0
0
0
0
0
0
0
0
0
0
0
0
0
0
0
0
0
0
0
0
0
0
0
0
0
0
0
0
0
0
0
0
0
0
0
0
0
0
0
0
0
0
0
0
0
0
0
0
0
0
0
0
0
0
0
0
0
0
0
0
0
0
0
0
0
0
0
0
0
0
0
0
0
0
0
0
0
0
0
0
0
0
0
0
0
0
0
0
0
0
0
0
0
0
0
0
0
0
0
0
0
0
0
0
0
0
0
0
0
0
0
0
0
0
0
0
0
0
0
0
0
0
0
0
0
0
0
0
0
0
0
0
0
0
0
0
0
0
0
0
0
0
0
0
0
0
0
0
0
0
0
0
0
0
0
0
0
0
0
0
0
0
0
0
0
0
0
0
0
0
0
0
0
0
0
0
0
0
0
0
0
0
0
0
0
0
0
0
0
0
0
0
0
0
0
0
0
0
0
0
0
0
0
0
0
0
0
0
0
0
0
0
0
0
0
0
0
0
0
0
0
0
0
0
0
0
0
0
0
0
0
0
0
0
0
0
0
0
0
0
0
0
0
0
0
0
0
0
0
0
0
0
0
0
0
0
0
0
0
0
0
0
0
0
0
0
0
0
0
0
0
0
0
0
0
0
0
0
0
0
0
0
0
0
0
0
0
0
0
0
0
0
0
0
0
0
0
0
0
0
0
0
0
0
0
0
0
0
0
0
0
0
0
0
0
0
0
0
0
0
0
0
0
0
0
0
0
0
0
0
0
0
0
0
0
0
0
0
0
0
0
0
0
0
0
0
0
0
0
0
0
0
0
0
0
0
0
0
0
0
0
0
0
0
0
0
0
0
0
0
0
0
0
0
0
0
0
0
0
0
0
0
0
0
0
0
0
0
0
0
0
0
0
0
0
0
0
0
0
0
0
0
0
0
0
0
0
0
0
0
0
0
0
0
0
0
0
0
0
0
0
0
0
0
0
0
0
0
0
0
0
0
0
0
0
0
0
0
0
0
0
0
0
0
0
0
0
0
0
0
0
0
0
0
0
0
0
0
0
0
0
0
0
0
0
0
0
0
0
0
0
0
0
0
0
0
0
0
0
0
0
0
0
0
0
0
0
0
0
0
0
0
0
0
0
0
0
0
0
0
0
0
0
0
0
0
0
0
0
0
0
0
0
0
0
0
0
0
0
0
0
0
0
0
0
0
0
0
0
0
0
0
0
0
0
0
0
0
0
0
0
0
0
0
0
0
0
0
0
0
0
0
0
0
0
0
0
0
0
0
0
0
0
0
0
0
0
0
0
0
0
0
0
0
0
0
0
0
0
0
0
0
0
0
0
0
0
0
0
0
0
0
0
0
0
0
0
0
0
0
0
0
0
0
0
0
0
0
0
0
0
0
0
0
0
0
0
0
0
0
0
0
0
0
0
0
0
0
0
0
0
0
0
0
0
0
0
0
0
0
0
0
0
0
0
0
0
0
0
0
0
0
0
0
0
0
0
0
0
0
0
0
0
0
0
0
0
0
0
0
0
0
0
0
0
0
0
0
0
0
0
0
0
0
0
0
0
0
0
0
0
0
0
0
0
0
0
0
0
0
0
0
0
0
0
0
0
0
0
0
0
0
0
0
0
0
0
0
0
0
0
0
0
0
0
0
0
0
0
0
0
0
0
0
0
0
0
0
0
0
0
0
0
0
0
0
0
0
0
0
0
0
0
0
0
0
0
0
0
0
0
0
0
0
0
0
0
0
0
0
0
0
0
0
0
0
0
0
0
0
0
0
0
0
0
0
0
0
0
0
0
0
0
0
0
0
0
0
0
0
0
0
0
0
0
0
0
0
0
0
0
0
0
0
0
0
0
0
0
0
0
0
0
0
0
0
0
0
0
0
0
0
0
0
0
0
0
0
0
0
0
0
0
0
0
0
0
0
0
0
0
0
0
0
0
0
0
0
0
0
0
0
0
0
0
0
0
0
0
0
0
0
0
0
0
0
0
0
0
0
0
0
0
0
0
0
0
0
0
0
0
0
0
0
0
0
0
0
0
0
0
0
0
0
0
0
0
0
0
0
0
0
0
0
0
0
0
0
0
0
0
0
0
0
0
0
0
0
0
0
0
0
0
0
0
0
0
0
0
0
0
0
0
0
0
0
0
0
0
0
0
0
0
0
0
0
0
0
0
0
0
0
0
0
0
0
0
0
0
0
0
0
0
0
0
0
0
0
0
0
0
0
0
0
0
0
0
0
0
0
0
0
0
0
0
0
0
0
0
0
0
0
0
0
0
0
0
0
0
0
0
0
0
0
0
0
0
0
0
0
0
0
0
0
0
0
0
0
0
0
0
0
0
0
0
0
0
0
0
0
0
0
0
0
0
0
0
0
0
0
0
0
0
0
0
0
0
0
0
0
0
0
0
0
0
0
0
0
0
0
0
0
0
0
0
0
0
0
0
0
0
0
0
0
0
0
0
0
0
0
0
0
0
0
0
0
0
0
0
0
0
0
0
0
0
0
0
0
0
0
0
0
0
0
0
0
0
0
0
0
0
0
0
0
0
0
0
0
0
0
0
0
0
0
0
0
0
0
0
0
0
0
0
0
0
0
0
0
0
0
0
0
0
0
0
0
0
0
0
0
0
0
0
0
0
0
0
0
0
0
0
0
0
0
0
0
0
0
0
0
0
0
0
0
0
0
0
0
0
0
0
0
0
0
0
0
0
0
0
0
0
0
0
0
0
0
0
0
0
0
0
0
0
0
0
0
0
0
0
0
0
0
0
0
0
0
0
0
0
0
0
0
0
0
0
0
0
0
0
0
0
0
0
0
0
0
0
0
0
0
0
0
0
0
0
0
0
0
0
0
0
0
0
0
0
0
0
0
0
0
0
0
0
0
0
0
0
0
0
0
0
0
0
0
0
0
0
0
0
0
0
0
0
0
0
0
0
0
0
0
0
0
0
0
0
0
0
0
0
0
0
0
0
0
0
0
0
0
0
0
0
0
0
0
0
0
0
0
0
0
0
0
0
0
0
0
0
0
0
0
0
0
0
0
0
0
0
0
0
0
0
0
0
0
0
0
0
0
0
0
0
0
0
0
0
0
0
0
0
0
0
0
0
0
0
0
0
2.54727836e-299
1.37440507e-299
1.26134741e-296
6.86472667e-297
6.19161979e-294
3.39870157e-294
3.01285365e-291
1.66793137e-291
1.45327708e-288
8.1135756e-289
6.94876073e-286
3.91208057e-286
3.29341316e-283
1.86963755e-283
1.54723347e-280
8.85632295e-281
7.20487691e-278
4.15799865e-278
3.32543238e-275
1.93483657e-275
1.52128197e-272
8.92327787e-273
6.89763161e-270
4.07848446e-270
3.09960976e-267
1.84750046e-267
1.38044235e-264
8.29397149e-265
6.09285231e-262
3.68920938e-262
2.66501983e-259
1.62667464e-259
1.15516317e-256
7.10713628e-257
4.96174431e-254
3.07749176e-254
2.11182537e-251
1.31998604e-251
8.90631354e-249
5.60970731e-249
3.72166628e-246
2.36207109e-246
1.54084441e-243
9.85395092e-244
6.32038908e-241
4.07262618e-241
2.56846444e-238
1.66750347e-238
1.03401858e-235
6.76343879e-236
4.12370672e-233
2.71742026e-233
1.62903596e-230
1.08146759e-230
6.37433836e-228
4.26300558e-228
2.47046306e-225
1.66433749e-225
9.48280633e-223
6.43526702e-223
3.60484243e-220
2.46415005e-220
1.35706715e-217
9.34368026e-218
5.05889799e-215
3.50826966e-215
1.8673383e-212
1.30426295e-212
6.8245595e-210
4.8007224e-210
2.46934549e-207
1.74939691e-207
8.84534518e-205
6.31074326e-205
3.13647964e-202
2.25347162e-202
1.10086212e-199
7.96472998e-200
3.8243098e-197
2.78614851e-197
1.31482722e-194
9.64533745e-195
4.47346894e-192
3.30426668e-192
1.506065e-189
1.12005818e-189
5.01682266e-187
3.75643582e-187
1.65333338e-184
1.24635578e-184
5.39011886e-182
4.09070527e-182
1.7382037e-179
1.32801346e-179
5.54401227e-177
4.26394391e-177
1.74873561e-174
1.35388038e-174
5.45449216e-172
4.25071955e-172
1.68215812e-169
1.31950145e-169
5.12875681e-167
4.04923323e-167
1.54574881e-164
1.22828659e-164
4.60462419e-162
3.68245373e-162
1.35557316e-159
1.09101405e-159
3.94337717e-157
3.19390245e-157
1.13336893e-154
9.23744719e-155
3.21788726e-152
2.63912466e-152
9.02409287e-150
7.44700792e-150
2.49921628e-147
2.07516059e-147
6.83445021e-145
5.70954037e-145
1.84515192e-142
1.55081186e-142
4.91718047e-140
4.15768807e-140
1.29324111e-137
1.10002609e-137
3.3561634e-135
2.871659e-135
8.59260316e-133
7.39535352e-133
2.16989655e-130
1.87843133e-130
5.40377241e-128
4.70492483e-128
1.32680267e-125
1.16181796e-125
3.21122399e-123
2.82783932e-123
7.65930796e-121
6.78268747e-121
1.79994229e-118
1.60278117e-118
4.16647428e-116
3.73046024e-116
9.49743017e-114
8.54972196e-114
2.13133618e-111
1.92896138e-111
4.7074105e-109
4.28304116e-109
1.0229787e-106
9.35637545e-107
2.18660139e-104
2.01026428e-104
4.59566983e-102
4.24664321e-102
9.49412619e-100
8.81729965e-100
1.92722154e-97
1.79872752e-97
3.84250453e-95
3.60387736e-95
7.52195105e-93
7.08885249e-93
1.44510114e-90
1.3683608e-90
2.72349264e-88
2.59090675e-88
5.0328338e-86
4.80979631e-86
9.11474198e-84
8.75006546e-84
1.61694954e-81
1.55911934e-81
2.80821689e-79
2.7195136e-79
4.77193519e-77
4.64079783e-77
7.92903512e-75
7.74306619e-75
1.28742965e-72
1.26230089e-72
2.04127351e-70
2.00923558e-70
3.15813447e-68
3.12016398e-68
4.76394892e-66
4.7230875e-66
7.00070856e-64
6.96224331e-64
1.00129109e-61
9.98279306e-62
1.39250958e-59
1.39046869e-59
1.88104613e-57
1.87863951e-57
2.46531346e-55
2.45861706e-55
3.13100286e-53
3.1139076e-53
3.84816022e-51
3.81687661e-51
4.57031117e-49
4.53137808e-49
5.2367814e-47
5.21011908e-47
5.77894556e-45
5.77319533e-45
6.13029166e-43
6.10452527e-43
6.23847321e-41
6.19236137e-41
6.07568579e-39
6.01405267e-39
5.64804294e-37
5.57916707e-37
4.99706934e-35
4.93058935e-35
4.19386186e-33
4.13659091e-33
3.32635533e-31
3.28513298e-31
2.48263574e-29
2.44470025e-29
1.73512604e-27
1.73213326e-27
1.12872533e-25
1.12390287e-25
6.79108026e-24
6.74361637e-24
3.74755126e-22
3.71610039e-22
1.87806423e-20
1.86395467e-20
8.44299218e-19
8.39839439e-19
3.35243348e-17
3.33860891e-17
1.15213482e-15
1.14706679e-15
3.33386602e-14
3.32079286e-14
7.80700552e-13
7.81180893e-13
1.94576759e-11
1.97202665e-11
2.25427476e-08
2.34349137e-08
0.0484414486
0.208910548
6.48301492
7.93238684
9.55235993
8.83060802
3.79494839
3.16613163
0.773597877
0.632569148
0.162954759
0.145681326
0.0373793965
0.0344941322
0.00769788861
0.0073553405
0.00144999708
0.00142780688
0.000259935592
0.000259337184
4.8913628e-05
4.89649333e-05
1.40282177e-05
1.40378523e-05
8.64909689e-06
8.65001661e-06
7.87346518e-06
7.87340054e-06
7.76812153e-06
7.76813644e-06
7.75469837e-06
7.75469779e-06
7.75305483e-06
7.75307517e-06
7.75286225e-06
7.75288986e-06
7.75285414e-06
7.75284707e-06
7.75285936e-06
7.75283693e-06
7.75286154e-06
7.75283603e-06
7.75285587e-06
7.75285054e-06
7.75286192e-06
7.75284971e-06
7.75285765e-06
7.75285327e-06
7.75286068e-06
7.7528526e-06
7.75286378e-06
7.7528577e-06
7.75286483e-06
7.75285746e-06
7.75285697e-06
7.75286037e-06
7.75284774e-06
7.75286785e-06
7.75284902e-06
7.75286425e-06
7.75284517e-06
7.75286128e-06
7.75284073e-06
7.75285766e-06
7.75284139e-06
7.75285309e-06
7.75284476e-06
7.75286456e-06
7.75283278e-06
7.75286973e-06
7.75284211e-06
7.75285548e-06
7.75284509e-06
7.75286302e-06
7.75284081e-06
7.75287026e-06
7.7528419e-06
7.75286724e-06
7.75285165e-06
7.75285971e-06
7.75285066e-06
7.7528537e-06
7.75285164e-06
7.75285159e-06
7.75286317e-06
7.75284582e-06
7.75285556e-06
7.75284166e-06
7.75286324e-06
7.75283748e-06
7.75287404e-06
7.75284206e-06
7.75286308e-06
7.75284822e-06
7.75287529e-06
7.75284514e-06
7.75286636e-06
7.75284853e-06
7.75285801e-06
7.75285701e-06
7.75286385e-06
7.75284701e-06
7.75286409e-06
7.75285064e-06
7.752844e-06
7.75286571e-06
7.75284645e-06
7.7528546e-06
7.75285882e-06
7.75284838e-06
7.75285728e-06
7.75284875e-06
7.75285267e-06
7.75284933e-06
7.75284779e-06
7.75285952e-06
7.75283071e-06
7.75286865e-06
7.75284613e-06
7.75287117e-06
7.75284392e-06
7.75286849e-06
7.75284448e-06
7.75285628e-06
7.7528573e-06
7.75286048e-06
7.75284642e-06
7.75286976e-06
7.75284487e-06
7.75286638e-06
7.75285592e-06
7.75286512e-06
7.75286213e-06
7.75286729e-06
7.75286228e-06
7.75286907e-06
7.75285731e-06
7.75285941e-06
7.75285096e-06
7.75286066e-06
7.75285134e-06
7.75284958e-06
7.75284539e-06
7.75286331e-06
7.75283873e-06
7.75285435e-06
7.75284425e-06
7.75285708e-06
7.7528538e-06
7.75284644e-06
7.75287745e-06
7.75283091e-06
7.75286439e-06
7.75283947e-06
7.75287358e-06
7.75284862e-06
7.75286633e-06
7.75284035e-06
7.75286998e-06
7.75283838e-06
7.75287472e-06
7.75284136e-06
7.75287536e-06
7.75284725e-06
7.75288016e-06
7.75284917e-06
7.75285917e-06
7.75285772e-06
7.75285519e-06
7.75284135e-06
7.75285659e-06
7.75284629e-06
7.75284484e-06
7.75286926e-06
7.75284623e-06
7.75290751e-06
7.75291559e-06
7.75328989e-06
7.75332378e-06
7.75503599e-06
7.75501617e-06
7.75329016e-06
7.75329648e-06
7.75290657e-06
7.75290562e-06
7.75286033e-06
7.75286136e-06
7.75285603e-06
7.75286225e-06
7.75284801e-06
7.75286809e-06
7.75284665e-06
7.7528685e-06
7.75285303e-06
7.75286526e-06
7.75284767e-06
7.75285854e-06
7.75284663e-06
7.75287137e-06
7.75284501e-06
7.75287103e-06
7.75284876e-06
7.75287805e-06
7.75284063e-06
7.7528786e-06
7.75284506e-06
7.75285783e-06
7.75285688e-06
7.75286621e-06
7.75285352e-06
7.75286265e-06
7.75285287e-06
7.7528627e-06
7.75285506e-06
7.75286534e-06
7.75286096e-06
7.75286153e-06
7.75286166e-06
7.75285952e-06
7.75286498e-06
7.75286051e-06
7.7528593e-06
7.75285995e-06
7.75286805e-06
7.75286427e-06
7.75285267e-06
7.75287064e-06
7.75284566e-06
7.75286964e-06
7.75285812e-06
7.75285794e-06
7.75286197e-06
7.75286596e-06
7.7528589e-06
7.75286156e-06
7.75286967e-06
7.75286083e-06
7.75286826e-06
7.75286438e-06
7.7528663e-06
7.75286584e-06
7.75287665e-06
7.75285312e-06
7.75287996e-06
7.75284545e-06
7.752876e-06
7.75284429e-06
7.75286654e-06
7.75285385e-06
7.75285218e-06
7.75286967e-06
7.75286244e-06
7.75285482e-06
7.75285853e-06
7.7528651e-06
7.75286077e-06
7.75285125e-06
7.752868e-06
7.75285791e-06
7.75287124e-06
7.75286191e-06
7.75287786e-06
7.75286114e-06
7.75285999e-06
7.75286598e-06
7.75285283e-06
7.75286525e-06
7.75284832e-06
7.75286626e-06
7.75285196e-06
7.75287875e-06
7.7528501e-06
7.75286763e-06
7.75286152e-06
7.75286035e-06
7.7528713e-06
7.75285331e-06
7.75286358e-06
7.75285824e-06
7.75285616e-06
7.75286017e-06
7.7528626e-06
7.75285888e-06
7.75285936e-06
7.75285841e-06
7.75285429e-06
7.75286277e-06
7.75286086e-06
7.75285854e-06
7.75287054e-06
7.75286268e-06
7.75286485e-06
7.75286942e-06
7.75285254e-06
7.75285797e-06
7.75286014e-06
7.75285496e-06
7.7528688e-06
7.75286865e-06
7.75286362e-06
7.75287194e-06
7.75286797e-06
7.75286632e-06
7.75286553e-06
7.75286433e-06
7.75287236e-06
7.75285996e-06
7.75285805e-06
7.75285494e-06
7.75287051e-06
7.75284153e-06
7.75286549e-06
7.75285265e-06
7.7528706e-06
7.75285978e-06
7.75286317e-06
7.75286779e-06
7.75285751e-06
7.75287393e-06
7.7528521e-06
7.75287251e-06
7.75284058e-06
7.75288284e-06
7.75285392e-06
7.75287965e-06
7.7528534e-06
7.75286794e-06
7.75286064e-06
7.75287584e-06
7.75285627e-06
7.75287744e-06
7.75285485e-06
7.75285705e-06
7.75286387e-06
7.75286487e-06
7.75286586e-06
7.75286338e-06
7.75287637e-06
7.75286029e-06
7.7528659e-06
7.75286705e-06
7.75287176e-06
7.75286554e-06
7.75286711e-06
7.75287049e-06
7.75286472e-06
7.75286463e-06
7.75286336e-06
7.75286909e-06
7.7528607e-06
7.75286768e-06
7.7528688e-06
7.75286216e-06
7.75285971e-06
7.75285226e-06
7.75286572e-06
7.75286657e-06
7.75285787e-06
7.75287474e-06
7.75285861e-06
7.75286802e-06
7.75286276e-06
7.75286594e-06
7.75286865e-06
7.75286362e-06
7.75286272e-06
7.7528728e-06
7.75286813e-06
7.7528799e-06
7.7528592e-06
7.75286976e-06
7.75286503e-06
7.75286814e-06
7.75286976e-06
7.75288564e-06
7.75285985e-06
7.75287636e-06
7.75286552e-06
7.7528761e-06
7.75286835e-06
7.75287078e-06
7.75286693e-06
7.75287749e-06
7.7528588e-06
7.75287664e-06
7.75286247e-06
7.75286221e-06
7.7528783e-06
7.75285348e-06
7.75286793e-06
7.75285815e-06
7.7528659e-06
7.75286776e-06
7.75286426e-06
7.75287507e-06
7.75286877e-06
7.75286366e-06
7.75287333e-06
7.75286849e-06
7.7528716e-06
7.75287108e-06
7.7528634e-06
7.75285931e-06
7.75287888e-06
7.75284393e-06
7.75287939e-06
7.75285126e-06
7.75287947e-06
7.75286582e-06
7.75286853e-06
7.7528744e-06
7.75286618e-06
7.75288114e-06
7.75286471e-06
7.75286542e-06
7.75286892e-06
7.75286504e-06
7.75287671e-06
7.75287744e-06
7.75287524e-06
7.75287171e-06
7.75287612e-06
7.75285655e-06
7.75289328e-06
7.75286256e-06
7.75288451e-06
7.75287046e-06
7.75287045e-06
7.75286686e-06
7.75287485e-06
7.75286796e-06
7.75287293e-06
7.75287409e-06
7.7528754e-06
7.75288506e-06
7.75286855e-06
7.75287916e-06
7.75286675e-06
7.75287584e-06
7.75287729e-06
7.75286984e-06
7.75288182e-06
7.75285995e-06
7.75287829e-06
7.75287155e-06
7.7528785e-06
7.75287083e-06
7.75287357e-06
7.75287557e-06
7.75287508e-06
7.75287098e-06
7.75287447e-06
7.75286921e-06
7.75286303e-06
7.75287223e-06
7.75287263e-06
7.75287283e-06
7.75286638e-06
7.75286912e-06
7.7528817e-06
7.75286573e-06
7.75287678e-06
7.75285823e-06
7.7528831e-06
7.7528612e-06
7.75288812e-06
7.75287383e-06
7.75288006e-06
7.75287234e-06
7.75288033e-06
7.75286446e-06
7.75288022e-06
7.75286289e-06
7.75286567e-06
7.75287545e-06
7.75287204e-06
7.75287148e-06
7.75288405e-06
7.75286816e-06
7.75286954e-06
7.7528666e-06
7.75286822e-06
7.75287301e-06
7.7528764e-06
7.75286673e-06
7.75287138e-06
7.75287489e-06
7.75285628e-06
7.75288085e-06
7.75285859e-06
7.75288654e-06
7.75286202e-06
7.75288944e-06
7.75286371e-06
7.75289545e-06
7.75285585e-06
7.75288682e-06
7.75287047e-06
7.75287151e-06
7.75287522e-06
7.75287491e-06
7.75287341e-06
7.75287548e-06
7.75287742e-06
7.75287504e-06
7.75285765e-06
7.7528839e-06
7.75286812e-06
7.7528755e-06
7.75287841e-06
7.75287544e-06
7.75286938e-06
7.75287562e-06
7.75287338e-06
7.7528761e-06
7.75287257e-06
7.75287644e-06
7.75287733e-06
7.7528734e-06
7.75287379e-06
7.75287654e-06
7.75287596e-06
7.75287725e-06
7.75287464e-06
7.75287768e-06
7.7528754e-06
7.75287675e-06
7.752877e-06
7.75287825e-06
7.75287736e-06
7.75287826e-06
7.75287959e-06
7.75287986e-06
7.75287925e-06
7.75288059e-06
7.75288141e-06
7.75288113e-06
7.7528823e-06
7.752883e-06
7.7528845e-06
7.75288486e-06
7.75288577e-06
7.75288705e-06
7.75288785e-06
7.75288925e-06
7.75289101e-06
7.75289267e-06
7.75289381e-06
7.75289635e-06
7.75289858e-06
7.75290128e-06
7.7529045e-06
7.75290801e-06
7.7529122e-06
7.75291667e-06
7.752921e-06
7.75292447e-06
7.75292717e-06
7.75292918e-06
7.75293066e-06
7.75293098e-06
7.75293142e-06
7.75293152e-06
7.75293139e-06
7.75293158e-06
7.75293163e-06
7.75293139e-06
7.75293175e-06
7.75293134e-06
7.75293138e-06
7.75293143e-06
7.75293142e-06
7.75293138e-06
7.75293137e-06
7.75293143e-06
7.75293141e-06
7.75293123e-06
7.75293169e-06
)
;

boundaryField
{
    closed
    {
        type            calculated;
        value           uniform 0;
    }
    open
    {
        type            calculated;
        value           uniform 0;
    }
    sides
    {
        type            empty;
    }
}


// ************************************************************************* //
