/*--------------------------------*- C++ -*----------------------------------*\
| =========                 |                                                 |
| \\      /  F ield         | OpenFOAM: The Open Source CFD Toolbox           |
|  \\    /   O peration     | Version:  2206                                  |
|   \\  /    A nd           | Website:  www.openfoam.com                      |
|    \\/     M anipulation  |                                                 |
\*---------------------------------------------------------------------------*/
FoamFile
{
    version     2.0;
    format      ascii;
    arch        "LSB;label=32;scalar=64";
    class       volScalarField;
    location    "1.44e-05";
    object      p;
}
// * * * * * * * * * * * * * * * * * * * * * * * * * * * * * * * * * * * * * //

dimensions      [1 -1 -2 0 0 0 0];

internalField   nonuniform List<scalar> 
3183
(
101325
101325
101325
101325
101325
101325
101325
101325
101325
101325
101325
101325
101325
101325
101325
101325
101325
101325
101325
101325
101325
101325
101325
101325
101325
101325
101325
101325
101325
101325
101325
101325
101325
101325
101325
101325
101325
101325
101325
101325
101325
101325
101325
101325
101325
101325
101325
101325
101325
101325
101325
101325
101325
101325
101325
101325
101325
101325
101325
101325
101325
101325
101325
101325
101325
101325
101325
101325
101325
101325
101325
101325
101325
101325
101325
101325
101325
101325
101325
101325
101325
101325
101325
101325
101325
101325
101325
101325
101325
101325
101325
101325
101325
101325
101325
101325
101325
101325
101325
101325
101325
101325
101325
101325
101325
101325
101325
101325
101325
101325
101325
101325
101325
101325
101325
101325
101325
101325
101325
101325
101325
101325
101325
101325
101325
101325
101325
101325
101325
101325
101325
101325
101325
101325
101325
101325
101325
101325
101325
101325
101325
101325
101325
101325
101325
101325
101325
101325
101325
101325
101325
101325
101325
101325
101325
101325
101325
101325
101325
101325
101325
101325
101325
101325
101325
101325
101325
101325
101325
101325
101325
101325
101325
101325
101325
101325
101325
101325
101325
101325
101325
101325
101325
101325
101325
101325
101325
101325
101325
101325
101325
101325
101325
101325
101325
101325
101325
101325
101325
101325
101325
101325
101325
101325
101325
101325
101325
101325
101325
101325
101325
101325
101325
101325
101325
101325
101325
101325
101325
101325
101325
101325
101325
101325
101325
101325
101325
101325
101325
101325
101325
101325
101325
101325
101325
101325
101325
101325
101325
101325
101325
101325
101325
101325
101325
101325
101325
101325
101325
101325
101325
101325
101325
101325
101325
101325
101325
101325
101325
101325
101325
101325
101325
101325
101325
101325
101325
101325
101325
101325
101325
101325
101325
101325
101325
101325
101325
101325
101325
101325
101325
101325
101325
101325
101325
101325
101325
101325
101325
101325
101325
101325
101325
101325
101325
101325
101325
101325
101325
101325
101325
101325
101325
101325
101325
101325
101325
101325
101325
101325
101325
101325
101325
101325
101325
101325
101325
101325
101325
101325
101325
101325
101325
101325
101325
101325
101325
101325
101325
101325
101325
101325
101325
101325
101325
101325
101325
101325
101325
101325
101325
101325
101325
101325
101325
101325
101325
101325
101325
101325
101325
101325
101325
101325
101325
101325
101325
101325
101325
101325
101325
101325
101325
101325
101325
101325
101325
101325
101325
101325
101325
101325
101325
101325
101325
101325
101325
101325
101325
101325
101325
101325
101325
101325
101325
101325
101325
101325
101325
101325
101325
101325
101325
101325
101325
101325
101325
101325
101325
101325
101325
101325
101325
101325
101325
101325
101325
101325
101325
101325
101325
101325
101325
101325
101325
101325
101325
101325
101325
101325
101325
101325
101325
101325
101325
101325
101325
101325
101325
101325
101325
101325
101325
101325
101325
101325
101325
101325
101325
101325
101325
101325
101325
101325
101325
101325
101325
101325
101325
101325
101325
101325
101325
101325
101325
101325
101325
101325
101325
101325
101325
101325
101325
101325
101325
101325
101325
101325
101325
101325
101325
101325
101325
101325
101325
101325
101325
101325
101325
101325
101325
101325
101325
101325
101325
101325
101325
101325
101325
101325
101325
101325
101325
101325
101325
101325
101325
101325
101325
101325
101325
101325
101325
101325
101325
101325
101325
101325
101325
101325
101325
101325
101325
101325
101325
101325
101325
101325
101325
101325
101325
101325
101325
101325
101325
101325
101325
101325
101325
101325
101325
101325
101325
101325
101325
101325
101325
101325
101325
101325
101325
101325
101325
101325
101325
101325
101325
101325
101325
101325
101325
101325
101325
101325
101325
101325
101325
101325
101325
101325
101325
101325
101325
101325
101325
101325
101325
101325
101325
101325
101325
101325
101325
101325
101325
101325
101325
101325
101325
101325
101325
101325
101325
101325
101325
101325
101325
101325
101325
101325
101325
101325
101325
101325
101325
101325
101325
101325
101325
101325
101325
101325
101325
101325
101325
101325
101325
101325
101325
101325
101325
101325
101325
101325
101325
101325
101325
101325
101325
101325
101325
101325
101325
101325
101325
101325
101325
101325
101325
101325
101325
101325
101325
101325
101325
101325
101325
101325
101325
101325
101325
101325
101325
101325
101325
101325
101325
101325
101325
101325
101325
101325
101325
101325
101325
101325
101325
101325
101325
101325
101325
101325
101325
101325
101325
101325
101325
101325
101325
101325
101325
101325
101325
101325
101325
101325
101325
101325
101325
101325
101325
101325
101325
101325
101325
101325
101325
101325
101325
101325
101325
101325
101325
101325
101325
101325
101325
101325
101325
101325
101325
101325
101325
101325
101325
101325
101325
101325
101325
101325
101325
101325
101325
101325
101325
101325
101325
101325
101325
101325
101325
101325
101325
101325
101325
101325
101325
101325
101325
101325
101325
101325
101325
101325
101325
101325
101325
101325
101325
101325
101325
101325
101325
101325
101325
101325
101325
101325
101325
101325
101325
101325
101325
101325
101325
101325
101325
101325
101325
101325
101325
101325
101325
101325
101325
101325
101325
101325
101325
101325
101325
101325
101325
101325
101325
101325
101325
101325
101325
101325
101325
101325
101325
101325
101325
101325
101325
101325
101325
101325
101325
101325
101325
101325
101325
101325
101325
101325
101325
101325
101325
101325
101325
101325
101325
101325
101325
101325
101325
101325
101325
101325
101325
101325
101325
101325
101325
101325
101325
101325
101325
101325
101325
101325
101325
101325
101325
101325
101325
101325
101325
101325
101325
101325
101325
101325
101325
101325
101325
101325
101325
101325
101325
101325
101325
101325
101325
101325
101325
101325
101325
101325
101325
101325
101325
101325
101325
101325
101325
101325
101325
101325
101325
101325
101325
101325
101325
101325
101325
101325
101325
101325
101325
101325
101325
101325
101325
101325
101325
101325
101325
101325
101325
101325
101325
101325
101325
101325
101325
101325
101325
101325
101325
101325
101325
101325
101325
101325
101325
101325
101325
101325
101325
101325
101325
101325
101325
101325
101325
101325
101325
101325
101325
101325
101325
101325
101325
101325
101325
101325
101325
101325
101325
101325
101325
101325
101325
101325
101325
101325
101325
101325
101325
101325
101325
101325
101325
101325
101325
101325
101325
101325
101325
101325
101325
101325
101325
101325
101325
101325
101325
101325
101325
101325
101325
101325
101325
101325
101325
101325
101325
101325
101325
101325
101325
101325
101325
101325
101325
101325
101325
101325
101325
101325
101325
101325
101325
101325
101325
101325
101325
101325
101325
101325
101325
101325
101325
101325
101325
101325
101325
101325
101325
101325
101325
101325
101325
101325
101325
101325
101325
101325
101325
101325
101325
101325
101325
101325
101325
101325
101325
101325
101325
101325
101325
101325
101325
101325
101325
101325
101325
101325
101325
101325
101325
101325
101325
101325
101325
101325
101325
101325
101325
101325
101325
101325
101325
101325
101325
101325
101325
101325
101325
101325
101325
101325
101325
101325
101325
101325
101325
101325
101325
101325
101325
101325
101325
101325
101325
101325
101325
101325
101325
101325
101325
101325
101325
101325
101325
101325
101325
101325
101325
101325
101325
101325
101325
101325
101325
101325
101325
101325
101325
101325
101325
101325
101325
101325
101325
101325
101325
101325
101325
101325
101325
101325
101325
101325
101325
101325
101325
101325
101325
101325
101325
101325
101325
101325
101325
101325
101325
101325
101325
101325
101325
101325
101325
101325
101325
101325
101325
101325
101325
101325
101325
101325
101325
101325
101325
101325
101325
101325
101325
101325
101325
101325
101325
101325
101325
101325
101325
101325
101325
101325
101325
101325
101325
101325
101325
101325
101325
101325
101325
101325
101325
101325
101325
101325
101325
101325
101325
101325
101325
101325
101325
101325
101325
101325
101325
101325
101325
101325
101325
101325
101325
101325
101325
101325
101325
101325
101325
101325
101325
101325
101325
101325
101325
101325
101325
101325
101325
101325
101325
101325
101325
101325
101325
101325
101325
101325
101325
101325
101325
101325
101325
101325
101325
101325
101325
101325
101325
101325
101325
101325
101325
101325
101325
101325
101325
101325
101325
101325
101325
101325
101325
101325
101325
101325
101325
101325
101325
101325
101325
101325
101325
101325
101325
101325
101325
101325
101325
101325
101325
101325
101325
101325
101325
101325
101325
101325
101325
101325
101325
101325
101325
101325
101325
101325
101325
101325
101325
101325
101325
101325
101325
101325
101325
101325
101325
101325
101325
101325
101325
101325
101325
101325
101325
101325
101325
101325
101325
101325
101325
101325
101325
101325
101325
101325
101325
101325
101325
101325
101325
101325
101325
101325
101325
101325
101325
101325
101325
101325
101325
101325
101325
101325
101325
101325
101325
101325
101325
101325
101325
101325
101325
101325
101325
101325
101325
101325
101325
101325
101325
101325
101325
101325
101325
101325
101325
101325
101325
101325
101325
101325
101325
101325
101325
101325
101325
101325
101325
101325
101325
101325
101325
101325
101325
101325
101325
101325
101325
101325
101325
101325
101325
101325
101325
101325
101325
101325
101325
101325
101325
101325
101325
101325
101325
101325
101325
101325
101325
101325
101325
101325
101325
101325
101325
101325
101325
101325
101325
101325
101325
101325
101325
101325
101325
101325
101325
101325
101325
101325
101325
101325
101325
101325
101325
101325
101325
101325
101325
101325
101325
101325
101325
101325
101325
101325
101325
101325
101325
101325
101325
101325
101325
101325
101325
101325
101325
101325
101325
101325
101325
101325
101325
101325
101325
101325
101325
101325
101325
101325
101325
101325
101325
101325
101325
101325
101325
101325
101325
101325
101325
101325
101325
101325
101325
101325
101325
101325
101325
101325
101325
101325
101325
101325
101325
101325
101325
101325
101325
101325
101325
101325
101325
101325
101325
101325
101325
101325
101325
101325
101325
101325
101325
101325
101325
101325
101325
101325
101325
101325
101325
101325
101325
101325
101325
101325
101325
101325
101325
101325
101325
101325
101325
101325
101325
101325
101325
101325
101325
101325
101325
101325
101325
101325
101325
101325
101325
101325
101325
101325
101325
101325
101325
101325
101325
101325
101325
101325
101325
101325
101325
101325
101325
101325
101325
101325
101325
101325
101325
101325
101325
101325
101325
101325
101325
101325
101325
101325
101325
101325
101325
101325
101325
101325
101325
101325
101325
101325
101325
101325
101325
101325
101325
101325
101325
101325
101325
101325
101325
101325
101325
101325
101325
101325
101325
101325
101325
101325
101325
101325
101325
101325
101325
101325
101325
101325
101325
101325
101325
101325
101325
101325
101325
101325
101325
101325
101325
101325
101325
101325
101325
101325
101325
101325
101325
101325
101325
101325
101325
101325
101325
101325
101325
101325
101325
101325
101325
101325
101325
101325
101325
101325
101325
101325
101325
101325
101325
101325
101325
101325
101325
101325
101325
101325
101325
101325
101325
101325
101325
101325
101325
101325
101325
101325
101325
101325
101325
101325
101325
101325
101325
101325
101325
101325
101325
101325
101325
101325
101325
101325
101325
101325
101325
101325
101325
101325
101325
101325
101325
101325
101325
101325
101325
101325
101325
101325
101325
101325
101325
101325
101325
101325
101325
101325
101325
101325
101325
101325
101325
101325
101325
101325
101325
101325
101325
101325
101325
101325
101325
101325
101325
101325
101325
101325
101325
101325
101325
101325
101325
101325
101325
101325
101325
101325
101325
101325
101325
101325
101325
101325
101325
101325
101325
101325
101325
101325
101325
101325
101325
101325
101325
101325
101325
101325
101325
101325
101325
101325
101325
101325
101325
101325
101325
101325
101325
101325
101325
101325
101325
101325
101325
101325
101325
101325
101325
101325
101325
101325
101325
101325
101325
101325
101325
101325
101325
101325
101325
101325
101325
101325
101325
101325
101325
101325
101325
101325
101325
101325
101325
101325
101325
101325
101325
101325
101325
101325
101325
101325
101325
101325
101325
101325
101325
101325
101325
101325
101325
101325
101325
101325
101325
101325
101325
101325
101325
101325
101325
101325
101325
101325
101325
101325
101325
101325
101325
101325
101325
101325
101325
101325
101325
101325
101325
101325
101325
101325
101325
101325
101325
101325
101325
101325
101325
101325
101325
101325
101325
101325
101325
101325
101325
101325
101325
101325
101325
101325
101325
101325
101325
101325
101325
101325
101325
101325
101325
101325
101325
101325
101325
101325
101325
101325
101325
101325
101325
101325
101325
101325
101325
101325
101325
101325
101325
101325
101325
101325
101325
101325
101325
101325
101325
101325
101325
101325
101325
101325
101325
101325
101325
101325
101324.999
101324.999
101324.999
101324.999
101324.999
101324.999
101324.999
101324.999
101324.999
101324.999
101324.999
101324.999
101324.999
101324.999
101324.999
101324.999
101324.999
101324.999
101324.998
101324.998
101324.998
101324.998
101324.998
101324.998
101324.998
101324.998
101324.997
101324.997
101324.997
101324.997
101324.997
101324.997
101324.996
101324.996
101324.996
101324.996
101324.995
101324.995
101324.995
101324.995
101324.994
101324.994
101324.994
101324.993
101324.993
101324.992
101324.992
101324.991
101324.991
101324.99
101324.99
101324.989
101324.989
101324.988
101324.987
101324.987
101324.986
101324.985
101324.984
101324.983
101324.982
101324.981
101324.98
101324.979
101324.978
101324.977
101324.976
101324.974
101324.973
101324.971
101324.97
101324.968
101324.967
101324.965
101324.963
101324.961
101324.959
101324.957
101324.954
101324.952
101324.949
101324.947
101324.944
101324.941
101324.938
101324.935
101324.931
101324.928
101324.924
101324.92
101324.916
101324.912
101324.907
101324.903
101324.898
101324.893
101324.887
101324.882
101324.876
101324.87
101324.863
101324.856
101324.849
101324.842
101324.834
101324.826
101324.818
101324.809
101324.8
101324.791
101324.781
101324.77
101324.76
101324.748
101324.737
101324.724
101324.712
101324.698
101324.685
101324.67
101324.655
101324.639
101324.623
101324.606
101324.589
101324.57
101324.551
101324.531
101324.511
101324.489
101324.467
101324.444
101324.42
101324.395
101324.369
101324.342
101324.314
101324.286
101324.256
101324.224
101324.192
101324.159
101324.124
101324.088
101324.051
101324.013
101323.973
101323.931
101323.889
101323.845
101323.799
101323.752
101323.703
101323.652
101323.6
101323.546
101323.49
101323.433
101323.374
101323.312
101323.249
101323.184
101323.117
101323.047
101322.976
101322.902
101322.827
101322.748
101322.668
101322.585
101322.5
101322.412
101322.322
101322.229
101322.134
101322.036
101321.935
101321.832
101321.726
101321.617
101321.505
101321.39
101321.272
101321.151
101321.028
101320.901
101320.771
101320.638
101320.501
101320.362
101320.219
101320.073
101319.923
101319.77
101319.614
101319.454
101319.291
101319.125
101318.955
101318.781
101318.604
101318.423
101318.239
101318.052
101317.86
101317.666
101317.467
101317.265
101317.06
101316.851
101316.638
101316.422
101316.203
101315.98
101315.753
101315.523
101315.29
101315.053
101314.813
101314.57
101314.323
101314.073
101313.82
101313.564
101313.305
101313.044
101312.779
101312.511
101312.241
101311.968
101311.692
101311.414
101311.134
101310.851
101310.566
101310.279
101309.99
101309.699
101309.407
101309.113
101308.817
101308.52
101308.222
101307.922
101307.622
101307.321
101307.019
101306.717
101306.415
101306.112
101305.809
101305.507
101305.204
101304.902
101304.601
101304.3
101304.001
101303.702
101303.405
101303.11
101302.816
101302.524
101302.234
101301.946
101301.66
101301.377
101301.097
101300.82
101300.546
101300.275
101300.007
101299.743
101299.483
101299.227
101298.975
101298.728
101298.485
101298.246
101298.013
101297.784
101297.56
101297.342
101297.129
101296.921
101296.719
101296.523
101296.333
101296.149
101295.971
101295.8
101295.634
101295.475
101295.323
101295.177
101295.038
101294.906
101294.781
101294.662
101294.551
101294.446
101294.349
101294.259
101294.175
101294.099
101294.03
101293.968
101293.913
101293.865
101293.825
101293.791
101293.764
101293.745
101293.732
101293.726
101293.727
101293.735
101293.749
101293.77
101293.797
101293.831
101293.871
101293.917
101293.969
101294.027
101294.091
101294.16
101294.236
101294.316
101294.402
101294.493
101294.588
101294.689
101294.794
101294.904
101295.018
101295.136
101295.258
101295.384
101295.514
101295.647
101295.783
101295.922
101296.065
101296.21
101296.357
101296.507
101296.659
101296.813
101296.969
101297.127
101297.286
101297.447
101297.608
101297.771
101297.934
101298.099
101298.263
101298.428
101298.594
101298.759
101298.924
101299.089
101299.254
101299.418
101299.582
101299.744
101299.906
101300.067
101300.227
101300.386
101300.544
101300.7
101300.854
101301.007
101301.159
101301.309
101301.457
101301.603
101301.747
101301.889
101302.03
101302.168
101302.304
101302.438
101302.57
101302.7
101302.827
101302.953
101303.076
101303.197
101303.315
101303.431
101303.545
101303.657
101303.767
101303.874
101303.979
101304.082
101304.183
101304.281
101304.378
101304.472
101304.564
101304.654
101304.743
101304.829
101304.913
101304.995
101305.076
101305.155
101305.232
101305.307
101305.38
101305.452
101305.522
101305.591
101305.658
101305.724
101305.789
101305.852
101305.913
101305.974
101306.033
101306.091
101306.148
101306.204
101306.259
101306.313
101306.366
101306.418
101306.469
101306.52
101306.57
101306.619
101306.667
101306.715
101306.762
101306.809
101306.855
101306.9
101306.945
101306.99
101307.035
101307.079
101307.122
101307.166
101307.209
101307.252
101307.295
101307.337
101307.379
101307.422
101307.464
101307.506
101307.548
101307.589
101307.631
101307.673
101307.714
101307.756
101307.797
101307.839
101307.88
101307.921
101307.963
101308.004
101308.045
101308.087
101308.128
101308.169
101308.21
101308.251
101308.292
101308.333
101308.374
101308.414
101308.455
101308.495
101308.536
101308.576
101308.616
101308.655
101308.695
101308.734
101308.773
101308.812
101308.85
101308.888
101308.926
101308.964
101309.001
101309.037
101309.074
101309.109
101309.145
101309.18
101309.214
101309.248
101309.281
101309.314
101309.347
101309.378
101309.41
101309.44
101309.47
101309.5
101309.528
101309.556
101309.584
101309.611
101309.637
101309.663
101309.688
101309.712
101309.736
101309.759
101309.781
101309.803
101309.824
101309.844
101309.864
101309.884
101309.902
101309.921
101309.938
101309.955
101309.972
101309.988
101310.004
101310.019
101310.033
101310.048
101310.062
101310.075
101310.088
101310.101
101310.114
101310.126
101310.138
101310.15
101310.161
101310.173
101310.184
101310.195
101310.206
101310.218
101310.229
101310.24
101310.251
101310.262
101310.273
101310.285
101310.297
101310.308
101310.32
101310.333
101310.345
101310.358
101310.371
101310.385
101310.398
101310.413
101310.427
101310.442
101310.458
101310.474
101310.49
101310.507
101310.524
101310.542
101310.56
101310.579
101310.598
101310.618
101310.638
101310.659
101310.68
101310.702
101310.724
101310.746
101310.769
101310.792
101310.816
101310.84
101310.865
101310.889
101310.914
101310.94
101310.965
101310.991
101311.016
101311.042
101311.068
101311.094
101311.12
101311.146
101311.172
101311.198
101311.223
101311.249
101311.274
101311.299
101311.323
101311.348
101311.371
101311.395
101311.418
101311.441
101311.463
101311.485
101311.506
101311.526
101311.547
101311.566
101311.585
101311.604
101311.622
101311.639
101311.656
101311.672
101311.688
101311.704
101311.719
101311.733
101311.747
101311.761
101311.774
101311.786
101311.799
101311.811
101311.823
101311.834
101311.845
101311.856
101311.867
101311.877
101311.888
101311.898
101311.908
101311.918
101311.928
101311.938
101311.948
101311.958
101311.968
101311.978
101311.988
101311.998
101312.008
101312.018
101312.028
101312.038
101312.048
101312.058
101312.069
101312.079
101312.09
101312.101
101312.111
101312.122
101312.133
101312.144
101312.155
101312.166
101312.177
101312.189
101312.2
101312.212
101312.223
101312.235
101312.246
101312.258
101312.27
101312.281
101312.293
101312.305
101312.317
101312.328
101312.34
101312.351
101312.362
101312.374
101312.384
101312.395
101312.406
101312.416
101312.425
101312.435
101312.444
101312.452
101312.46
101312.467
101312.474
101312.48
101312.486
101312.491
101312.495
101312.499
101312.502
101312.504
101312.506
101312.508
101312.509
101312.51
101312.511
101312.512
101312.513
101312.514
101312.516
101312.519
101312.522
101312.526
101312.531
101312.537
101312.544
101312.553
101312.563
101312.574
101312.585
101312.581
101312.564
101312.911
101313.082
101313.007
101312.408
101312.291
101312.26
101312.347
101312.377
101312.461
101312.486
101312.535
101312.546
101312.561
101312.559
101312.557
101312.551
101312.546
101312.54
101312.535
101312.531
101312.527
101312.524
101312.521
101312.519
101312.518
101312.517
101312.516
101312.516
101312.515
101312.515
101312.516
101312.516
101312.516
101312.517
101312.517
101312.517
101312.517
101312.518
101312.518
101312.517
101312.517
101312.517
101312.516
101312.515
101312.514
101312.513
101312.512
101312.51
101312.509
101312.507
101312.505
101312.502
101312.5
101312.497
101312.494
101312.491
101312.488
101312.484
101312.481
101312.477
101312.473
101312.469
101312.465
101312.461
101312.456
101312.452
101312.447
101312.442
101312.438
101312.433
101312.428
101312.423
101312.417
101312.412
101312.407
101312.401
101312.396
101312.39
101312.385
101312.379
101312.374
101312.368
101312.362
101312.356
101312.351
101312.345
101312.339
101312.333
101312.327
101312.321
101312.315
101312.31
101312.304
101312.298
101312.292
101312.286
101312.28
101312.274
101312.268
101312.262
101312.256
101312.25
101312.244
101312.238
101312.232
101312.226
101312.22
101312.214
101312.208
101312.202
101312.196
101312.19
101312.184
101312.179
101312.173
101312.167
101312.161
101312.155
101312.149
101312.143
101312.137
101312.131
101312.125
101312.12
101312.114
101312.108
101312.102
101312.096
101312.09
101312.085
101312.079
101312.073
101312.067
101312.061
101312.056
101312.05
101312.044
101312.038
101312.033
101312.027
101312.021
101312.016
101312.01
101312.004
101311.998
101311.993
101311.987
101311.981
101311.976
101311.97
101311.965
101311.959
101311.953
101311.948
101311.942
101311.936
101311.931
101311.925
101311.919
101311.914
101311.908
101311.902
101311.897
101311.891
101311.885
101311.879
101311.874
101311.868
101311.862
101311.856
101311.85
101311.845
101311.839
101311.833
101311.827
101311.821
101311.815
101311.809
101311.802
101311.796
101311.79
101311.783
101311.777
101311.77
101311.763
101311.757
101311.75
101311.743
101311.736
101311.729
101311.722
101311.715
101311.708
101311.7
101311.693
101311.685
101311.678
101311.67
101311.662
101311.654
101311.646
101311.637
101311.629
101311.62
101311.612
101311.603
101311.594
101311.585
101311.576
101311.566
101311.557
101311.547
101311.538
101311.528
101311.518
101311.508
101311.498
101311.487
101311.477
101311.466
101311.455
101311.444
101311.433
101311.422
101311.411
101311.4
101311.388
101311.377
101311.365
101311.353
101311.341
101311.329
101311.317
101311.305
101311.293
101311.28
101311.268
101311.255
101311.243
101311.23
101311.217
101311.205
101311.192
101311.179
101311.166
101311.153
101311.14
101311.127
101311.114
101311.101
101311.087
101311.074
101311.061
101311.048
101311.035
101311.022
101311.009
101310.995
101310.982
101310.969
101310.956
101310.943
101310.93
101310.917
101310.904
101310.892
101310.879
101310.866
101310.853
101310.841
101310.828
101310.816
101310.803
101310.791
101310.779
101310.767
101310.755
101310.743
101310.731
101310.719
101310.707
101310.696
101310.684
101310.673
101310.662
101310.651
101310.64
101310.629
101310.618
101310.607
101310.597
101310.586
101310.576
101310.566
101310.556
101310.546
101310.536
101310.526
101310.516
101310.507
101310.497
101310.488
101310.479
101310.47
101310.461
101310.452
101310.443
101310.435
101310.426
101310.418
101310.409
101310.401
101310.393
101310.385
101310.377
101310.369
101310.361
101310.354
101310.346
101310.338
101310.331
101310.324
101310.316
101310.309
101310.302
101310.295
101310.288
101310.281
101310.274
101310.267
101310.26
101310.254
101310.247
101310.24
101310.234
101310.227
101310.221
101310.214
101310.207
101310.201
101310.195
101310.188
101310.182
101310.175
101310.169
101310.162
101310.156
101310.149
101310.143
101310.136
101310.13
101310.123
101310.117
101310.11
101310.103
101310.097
101310.09
101310.083
101310.077
101310.07
101310.063
101310.056
101310.049
101310.042
101310.035
101310.028
101310.02
101310.013
101310.005
101309.998
101309.99
101309.983
101309.975
101309.967
101309.959
101309.951
101309.943
101309.935
101309.926
101309.918
101309.909
101309.901
101309.892
101309.883
101309.874
101309.865
101309.855
101309.846
101309.836
101309.827
101309.817
101309.807
101309.797
101309.786
101309.776
101309.766
101309.755
101309.744
101309.733
101309.722
101309.711
101309.7
101309.688
101309.676
101309.664
101309.652
101309.64
101309.628
101309.616
101309.603
101309.59
101309.577
101309.564
101309.551
101309.538
101309.524
101309.51
101309.497
101309.483
101309.468
101309.454
101309.44
101309.425
101309.41
101309.395
101309.38
101309.365
101309.35
101309.334
101309.318
101309.303
101309.287
101309.271
101309.254
101309.238
101309.221
101309.205
101309.188
101309.171
101309.154
101309.137
101309.119
101309.102
101309.084
101309.066
101309.048
101309.031
101309.012
101308.994
101308.976
101308.957
101308.939
101308.92
101308.901
101308.882
101308.863
101308.844
101308.825
101308.806
101308.786
101308.767
101308.747
101308.728
101308.708
101308.688
101308.668
101308.648
101308.628
101308.608
101308.588
101308.568
101308.547
101308.527
101308.506
101308.486
101308.465
101308.445
101308.424
101308.403
101308.382
101308.362
101308.341
101308.32
101308.299
101308.278
101308.257
101308.236
101308.215
101308.193
101308.172
101308.151
101308.13
101308.108
101308.087
101308.066
101308.045
101308.023
101308.002
101307.98
101307.959
101307.938
101307.916
101307.895
101307.872
101307.849
101307.823
101307.796
101307.766
101307.735
101307.701
101307.665
101307.626
101307.584
101307.54
101307.492
101307.44
101307.385
101307.326
101307.262
101307.194
101307.121
101307.041
101306.956
101306.863
101306.762
101306.653
101306.533
101306.4
101306.254
101306.09
101305.906
101305.697
101305.456
101305.175
101304.846
101304.456
101303.989
101303.428
101302.75
101301.935
101300.961
101299.815
101298.497
101297.037
101295.509
101294.044
101292.849
101292.195
101292.393
101293.722
101296.343
101300.195
101304.948
101310.035
101314.802
101318.716
101321.527
101323.289
101324.251
101324.71
101324.901
101324.97
101324.992
101324.999
101325
101325
101325.001
101325.001
101325.001
101325.001
101325.001
101325.001
101325.001
101325.001
101325.001
101325.001
101325
101325
101325
101325
)
;

boundaryField
{
    closed
    {
        type            zeroGradient;
    }
    open
    {
        type            waveTransmissive;
        gamma           1.25;
        fieldInf        101325;
        lInf            1;
        value           uniform 101325;
    }
    sides
    {
        type            empty;
    }
}


// ************************************************************************* //
