/*--------------------------------*- C++ -*----------------------------------*\
| =========                 |                                                 |
| \\      /  F ield         | OpenFOAM: The Open Source CFD Toolbox           |
|  \\    /   O peration     | Version:  2206                                  |
|   \\  /    A nd           | Website:  www.openfoam.com                      |
|    \\/     M anipulation  |                                                 |
\*---------------------------------------------------------------------------*/
FoamFile
{
    version     2.0;
    format      ascii;
    arch        "LSB;label=32;scalar=64";
    class       volVectorField;
    location    "1.44e-05";
    object      U;
}
// * * * * * * * * * * * * * * * * * * * * * * * * * * * * * * * * * * * * * //

dimensions      [0 1 -1 0 0 0 0];

internalField   nonuniform List<vector> 
3183
(
(4.2121515e-13 0 0)
(1.36949178e-13 0 0)
(-2.95781766e-13 0 0)
(-3.29209871e-13 0 0)
(-1.53258526e-13 0 0)
(-9.24293775e-18 0 0)
(-7.10602289e-19 0 0)
(-6.1100823e-23 0 0)
(1.72407984e-21 0 0)
(1.04042626e-18 0 0)
(5.71791341e-15 0 0)
(2.36966984e-13 0 0)
(6.31064055e-13 0 0)
(2.22506541e-13 0 0)
(1.50301593e-13 0 0)
(4.41221152e-14 0 0)
(-3.21232358e-13 0 0)
(-6.59596835e-13 0 0)
(-8.52165482e-13 0 0)
(-1.57889575e-13 0 0)
(3.60180867e-13 0 0)
(1.71111939e-16 0 0)
(9.4622051e-14 0 0)
(3.26094922e-13 0 0)
(4.07149073e-13 0 0)
(5.93656692e-13 0 0)
(7.46741865e-13 0 0)
(7.58675976e-13 0 0)
(1.71694625e-13 0 0)
(3.07111492e-13 0 0)
(4.10555926e-16 0 0)
(-2.16314264e-13 0 0)
(-6.99301741e-13 0 0)
(-8.45713466e-13 0 0)
(-9.77592607e-13 0 0)
(-9.37812378e-13 0 0)
(-7.50059085e-13 0 0)
(-7.09943549e-13 0 0)
(-7.84217125e-13 0 0)
(-9.12192846e-13 0 0)
(-7.21740682e-13 0 0)
(-2.61238114e-13 0 0)
(3.4662811e-13 0 0)
(-8.94706245e-14 0 0)
(2.89375119e-13 0 0)
(7.28001017e-13 0 0)
(6.9564189e-13 0 0)
(1.05058979e-12 0 0)
(1.12801507e-12 0 0)
(1.62110495e-12 0 0)
(1.66362114e-12 0 0)
(2.06721673e-12 0 0)
(1.50698194e-12 0 0)
(1.80939371e-12 0 0)
(1.5476708e-12 0 0)
(1.10711178e-12 0 0)
(6.8037891e-13 0 0)
(4.66912954e-13 0 0)
(-9.68404656e-14 0 0)
(-2.46653974e-13 0 0)
(-6.55575633e-13 0 0)
(-1.29740696e-12 0 0)
(-1.41960253e-12 0 0)
(-1.89248298e-12 0 0)
(-2.05598624e-12 0 0)
(-2.22310394e-12 0 0)
(-2.94610729e-12 0 0)
(-2.65536342e-12 0 0)
(-3.05154372e-12 0 0)
(-3.97052371e-12 0 0)
(-3.84268712e-12 0 0)
(-4.02995437e-12 0 0)
(-4.0757473e-12 0 0)
(-4.33425678e-12 0 0)
(-5.20474493e-12 0 0)
(-4.7932897e-12 0 0)
(-4.84197026e-12 0 0)
(-4.71707161e-12 0 0)
(-5.0033334e-12 0 0)
(-5.00399312e-12 0 0)
(-5.70405669e-12 0 0)
(-5.0750065e-12 0 0)
(-4.94410069e-12 0 0)
(-6.18628761e-12 0 0)
(-4.9394877e-12 0 0)
(-5.15366183e-12 0 0)
(-5.78178181e-12 0 0)
(-5.36816196e-12 0 0)
(-5.15840981e-12 0 0)
(-5.33348628e-12 0 0)
(-6.56383606e-12 0 0)
(-6.25990815e-12 0 0)
(-5.32974722e-12 0 0)
(-6.54379113e-12 0 0)
(-6.39053855e-12 0 0)
(-5.98233944e-12 0 0)
(-5.93914379e-12 0 0)
(-5.49404223e-12 0 0)
(-6.17825967e-12 0 0)
(-6.47140455e-12 0 0)
(-6.40211699e-12 0 0)
(-6.3101142e-12 0 0)
(-7.09773591e-12 0 0)
(-7.11298576e-12 0 0)
(-6.19990918e-12 0 0)
(-6.68556785e-12 0 0)
(-6.40323251e-12 0 0)
(-6.68127728e-12 0 0)
(-7.46634313e-12 0 0)
(-7.06610046e-12 0 0)
(-6.72694399e-12 0 0)
(-6.87540843e-12 0 0)
(-6.58879014e-12 0 0)
(-7.30276037e-12 0 0)
(-6.63215147e-12 0 0)
(-7.47379884e-12 0 0)
(-6.06301274e-12 0 0)
(-6.47825113e-12 0 0)
(-6.91698464e-12 0 0)
(-8.71199787e-12 0 0)
(-8.54058494e-12 0 0)
(-7.53568482e-12 0 0)
(-7.90356335e-12 0 0)
(-8.51705141e-12 0 0)
(-8.22104939e-12 0 0)
(-9.07534742e-12 0 0)
(-7.96477469e-12 0 0)
(-1.00749646e-11 0 0)
(-8.64134417e-12 0 0)
(-8.80319951e-12 0 0)
(-7.74216245e-12 0 0)
(-9.0538206e-12 0 0)
(-9.2620569e-12 0 0)
(-9.41196621e-12 0 0)
(-7.82890764e-12 0 0)
(-8.17265312e-12 0 0)
(-9.02383519e-12 0 0)
(-8.13044657e-12 0 0)
(-8.94039801e-12 0 0)
(-8.50694747e-12 0 0)
(-8.70417705e-12 0 0)
(-8.93395615e-12 0 0)
(-8.44248653e-12 0 0)
(-8.95190366e-12 0 0)
(-8.1930012e-12 0 0)
(-9.54293166e-12 0 0)
(-8.18606078e-12 0 0)
(-9.52985176e-12 0 0)
(-8.40860051e-12 0 0)
(-8.89314567e-12 0 0)
(-8.47228999e-12 0 0)
(-9.40461717e-12 0 0)
(-9.61360324e-12 0 0)
(-8.83482502e-12 0 0)
(-9.69673593e-12 0 0)
(-8.93623763e-12 0 0)
(-1.00245241e-11 0 0)
(-1.0796663e-11 0 0)
(-9.53633675e-12 0 0)
(-1.05030757e-11 0 0)
(-1.04389838e-11 0 0)
(-1.05169997e-11 0 0)
(-1.05587052e-11 0 0)
(-1.04517421e-11 0 0)
(-1.1513514e-11 0 0)
(-1.13102772e-11 0 0)
(-1.05358209e-11 0 0)
(-1.12332362e-11 0 0)
(-1.07189473e-11 0 0)
(-1.09463363e-11 0 0)
(-1.0630578e-11 0 0)
(-1.00845213e-11 0 0)
(-1.06958466e-11 0 0)
(-1.02069757e-11 0 0)
(-1.13700165e-11 0 0)
(-1.06159693e-11 0 0)
(-1.17620669e-11 0 0)
(-1.11357699e-11 0 0)
(-1.0938398e-11 0 0)
(-1.15679202e-11 0 0)
(-1.10581122e-11 0 0)
(-1.20132747e-11 0 0)
(-1.06715629e-11 0 0)
(-1.14940279e-11 0 0)
(-1.16203984e-11 0 0)
(-1.24670681e-11 0 0)
(-1.09284728e-11 0 0)
(-1.19621172e-11 0 0)
(-1.12690732e-11 0 0)
(-1.09308701e-11 0 0)
(-1.16469032e-11 0 0)
(-1.1877544e-11 0 0)
(-1.18849929e-11 0 0)
(-1.18090552e-11 0 0)
(-1.3458351e-11 0 0)
(-1.18933115e-11 0 0)
(-1.2060377e-11 0 0)
(-1.27238279e-11 0 0)
(-1.32332252e-11 0 0)
(-1.46355387e-11 0 0)
(-1.28755544e-11 0 0)
(-1.21271927e-11 0 0)
(-1.30933213e-11 0 0)
(-1.38823123e-11 0 0)
(-1.45251365e-11 0 0)
(-1.35805953e-11 0 0)
(-1.35577038e-11 0 0)
(-1.30783831e-11 0 0)
(-1.40331011e-11 0 0)
(-1.34403137e-11 0 0)
(-1.31160682e-11 0 0)
(-1.32102148e-11 0 0)
(-1.31334355e-11 0 0)
(-1.47767343e-11 0 0)
(-1.41677183e-11 0 0)
(-1.41487402e-11 0 0)
(-1.44886012e-11 0 0)
(-1.3960726e-11 0 0)
(-1.35033458e-11 0 0)
(-1.47733972e-11 0 0)
(-1.50753688e-11 0 0)
(-1.53873691e-11 0 0)
(-1.51958482e-11 0 0)
(-1.43381839e-11 0 0)
(-1.49071885e-11 0 0)
(-1.4575186e-11 0 0)
(-1.4639695e-11 0 0)
(-1.62583371e-11 0 0)
(-1.55304353e-11 0 0)
(-1.48262453e-11 0 0)
(-1.54295737e-11 0 0)
(-1.60263164e-11 0 0)
(-1.52267937e-11 0 0)
(-1.58502991e-11 0 0)
(-1.5637555e-11 0 0)
(-1.37940438e-11 0 0)
(-1.41178215e-11 0 0)
(-1.47659168e-11 0 0)
(-1.56016532e-11 0 0)
(-1.55522716e-11 0 0)
(-1.4715295e-11 0 0)
(-1.55553464e-11 0 0)
(-1.52613139e-11 0 0)
(-1.50688501e-11 0 0)
(-1.58135454e-11 0 0)
(-1.67205952e-11 0 0)
(-1.46306892e-11 0 0)
(-1.51899169e-11 0 0)
(-1.64594414e-11 0 0)
(-1.63524867e-11 0 0)
(-1.57303006e-11 0 0)
(-1.67135489e-11 0 0)
(-1.5899238e-11 0 0)
(-1.6609513e-11 0 0)
(-1.69922284e-11 0 0)
(-1.57922249e-11 0 0)
(-1.57909852e-11 0 0)
(-1.48741801e-11 0 0)
(-1.5937565e-11 0 0)
(-1.55178836e-11 0 0)
(-1.53438487e-11 0 0)
(-1.6147855e-11 0 0)
(-1.63246585e-11 0 0)
(-1.55277462e-11 0 0)
(-1.67791993e-11 0 0)
(-1.66590177e-11 0 0)
(-1.63561959e-11 0 0)
(-1.59816891e-11 0 0)
(-1.52885786e-11 0 0)
(-1.52304189e-11 0 0)
(-1.6084064e-11 0 0)
(-1.57089103e-11 0 0)
(-1.59895355e-11 0 0)
(-1.57479158e-11 0 0)
(-1.58055397e-11 0 0)
(-1.53712741e-11 0 0)
(-1.61898195e-11 0 0)
(-1.67886086e-11 0 0)
(-1.54612306e-11 0 0)
(-1.56510867e-11 0 0)
(-1.57900988e-11 0 0)
(-1.62236145e-11 0 0)
(-1.63762205e-11 0 0)
(-1.59525135e-11 0 0)
(-1.53998856e-11 0 0)
(-1.63092189e-11 0 0)
(-1.49707392e-11 0 0)
(-1.59326042e-11 0 0)
(-1.61876827e-11 0 0)
(-1.59365831e-11 0 0)
(-1.62944504e-11 0 0)
(-1.59836455e-11 0 0)
(-1.62210988e-11 0 0)
(-1.6100647e-11 0 0)
(-1.60641968e-11 0 0)
(-1.61631635e-11 0 0)
(-1.63399521e-11 0 0)
(-1.70094293e-11 0 0)
(-1.58860464e-11 0 0)
(-1.70197257e-11 0 0)
(-1.73828943e-11 0 0)
(-1.67869435e-11 0 0)
(-1.70114732e-11 0 0)
(-1.80960412e-11 0 0)
(-1.83411375e-11 0 0)
(-1.86054456e-11 0 0)
(-1.65420958e-11 0 0)
(-1.75606857e-11 0 0)
(-1.94717585e-11 0 0)
(-1.84243812e-11 0 0)
(-1.82756917e-11 0 0)
(-1.78878549e-11 0 0)
(-1.77747587e-11 0 0)
(-1.86040375e-11 0 0)
(-1.82617181e-11 0 0)
(-1.8732139e-11 0 0)
(-1.91340376e-11 0 0)
(-1.88942587e-11 0 0)
(-1.73854669e-11 0 0)
(-1.91889809e-11 0 0)
(-1.87921922e-11 0 0)
(-1.79681448e-11 0 0)
(-1.86491199e-11 0 0)
(-1.83028415e-11 0 0)
(-1.85258188e-11 0 0)
(-1.86120154e-11 0 0)
(-1.78832746e-11 0 0)
(-1.86746791e-11 0 0)
(-1.86389508e-11 0 0)
(-1.92478915e-11 0 0)
(-1.83293416e-11 0 0)
(-1.86510576e-11 0 0)
(-1.92197836e-11 0 0)
(-1.7890699e-11 0 0)
(-1.7184402e-11 0 0)
(-1.69857659e-11 0 0)
(-1.77333724e-11 0 0)
(-1.83533727e-11 0 0)
(-1.72513893e-11 0 0)
(-1.86274684e-11 0 0)
(-1.75486041e-11 0 0)
(-1.88121773e-11 0 0)
(-1.76838994e-11 0 0)
(-1.70976257e-11 0 0)
(-1.7685752e-11 0 0)
(-1.83616443e-11 0 0)
(-1.95755294e-11 0 0)
(-1.7844051e-11 0 0)
(-1.82990885e-11 0 0)
(-1.91956727e-11 0 0)
(-1.7822876e-11 0 0)
(-1.73386531e-11 0 0)
(-1.74782021e-11 0 0)
(-1.73075326e-11 0 0)
(-1.68905873e-11 0 0)
(-1.71884414e-11 0 0)
(-1.7404215e-11 0 0)
(-1.70660736e-11 0 0)
(-1.73306381e-11 0 0)
(-1.64484131e-11 0 0)
(-1.69363583e-11 0 0)
(-1.71478224e-11 0 0)
(-1.75668168e-11 0 0)
(-1.66503409e-11 0 0)
(-1.60846782e-11 0 0)
(-1.72854008e-11 0 0)
(-1.67132775e-11 0 0)
(-1.76129024e-11 0 0)
(-1.70668534e-11 0 0)
(-1.74645687e-11 0 0)
(-1.65270677e-11 0 0)
(-1.68210115e-11 0 0)
(-1.66353367e-11 0 0)
(-1.56128688e-11 0 0)
(-1.67203077e-11 0 0)
(-1.71900189e-11 0 0)
(-1.59492054e-11 0 0)
(-1.70372003e-11 0 0)
(-1.69674537e-11 0 0)
(-1.69631406e-11 0 0)
(-1.66340626e-11 0 0)
(-1.62065663e-11 0 0)
(-1.69767416e-11 0 0)
(-1.70570164e-11 0 0)
(-1.70627184e-11 0 0)
(-1.69169537e-11 0 0)
(-1.68606464e-11 0 0)
(-1.76944435e-11 0 0)
(-1.73759615e-11 0 0)
(-1.69858223e-11 0 0)
(-1.72674242e-11 0 0)
(-1.74841772e-11 0 0)
(-1.66029722e-11 0 0)
(-1.68543804e-11 0 0)
(-1.74423558e-11 0 0)
(-1.67822886e-11 0 0)
(-1.65441476e-11 0 0)
(-1.74760197e-11 0 0)
(-1.63994891e-11 0 0)
(-1.48039792e-11 0 0)
(-1.57097845e-11 0 0)
(-1.58765591e-11 0 0)
(-1.60992213e-11 0 0)
(-1.66125524e-11 0 0)
(-1.56594841e-11 0 0)
(-1.63694613e-11 0 0)
(-1.49141111e-11 0 0)
(-1.56833849e-11 0 0)
(-1.5442418e-11 0 0)
(-1.45948469e-11 0 0)
(-1.48996649e-11 0 0)
(-1.4444732e-11 0 0)
(-1.50562508e-11 0 0)
(-1.50132391e-11 0 0)
(-1.54798782e-11 0 0)
(-1.43708891e-11 0 0)
(-1.40672084e-11 0 0)
(-1.48186323e-11 0 0)
(-1.56608394e-11 0 0)
(-1.62263631e-11 0 0)
(-1.50757091e-11 0 0)
(-1.36387916e-11 0 0)
(-1.42294979e-11 0 0)
(-1.45581216e-11 0 0)
(-1.4804097e-11 0 0)
(-1.48204764e-11 0 0)
(-1.42001933e-11 0 0)
(-1.39902194e-11 0 0)
(-1.37525937e-11 0 0)
(-1.36753845e-11 0 0)
(-1.28921437e-11 0 0)
(-1.42428292e-11 0 0)
(-1.38500387e-11 0 0)
(-1.32157949e-11 0 0)
(-1.30408777e-11 0 0)
(-1.26464917e-11 0 0)
(-1.27624769e-11 0 0)
(-1.25616059e-11 0 0)
(-1.16121022e-11 0 0)
(-1.1261944e-11 0 0)
(-1.16804127e-11 0 0)
(-1.22349014e-11 0 0)
(-1.19696399e-11 0 0)
(-1.18267493e-11 0 0)
(-1.18289547e-11 0 0)
(-1.21783446e-11 0 0)
(-1.13055351e-11 0 0)
(-1.27752898e-11 0 0)
(-1.16050599e-11 0 0)
(-1.05514528e-11 0 0)
(-1.16558404e-11 0 0)
(-1.23415403e-11 0 0)
(-1.26331592e-11 0 0)
(-1.1449699e-11 0 0)
(-1.03842385e-11 0 0)
(-1.03777609e-11 0 0)
(-9.90134292e-12 0 0)
(-9.88604707e-12 0 0)
(-9.58284639e-12 0 0)
(-8.39627136e-12 0 0)
(-9.35141676e-12 0 0)
(-9.83644041e-12 0 0)
(-8.34278303e-12 0 0)
(-8.84732043e-12 0 0)
(-8.85836356e-12 0 0)
(-8.66446622e-12 0 0)
(-8.51707004e-12 0 0)
(-8.64976941e-12 0 0)
(-8.21675165e-12 0 0)
(-8.21304817e-12 0 0)
(-8.9117712e-12 0 0)
(-8.03755866e-12 0 0)
(-8.917902e-12 0 0)
(-9.19507158e-12 0 0)
(-9.1257273e-12 0 0)
(-8.94163048e-12 0 0)
(-9.02707862e-12 0 0)
(-9.0010208e-12 0 0)
(-8.46074366e-12 0 0)
(-8.73479445e-12 0 0)
(-8.89524939e-12 0 0)
(-8.42021111e-12 0 0)
(-8.97351519e-12 0 0)
(-7.46415085e-12 0 0)
(-8.23277524e-12 0 0)
(-6.82516962e-12 0 0)
(-8.27803079e-12 0 0)
(-8.15439709e-12 0 0)
(-7.62802886e-12 0 0)
(-7.17515742e-12 0 0)
(-8.01539462e-12 0 0)
(-7.66383925e-12 0 0)
(-7.03397312e-12 0 0)
(-7.94036808e-12 0 0)
(-8.13676937e-12 0 0)
(-7.60895192e-12 0 0)
(-7.98276894e-12 0 0)
(-7.3655424e-12 0 0)
(-7.67015302e-12 0 0)
(-7.26317312e-12 0 0)
(-8.03276499e-12 0 0)
(-7.18676168e-12 0 0)
(-6.44256716e-12 0 0)
(-7.29899407e-12 0 0)
(-6.55812007e-12 0 0)
(-6.61050101e-12 0 0)
(-6.66873988e-12 0 0)
(-6.20568228e-12 0 0)
(-6.49932244e-12 0 0)
(-5.85839179e-12 0 0)
(-5.52323097e-12 0 0)
(-5.38777436e-12 0 0)
(-6.08496051e-12 0 0)
(-5.36548152e-12 0 0)
(-6.05695065e-12 0 0)
(-4.63333083e-12 0 0)
(-5.84874623e-12 0 0)
(-4.53836088e-12 0 0)
(-4.51333486e-12 0 0)
(-4.93403288e-12 0 0)
(-5.12479979e-12 0 0)
(-4.66438134e-12 0 0)
(-3.92581822e-12 0 0)
(-4.63997762e-12 0 0)
(-3.82784563e-12 0 0)
(-4.48510719e-12 0 0)
(-4.20302908e-12 0 0)
(-4.20668097e-12 0 0)
(-5.14839829e-12 0 0)
(-4.67585018e-12 0 0)
(-5.154844e-12 0 0)
(-4.29304356e-12 0 0)
(-4.99966911e-12 0 0)
(-5.02656405e-12 0 0)
(-3.85677625e-12 0 0)
(-5.05026702e-12 0 0)
(-4.62127628e-12 0 0)
(-4.58262655e-12 0 0)
(-4.4501793e-12 0 0)
(-5.19283677e-12 0 0)
(-4.62181998e-12 0 0)
(-3.82851902e-12 0 0)
(-5.24353664e-12 0 0)
(-3.98671994e-12 0 0)
(-4.03832679e-12 0 0)
(-4.10173866e-12 0 0)
(-4.94351242e-12 0 0)
(-3.64981363e-12 0 0)
(-4.31095286e-12 0 0)
(-4.73284615e-12 0 0)
(-3.66889569e-12 0 0)
(-2.9268856e-12 0 0)
(-3.31629703e-12 0 0)
(-4.12489876e-12 0 0)
(-4.48256771e-12 0 0)
(-3.35364147e-12 0 0)
(-2.87946226e-12 0 0)
(-2.97668838e-12 0 0)
(-4.02069545e-12 0 0)
(-2.6221824e-12 0 0)
(-2.96134583e-12 0 0)
(-3.59357606e-12 0 0)
(-3.28653006e-12 0 0)
(-2.91408425e-12 0 0)
(-4.4084967e-12 0 0)
(-2.75066073e-12 0 0)
(-2.59195727e-12 0 0)
(-3.25133264e-12 0 0)
(-2.46521911e-12 0 0)
(-3.34760885e-12 0 0)
(-2.93079199e-12 0 0)
(-2.37025582e-12 0 0)
(-2.46521073e-12 0 0)
(-3.14441108e-12 0 0)
(-2.72883626e-12 0 0)
(-2.255715e-12 0 0)
(-2.31628978e-12 0 0)
(-1.41488144e-12 0 0)
(-3.14925454e-12 0 0)
(-2.0439939e-12 0 0)
(-2.97353259e-12 0 0)
(-1.81736822e-12 0 0)
(-2.35435227e-12 0 0)
(-1.68479114e-12 0 0)
(-2.94528888e-12 0 0)
(-1.53141001e-12 0 0)
(-1.85816973e-12 0 0)
(-1.65812418e-12 0 0)
(-1.18909918e-12 0 0)
(-1.50656718e-12 0 0)
(-5.5711065e-13 0 0)
(4.15223276e-14 0 0)
(-2.1877996e-12 0 0)
(-8.87266403e-13 0 0)
(-6.65675503e-13 0 0)
(-1.28986618e-12 0 0)
(-3.69768583e-13 0 0)
(3.96215775e-15 0 0)
(-1.17492182e-12 0 0)
(3.74953682e-13 0 0)
(-7.92248698e-13 0 0)
(-1.23140689e-12 0 0)
(5.52968371e-13 0 0)
(-3.51769667e-13 0 0)
(8.0667929e-13 0 0)
(8.15084921e-14 0 0)
(7.31304855e-13 0 0)
(-4.64132764e-13 0 0)
(-2.08388406e-13 0 0)
(-8.89702952e-13 0 0)
(1.21799147e-13 0 0)
(8.79764226e-13 0 0)
(6.76092935e-14 0 0)
(-5.92560888e-14 0 0)
(9.47700056e-13 0 0)
(1.22475647e-12 0 0)
(1.3941811e-12 0 0)
(1.23218026e-12 0 0)
(1.07413365e-12 0 0)
(8.05222781e-13 0 0)
(1.11523523e-12 0 0)
(-5.43040878e-13 0 0)
(7.76393079e-14 0 0)
(1.10291443e-12 0 0)
(2.65079592e-13 0 0)
(1.82793265e-12 0 0)
(7.0717167e-13 0 0)
(1.25509705e-12 0 0)
(1.33248086e-12 0 0)
(1.91489146e-12 0 0)
(7.86342998e-13 0 0)
(6.66051623e-13 0 0)
(2.22307562e-12 0 0)
(2.69358175e-12 0 0)
(2.61991327e-12 0 0)
(1.56141881e-12 0 0)
(2.80620959e-12 0 0)
(2.09738087e-12 0 0)
(1.51374026e-12 0 0)
(2.30761437e-12 0 0)
(1.74187987e-12 0 0)
(2.27868058e-12 0 0)
(2.23408327e-12 0 0)
(2.46433757e-12 0 0)
(2.73482051e-12 0 0)
(2.45294959e-12 0 0)
(3.24283888e-12 0 0)
(2.97867e-12 0 0)
(3.42215346e-12 0 0)
(3.89407322e-12 0 0)
(2.78398475e-12 0 0)
(4.3451055e-12 0 0)
(2.67039344e-12 0 0)
(3.58462085e-12 0 0)
(4.30706518e-12 0 0)
(4.20903363e-12 0 0)
(3.62734948e-12 0 0)
(3.14891803e-12 0 0)
(3.77436308e-12 0 0)
(4.07057231e-12 0 0)
(3.90178873e-12 0 0)
(5.2069565e-12 0 0)
(4.12400867e-12 0 0)
(4.15846544e-12 0 0)
(4.96294008e-12 0 0)
(3.93569125e-12 0 0)
(4.15004128e-12 0 0)
(3.79027188e-12 0 0)
(4.1571043e-12 0 0)
(3.1150771e-12 0 0)
(4.21023512e-12 0 0)
(3.96059052e-12 0 0)
(3.80524593e-12 0 0)
(3.71211383e-12 0 0)
(3.86128174e-12 0 0)
(3.74609404e-12 0 0)
(3.80386559e-12 0 0)
(4.61657383e-12 0 0)
(4.45392483e-12 0 0)
(5.35444653e-12 0 0)
(5.07160094e-12 0 0)
(4.64319847e-12 0 0)
(4.29493982e-12 0 0)
(4.02921311e-12 0 0)
(4.62643139e-12 0 0)
(4.54310781e-12 0 0)
(4.72991827e-12 0 0)
(5.10418401e-12 0 0)
(5.38784308e-12 0 0)
(5.55280693e-12 0 0)
(5.81795953e-12 0 0)
(6.1119451e-12 0 0)
(5.78348431e-12 0 0)
(5.40973401e-12 0 0)
(6.5768813e-12 0 0)
(5.99957273e-12 0 0)
(5.93008664e-12 0 0)
(6.06734626e-12 0 0)
(7.07122265e-12 0 0)
(7.50264028e-12 0 0)
(7.03833215e-12 0 0)
(6.15994784e-12 0 0)
(7.26224705e-12 0 0)
(7.5587972e-12 0 0)
(8.27703757e-12 0 0)
(7.19600359e-12 0 0)
(8.1951375e-12 0 0)
(7.70719025e-12 0 0)
(8.24916302e-12 0 0)
(6.7670421e-12 0 0)
(8.87363689e-12 0 0)
(7.35764238e-12 0 0)
(8.66142052e-12 0 0)
(8.7472518e-12 0 0)
(8.58683156e-12 0 0)
(8.76861474e-12 0 0)
(8.73170134e-12 0 0)
(9.15204371e-12 0 0)
(9.20755461e-12 0 0)
(8.74488958e-12 0 0)
(8.39358331e-12 0 0)
(8.71545822e-12 0 0)
(8.52762924e-12 0 0)
(9.14969155e-12 0 0)
(9.12411124e-12 0 0)
(8.63447744e-12 0 0)
(9.03120486e-12 0 0)
(9.28865204e-12 0 0)
(9.32573405e-12 0 0)
(9.37577671e-12 0 0)
(9.62653535e-12 0 0)
(9.64272889e-12 0 0)
(1.01137711e-11 0 0)
(8.9831332e-12 0 0)
(9.85011732e-12 0 0)
(1.07385115e-11 0 0)
(1.04106195e-11 0 0)
(1.01757462e-11 0 0)
(1.0643856e-11 0 0)
(1.01950234e-11 0 0)
(1.057981e-11 0 0)
(9.39590265e-12 0 0)
(1.03255954e-11 0 0)
(9.9585046e-12 0 0)
(1.00344158e-11 0 0)
(9.57737647e-12 0 0)
(1.01621243e-11 0 0)
(9.64967706e-12 0 0)
(1.00383847e-11 0 0)
(1.01029722e-11 0 0)
(9.98681606e-12 0 0)
(8.94388142e-12 0 0)
(1.07540779e-11 0 0)
(9.82187812e-12 0 0)
(9.61297383e-12 0 0)
(1.01107057e-11 0 0)
(1.02382272e-11 0 0)
(9.68606087e-12 0 0)
(9.09699793e-12 0 0)
(1.00228045e-11 0 0)
(1.02771062e-11 0 0)
(8.96939124e-12 0 0)
(9.49336619e-12 0 0)
(1.0159784e-11 0 0)
(1.02915121e-11 0 0)
(1.06465682e-11 0 0)
(9.91084639e-12 0 0)
(1.04237965e-11 0 0)
(1.01804175e-11 0 0)
(1.02882046e-11 0 0)
(1.11756867e-11 0 0)
(1.07791961e-11 0 0)
(1.05383495e-11 0 0)
(1.13260581e-11 0 0)
(1.1821422e-11 0 0)
(1.22109862e-11 0 0)
(1.22971144e-11 0 0)
(1.23270958e-11 0 0)
(1.30962741e-11 0 0)
(1.13449065e-11 0 0)
(1.20623889e-11 0 0)
(1.22884183e-11 0 0)
(1.13885964e-11 0 0)
(1.21892055e-11 0 0)
(1.24304089e-11 0 0)
(1.24555905e-11 0 0)
(1.23672215e-11 0 0)
(1.18349243e-11 0 0)
(1.06839955e-11 0 0)
(1.14726714e-11 0 0)
(1.21744768e-11 0 0)
(1.24532107e-11 0 0)
(1.11766344e-11 0 0)
(1.16188884e-11 0 0)
(1.08753706e-11 0 0)
(1.117739e-11 0 0)
(1.19188511e-11 0 0)
(1.07611048e-11 0 0)
(1.16949233e-11 0 0)
(1.03840296e-11 0 0)
(1.09444609e-11 0 0)
(1.11188738e-11 0 0)
(1.05120451e-11 0 0)
(1.01216509e-11 0 0)
(1.05826747e-11 0 0)
(1.09836358e-11 0 0)
(1.12864351e-11 0 0)
(1.06428646e-11 0 0)
(1.03438221e-11 0 0)
(1.00548848e-11 0 0)
(1.11622638e-11 0 0)
(1.01146923e-11 0 0)
(9.91412453e-12 0 0)
(1.03256242e-11 0 0)
(1.00268082e-11 0 0)
(9.44031371e-12 0 0)
(1.00544848e-11 0 0)
(1.04947533e-11 0 0)
(9.67863412e-12 0 0)
(1.00242624e-11 0 0)
(9.3185667e-12 0 0)
(1.00367206e-11 0 0)
(1.00080021e-11 0 0)
(1.02253752e-11 0 0)
(1.07912175e-11 0 0)
(9.76413225e-12 0 0)
(9.42875878e-12 0 0)
(1.00221313e-11 0 0)
(1.016107e-11 0 0)
(9.82440343e-12 0 0)
(8.39282897e-12 0 0)
(9.8583286e-12 0 0)
(9.9604752e-12 0 0)
(9.34906846e-12 0 0)
(9.76893437e-12 0 0)
(9.51325795e-12 0 0)
(9.33767515e-12 0 0)
(9.86148699e-12 0 0)
(9.89507075e-12 0 0)
(1.06881716e-11 0 0)
(1.12066481e-11 0 0)
(1.00991013e-11 0 0)
(1.12948539e-11 0 0)
(1.02847455e-11 0 0)
(1.04099573e-11 0 0)
(1.15810076e-11 0 0)
(1.01716571e-11 0 0)
(1.08548771e-11 0 0)
(9.71499934e-12 0 0)
(9.90566615e-12 0 0)
(9.99593682e-12 0 0)
(9.76355753e-12 0 0)
(9.15279867e-12 0 0)
(8.81947366e-12 0 0)
(8.85240136e-12 0 0)
(8.23566966e-12 0 0)
(7.917826e-12 0 0)
(1.01046059e-11 0 0)
(9.29566831e-12 0 0)
(8.52408751e-12 0 0)
(9.54951901e-12 0 0)
(8.98769712e-12 0 0)
(9.5381538e-12 0 0)
(9.63823793e-12 0 0)
(8.36563527e-12 0 0)
(9.01189984e-12 0 0)
(9.18267493e-12 0 0)
(9.81418071e-12 0 0)
(9.32756944e-12 0 0)
(9.46423957e-12 0 0)
(9.07608794e-12 0 0)
(9.53447898e-12 0 0)
(9.2828154e-12 0 0)
(8.94934796e-12 0 0)
(1.03083685e-11 0 0)
(8.70375637e-12 0 0)
(1.0192926e-11 0 0)
(9.89091032e-12 0 0)
(9.77752863e-12 0 0)
(9.85198432e-12 0 0)
(9.8008315e-12 0 0)
(9.99063866e-12 0 0)
(9.1265965e-12 0 0)
(9.76373151e-12 0 0)
(9.14389092e-12 0 0)
(8.86683216e-12 0 0)
(9.00757441e-12 0 0)
(8.50802576e-12 0 0)
(8.14740307e-12 0 0)
(9.08280857e-12 0 0)
(8.37624489e-12 0 0)
(9.04599979e-12 0 0)
(9.61412688e-12 0 0)
(9.34648774e-12 0 0)
(9.00273463e-12 0 0)
(9.80539672e-12 0 0)
(9.23884797e-12 0 0)
(1.0238257e-11 0 0)
(9.5084065e-12 0 0)
(9.04282568e-12 0 0)
(9.98890128e-12 0 0)
(1.05321649e-11 0 0)
(9.83209194e-12 0 0)
(1.03463819e-11 0 0)
(1.00678286e-11 0 0)
(1.06707045e-11 0 0)
(8.68113667e-12 0 0)
(9.12431849e-12 0 0)
(9.09137173e-12 0 0)
(9.21722895e-12 0 0)
(9.24382982e-12 0 0)
(9.12116394e-12 0 0)
(8.5774781e-12 0 0)
(8.50307756e-12 0 0)
(8.58069281e-12 0 0)
(8.98925195e-12 0 0)
(9.1961896e-12 0 0)
(9.27440214e-12 0 0)
(8.8501584e-12 0 0)
(9.14243158e-12 0 0)
(9.72611815e-12 0 0)
(9.01729671e-12 0 0)
(8.92985928e-12 0 0)
(9.86790132e-12 0 0)
(9.06036447e-12 0 0)
(9.58687216e-12 0 0)
(9.48933516e-12 0 0)
(9.16896636e-12 0 0)
(9.73666721e-12 0 0)
(8.76632587e-12 0 0)
(9.60197348e-12 0 0)
(9.44403579e-12 0 0)
(9.76431641e-12 0 0)
(9.26562151e-12 0 0)
(9.16517476e-12 0 0)
(9.28594371e-12 0 0)
(8.85153642e-12 0 0)
(8.03814977e-12 0 0)
(8.81177983e-12 0 0)
(7.93224088e-12 0 0)
(8.5558996e-12 0 0)
(8.09426954e-12 0 0)
(7.53691492e-12 0 0)
(8.18357467e-12 0 0)
(8.61994584e-12 0 0)
(7.93555206e-12 0 0)
(8.08603457e-12 0 0)
(7.47858071e-12 0 0)
(8.31166294e-12 0 0)
(8.72176306e-12 0 0)
(7.75869393e-12 0 0)
(8.62406959e-12 0 0)
(8.18630835e-12 0 0)
(8.00999052e-12 0 0)
(7.90051736e-12 0 0)
(7.81696917e-12 0 0)
(7.19722043e-12 0 0)
(7.17218674e-12 0 0)
(8.12957452e-12 0 0)
(8.26948213e-12 0 0)
(7.18935152e-12 0 0)
(7.35791735e-12 0 0)
(9.09968739e-12 0 0)
(7.76523245e-12 0 0)
(8.36360814e-12 0 0)
(7.42351255e-12 0 0)
(8.52021524e-12 0 0)
(7.85441246e-12 0 0)
(8.51910897e-12 0 0)
(8.34747678e-12 0 0)
(8.09415647e-12 0 0)
(8.1514933e-12 0 0)
(9.11766255e-12 0 0)
(8.87987229e-12 0 0)
(9.23736124e-12 0 0)
(9.39641009e-12 0 0)
(8.08781304e-12 0 0)
(8.71417661e-12 0 0)
(8.5283595e-12 0 0)
(9.23007533e-12 0 0)
(8.429402e-12 0 0)
(8.83395552e-12 0 0)
(8.27836754e-12 0 0)
(9.90678335e-12 0 0)
(7.856025e-12 0 0)
(8.57068162e-12 0 0)
(8.51162115e-12 0 0)
(8.42340665e-12 0 0)
(9.10869927e-12 0 0)
(8.87575045e-12 0 0)
(7.93885113e-12 0 0)
(9.04774955e-12 0 0)
(8.11574193e-12 0 0)
(8.17241502e-12 0 0)
(7.99015887e-12 0 0)
(8.66426026e-12 0 0)
(7.9261127e-12 0 0)
(7.94061258e-12 0 0)
(8.30855711e-12 0 0)
(7.95713902e-12 0 0)
(9.35875458e-12 0 0)
(7.70715952e-12 0 0)
(8.13577403e-12 0 0)
(8.00421965e-12 0 0)
(8.83433025e-12 0 0)
(7.41939877e-12 0 0)
(7.14069211e-12 0 0)
(8.85032467e-12 0 0)
(7.08318682e-12 0 0)
(8.0972278e-12 0 0)
(6.86835907e-12 0 0)
(7.4459313e-12 0 0)
(7.90191062e-12 0 0)
(6.61646835e-12 0 0)
(7.7659967e-12 0 0)
(6.27177533e-12 0 0)
(6.65853007e-12 0 0)
(6.25292778e-12 0 0)
(6.31841369e-12 0 0)
(4.89414114e-12 0 0)
(6.25581334e-12 0 0)
(6.0843656e-12 0 0)
(4.91241487e-12 0 0)
(5.1529729e-12 0 0)
(6.48959042e-12 0 0)
(5.10371602e-12 0 0)
(5.88928207e-12 0 0)
(4.93053708e-12 0 0)
(4.82499676e-12 0 0)
(4.59489051e-12 0 0)
(4.55638027e-12 0 0)
(4.45363342e-12 0 0)
(3.70461051e-12 0 0)
(4.55023156e-12 0 0)
(4.0415562e-12 0 0)
(3.44665475e-12 0 0)
(4.07036824e-12 0 0)
(4.40425474e-12 0 0)
(3.19059296e-12 0 0)
(3.40626254e-12 0 0)
(3.53805685e-12 0 0)
(3.90394953e-12 0 0)
(4.12604843e-12 0 0)
(3.47593768e-12 0 0)
(3.71731967e-12 0 0)
(4.61463243e-12 0 0)
(4.17523996e-12 0 0)
(4.50133363e-12 0 0)
(3.89331382e-12 0 0)
(4.39420504e-12 0 0)
(4.47847686e-12 0 0)
(3.7152895e-12 0 0)
(3.7368423e-12 0 0)
(3.76097571e-12 0 0)
(3.16031544e-12 0 0)
(3.19996652e-12 0 0)
(3.52090867e-12 0 0)
(3.6088772e-12 0 0)
(3.22359408e-12 0 0)
(2.56812033e-12 0 0)
(2.93691015e-12 0 0)
(2.7960594e-12 0 0)
(3.76619324e-12 0 0)
(3.78334325e-12 0 0)
(3.76877409e-12 0 0)
(2.98860472e-12 0 0)
(3.08536062e-12 0 0)
(2.85129751e-12 0 0)
(3.01707902e-12 0 0)
(2.96834678e-12 0 0)
(3.50105921e-12 0 0)
(4.7584058e-12 0 0)
(3.81050764e-12 0 0)
(3.75502776e-12 0 0)
(4.39518883e-12 0 0)
(4.399508e-12 0 0)
(3.57966866e-12 0 0)
(4.1954743e-12 0 0)
(4.08496981e-12 0 0)
(2.91101744e-12 0 0)
(2.60532524e-12 0 0)
(3.89266634e-12 0 0)
(3.63323017e-12 0 0)
(3.30750345e-12 0 0)
(3.45374218e-12 0 0)
(3.4639804e-12 0 0)
(3.43412273e-12 0 0)
(3.1521158e-12 0 0)
(3.26331793e-12 0 0)
(3.72297694e-12 0 0)
(3.11178348e-12 0 0)
(2.97677863e-12 0 0)
(2.72203525e-12 0 0)
(2.61581488e-12 0 0)
(4.22676196e-12 0 0)
(1.81014433e-12 0 0)
(2.43175052e-12 0 0)
(2.99201053e-12 0 0)
(2.14404191e-12 0 0)
(2.3670687e-12 0 0)
(2.43490457e-12 0 0)
(1.90625403e-12 0 0)
(2.26982089e-12 0 0)
(2.45950903e-12 0 0)
(2.09824123e-12 0 0)
(3.14802344e-12 0 0)
(2.08600646e-12 0 0)
(1.89010127e-12 0 0)
(1.79892045e-12 0 0)
(1.365775e-12 0 0)
(1.65334055e-12 0 0)
(7.73601231e-13 0 0)
(1.06683323e-12 0 0)
(1.22007293e-12 0 0)
(1.19116594e-12 0 0)
(1.24427316e-12 0 0)
(9.92603938e-13 0 0)
(5.17780622e-13 0 0)
(-7.4826671e-14 0 0)
(4.12959278e-13 0 0)
(-4.90897893e-13 0 0)
(-7.25088327e-13 0 0)
(-3.06582989e-13 0 0)
(-2.12062014e-12 0 0)
(-3.11057503e-13 0 0)
(-1.41365539e-12 0 0)
(-6.85459032e-13 0 0)
(-1.67289981e-12 0 0)
(-1.3645865e-12 0 0)
(-1.292445e-12 0 0)
(-1.05021314e-12 0 0)
(-2.21625529e-12 0 0)
(-3.08771365e-12 0 0)
(-2.03539171e-12 0 0)
(-3.79266895e-12 0 0)
(-3.89231851e-12 0 0)
(-3.33874902e-12 0 0)
(-4.18334026e-12 0 0)
(-3.7343835e-12 0 0)
(-3.82905178e-12 0 0)
(-3.92424043e-12 0 0)
(-3.60887883e-12 0 0)
(-3.77067266e-12 0 0)
(-3.34677341e-12 0 0)
(-3.18076682e-12 0 0)
(-3.61913722e-12 0 0)
(-3.34762696e-12 0 0)
(-3.57421167e-12 0 0)
(-3.61457485e-12 0 0)
(-3.30725223e-12 0 0)
(-3.79300846e-12 0 0)
(-4.11659023e-12 0 0)
(-4.39118251e-12 0 0)
(-3.71139611e-12 0 0)
(-5.26431451e-12 0 0)
(-4.43396504e-12 0 0)
(-3.46268849e-12 0 0)
(-4.53134031e-12 0 0)
(-4.09411959e-12 0 0)
(-5.18188269e-12 0 0)
(-4.55283734e-12 0 0)
(-5.14039197e-12 0 0)
(-5.48652807e-12 0 0)
(-5.15748927e-12 0 0)
(-6.16553514e-12 0 0)
(-6.04403354e-12 0 0)
(-4.98010803e-12 0 0)
(-4.27489526e-12 0 0)
(-5.3311154e-12 0 0)
(-5.47264616e-12 0 0)
(-4.6346407e-12 0 0)
(-5.19373214e-12 0 0)
(-4.41210112e-12 0 0)
(-5.28722731e-12 0 0)
(-5.10431747e-12 0 0)
(-6.13150782e-12 0 0)
(-6.43007587e-12 0 0)
(-5.46148414e-12 0 0)
(-6.65909414e-12 0 0)
(-5.94745614e-12 0 0)
(-5.56845088e-12 0 0)
(-6.21814697e-12 0 0)
(-6.96916677e-12 0 0)
(-5.75206657e-12 0 0)
(-6.53363988e-12 0 0)
(-7.00309084e-12 0 0)
(-6.08937701e-12 0 0)
(-7.00837442e-12 0 0)
(-7.19823642e-12 0 0)
(-6.86961251e-12 0 0)
(-7.51212391e-12 0 0)
(-7.45818916e-12 0 0)
(-8.54813154e-12 0 0)
(-7.16191044e-12 0 0)
(-6.87517581e-12 0 0)
(-7.98224821e-12 0 0)
(-9.04440448e-12 0 0)
(-9.2357106e-12 0 0)
(-8.61990142e-12 0 0)
(-9.17875483e-12 0 0)
(-8.65068041e-12 0 0)
(-9.61861872e-12 0 0)
(-9.7756399e-12 0 0)
(-1.05338738e-11 0 0)
(-9.78202192e-12 0 0)
(-9.86000047e-12 0 0)
(-9.94649173e-12 0 0)
(-9.42254587e-12 0 0)
(-9.7377778e-12 0 0)
(-1.05319624e-11 0 0)
(-1.00290716e-11 0 0)
(-1.06265727e-11 0 0)
(-9.24285145e-12 0 0)
(-1.05271226e-11 0 0)
(-1.07382002e-11 0 0)
(-1.01420917e-11 0 0)
(-1.01000271e-11 0 0)
(-9.95399117e-12 0 0)
(-1.01716087e-11 0 0)
(-1.07438251e-11 0 0)
(-1.00494262e-11 0 0)
(-1.02645213e-11 0 0)
(-1.01524992e-11 0 0)
(-9.64129909e-12 0 0)
(-9.54384215e-12 0 0)
(-1.05103495e-11 0 0)
(-1.08986166e-11 0 0)
(-1.02292697e-11 0 0)
(-1.08026024e-11 0 0)
(-1.01985213e-11 0 0)
(-1.05134481e-11 0 0)
(-1.0210714e-11 0 0)
(-1.01490928e-11 0 0)
(-1.03497671e-11 0 0)
(-1.12563173e-11 0 0)
(-9.85445003e-12 0 0)
(-9.98433424e-12 0 0)
(-1.07424572e-11 0 0)
(-1.06457537e-11 0 0)
(-9.43988855e-12 0 0)
(-9.63399456e-12 0 0)
(-9.52443302e-12 0 0)
(-9.17525524e-12 0 0)
(-9.93789395e-12 0 0)
(-9.27711336e-12 0 0)
(-8.81177911e-12 0 0)
(-8.86833189e-12 0 0)
(-1.00685385e-11 0 0)
(-1.06634516e-11 0 0)
(-9.87746964e-12 0 0)
(-8.4775915e-12 0 0)
(-9.1847026e-12 0 0)
(-9.22676891e-12 0 0)
(-9.76908551e-12 0 0)
(-9.52226738e-12 0 0)
(-8.91562498e-12 0 0)
(-8.99945849e-12 0 0)
(-9.85391552e-12 0 0)
(-9.35936434e-12 0 0)
(-8.98351616e-12 0 0)
(-9.27646281e-12 0 0)
(-8.56153975e-12 0 0)
(-9.65230315e-12 0 0)
(-9.62522622e-12 0 0)
(-9.36247653e-12 0 0)
(-9.29394515e-12 0 0)
(-8.93591361e-12 0 0)
(-9.70460295e-12 0 0)
(-9.68827951e-12 0 0)
(-9.90903038e-12 0 0)
(-1.0083299e-11 0 0)
(-9.38576779e-12 0 0)
(-1.03851544e-11 0 0)
(-1.11444517e-11 0 0)
(-1.04672511e-11 0 0)
(-1.01705535e-11 0 0)
(-1.05654244e-11 0 0)
(-9.75995761e-12 0 0)
(-9.75176293e-12 0 0)
(-9.22251748e-12 0 0)
(-9.78502042e-12 0 0)
(-1.00263551e-11 0 0)
(-9.90484199e-12 0 0)
(-1.10012827e-11 0 0)
(-9.93200958e-12 0 0)
(-1.03933407e-11 0 0)
(-1.07199873e-11 0 0)
(-1.03475594e-11 0 0)
(-1.06196254e-11 0 0)
(-1.02809157e-11 0 0)
(-9.69044222e-12 0 0)
(-1.04515344e-11 0 0)
(-9.92832964e-12 0 0)
(-1.03210094e-11 0 0)
(-1.02239888e-11 0 0)
(-1.00075201e-11 0 0)
(-1.11140195e-11 0 0)
(-1.05033996e-11 0 0)
(-1.17145247e-11 0 0)
(-1.04114243e-11 0 0)
(-1.10450921e-11 0 0)
(-1.1650371e-11 0 0)
(-1.03270938e-11 0 0)
(-1.06841668e-11 0 0)
(-1.14993579e-11 0 0)
(-1.06329666e-11 0 0)
(-1.06405443e-11 0 0)
(-1.0099258e-11 0 0)
(-1.02223306e-11 0 0)
(-1.04912672e-11 0 0)
(-1.07093818e-11 0 0)
(-1.08710922e-11 0 0)
(-1.06667607e-11 0 0)
(-1.14394828e-11 0 0)
(-1.16816744e-11 0 0)
(-1.11149586e-11 0 0)
(-1.07078365e-11 0 0)
(-1.13583253e-11 0 0)
(-1.21944581e-11 0 0)
(-1.06361802e-11 0 0)
(-1.15510813e-11 0 0)
(-1.17224707e-11 0 0)
(-1.16112856e-11 0 0)
(-1.10782849e-11 0 0)
(-1.07071968e-11 0 0)
(-1.01495912e-11 0 0)
(-9.97378087e-12 0 0)
(-1.13698904e-11 0 0)
(-1.0654417e-11 0 0)
(-1.05836526e-11 0 0)
(-1.04414521e-11 0 0)
(-1.12334297e-11 0 0)
(-1.03128885e-11 0 0)
(-1.01126567e-11 0 0)
(-1.11496202e-11 0 0)
(-9.61085613e-12 0 0)
(-1.07445396e-11 0 0)
(-9.67784037e-12 0 0)
(-1.04885379e-11 0 0)
(-1.04961435e-11 0 0)
(-1.04597919e-11 0 0)
(-1.12870315e-11 0 0)
(-1.0749812e-11 0 0)
(-9.83384193e-12 0 0)
(-1.00527192e-11 0 0)
(-9.73370042e-12 0 0)
(-9.27759623e-12 0 0)
(-1.01263577e-11 0 0)
(-1.02670919e-11 0 0)
(-9.33503693e-12 0 0)
(-9.42250118e-12 0 0)
(-1.04510914e-11 0 0)
(-9.66483775e-12 0 0)
(-1.01104184e-11 0 0)