/*--------------------------------*- C++ -*----------------------------------*\
| =========                 |                                                 |
| \\      /  F ield         | OpenFOAM: The Open Source CFD Toolbox           |
|  \\    /   O peration     | Version:  2206                                  |
|   \\  /    A nd           | Website:  www.openfoam.com                      |
|    \\/     M anipulation  |                                                 |
\*---------------------------------------------------------------------------*/
FoamFile
{
    version     2.0;
    format      ascii;
    arch        "LSB;label=32;scalar=64";
    class       surfaceScalarField;
    location    "3.4e-06";
    object      phi;
}
// * * * * * * * * * * * * * * * * * * * * * * * * * * * * * * * * * * * * * //

dimensions      [1 0 -1 0 0 0 0];

oriented        oriented;

internalField   nonuniform List<scalar> 
3182
(
9.86987461e-19
-8.51767596e-19
2.29520453e-19
-4.73993647e-19
-6.89865589e-23
-1.74613584e-24
-1.27173513e-25
-1.88370305e-30
2.88708195e-29
9.39153484e-25
1.2831411e-23
1.09282447e-21
1.87692079e-18
-7.57447695e-19
-1.35319624e-18
-2.1939333e-23
1.4033981e-18
-1.49007145e-18
-2.83369523e-18
3.54784263e-18
2.66825045e-21
5.1155767e-23
6.37983478e-24
2.93241635e-23
4.27222312e-22
1.46562286e-18
3.11675646e-18
-1.9905516e-18
-1.62592398e-18
-1.46658417e-18
-1.12837383e-18
1.07758672e-18
-5.39959293e-20
-1.02514742e-18
3.24745266e-19
4.8454605e-19
-4.87624943e-19
-4.84846491e-19
4.86155263e-19
-3.84544656e-19
-2.38587494e-18
-1.50923944e-18
4.31687729e-19
9.76039184e-19
9.7925561e-19
1.29557057e-18
1.19222293e-18
5.39147053e-19
-5.40184826e-19
-6.09942957e-22
-7.61657717e-19
-1.28998354e-18
-7.57310229e-19
-2.20785335e-19
-2.18499947e-19
-6.4772513e-19
2.11411258e-21
-1.78356366e-21
2.16402194e-19
7.62105568e-22
-6.46255868e-19
-1.08527438e-18
-5.97809999e-21
8.50685803e-23
1.70848464e-20
8.75140523e-19
1.95608744e-18
2.59771348e-18
1.74768685e-18
3.02218422e-18
3.9019335e-18
3.06224472e-18
4.35076959e-18
4.3438323e-18
3.92218814e-18
4.37360746e-18
5.64447748e-18
5.67580435e-18
5.26457656e-18
6.58836714e-18
6.55184916e-18
6.0260449e-18
5.12404705e-18
5.15955653e-18
3.25235425e-18
2.48485649e-18
8.74759476e-19
1.6362984e-18
3.35263369e-18
1.53160105e-18
7.77192852e-19
-7.8038887e-19
-5.72361701e-19
3.3688421e-18
6.63085662e-19
2.13714984e-18
4.76325692e-19
4.3489872e-19
1.8055277e-18
4.89064881e-18
3.1186978e-18
3.27297843e-18
2.61908436e-18
3.74766826e-18
3.29250227e-18
2.11093136e-18
3.50851308e-19
-1.49361207e-18
4.06796695e-19
-3.39205418e-18
-4.27742875e-19
-9.64949661e-20
-2.94013495e-18
-3.31440834e-18
-3.47866737e-18
6.65841524e-19
-8.50365713e-19
-3.23368341e-18
-3.56399595e-18
-2.40424271e-19
-2.11512614e-18
1.19432617e-18
2.58118689e-18
-1.73868984e-18
9.6558508e-20
-3.27655155e-19
-6.12711613e-20
-3.03241568e-18
2.0910823e-18
1.41585411e-18
8.61797615e-19
1.39370443e-18
1.07728319e-18
6.41788198e-19
1.85548765e-18
1.04413388e-18
-1.10842021e-18
-1.28959607e-18
9.61209764e-19
2.95862405e-18
2.71591508e-18
6.88339882e-18
5.82330745e-18
8.07420547e-18
8.58211506e-18
9.36841616e-18
8.08277848e-18
5.64161235e-18
8.32129202e-18
8.29552941e-18
9.35068258e-18
6.32082801e-18
9.07759632e-18
8.03238432e-18
8.09401812e-18
6.06337273e-18
6.64216345e-18
7.98958742e-18
9.13779054e-18
6.28282085e-18
7.97100384e-18
7.60595269e-18
6.28258246e-18
6.73930585e-18
5.97535338e-18
6.57001937e-18
8.41654997e-18
4.89866902e-18
8.08813073e-18
7.61600759e-18
5.1081536e-18
4.8876292e-18
8.0548022e-18
9.79622967e-18
7.23578591e-18
3.41500278e-18
3.63303362e-18
3.21308747e-18
2.60508122e-18
4.3731944e-19
5.17318362e-19
7.14167472e-19
3.64893288e-18
5.77930392e-18
2.80223213e-18
5.17818536e-18
6.36790546e-18
4.5944866e-18
5.17952641e-18
5.30370795e-18
4.48496779e-18
3.43065229e-18
1.97608179e-18
1.60447976e-18
2.94578408e-18
5.06800833e-18
3.39938797e-18
5.21007131e-18
6.43222111e-18
3.32675686e-18
4.42248116e-18
5.21565657e-18
4.96087784e-18
3.67622031e-18
2.68823759e-18
-1.6805586e-19
-9.44710967e-19
5.34023364e-19
-2.06843996e-19
1.32645455e-18
1.01040303e-18
-1.27400269e-18
3.56723437e-18
2.97446506e-18
1.99071625e-18
3.88597543e-18
3.90893819e-18
6.30786e-18
7.15311649e-18
5.17206244e-18
3.14880552e-18
-3.14007419e-19
-1.8169796e-18
-2.77853812e-18
1.84807718e-19
-5.78795124e-19
1.52984911e-18
2.33470329e-18
1.92890352e-18
1.86248202e-19
-2.74862261e-18
-4.24703731e-18
-4.88241996e-18
-5.58100232e-18
-5.10875346e-18
-7.62791028e-18
-8.10477872e-18
-8.98584305e-18
-7.10827301e-18
-1.00343426e-17
-1.06068586e-17
-8.71738417e-18
-9.0595509e-18
-1.17227989e-17
-1.01391801e-17
-1.13425172e-17
-1.17604356e-17
-1.0527609e-17
-1.3422346e-17
-7.89894508e-18
-1.28990675e-17
-9.4545693e-18
-8.71759484e-18
-8.11087589e-18
-9.78262598e-18
-1.21976785e-17
-9.91758925e-18
-1.19344248e-17
-1.28255598e-17
-1.67253403e-17
-1.77903021e-17
-1.50298608e-17
-1.81921635e-17
-1.57959958e-17
-1.42182141e-17
-1.37917245e-17
-1.59618753e-17
-1.4287874e-17
-1.69064857e-17
-1.59981532e-17
-1.56052416e-17
-1.58996425e-17
-1.62402369e-17
-1.37993313e-17
-1.83176335e-17
-1.59056772e-17
-1.54148802e-17
-1.69212125e-17
-1.70984965e-17
-1.51916656e-17
-2.11467978e-17
-1.80207372e-17
-2.12454571e-17
-2.3232003e-17
-2.28845224e-17
-2.20514002e-17
-2.65922968e-17
-2.30301914e-17
-2.3004713e-17
-2.29031989e-17
-2.22430541e-17
-2.27060619e-17
-2.15911964e-17
-2.19261813e-17
-2.17926425e-17
-2.43701912e-17
-2.37789535e-17
-2.28499304e-17
-2.46278126e-17
-2.53122879e-17
-2.36997104e-17
-2.07453851e-17
-2.18873836e-17
-2.76818386e-17
-2.80464426e-17
-2.75594559e-17
-2.70793597e-17
-2.76825812e-17
-2.86959295e-17
-3.09908997e-17
-3.31941337e-17
-3.35830619e-17
-3.1023524e-17
-3.28766003e-17
-3.35521025e-17
-3.75990087e-17
-3.80617238e-17
-3.83977704e-17
-3.86349204e-17
-4.19191669e-17
-3.88074592e-17
-4.07922688e-17
-4.07057854e-17
-4.11458918e-17
-3.92508114e-17
-3.81066453e-17
-3.5055154e-17
-3.8195677e-17
-4.12373433e-17
-3.98698157e-17
-3.7841302e-17
-3.44096026e-17
-3.66511833e-17
-3.6321792e-17
-3.49611635e-17
-3.50252772e-17
-3.37400917e-17
-3.16111963e-17
-2.83592356e-17
-2.42310536e-17
-2.86691877e-17
-2.71437736e-17
-2.49020531e-17
-2.45296744e-17
-2.46839689e-17
-2.58715897e-17
-2.74903516e-17
-2.63362452e-17
-2.80861097e-17
-2.87838485e-17
-2.84171721e-17
-3.17628095e-17
-3.32087496e-17
-2.93605035e-17
-2.99437368e-17
-2.65326371e-17
-2.55499871e-17
-2.62841677e-17
-2.58352056e-17
-2.54049524e-17
-2.34105816e-17
-2.39697632e-17
-3.0075683e-17
-3.04835725e-17
-3.11953529e-17
-3.30570846e-17
-3.10326955e-17
-2.83519058e-17
-2.72021879e-17
-2.89283875e-17
-2.84918104e-17
-2.61875055e-17
-2.48740116e-17
-2.37227783e-17
-2.87035887e-17
-2.89458449e-17
-2.83609352e-17
-2.75999886e-17
-2.52925651e-17
-2.36674603e-17
-2.25386808e-17
-1.94671478e-17
-1.91422568e-17
-1.78625066e-17
-1.75371879e-17
-2.21442966e-17
-1.93148197e-17
-1.9045579e-17
-1.59821995e-17
-2.1871573e-17
-1.97500506e-17
-2.27808021e-17
-1.90941837e-17
-1.5138379e-17
-1.6170771e-17
-1.25989163e-17
-1.43645903e-17
-8.91371889e-18
-8.87407413e-18
-1.10537158e-17
-9.89483185e-18
-5.22022962e-18
-1.07333695e-17
-9.03183046e-18
-8.77748717e-18
-7.30019169e-18
-7.72048973e-18
-1.14992583e-17
-7.47701157e-18
-7.77840206e-18
-5.91507372e-18
-6.2682653e-18
-5.25529441e-18
-6.3857629e-18
-7.03092252e-18
-1.99924835e-18
-3.32048133e-19
-2.7243979e-20
2.56936112e-18
-5.25870031e-19
1.07982063e-18
-1.88610393e-18
-1.73965454e-18
4.00811113e-19
-9.65770469e-19
-6.96787533e-19
-1.36617466e-18
-2.74603408e-18
-1.21612387e-18
-1.40427428e-18
1.68829072e-18
-4.04166532e-19
-3.0941555e-19
-1.60851103e-19
-4.51501674e-18
-3.21023285e-18
-1.31393807e-18
-1.34728912e-18
4.94270936e-19
1.07453982e-18
2.50674466e-18
-1.34556917e-18
1.86624111e-18
1.40568621e-18
1.76649522e-18
3.31666374e-18
-1.19599156e-19
3.25965938e-18
3.55071106e-18
2.92237738e-18
3.66953834e-18
2.15905762e-18
3.84584952e-18
2.63809468e-18
1.69962262e-18
2.26746666e-19
1.38512614e-18
-2.31053627e-19
-4.75568839e-18
-3.5400418e-18
-1.61826204e-18
-3.05399576e-18
1.70014607e-19
-9.63982483e-19
-1.49551986e-20
-4.14450212e-19
3.83996506e-18
5.73603992e-18
5.16899874e-18
4.13395128e-18
4.57808338e-18
2.08368943e-18
-1.34589592e-18
-6.79109228e-19
-5.19910478e-18
-4.3815057e-18
-2.19747577e-18
-4.23961254e-18
-2.49847695e-18
-3.46851881e-18
2.98939983e-20
-4.00894448e-18
-2.16928165e-18
-2.88515268e-18
-1.43430485e-18
4.0912079e-19
-5.58014498e-19
2.01540636e-18
1.41298886e-18
1.42090692e-18
4.30692838e-18
7.41818556e-19
-1.09931973e-18
-1.99638664e-18
-1.6449115e-18
-2.98621746e-18
1.04852653e-18
-2.27522214e-18
-1.91026003e-18
-1.05457474e-18
-2.44720926e-18
-1.6278936e-18
-3.80512184e-18
-4.09156918e-18
-2.52439652e-18
-4.46498225e-18
-3.15678647e-18
-1.3072323e-18
-2.49892897e-18
-5.34657996e-19
3.88927773e-20
-6.50441992e-18
-2.58335709e-18
-2.4783615e-18
1.74472684e-18
2.0306189e-19
8.66690964e-19
6.76525881e-19
2.45079946e-18
7.4220182e-19
-9.18886525e-19
2.57705066e-18
-8.18220545e-19
2.64223448e-20
1.38744449e-18
7.02167971e-19
-7.66184003e-19
-6.16826235e-19
-2.05007275e-18
-3.16726624e-18
-4.2860337e-18
-3.09976117e-18
-3.21217282e-18
-3.89453585e-18
-3.49954804e-18
-3.4610382e-18
-2.12338078e-18
-4.86718766e-18
-3.55281308e-18
-5.26759623e-18
-6.69436612e-18
-4.46496273e-18
-3.18238446e-18
-4.87282343e-18
-1.72492408e-18
-1.97085678e-18
-4.13773902e-19
-2.05206864e-18
-1.29189554e-18
4.3475775e-19
-2.0846354e-18
-1.04985054e-18
3.12677407e-20
-7.66718092e-20
1.39478088e-19
8.29795001e-19
-5.23250316e-19
1.84450269e-18
1.40140124e-18
2.3757029e-18
2.38420232e-18
2.05143707e-18
1.31424343e-18
1.44684026e-18
1.71858355e-18
2.25642865e-18
3.7613182e-18
7.32263938e-18
9.46955207e-18
5.56033816e-18
6.21248025e-18
8.11338889e-18
6.16684907e-18
9.50731806e-18
8.4651497e-18
6.94336644e-18
3.42613523e-18
4.35876028e-18
5.38388336e-18
4.59349984e-18
7.85978101e-18
7.79666315e-18
9.18703386e-18
7.14525635e-18
8.13311896e-18
4.1332114e-18
4.12311861e-18
6.56090859e-18
2.56816446e-18
7.35681592e-18
4.73833813e-18
3.12361164e-18
5.13785736e-18
4.6471821e-18
5.55701837e-18
8.73471791e-18
6.6104144e-18
7.74925569e-18
9.90523791e-18
8.13019077e-18
8.1962699e-18
7.98461934e-18
1.12394158e-17
1.22919832e-17
1.25637377e-17
1.18529221e-17
1.60634023e-17
1.10587312e-17
1.19698252e-17
1.21083365e-17
1.01397323e-17
1.08973747e-17
1.09100881e-17
8.07651902e-18
1.06373467e-17
1.25443279e-17
1.14615913e-17
1.074484e-17
1.184416e-17
7.1562673e-18
8.70969943e-18
8.20578057e-18
5.24152718e-18
6.42484819e-18
8.93501912e-18
9.57982263e-18
1.08986181e-17
7.63071425e-18
5.18659261e-18
6.51845494e-18
4.20953587e-18
4.6826236e-18
6.17266764e-18
6.59215227e-18
7.19309702e-18
1.06811205e-17
8.62740435e-18
9.14475939e-18
8.34167204e-18
5.27629672e-18
7.06666846e-18
6.16989344e-18
2.79489762e-18
5.0217302e-18
2.82834962e-18
9.25891085e-19
-1.14840027e-18
8.81424718e-19
3.70741145e-18
5.56834543e-18
4.75699103e-18
4.97280164e-18
7.55552377e-18
6.50119749e-18
2.09277297e-18
2.38707473e-18
3.91104269e-18
4.19059837e-18
2.79177884e-18
2.68708025e-18
-6.31132109e-19
-2.51773552e-18
-1.8024433e-19
-2.01138799e-18
-8.90574957e-19
-1.13701701e-18
-1.91595098e-18
-2.38714524e-18
-1.38037531e-18
7.48491584e-19
-1.85405947e-18
2.84038507e-18
-1.51823798e-18
2.26074632e-18
9.29856386e-19
3.01013126e-19
-1.56032932e-18
-2.88837066e-19
1.00497068e-18
2.77064135e-18
2.88833579e-18
4.79478317e-18
3.34837644e-18
4.76362237e-18
5.73735972e-18
2.97223185e-18
3.9049461e-18
2.83805884e-18
5.62393314e-18
3.36265359e-18
5.73347985e-18
6.08519009e-18
8.39574778e-18
1.07725643e-17
1.05597696e-17
9.83724145e-18
9.12638906e-18
1.43233672e-17
1.44450403e-17
1.64851428e-17
1.87380854e-17
1.93799733e-17
1.63632794e-17
1.75860481e-17
1.73470749e-17
1.74218893e-17
1.92877681e-17
1.94673615e-17
1.85151715e-17
1.55888616e-17
1.82826505e-17
1.72931314e-17
1.9306025e-17
2.03229175e-17
2.10099695e-17
1.9812783e-17
1.99469727e-17
1.86850028e-17
1.67037484e-17
1.77139898e-17
1.56272308e-17
1.79421684e-17
1.73086235e-17
1.70514227e-17
1.5686981e-17
1.41380427e-17
1.58416157e-17
1.14651172e-17
1.15073734e-17
1.22502718e-17
1.22881625e-17
1.19628757e-17
8.11252511e-18
9.73267129e-18
1.04287681e-17
1.06358027e-17
9.84482989e-18
8.91282694e-18
1.03161607e-17
9.07416856e-18
1.00876629e-17
7.74123979e-18
6.15623765e-18
7.21033262e-18
6.77470653e-18
5.86978886e-18
5.90838627e-18
7.45550903e-18
7.98142909e-18
7.64799488e-18
9.87006538e-18
9.84736988e-18
9.61838311e-18
1.08312815e-17
1.21944291e-17
1.19734282e-17
9.98825796e-18
1.00250535e-17
1.15899032e-17
1.0072657e-17
1.1526066e-17
5.36243001e-18
7.74828493e-18
6.22376374e-18
5.4983712e-18
3.48351749e-18
3.71036098e-18
2.52123293e-18
2.4450087e-18
3.82245306e-18
3.34951371e-18
3.46668207e-18
3.6376051e-18
2.19941022e-18
6.91122793e-18
9.55080025e-18
3.68945347e-18
9.09650636e-18
9.57185049e-18
9.49732142e-18
1.0520415e-17
6.47270592e-18
7.86273456e-18
2.69822458e-18
5.58788154e-18
7.40952764e-18
4.2310837e-18
7.13829728e-18
3.62551203e-18
5.4234335e-19
4.54518778e-19
-6.63569632e-20
-3.19654442e-18
-6.90387312e-18
2.19590992e-18
-3.90504535e-18
-3.60087405e-19
-1.67057435e-18
-2.05918944e-18
-1.97313401e-18
-7.10075878e-19
1.65234288e-18
1.43062778e-18
2.04242279e-18
1.14679198e-19
-1.98476965e-18
1.0529272e-18
1.06465033e-18
-5.31064732e-19
7.63982762e-20
-4.34845532e-19
-2.24104881e-18
-6.92149463e-18
-7.42854856e-18
-5.83812355e-18
-6.3429476e-18
-9.0659198e-18
-7.99614228e-18
-7.33070172e-18
-8.83023427e-18
-7.66106308e-18
-5.85663049e-18
-2.82701875e-18
-4.15394664e-18
-2.58935938e-18
2.60840237e-19
1.07419606e-18
4.58452241e-19
-1.28912535e-18
-1.20501934e-18
2.29625342e-18
3.11586146e-18
3.10062813e-18
1.46264031e-18
2.8060437e-18
2.23089244e-18
2.29388762e-18
8.77229614e-19
4.17236653e-18
3.6427643e-18
1.5652731e-18
-2.50942909e-19
8.8601984e-19
-8.04621632e-19
-7.39583084e-19
9.55072342e-19
-1.87995108e-19
-1.79057705e-19
5.20002389e-19
-3.67192479e-19
2.09930012e-18
2.37332039e-18
-7.04781971e-19
-3.80199359e-19
-1.94995641e-18
-1.28743203e-18
-1.21920544e-18
-2.27853414e-18
-6.61374098e-18
-4.34381823e-18
-1.5780858e-18
-1.08475743e-18
-1.44061144e-19
1.12374699e-19
-2.20334233e-18
-7.3077528e-19
-5.60762681e-19
6.94014898e-19
2.92546217e-18
7.04770524e-19
2.47143352e-18
-6.51304986e-19
-1.58227136e-18
-1.92045943e-18
-2.98418555e-18
-1.46015087e-18
-3.08375831e-18
-3.04359032e-18
-2.51790621e-18
8.06764634e-19
2.35932038e-18
-1.50248385e-19
2.49404811e-18
3.52160265e-18
1.74045131e-18
1.62532895e-18
-8.13158745e-19
-1.56586624e-18
-1.94131909e-18
2.1348088e-18
1.02804532e-18
1.84312212e-18
-1.03645069e-19
1.72588535e-18
2.64873527e-19
3.74302824e-18
1.56143466e-18
1.62857836e-18
3.44787052e-18
4.13345547e-18
6.44791951e-18
2.261597e-18
5.03816961e-18
3.30792663e-18
3.6655692e-18
3.59701272e-18
3.87935874e-18
5.35391993e-19
1.53956801e-18
2.28197432e-18
8.30847441e-19
2.33642323e-18
2.00988609e-18
1.44718723e-18
5.47418628e-18
3.58101329e-18
3.48303728e-18
4.34383743e-18
7.61826751e-18
5.98989158e-18
8.721568e-18
7.80672656e-18
4.55599097e-18
3.28453473e-18
5.61392015e-18
3.16112564e-18
1.66521105e-18
1.58622142e-18
2.9885526e-18
3.53143357e-18
3.4426027e-18
6.20991305e-18
4.35984596e-18
4.39763186e-18
4.40206542e-18
4.14337336e-18
8.5649937e-18
8.79111717e-18
9.13174439e-18
9.9699439e-18
1.09352841e-17
1.15834352e-17
1.15814228e-17
1.39120635e-17
1.16718597e-17
1.62862291e-17
1.71140846e-17
1.52302236e-17
1.64401788e-17
1.51999472e-17
1.46273309e-17
1.48755706e-17
1.17673879e-17
1.0950685e-17
9.5141364e-18
1.05598606e-17
6.96738236e-18
9.15872048e-18
1.17610642e-17
1.3486956e-17
1.88243673e-17
1.87072723e-17
1.86063933e-17
1.77783628e-17
1.79011033e-17
2.14379709e-17
1.67237058e-17
2.07738652e-17
1.98069636e-17
1.9529634e-17
1.89459866e-17
1.86226111e-17
1.94759828e-17
1.88854151e-17
2.16855211e-17
1.89200032e-17
1.77206262e-17
1.84717774e-17
2.22795651e-17
2.11459495e-17
1.78044732e-17
2.28831413e-17
2.23574596e-17
2.12718803e-17
2.15273436e-17
1.94143753e-17
1.8316119e-17
2.16234677e-17
2.03085371e-17
2.17427138e-17
2.09430003e-17
1.98948748e-17
2.18954922e-17
2.19545572e-17
1.77479629e-17
1.77648789e-17
1.94002151e-17
1.7980152e-17
2.09298895e-17
2.13391881e-17
2.21689554e-17
1.82321626e-17
1.78166279e-17
1.94642919e-17
1.80352228e-17
1.8135347e-17
2.00985413e-17
1.73816169e-17
1.52950766e-17
1.76684782e-17
1.65774976e-17
1.54646735e-17
1.65602881e-17
1.94263189e-17
1.99709509e-17
2.02884925e-17
2.07951662e-17
2.08726831e-17
2.04464237e-17
2.03939032e-17
2.2704815e-17
2.24956059e-17
2.21852458e-17
2.27157178e-17
2.49748981e-17
2.01642221e-17
1.96820581e-17
1.93845772e-17
1.74415312e-17
1.63542357e-17
1.60684074e-17
1.57938413e-17
1.82027409e-17
1.86391012e-17
1.67555956e-17
1.33262578e-17
1.38630312e-17
1.2903768e-17
1.60074681e-17
1.64714647e-17
1.58019814e-17
1.40947637e-17
1.44306538e-17
1.17114328e-17
1.33973235e-17
1.40924641e-17
1.34081346e-17
1.05892604e-17
1.05210577e-17
1.37868256e-17
1.29322748e-17
9.76160545e-18
9.36240399e-18
9.02488222e-18
7.53136267e-18
8.67956374e-18
8.01836613e-18
4.25144078e-18
5.57896988e-18
3.79513466e-18
6.3324017e-18
8.02716576e-18
1.11202435e-17
1.00713327e-17
8.79551182e-18
9.3458544e-18
1.08798787e-17
1.23968586e-17
1.72540591e-17
1.5286336e-17
1.48545724e-17
1.56041326e-17
1.29308375e-17
1.12960118e-17
1.39846828e-17
1.18663541e-17
1.25930803e-17
1.10335704e-17
8.49857172e-18
1.03050286e-17
7.07700925e-18
9.54594647e-18
5.29041439e-18
7.61735577e-18
5.16263147e-18
5.43142906e-18
6.51621205e-18
2.94362236e-18
1.52907112e-18
1.95134584e-18
2.07637773e-18
1.84104157e-18
4.78726244e-18
3.48041243e-18
3.52204307e-18
3.24977678e-18
1.81948113e-18
1.3811243e-18
-1.47996865e-18
-1.73496992e-18
-1.27286897e-18
-1.61225338e-18
-2.43032411e-18
-4.45868869e-18
-3.29631365e-18
-6.0461896e-18
-5.47430916e-18
-1.06039548e-17
-9.63315369e-18
-9.46289959e-18
-9.75603948e-18
-8.04743134e-18
-1.05548659e-17
-1.08641873e-17
-1.09706603e-17
-7.89574031e-18
-7.58297113e-18
-1.1135692e-17
-1.07107064e-17
-1.58933867e-17
-1.3832619e-17
-1.32589517e-17
-1.47429752e-17
-1.58134146e-17
-1.44236903e-17
-1.19396381e-17
-1.62053593e-17
-1.62137263e-17
-1.659679e-17
-1.70249408e-17
-1.67994526e-17
-1.40479196e-17
-1.25905085e-17
-1.23110416e-17
-1.16812551e-17
-1.13546203e-17
-1.38801173e-17
-1.26584079e-17
-1.18196475e-17
-8.30508374e-18
-8.98902578e-18
-8.47428628e-18
-1.00936174e-17
-1.22594997e-17
-1.36012203e-17
-1.30280263e-17
-1.03694169e-17
-7.86930167e-18
-4.63906641e-18
-3.54611346e-18
1.68242618e-18
-3.95325788e-19
-4.36651536e-19
-1.2182795e-19
-1.19859079e-18
-5.27390453e-18
-9.28220858e-19
1.38029557e-18
-6.23840225e-19
-1.33445337e-18
-6.18533463e-18
-6.75101264e-18
-5.86579632e-18
-5.03961427e-18
-4.00170917e-18
-4.21081149e-18
-1.63021436e-18
-3.69062725e-18
-2.97680134e-18
-7.27437202e-18
-4.60752353e-18
-2.55239417e-18
-7.91893049e-19
-1.5857097e-18
-3.55124078e-18
-6.60592012e-18
-1.00909847e-17
-6.42273742e-18
-5.4195783e-18
-6.25136224e-18
-1.04233989e-17
-1.01042468e-17
-1.16879805e-17
-1.15207305e-17
-1.1074851e-17
-1.17574345e-17
-7.10172366e-18
-9.27441716e-18
-1.29004481e-17
-8.92004075e-18
-1.32204585e-17
-1.10327887e-17
-1.40414504e-17
-1.39070905e-17
-1.97190736e-17
-1.94536544e-17
-2.26348942e-17
-2.26399724e-17
-2.47669147e-17
-2.56211017e-17
-2.6838786e-17
-2.50335471e-17
-2.51597867e-17
-2.40647467e-17
-2.02646375e-17
-2.10673585e-17
-1.9227275e-17
-2.06903041e-17
-2.39704027e-17
-2.17698008e-17
-2.36782791e-17
-2.38553553e-17
-2.29662501e-17
-1.88112699e-17
-2.29421241e-17
-2.18946191e-17
-2.31746633e-17
-2.34598867e-17
-2.66014442e-17
-2.67998506e-17
-2.75443615e-17
-2.63360102e-17
-2.35262758e-17
-2.01479534e-17
-2.26237259e-17
-2.15678202e-17
-2.46747425e-17
-2.31148459e-17
-2.46222106e-17
-2.48593983e-17
-2.32758134e-17
-2.40868955e-17
-2.40779706e-17
-2.36401619e-17
-2.5913062e-17
-2.55420045e-17
-2.52970403e-17
-2.53468085e-17
-2.47225918e-17
-2.22017123e-17
-2.24686964e-17
-2.45219882e-17
-2.33172363e-17
-2.02690019e-17
-2.03214149e-17
-2.09230202e-17
-1.92463303e-17
-2.21077583e-17
-2.1620043e-17
-1.67465154e-17
-1.66824527e-17
-1.83749817e-17
-1.60398228e-17
-1.54142762e-17
-1.83089438e-17
-1.56319185e-17
-1.39625058e-17
-1.54379113e-17
-1.69454229e-17
-1.34651416e-17
-1.43664716e-17
-1.39813129e-17
-1.29115328e-17
-1.08203995e-17
-9.01915093e-18
-6.2126756e-18
-8.24554679e-18
-1.05505141e-17
-9.78501951e-18
-1.15639642e-17
-1.05017626e-17
-1.04588206e-17
-1.16661072e-17
-1.39370647e-17
-1.64742524e-17
-1.53435125e-17
-1.57968141e-17
-1.56496235e-17
-1.28820996e-17
-1.08822585e-17
-9.45762455e-18
-7.63180248e-18
-8.54701969e-18
-5.38775044e-18
-8.68586537e-18
-2.9325804e-18
-3.03528583e-18
-6.61155566e-19
-8.79209991e-19
-3.1436886e-18
-2.21544263e-18
-5.8915208e-20
-1.2336064e-18
-3.7572424e-19
-1.28334864e-18
-3.97052955e-18
-3.24509095e-18
-3.70045953e-18
-2.68760111e-18
-4.23936488e-18
-2.61084757e-18
-1.87910888e-18
-4.31981052e-18
-1.54387517e-18
-4.99469648e-18
-5.38540584e-18
-3.31103036e-18
-3.35406727e-18
6.42952498e-19
-3.33776027e-18
-3.51914005e-18
-2.07467481e-18
1.67639639e-18
1.65705867e-18
1.04721584e-18
2.93509282e-19
4.18380445e-19
2.11004217e-19
1.6149172e-18
1.30061153e-18
2.36424354e-18
3.12832918e-20
-2.58756837e-19
1.28482095e-18
-1.1784348e-18
-7.68931733e-19
-3.72801785e-18
-1.94056178e-18
-1.53222612e-18
2.20849698e-18
6.49944162e-19
-3.54148358e-18
1.88895783e-18
-1.75305469e-18
-1.81029188e-18
-2.19881987e-18
-3.97056362e-18
-4.63585847e-18
-2.1641437e-18
-4.15886903e-18
-2.99148057e-18
-4.90961199e-18
-3.6460517e-18
-5.11347323e-18
-4.70863197e-18
-1.73765005e-18
-3.65273613e-18
-4.18991878e-18
-4.68084092e-18
-1.37673729e-18
-9.61443035e-19
1.12984593e-18
7.7282939e-19
5.42281157e-18
5.71672593e-18
5.5244928e-18
8.07792493e-18
8.91888563e-18
8.69838912e-18
9.53298254e-18
1.15146645e-17
9.45602379e-18
7.32879571e-18
5.6104841e-18
9.15495209e-18
7.29849121e-18
5.08724095e-18
7.93298789e-18
5.91654061e-18
5.73294727e-18
3.64876064e-18
5.44079263e-18
3.13172649e-18
2.30910796e-18
4.26101944e-18
2.90956416e-18
5.08346199e-18
2.22413842e-18
1.56697333e-18
3.57351965e-18
7.56021433e-18
6.02756077e-18
5.29102187e-18
4.21936838e-18
2.58150533e-18
4.98150852e-18
2.87559131e-18
5.90111322e-18
7.41987178e-18
8.77736082e-18
7.62196442e-18
8.76880177e-18
8.24256264e-18
9.1138082e-18
6.4771042e-18
4.64416292e-18
5.04500858e-19
2.72800526e-18
3.81402198e-18
7.10771873e-19
-1.43125665e-18
-2.13781269e-18
-7.90999275e-19
-8.01301711e-20
9.60383334e-19
1.0165078e-18
1.31302012e-18
4.61314575e-19
2.8445167e-18
-5.39877974e-19
1.38946328e-18
4.21440345e-20
7.59589744e-19
-3.56613022e-18
-7.38436075e-20
-6.49615213e-19
5.12928646e-19
6.40543929e-19
1.55685265e-18
3.48797436e-19
3.99530936e-18
1.38330296e-18
3.22892116e-18
1.2742098e-18
4.38884815e-18
3.72987371e-18
3.61560334e-18
1.86585728e-18
-8.42553149e-19
-9.70979092e-19
-1.79147239e-18
-2.38670127e-18
-1.47885689e-18
-4.02185764e-19
-1.58741371e-19
-2.21104381e-19
-4.33753048e-18
-1.10879654e-18
1.76101636e-19
-4.28179926e-18
-1.39536547e-18
-9.15504706e-19
-1.48388957e-18
-2.9017539e-19
-1.21365679e-18
-4.71577982e-19
-4.64374003e-18
-7.67443171e-18
-5.83721126e-18
-4.23418005e-18
-3.15628621e-18
-2.58062094e-18
-2.52254772e-18
3.1122165e-20
8.51775015e-19
-8.57659042e-19
-1.93156584e-18
-3.27869873e-18
-3.06336541e-18
-5.83498193e-18
-6.71983249e-18
-6.017337e-18
-6.19840687e-18
-7.6601213e-18
-8.78522656e-18
-6.71170541e-18
-7.31826771e-18
-7.58951848e-18
-9.84975928e-18
-1.27174839e-17
-1.27246101e-17
-1.42280265e-17
-1.17840294e-17
-1.25627871e-17
-1.05125491e-17
-1.39689732e-17
-1.1317676e-17
-1.42914821e-17
-1.38124744e-17
-1.37644641e-17
-1.5729434e-17
-1.77558366e-17
-1.97113843e-17
-1.60720478e-17
-1.72288948e-17
-1.95467822e-17
-2.1786381e-17
-1.87066882e-17
-1.89396915e-17
-1.7280815e-17
-1.64513154e-17
-1.51792673e-17
-1.76435101e-17
-1.78410378e-17
-1.67441304e-17
-1.78414038e-17
-1.55808128e-17
-1.81904186e-17
-1.57499651e-17
-1.74590095e-17
-1.69476521e-17
-2.06204891e-17
-1.79353379e-17
-1.73381957e-17
-1.98410782e-17
-2.02100618e-17
-1.82636077e-17
-1.86926558e-17
-1.6713491e-17
-1.77337992e-17
-1.54686738e-17
-1.65044143e-17
-1.13678216e-17
-1.25313149e-17
-1.25790385e-17
-8.78237871e-18
-5.61741077e-18
-1.01156396e-17
-1.092954e-17
-1.13852845e-17
-1.12254361e-17
-1.02142725e-17
-8.92332586e-18
-1.08605147e-17
-1.11130751e-17
-9.71435054e-18
-9.97077986e-18
-6.83453949e-18
-9.08307344e-18
-5.87687059e-18
-3.95260855e-18
-7.81144693e-19
-2.07886006e-19
-2.92111767e-18
-1.58166802e-18
-3.81738885e-18
-5.33897761e-18
-1.11817625e-18
-5.37824747e-18
-8.46264718e-18
-8.23451164e-18
-7.29912598e-18
-6.57722864e-18
-5.33498201e-18
-5.05039937e-18
-1.02499379e-18
-5.40540928e-19
-3.98547918e-18
-1.92920152e-18
-1.06843023e-19
1.59474224e-18
-1.30689483e-18
-1.64091744e-18
-3.39148715e-18
-3.07673146e-18
-4.91518161e-18
-4.84795446e-18
-2.57100144e-18
-3.60744187e-18
-5.56912916e-18
-5.9988696e-18
-5.2049319e-18
-2.39623671e-18
-4.05308976e-18
-5.51555865e-18
-6.25775972e-18
-5.388888e-18
-7.95605192e-18
-7.78283718e-18
-7.31142559e-18
-1.25858282e-17
-1.14471496e-17
-1.50623337e-17
-1.3990749e-17
-1.60758128e-17
-1.46898206e-17
-1.45178965e-17
-1.4809825e-17
-1.68302559e-17
-1.43084122e-17
-1.13360927e-17
-1.51895888e-17
-1.41208839e-17
-1.07665996e-17
-1.39698072e-17
-1.22909583e-17
-1.41006796e-17
-1.4111988e-17
-1.53445338e-17
-1.80581103e-17
-1.57158975e-17
-1.86737747e-17
-1.68774623e-17
-2.06869012e-17
-2.17018462e-17
-1.84352383e-17
-1.85639098e-17
-1.92282181e-17
-2.0650741e-17
-1.87780226e-17
-1.73027071e-17
-1.53132115e-17
-1.36553372e-17
-1.24959435e-17
-9.31577586e-18
-1.13637485e-17
-1.07303533e-17
-9.77000035e-18
-7.70434628e-18
-6.51348333e-18
-1.11856089e-17
-8.98785126e-18
-7.67096687e-18
-7.25138531e-18
-7.2262084e-18
-6.93076031e-18
-5.04825867e-18
-6.73972083e-18
-5.24861333e-18
-7.18104664e-18
-6.43865406e-18
-6.16772803e-18
-5.61603086e-18
-4.29295748e-18
-4.84438756e-18
-5.83929209e-18
-2.20931299e-18
-3.43891506e-18
-2.30788962e-18
-3.8646675e-18
-3.02891567e-18
-3.82979149e-18
-2.26436344e-18
-3.10218345e-18
-1.61156694e-18
-4.07672603e-18
-5.41456157e-18
-7.4772914e-19
-2.45995584e-18
-4.49032654e-18
-3.3284898e-18
-3.5769775e-18
-2.43993847e-18
-4.41754481e-18
-5.86270538e-18
-6.72356411e-18
-8.46257856e-18
-5.92157036e-18
-4.87124335e-18
-6.6193146e-18
-6.41519912e-18
-8.57888875e-18
-8.71156155e-18
-1.30634643e-17
-1.16202007e-17
-9.05135874e-18
-8.33650976e-18
-7.85109029e-18
-5.88139146e-18
-4.93225017e-18
-3.75362773e-18
-2.53018153e-18
-2.12866741e-18
-2.03155485e-18
-1.82252708e-18
-3.89968725e-18
-4.05353824e-18
-4.54835921e-18
-2.77633931e-18
-3.85160982e-18
-3.10388578e-18
-4.10852663e-18
-4.47787834e-18
-6.6190141e-18
-5.92155719e-18
-6.7747064e-18
-3.12001486e-18
-6.20003099e-18
-4.66655262e-18
-4.94965665e-18
-6.93084608e-18
-5.86448539e-18
-4.28268573e-18
-2.75598855e-18
-1.14055288e-18
-2.288315e-18
-2.23878301e-18
-5.50833173e-18
-4.31113065e-18
-4.20067478e-18
-6.16061214e-18
-5.69655583e-18
-2.26387198e-18
-4.60612386e-18
-3.46884978e-18
-2.77557565e-19
-2.60725341e-18
-2.84021902e-18
-3.2854875e-18
-1.72690032e-18
2.58903042e-18
1.13674242e-18
-1.63669866e-19
4.25857175e-19
1.79584222e-18
4.8526459e-18
3.77363297e-18
4.7084403e-18
4.2440154e-18
8.28882675e-18
7.83381798e-18
6.69301888e-18
6.83380069e-18
9.36974822e-18
8.8456127e-18
8.66047982e-18
5.88698941e-18
5.02458162e-18
4.57305755e-18
3.8998751e-18
2.32816266e-18
3.31604421e-18
3.96506125e-18
4.2190482e-18
-1.48181893e-18
3.17426657e-18
3.9901581e-18
4.24407284e-18
5.92889756e-18
6.18512474e-18
8.39821088e-18
9.79730534e-18
1.2262361e-17
9.7592513e-18
8.77038143e-18
6.14343731e-18
1.09176735e-17
8.06889726e-18
5.43516374e-18
6.5576787e-18
9.20022482e-18
1.08344253e-17
9.01212814e-18
1.02816564e-17
1.04616655e-17
8.11668622e-18
7.07175218e-18
8.60767525e-18
8.08828086e-18
9.12391141e-18
4.90901628e-18
2.79205049e-18
4.26941902e-18
7.01343607e-18
5.9236031e-18
4.0389543e-18
7.66203815e-18
5.46543481e-18
4.53160556e-18
5.70407252e-18
3.98944474e-18
6.84204037e-18
4.03076298e-18
6.55098153e-18
5.22875731e-18
7.92755377e-18
8.58181384e-18
6.27367262e-18
6.4517346e-18
4.74492727e-18
6.38589933e-18
1.04742344e-17
1.22070543e-17
1.09882306e-17
1.21211249e-17
1.44920689e-17
1.42663518e-17
1.37315466e-17
9.71712915e-18
1.22647996e-17
1.20181529e-17
1.10097309e-17
1.36636048e-17
1.61467378e-17
1.46025349e-17
1.38393634e-17
1.35229593e-17
1.64156907e-17
1.8851906e-17
1.81186883e-17
1.7978332e-17
1.69049961e-17
1.60559302e-17
1.60210135e-17
1.81349048e-17
1.78126993e-17
1.90477085e-17
1.88944057e-17
1.72711822e-17
1.7670613e-17
1.97568353e-17
1.93178731e-17
2.14935902e-17
1.83193258e-17
1.80538253e-17
2.13615172e-17
1.97451722e-17
1.72262558e-17
1.83425299e-17
1.60743409e-17
1.79192049e-17
1.65310356e-17
1.39808512e-17
1.55308064e-17
1.6950596e-17
1.89963463e-17
2.08427734e-17
1.94405595e-17
1.78949911e-17
2.04915484e-17
1.76788301e-17
1.58520322e-17
1.69689429e-17
1.74345719e-17
2.02929026e-17
2.1713955e-17
2.26847645e-17
1.9856847e-17
2.06633194e-17
1.7101777e-17
1.68687028e-17
1.74546679e-17
1.80842658e-17
1.83391751e-17
1.68348812e-17
2.15348947e-17
1.90666184e-17
1.93064008e-17
2.38413671e-17
2.6226226e-17
2.86390242e-17
2.64444759e-17
2.84360213e-17
2.90114819e-17
2.76312298e-17
2.72737761e-17
2.96930212e-17
3.02417981e-17
3.10284411e-17
3.18940703e-17
3.29245879e-17
3.48151422e-17
3.25278803e-17
3.29542198e-17
3.27539492e-17
3.46528868e-17
3.35430483e-17
3.29000614e-17
3.09903106e-17
3.21249183e-17
3.33045767e-17
3.18025286e-17
3.01865584e-17
2.99600887e-17
2.76060683e-17
2.65070084e-17
2.73419901e-17
3.06395382e-17
2.84060013e-17
2.88253486e-17
2.91859101e-17
2.76955527e-17
2.35511782e-17
2.36027019e-17
2.46888257e-17
2.33197184e-17
2.60824053e-17
2.66703315e-17
2.61795794e-17
2.77858963e-17
2.91906581e-17
2.88865241e-17
2.81729076e-17
2.83492003e-17
2.87931308e-17
3.3443181e-17
3.46566357e-17
3.39381135e-17
3.26612794e-17