/*--------------------------------*- C++ -*----------------------------------*\
| =========                 |                                                 |
| \\      /  F ield         | OpenFOAM: The Open Source CFD Toolbox           |
|  \\    /   O peration     | Version:  2206                                  |
|   \\  /    A nd           | Website:  www.openfoam.com                      |
|    \\/     M anipulation  |                                                 |
\*---------------------------------------------------------------------------*/
FoamFile
{
    version     2.0;
    format      ascii;
    arch        "LSB;label=32;scalar=64";
    class       volVectorField;
    location    "3.4e-06";
    object      U;
}
// * * * * * * * * * * * * * * * * * * * * * * * * * * * * * * * * * * * * * //

dimensions      [0 1 -1 0 0 0 0];

internalField   nonuniform List<vector> 
3183
(
(6.50712292e-14 0 0)
(-5.40543663e-15 0 0)
(-3.41303373e-14 0 0)
(-3.39186356e-14 0 0)
(-3.56911238e-14 0 0)
(-5.09422633e-19 0 0)
(-4.01803554e-20 0 0)
(-9.00394003e-25 0 0)
(2.90065339e-25 0 0)
(8.39318558e-24 0 0)
(2.81985222e-19 0 0)
(3.58482086e-18 0 0)
(1.451637e-13 0 0)
(5.97711895e-14 0 0)
(-1.08319514e-13 0 0)
(-1.21331163e-13 0 0)
(1.23796591e-13 0 0)
(-1.22228413e-14 0 0)
(-3.64121197e-13 0 0)
(1.80238896e-14 0 0)
(2.46646194e-13 0 0)
(1.45557581e-17 0 0)
(1.52741012e-18 0 0)
(4.64084807e-19 0 0)
(8.36393213e-18 0 0)
(1.04063744e-13 0 0)
(3.79868651e-13 0 0)
(6.77577442e-14 0 0)
(-2.92254315e-13 0 0)
(-1.72647473e-13 0 0)
(-2.20979925e-13 0 0)
(5.81090941e-14 0 0)
(1.04810048e-13 0 0)
(-1.19470407e-13 0 0)
(6.50241657e-19 0 0)
(9.15411423e-14 0 0)
(-9.63687109e-14 0 0)
(-1.01384926e-13 0 0)
(1.06594582e-13 0 0)
(-8.74620648e-14 0 0)
(-3.41505808e-13 0 0)
(-2.6248813e-13 0 0)
(8.71173677e-14 0 0)
(7.65304689e-14 0 0)
(2.25383649e-13 0 0)
(1.35733233e-13 0 0)
(1.96142708e-13 0 0)
(7.48990421e-14 0 0)
(-7.86340392e-14 0 0)
(-4.14839649e-14 0 0)
(-2.23159584e-14 0 0)
(-1.14813902e-13 0 0)
(-1.44668855e-13 0 0)
(-1.0219515e-13 0 0)
(7.94193789e-14 0 0)
(-1.11848163e-13 0 0)
(5.89604762e-14 0 0)
(-1.22825636e-16 0 0)
(6.54106213e-14 0 0)
(6.88935358e-14 0 0)
(-1.4462255e-13 0 0)
(-1.52933008e-13 0 0)
(-8.0969697e-14 0 0)
(-4.19033937e-14 0 0)
(4.56758009e-14 0 0)
(1.40080862e-13 0 0)
(2.96900964e-13 0 0)
(3.11518418e-13 0 0)
(4.33927168e-13 0 0)
(2.37247261e-13 0 0)
(5.38707647e-13 0 0)
(4.48704495e-13 0 0)
(4.73397866e-13 0 0)
(8.3806058e-13 0 0)
(5.92729158e-13 0 0)
(4.83824283e-13 0 0)
(6.59364632e-13 0 0)
(1.11626489e-12 0 0)
(7.42100773e-13 0 0)
(1.04826075e-12 0 0)
(1.09492581e-12 0 0)
(9.59610655e-13 0 0)
(1.06763874e-12 0 0)
(2.79819935e-13 0 0)
(2.79366919e-13 0 0)
(4.64238079e-13 0 0)
(-1.13840985e-13 0 0)
(3.38502671e-14 0 0)
(5.41504629e-13 0 0)
(7.20618666e-14 0 0)
(4.56215459e-13 0 0)
(-2.09624778e-13 0 0)
(-2.75288183e-13 0 0)
(-2.61316114e-13 0 0)
(4.44620701e-13 0 0)
(5.43940326e-13 0 0)
(-6.6744678e-13 0 0)
(3.93529387e-13 0 0)
(5.06567507e-13 0 0)
(1.42259493e-13 0 0)
(8.28747919e-13 0 0)
(1.17458467e-12 0 0)
(-5.56675046e-14 0 0)
(8.19883733e-13 0 0)
(-9.39369034e-14 0 0)
(1.11468725e-12 0 0)
(5.00907151e-14 0 0)
(3.77613994e-14 0 0)
(-6.21044519e-14 0 0)
(-6.33886986e-13 0 0)
(-1.1028386e-13 0 0)
(6.7444524e-13 0 0)
(-5.08196452e-13 0 0)
(-5.43724249e-13 0 0)
(-5.08787499e-13 0 0)
(-4.73234987e-13 0 0)
(1.14985073e-13 0 0)
(-1.42851877e-13 0 0)
(8.07941152e-16 0 0)
(-5.98629671e-13 0 0)
(-5.03458728e-13 0 0)
(-4.7806785e-13 0 0)
(3.25002769e-13 0 0)
(2.14884006e-13 0 0)
(-3.35911264e-15 0 0)
(-8.9220954e-13 0 0)
(1.15378285e-12 0 0)
(-5.09606074e-13 0 0)
(-2.83439888e-13 0 0)
(-5.25403172e-13 0 0)
(5.10871636e-13 0 0)
(-4.14248774e-13 0 0)
(5.07876812e-13 0 0)
(2.11467233e-13 0 0)
(1.32195296e-13 0 0)
(4.05066797e-13 0 0)
(1.72049466e-13 0 0)
(-2.21617114e-13 0 0)
(-2.64106387e-13 0 0)
(3.24149146e-13 0 0)
(1.84211321e-13 0 0)
(4.49143457e-13 0 0)
(1.34907379e-12 0 0)
(6.74805523e-13 0 0)
(1.41894038e-12 0 0)
(1.91323314e-12 0 0)
(1.15858822e-12 0 0)
(7.10805756e-13 0 0)
(7.12409965e-13 0 0)
(1.2918682e-12 0 0)
(1.58746731e-12 0 0)
(1.10060586e-12 0 0)
(1.14211048e-12 0 0)
(1.79463909e-12 0 0)
(1.40383567e-12 0 0)
(6.80604876e-13 0 0)
(1.12327753e-12 0 0)
(1.50785997e-12 0 0)
(1.54374286e-12 0 0)
(1.00252983e-12 0 0)
(8.9578946e-13 0 0)
(2.09383024e-12 0 0)
(8.21852068e-13 0 0)
(4.00976323e-13 0 0)
(1.16694009e-12 0 0)
(1.72922226e-12 0 0)
(4.80080957e-13 0 0)
(7.98983705e-13 0 0)
(1.08695062e-12 0 0)
(1.40307644e-12 0 0)
(1.93128755e-13 0 0)
(1.50802518e-12 0 0)
(1.27161811e-12 0 0)
(8.59670559e-13 0 0)
(1.71694475e-12 0 0)
(1.05150594e-12 0 0)
(3.17239069e-13 0 0)
(4.59155498e-13 0 0)
(6.84648964e-14 0 0)
(8.17652719e-13 0 0)
(1.6095648e-13 0 0)
(-8.59677777e-13 0 0)
(1.21726567e-12 0 0)
(3.36220979e-13 0 0)
(1.09813249e-12 0 0)
(3.42999008e-13 0 0)
(1.40426487e-12 0 0)
(4.89760969e-13 0 0)
(1.68936793e-13 0 0)
(1.02365278e-12 0 0)
(6.10536296e-13 0 0)
(1.45656719e-12 0 0)
(-8.46387218e-13 0 0)
(6.23384022e-13 0 0)
(2.50509113e-13 0 0)
(6.54874613e-13 0 0)
(1.35785541e-12 0 0)
(2.3945868e-13 0 0)
(7.0734911e-13 0 0)
(1.85898057e-12 0 0)
(2.70209515e-13 0 0)
(-2.4618409e-13 0 0)
(1.26371415e-12 0 0)
(1.02578009e-12 0 0)
(8.97457428e-13 0 0)
(-4.12060627e-14 0 0)
(-1.11288571e-12 0 0)
(5.51971136e-13 0 0)
(3.07614351e-13 0 0)
(2.86304827e-13 0 0)
(7.24215213e-15 0 0)
(-1.73059875e-13 0 0)
(-2.02307495e-13 0 0)
(8.57992226e-13 0 0)
(-1.22944324e-13 0 0)
(7.29523029e-13 0 0)
(5.9933893e-13 0 0)
(2.80491696e-13 0 0)
(1.64553067e-12 0 0)
(9.4157629e-13 0 0)
(-4.15750365e-13 0 0)
(4.21837625e-13 0 0)
(-3.28655567e-13 0 0)
(-1.09438054e-13 0 0)
(-2.55106434e-14 0 0)
(-1.15633501e-12 0 0)
(5.28378883e-13 0 0)
(2.95614414e-13 0 0)
(2.28460296e-13 0 0)
(-1.75484764e-14 0 0)
(-1.5764689e-13 0 0)
(-3.37602244e-13 0 0)
(-9.57721023e-13 0 0)
(-6.68650447e-14 0 0)
(-1.37822692e-12 0 0)
(-8.90557558e-13 0 0)
(-7.22252214e-13 0 0)
(-8.02141054e-13 0 0)
(-1.58267769e-12 0 0)
(-1.01555765e-12 0 0)
(-1.63230659e-12 0 0)
(-1.81634105e-12 0 0)
(-1.15826506e-12 0 0)
(-1.24291294e-12 0 0)
(-1.17117078e-12 0 0)
(-2.80437366e-12 0 0)
(-1.46657219e-12 0 0)
(-2.54471183e-12 0 0)
(-1.01075975e-12 0 0)
(-1.90135593e-12 0 0)
(-1.59246807e-12 0 0)
(-1.78538979e-12 0 0)
(-1.15741865e-12 0 0)
(-1.46903218e-12 0 0)
(-7.85841899e-13 0 0)
(-2.73382814e-12 0 0)
(-1.41223408e-12 0 0)
(-1.48912263e-12 0 0)
(-1.54227716e-12 0 0)
(-2.98003913e-12 0 0)
(-2.13600002e-12 0 0)
(-2.5720995e-12 0 0)
(-3.0722581e-12 0 0)
(-2.32364725e-12 0 0)
(-2.74184515e-12 0 0)
(-2.40161113e-12 0 0)
(-1.94691151e-12 0 0)
(-2.22117097e-12 0 0)
(-2.68794421e-12 0 0)
(-2.43355187e-12 0 0)
(-1.90347609e-12 0 0)
(-2.46430416e-12 0 0)
(-2.95238801e-12 0 0)
(-1.61766781e-12 0 0)
(-3.00207875e-12 0 0)
(-2.47827023e-12 0 0)
(-2.0638955e-12 0 0)
(-2.74075536e-12 0 0)
(-3.02043501e-12 0 0)
(-2.23819288e-12 0 0)
(-2.34778631e-12 0 0)
(-3.56176083e-12 0 0)
(-2.97159911e-12 0 0)
(-3.21810435e-12 0 0)
(-2.99016894e-12 0 0)
(-3.7465655e-12 0 0)
(-3.45094552e-12 0 0)
(-4.14551002e-12 0 0)
(-4.18487536e-12 0 0)
(-3.57695232e-12 0 0)
(-3.43855014e-12 0 0)
(-3.70037517e-12 0 0)
(-2.62501095e-12 0 0)
(-3.13293034e-12 0 0)
(-3.75734788e-12 0 0)
(-3.28434875e-12 0 0)
(-3.73696864e-12 0 0)
(-3.83541636e-12 0 0)
(-3.95388945e-12 0 0)
(-4.50897994e-12 0 0)
(-3.24566757e-12 0 0)
(-2.84210387e-12 0 0)
(-3.48389251e-12 0 0)
(-3.66393656e-12 0 0)
(-5.26016855e-12 0 0)
(-5.09559538e-12 0 0)
(-3.77959664e-12 0 0)
(-4.36983582e-12 0 0)
(-4.32298757e-12 0 0)
(-4.20855751e-12 0 0)
(-5.65229391e-12 0 0)
(-4.97187484e-12 0 0)
(-4.59402312e-12 0 0)
(-5.12019969e-12 0 0)
(-4.59640499e-12 0 0)
(-5.45014071e-12 0 0)
(-6.73748215e-12 0 0)
(-6.55684117e-12 0 0)
(-5.65028655e-12 0 0)
(-6.28561715e-12 0 0)
(-5.78838726e-12 0 0)
(-6.59115413e-12 0 0)
(-6.74460507e-12 0 0)
(-5.6522944e-12 0 0)
(-6.3929895e-12 0 0)
(-5.59264567e-12 0 0)
(-5.6182471e-12 0 0)
(-6.34352948e-12 0 0)
(-5.96855525e-12 0 0)
(-6.39700487e-12 0 0)
(-5.44451043e-12 0 0)
(-5.70509762e-12 0 0)
(-5.27461643e-12 0 0)
(-6.12377196e-12 0 0)
(-4.96004681e-12 0 0)
(-5.52379118e-12 0 0)
(-4.31546677e-12 0 0)
(-5.67880765e-12 0 0)
(-4.55215209e-12 0 0)
(-4.13541138e-12 0 0)
(-4.20445075e-12 0 0)
(-4.52622372e-12 0 0)
(-3.83720393e-12 0 0)
(-3.45688607e-12 0 0)
(-3.61902878e-12 0 0)
(-4.05050924e-12 0 0)
(-4.49752877e-12 0 0)
(-3.74797727e-12 0 0)
(-4.17912916e-12 0 0)
(-4.45041695e-12 0 0)
(-4.64735123e-12 0 0)
(-3.97684835e-12 0 0)
(-6.37575075e-12 0 0)
(-4.75831713e-12 0 0)
(-3.95219798e-12 0 0)
(-3.66495885e-12 0 0)
(-4.43875911e-12 0 0)
(-4.33529632e-12 0 0)
(-4.61271718e-12 0 0)
(-3.72420431e-12 0 0)
(-3.0770326e-12 0 0)
(-4.04469988e-12 0 0)
(-4.30887039e-12 0 0)
(-4.47978715e-12 0 0)
(-4.39148467e-12 0 0)
(-5.58317951e-12 0 0)
(-4.32256087e-12 0 0)
(-5.1652223e-12 0 0)
(-3.72151642e-12 0 0)
(-4.46673808e-12 0 0)
(-4.29944874e-12 0 0)
(-4.2564567e-12 0 0)
(-4.05008665e-12 0 0)
(-4.56711899e-12 0 0)
(-4.06710125e-12 0 0)
(-5.29748163e-12 0 0)
(-3.49499847e-12 0 0)
(-4.26467332e-12 0 0)
(-4.12675797e-12 0 0)
(-4.66162804e-12 0 0)
(-3.38065972e-12 0 0)
(-2.63245557e-12 0 0)
(-3.10489035e-12 0 0)
(-3.09365263e-12 0 0)
(-2.72134564e-12 0 0)
(-2.96727504e-12 0 0)
(-3.20627666e-12 0 0)
(-2.52760883e-12 0 0)
(-3.29716547e-12 0 0)
(-2.60008584e-12 0 0)
(-3.59828765e-12 0 0)
(-3.10020329e-12 0 0)
(-3.18078812e-12 0 0)
(-2.80051379e-12 0 0)
(-2.09630856e-12 0 0)
(-2.33187364e-12 0 0)
(-2.34539828e-12 0 0)
(-1.35750371e-12 0 0)
(-1.82599486e-12 0 0)
(-1.39412808e-12 0 0)
(-1.29368931e-12 0 0)
(-9.91323309e-13 0 0)
(-1.00407968e-12 0 0)
(-1.8823449e-12 0 0)
(-1.363613e-12 0 0)
(-1.88550504e-12 0 0)
(-4.33705811e-13 0 0)
(-1.609149e-12 0 0)
(-1.54563088e-12 0 0)
(-1.23289265e-12 0 0)
(-1.21090854e-12 0 0)
(-5.80785462e-13 0 0)
(-7.50245226e-13 0 0)
(-1.70601015e-12 0 0)
(-9.80417787e-13 0 0)
(-8.85509844e-13 0 0)
(-1.16481672e-13 0 0)
(-5.98943073e-13 0 0)
(7.9731402e-13 0 0)
(-1.38353287e-14 0 0)
(5.49529684e-14 0 0)
(4.61691195e-14 0 0)
(-3.10141283e-13 0 0)
(8.99315837e-14 0 0)
(-3.1013718e-13 0 0)
(-2.06041335e-13 0 0)
(6.98862504e-13 0 0)
(-5.61149404e-13 0 0)
(-9.36906603e-13 0 0)
(2.52104355e-13 0 0)
(2.9959441e-13 0 0)
(-6.36270602e-13 0 0)
(2.46470915e-13 0 0)
(-7.21049549e-14 0 0)
(-1.14032676e-13 0 0)
(-1.17886408e-12 0 0)
(-7.87248436e-13 0 0)
(6.90839219e-13 0 0)
(-5.15443461e-13 0 0)
(2.85372015e-13 0 0)
(2.6569248e-13 0 0)
(-2.41658977e-13 0 0)
(-2.32300013e-13 0 0)
(1.96702961e-13 0 0)
(4.4735985e-13 0 0)
(1.19507579e-12 0 0)
(-4.21207413e-13 0 0)
(7.11225712e-13 0 0)
(3.88157712e-13 0 0)
(5.09816979e-13 0 0)
(1.31892178e-13 0 0)
(6.49017639e-13 0 0)
(8.85580118e-13 0 0)
(4.62724584e-13 0 0)
(4.00396832e-13 0 0)
(-2.14967894e-13 0 0)
(2.20090321e-13 0 0)
(2.79172e-13 0 0)
(5.77056922e-14 0 0)
(-9.18896955e-13 0 0)
(-5.57464026e-13 0 0)
(-4.91693425e-13 0 0)
(1.26148019e-13 0 0)
(3.19495059e-13 0 0)
(-6.07795929e-13 0 0)
(6.46811227e-14 0 0)
(-2.79135113e-14 0 0)
(6.22993287e-13 0 0)
(1.04965824e-12 0 0)
(7.53205541e-13 0 0)
(1.89989826e-13 0 0)
(1.06061572e-12 0 0)
(-2.45918561e-13 0 0)
(3.44180594e-13 0 0)
(-6.33069811e-13 0 0)
(-6.90294243e-13 0 0)
(-4.67483753e-13 0 0)
(-8.86878062e-13 0 0)
(-3.8784032e-13 0 0)
(-5.8281367e-13 0 0)
(-5.46820446e-13 0 0)
(-6.28037629e-13 0 0)
(-3.56587614e-13 0 0)
(-2.42319878e-13 0 0)
(-3.67700476e-13 0 0)
(-2.99299088e-13 0 0)
(4.58561548e-13 0 0)
(2.42149239e-13 0 0)
(2.49661503e-13 0 0)
(1.92482441e-13 0 0)
(4.15490066e-13 0 0)
(7.38428907e-13 0 0)
(-2.52215419e-13 0 0)
(-1.70583293e-13 0 0)
(1.62247425e-13 0 0)
(-8.89276124e-13 0 0)
(-3.24508791e-14 0 0)
(4.93212441e-13 0 0)
(-1.14557262e-12 0 0)
(-1.76025468e-13 0 0)
(-8.47628743e-14 0 0)
(-7.16068975e-13 0 0)
(-6.98625537e-13 0 0)
(-3.84104071e-13 0 0)
(-1.76037533e-13 0 0)
(-1.02696937e-12 0 0)
(-2.86343538e-13 0 0)
(5.15765027e-14 0 0)
(-2.84471957e-13 0 0)
(-6.9389628e-13 0 0)
(-3.84220351e-13 0 0)
(-1.00103294e-12 0 0)
(-8.99656803e-13 0 0)
(4.04004472e-13 0 0)
(-3.16111186e-13 0 0)
(5.42304216e-13 0 0)
(-1.38251372e-13 0 0)
(5.47445005e-14 0 0)
(-3.71808475e-13 0 0)
(7.32527275e-13 0 0)
(4.13891709e-14 0 0)
(6.07657046e-13 0 0)
(-6.36991842e-14 0 0)
(-1.86100693e-13 0 0)
(2.01671602e-13 0 0)
(-3.43197315e-14 0 0)
(-2.29673088e-13 0 0)
(4.82147966e-14 0 0)
(2.23844081e-13 0 0)
(-1.35601934e-13 0 0)
(-9.7936445e-13 0 0)
(-6.51188246e-13 0 0)
(-5.04056722e-13 0 0)
(-4.66205106e-13 0 0)
(-3.43823183e-13 0 0)
(-2.57294331e-13 0 0)
(-8.81002184e-13 0 0)
(-4.09773036e-13 0 0)
(-7.62722652e-13 0 0)
(-3.71440306e-13 0 0)
(-1.4080502e-12 0 0)
(-8.73373331e-13 0 0)
(-8.0372337e-13 0 0)
(-9.43714271e-13 0 0)
(-2.04960916e-14 0 0)
(4.12537881e-13 0 0)
(-8.08341996e-13 0 0)
(-2.43913729e-13 0 0)
(-3.32306628e-14 0 0)
(1.51600008e-13 0 0)
(-1.69502884e-14 0 0)
(-7.23643777e-13 0 0)
(-5.34114056e-13 0 0)
(6.62515731e-13 0 0)
(-6.51925025e-13 0 0)
(-3.01035847e-13 0 0)
(6.38062808e-13 0 0)
(-1.76151367e-13 0 0)
(5.6597187e-13 0 0)
(1.62755109e-13 0 0)
(7.92408948e-13 0 0)
(-1.56185967e-13 0 0)
(-2.13041859e-13 0 0)
(3.53196084e-13 0 0)
(1.11834728e-12 0 0)
(-4.42443587e-13 0 0)
(1.18088361e-12 0 0)
(1.02472697e-12 0 0)
(7.11870859e-13 0 0)
(1.44744837e-12 0 0)
(8.06312486e-13 0 0)
(1.37810292e-12 0 0)
(8.40267333e-13 0 0)
(1.43813627e-12 0 0)
(1.29812959e-12 0 0)
(1.04529974e-12 0 0)
(6.37527298e-13 0 0)
(8.290352e-13 0 0)
(9.63442569e-13 0 0)
(8.01642031e-13 0 0)
(3.2804378e-13 0 0)
(1.5058359e-12 0 0)
(1.28498565e-12 0 0)
(9.6881567e-13 0 0)
(1.23992123e-12 0 0)
(1.20733962e-12 0 0)
(6.04857346e-13 0 0)
(5.74234288e-13 0 0)
(-1.29438358e-13 0 0)
(1.12439146e-12 0 0)
(8.88259631e-13 0 0)
(1.11300015e-12 0 0)
(5.52319453e-13 0 0)
(5.34646838e-13 0 0)
(1.1061741e-12 0 0)
(1.14062581e-12 0 0)
(8.93591787e-13 0 0)
(1.11498286e-12 0 0)
(9.88565279e-13 0 0)
(1.36180531e-12 0 0)
(1.2970177e-12 0 0)
(1.04145595e-12 0 0)
(2.34347403e-12 0 0)
(1.77816206e-12 0 0)
(1.57818668e-12 0 0)
(1.51782789e-12 0 0)
(1.93135754e-12 0 0)
(1.96749683e-12 0 0)
(2.12913541e-12 0 0)
(2.31075214e-12 0 0)
(1.13556732e-12 0 0)
(1.6920714e-12 0 0)
(2.01410681e-12 0 0)
(9.18686959e-13 0 0)
(2.3402666e-12 0 0)
(1.6885542e-12 0 0)
(1.97661032e-12 0 0)
(7.47271008e-13 0 0)
(2.32301769e-12 0 0)
(1.81084693e-12 0 0)
(9.7538473e-13 0 0)
(1.82413887e-12 0 0)
(1.03368716e-12 0 0)
(8.87909784e-13 0 0)
(1.08798574e-12 0 0)
(9.84912964e-13 0 0)
(1.36258022e-12 0 0)
(1.64487402e-12 0 0)
(1.35561138e-12 0 0)
(9.9807938e-13 0 0)
(5.24466842e-13 0 0)
(6.72333062e-13 0 0)
(1.15119845e-12 0 0)
(1.17545188e-12 0 0)
(7.77845876e-13 0 0)
(1.42169733e-12 0 0)
(7.27749264e-13 0 0)
(1.95655437e-12 0 0)
(1.29990667e-12 0 0)
(1.08122667e-12 0 0)
(4.54662195e-13 0 0)
(1.18123334e-12 0 0)
(6.95186271e-13 0 0)
(4.52187643e-13 0 0)
(9.11188139e-13 0 0)
(5.04623684e-13 0 0)
(-2.82019099e-13 0 0)
(7.00982482e-14 0 0)
(2.87171976e-13 0 0)
(1.13510705e-12 0 0)
(1.10221179e-12 0 0)
(-1.12011131e-13 0 0)
(1.41846848e-12 0 0)
(1.54269301e-12 0 0)
(5.89029623e-14 0 0)
(5.72277878e-13 0 0)
(6.81779355e-13 0 0)
(6.48380094e-13 0 0)
(1.27300034e-13 0 0)
(4.02973643e-13 0 0)
(3.11427305e-13 0 0)
(-2.67910477e-13 0 0)
(-2.80787156e-13 0 0)
(-4.39252406e-13 0 0)
(-1.73638486e-13 0 0)
(1.41209137e-13 0 0)
(-6.40600489e-13 0 0)
(-2.29312401e-13 0 0)
(-5.37188774e-14 0 0)
(-1.32814328e-13 0 0)
(-5.64810084e-13 0 0)
(5.1408042e-13 0 0)
(1.02316411e-13 0 0)
(-1.26749359e-13 0 0)
(5.96194534e-13 0 0)
(-4.18287469e-14 0 0)
(1.24810068e-13 0 0)
(-2.62745962e-13 0 0)
(4.69716124e-13 0 0)
(-8.6055849e-14 0 0)
(3.45053286e-13 0 0)
(3.47060177e-13 0 0)
(2.64963634e-13 0 0)
(9.21791406e-13 0 0)
(1.16835509e-12 0 0)
(3.45244165e-13 0 0)
(6.77439489e-13 0 0)
(3.50679629e-13 0 0)
(7.61682267e-13 0 0)
(5.0749209e-13 0 0)
(3.89524899e-13 0 0)
(1.3233687e-12 0 0)
(1.32243514e-12 0 0)
(1.93969479e-12 0 0)
(1.1523404e-12 0 0)
(1.37721469e-12 0 0)
(1.92000129e-12 0 0)
(1.55285124e-12 0 0)
(1.3545336e-12 0 0)
(2.58770052e-12 0 0)
(2.82231512e-12 0 0)
(2.97584057e-12 0 0)
(2.53588862e-12 0 0)
(2.85134322e-12 0 0)
(2.50632272e-12 0 0)
(2.62233683e-12 0 0)
(3.02135826e-12 0 0)
(2.6106357e-12 0 0)
(2.73933732e-12 0 0)
(2.68240518e-12 0 0)
(2.55685714e-12 0 0)
(3.02283401e-12 0 0)
(3.34415246e-12 0 0)
(3.53620757e-12 0 0)
(2.588412e-12 0 0)
(3.33242071e-12 0 0)
(3.4778162e-12 0 0)
(2.4497531e-12 0 0)
(2.31272149e-12 0 0)
(2.3051182e-12 0 0)
(2.43511753e-12 0 0)
(2.75048359e-12 0 0)
(3.14386866e-12 0 0)
(2.10016198e-12 0 0)
(2.64516445e-12 0 0)
(2.80636761e-12 0 0)
(1.9540765e-12 0 0)
(2.18174634e-12 0 0)
(1.81917343e-12 0 0)
(1.77884464e-12 0 0)
(1.58921986e-12 0 0)
(2.323451e-12 0 0)
(1.28657945e-12 0 0)
(1.80173648e-12 0 0)
(1.40971619e-12 0 0)
(1.54295794e-12 0 0)
(1.89876211e-12 0 0)
(1.37604155e-12 0 0)
(1.99330115e-12 0 0)
(1.80297229e-12 0 0)
(1.07293825e-12 0 0)
(1.32656049e-12 0 0)
(1.62281709e-12 0 0)
(2.15089325e-13 0 0)
(1.53795345e-12 0 0)
(7.56163533e-13 0 0)
(1.34817423e-12 0 0)
(2.03586462e-13 0 0)
(1.23814168e-12 0 0)
(1.50401827e-12 0 0)
(6.42933681e-13 0 0)
(1.56682756e-12 0 0)
(2.05240164e-12 0 0)
(1.38630734e-12 0 0)
(1.97011442e-12 0 0)
(1.2846959e-12 0 0)
(2.72652363e-12 0 0)
(6.33657948e-13 0 0)
(2.0268751e-12 0 0)
(1.94937271e-12 0 0)
(1.21063991e-12 0 0)
(1.18723582e-12 0 0)
(9.46824036e-13 0 0)
(1.1289728e-12 0 0)
(1.253377e-12 0 0)
(2.91360903e-13 0 0)
(1.09018173e-12 0 0)
(-1.72168009e-13 0 0)
(4.78508474e-13 0 0)
(6.52187625e-13 0 0)
(1.32802879e-12 0 0)
(-9.80353597e-15 0 0)
(2.89674873e-13 0 0)
(1.26180945e-12 0 0)
(4.95043686e-13 0 0)
(1.6181305e-12 0 0)
(1.58722415e-13 0 0)
(1.05962837e-12 0 0)
(1.3942681e-12 0 0)
(1.50269166e-12 0 0)
(1.65792441e-12 0 0)
(9.18039301e-13 0 0)
(1.4309513e-12 0 0)
(6.60950911e-13 0 0)
(1.20773541e-12 0 0)
(6.13444868e-13 0 0)
(5.23427176e-13 0 0)
(1.33185584e-12 0 0)
(1.18922148e-12 0 0)
(-1.45539027e-15 0 0)
(6.59498742e-13 0 0)
(-3.09039834e-13 0 0)
(2.39679826e-14 0 0)
(-7.25115631e-13 0 0)
(-1.12251115e-12 0 0)
(3.29922091e-14 0 0)
(-9.99380787e-13 0 0)
(1.28005056e-13 0 0)
(-4.3190663e-14 0 0)
(-1.19401536e-13 0 0)
(-7.57305903e-13 0 0)
(3.4009309e-13 0 0)
(-6.64653535e-14 0 0)
(5.17866995e-13 0 0)
(1.57256963e-13 0 0)
(1.74054537e-13 0 0)
(5.50960658e-14 0 0)
(1.04538603e-13 0 0)
(1.39424792e-13 0 0)
(9.4944362e-14 0 0)
(2.66708183e-13 0 0)
(-3.62261651e-13 0 0)
(-1.01815815e-12 0 0)
(-1.21693885e-12 0 0)
(-1.54325473e-12 0 0)
(-4.05745235e-13 0 0)
(-1.10963512e-12 0 0)
(-1.04771261e-12 0 0)
(-1.62403096e-12 0 0)
(-1.54722246e-12 0 0)
(-7.8418898e-13 0 0)
(-1.12699877e-12 0 0)
(-8.87428056e-13 0 0)
(-3.81454545e-13 0 0)
(-5.50302319e-13 0 0)
(4.75968866e-14 0 0)
(2.36737416e-13 0 0)
(-4.69062997e-13 0 0)
(-3.39362315e-13 0 0)
(1.34625722e-13 0 0)
(-3.08832908e-13 0 0)
(9.97287394e-13 0 0)
(-4.29996089e-13 0 0)
(6.68325551e-13 0 0)
(9.92601743e-13 0 0)
(7.92554998e-13 0 0)
(-2.6687967e-13 0 0)
(3.25671629e-13 0 0)
(9.40312296e-13 0 0)
(8.46971267e-13 0 0)
(-7.07597975e-14 0 0)
(-7.09924501e-13 0 0)
(4.52707231e-13 0 0)
(3.86229045e-13 0 0)
(-5.8964415e-13 0 0)
(-8.97566419e-14 0 0)
(5.8315318e-13 0 0)
(-1.86649645e-13 0 0)
(1.85448944e-13 0 0)
(1.03245027e-13 0 0)
(8.2914926e-13 0 0)
(-1.62749913e-13 0 0)
(-7.25625232e-15 0 0)
(-1.36579839e-13 0 0)
(6.86124531e-13 0 0)
(-9.86502227e-13 0 0)
(-5.74212145e-13 0 0)
(-2.46215565e-14 0 0)
(-7.14420515e-13 0 0)
(-3.82203706e-13 0 0)
(-3.41614479e-13 0 0)
(-3.07545308e-13 0 0)
(-2.43223324e-13 0 0)
(2.33355651e-13 0 0)
(-1.88506221e-13 0 0)
(1.24392501e-14 0 0)
(-1.51216004e-13 0 0)
(1.86354156e-13 0 0)
(6.25797746e-13 0 0)
(-3.21512982e-13 0 0)
(3.74268992e-13 0 0)
(-9.75227765e-14 0 0)
(-6.46753858e-13 0 0)
(1.73021252e-15 0 0)
(2.76726011e-13 0 0)
(-4.5293631e-13 0 0)
(-4.99836327e-13 0 0)
(-6.82930141e-13 0 0)
(-5.67942836e-13 0 0)
(7.85957733e-13 0 0)
(1.41065027e-13 0 0)
(-5.32101095e-13 0 0)
(4.85439957e-13 0 0)
(7.18979801e-13 0 0)
(5.92012663e-13 0 0)
(1.50151545e-13 0 0)
(3.64655632e-13 0 0)
(-6.06851243e-13 0 0)
(-5.05781189e-13 0 0)
(1.68543039e-13 0 0)
(-3.64106174e-14 0 0)
(3.08615776e-13 0 0)
(-8.80773418e-14 0 0)
(4.26549692e-13 0 0)
(-2.26528762e-13 0 0)
(7.03669916e-13 0 0)
(6.76535703e-13 0 0)
(2.69903658e-13 0 0)
(1.84175413e-13 0 0)
(1.21646758e-13 0 0)
(1.13437732e-12 0 0)
(1.12087309e-12 0 0)
(7.36103666e-13 0 0)
(4.74428866e-13 0 0)
(2.5459566e-13 0 0)
(2.18847687e-13 0 0)
(1.38221675e-14 0 0)
(8.35549064e-13 0 0)
(3.16313655e-13 0 0)
(1.00468335e-12 0 0)
(-4.58459242e-13 0 0)
(-1.51139437e-13 0 0)
(6.27579675e-13 0 0)
(6.94769065e-13 0 0)
(4.80833785e-13 0 0)
(4.18745918e-13 0 0)
(6.30202393e-13 0 0)
(3.28112207e-13 0 0)
(1.29779944e-12 0 0)
(1.16877703e-12 0 0)
(1.18325086e-12 0 0)
(1.44423988e-12 0 0)
(1.40345649e-12 0 0)
(3.39127225e-13 0 0)
(9.63948022e-13 0 0)
(9.94618031e-13 0 0)
(3.6186685e-13 0 0)
(-1.25496333e-13 0 0)
(7.71636505e-13 0 0)
(6.87482239e-15 0 0)
(7.01947185e-13 0 0)
(6.90715794e-13 0 0)
(7.15042479e-13 0 0)
(6.77547192e-13 0 0)
(4.70021287e-13 0 0)
(1.13105095e-12 0 0)
(1.19302959e-12 0 0)
(1.65180394e-12 0 0)
(1.35625602e-12 0 0)
(1.10033255e-12 0 0)
(1.39655159e-12 0 0)
(2.01427925e-12 0 0)
(2.34711014e-12 0 0)
(1.22538578e-12 0 0)
(2.51126807e-12 0 0)
(1.77914368e-12 0 0)
(2.70154617e-12 0 0)
(2.95201301e-12 0 0)
(2.33642295e-12 0 0)
(2.21606462e-12 0 0)
(2.16213283e-12 0 0)
(2.52462325e-12 0 0)
(2.25921803e-12 0 0)
(1.48615772e-12 0 0)
(1.91955072e-12 0 0)
(9.72999904e-13 0 0)
(1.74124954e-12 0 0)
(1.48392185e-12 0 0)
(1.59738146e-12 0 0)
(8.3839097e-13 0 0)
(2.71059968e-12 0 0)
(3.48465286e-12 0 0)
(3.6114854e-12 0 0)
(2.46100575e-12 0 0)
(2.11332379e-12 0 0)
(2.657128e-12 0 0)
(3.49039599e-12 0 0)
(2.8677963e-12 0 0)
(2.68707301e-12 0 0)
(3.09736307e-12 0 0)
(2.89762366e-12 0 0)
(3.8207234e-12 0 0)
(2.61595993e-12 0 0)
(3.10297667e-12 0 0)
(2.7301952e-12 0 0)
(4.04475037e-12 0 0)
(2.54413432e-12 0 0)
(3.63343952e-12 0 0)
(2.50733816e-12 0 0)
(3.59777198e-12 0 0)
(2.58219728e-12 0 0)
(3.42029703e-12 0 0)
(3.49020489e-12 0 0)
(3.647832e-12 0 0)
(2.54953582e-12 0 0)
(2.77664664e-12 0 0)
(3.11672809e-12 0 0)
(3.86796617e-12 0 0)
(2.39217432e-12 0 0)
(3.01080289e-12 0 0)
(3.21293386e-12 0 0)
(3.36426084e-12 0 0)
(3.72513836e-12 0 0)
(2.88545771e-12 0 0)
(3.10423181e-12 0 0)
(2.32422108e-12 0 0)
(3.33457522e-12 0 0)
(2.52324837e-12 0 0)
(3.27448463e-12 0 0)
(3.43598338e-12 0 0)
(3.18423163e-12 0 0)
(3.51870209e-12 0 0)
(3.32301948e-12 0 0)
(2.00269232e-12 0 0)
(2.76935716e-12 0 0)
(3.24229206e-12 0 0)
(3.83570079e-12 0 0)
(2.15665941e-12 0 0)
(2.69942761e-12 0 0)
(2.23228337e-12 0 0)
(2.64281565e-12 0 0)
(2.23663878e-12 0 0)
(2.92903043e-12 0 0)
(2.54078453e-12 0 0)
(2.72422878e-12 0 0)
(2.93253865e-12 0 0)
(3.10533991e-12 0 0)
(3.24467441e-12 0 0)
(3.28741603e-12 0 0)
(3.89877067e-12 0 0)
(3.25902137e-12 0 0)
(2.87969568e-12 0 0)
(3.01734562e-12 0 0)
(3.44188767e-12 0 0)
(4.15808171e-12 0 0)
(3.129132e-12 0 0)
(2.95049531e-12 0 0)
(2.88415059e-12 0 0)
(3.0316898e-12 0 0)
(2.30801088e-12 0 0)
(2.46137511e-12 0 0)
(2.50531336e-12 0 0)
(2.94290026e-12 0 0)
(2.19301217e-12 0 0)
(2.95779218e-12 0 0)
(2.23328247e-12 0 0)
(2.64351123e-12 0 0)
(1.98624805e-12 0 0)
(2.05828047e-12 0 0)
(2.79672037e-12 0 0)
(2.06823028e-12 0 0)
(2.59111875e-12 0 0)
(1.30226362e-12 0 0)
(2.4557069e-12 0 0)
(2.24421052e-12 0 0)
(2.65762252e-12 0 0)
(2.04759223e-12 0 0)
(1.57386704e-12 0 0)
(1.76105924e-12 0 0)
(1.24853046e-12 0 0)
(1.54918755e-12 0 0)
(2.48390074e-12 0 0)
(1.30317525e-12 0 0)
(2.21261701e-12 0 0)
(9.37054571e-13 0 0)
(3.86011128e-13 0 0)
(1.29638617e-12 0 0)
(1.34523234e-12 0 0)
(8.18633923e-13 0 0)
(1.72643834e-12 0 0)
(4.61473722e-13 0 0)
(6.7709604e-13 0 0)
(1.55826716e-12 0 0)
(2.24777693e-12 0 0)
(8.84602744e-13 0 0)
(1.1109179e-12 0 0)
(2.09430826e-12 0 0)
(1.8877769e-12 0 0)
(1.99073549e-12 0 0)
(2.35496534e-12 0 0)
(2.92069554e-12 0 0)
(2.01845584e-12 0 0)
(1.80244801e-12 0 0)
(2.1771119e-12 0 0)
(2.8817575e-12 0 0)
(1.98730924e-12 0 0)
(1.24836772e-12 0 0)
(2.10524683e-12 0 0)
(1.80062358e-12 0 0)
(6.87743235e-13 0 0)
(1.3896496e-12 0 0)
(1.3578112e-12 0 0)
(1.04547691e-12 0 0)
(2.93022372e-13 0 0)
(1.82388833e-12 0 0)
(9.4927499e-13 0 0)
(8.93448807e-13 0 0)
(1.00933699e-12 0 0)
(3.63548748e-13 0 0)
(5.98585399e-14 0 0)
(-2.85064984e-14 0 0)
(7.18697699e-13 0 0)
(9.50837525e-13 0 0)
(1.24202188e-12 0 0)
(-1.39563498e-13 0 0)
(5.49905177e-13 0 0)
(4.61732322e-13 0 0)
(3.2648596e-13 0 0)
(-1.48631522e-13 0 0)
(-4.14912926e-13 0 0)
(4.55077517e-13 0 0)
(-4.63257393e-13 0 0)
(6.6216906e-13 0 0)
(-1.29042359e-12 0 0)
(-5.85318403e-13 0 0)
(-8.063321e-13 0 0)
(-6.23046831e-13 0 0)
(-1.29727122e-12 0 0)
(-1.75235189e-12 0 0)
(-1.08275479e-12 0 0)
(-2.15807996e-12 0 0)
(-6.78541586e-13 0 0)
(-1.7247205e-12 0 0)
(-1.84703456e-12 0 0)
(-1.96310388e-12 0 0)
(-1.66085765e-12 0 0)
(-1.30833468e-12 0 0)
(-5.20647035e-13 0 0)
(-1.60180461e-12 0 0)
(-2.17481418e-12 0 0)
(-1.86701809e-12 0 0)
(-2.00834506e-12 0 0)
(-3.06431195e-12 0 0)
(-1.58260846e-12 0 0)
(-2.36385626e-12 0 0)
(-2.15405188e-12 0 0)
(-1.68993656e-12 0 0)
(-2.15709264e-12 0 0)
(-2.67750674e-12 0 0)
(-3.0448266e-12 0 0)
(-2.36978843e-12 0 0)
(-2.61394216e-12 0 0)
(-2.54477539e-12 0 0)
(-1.41620364e-12 0 0)
(-1.78020497e-12 0 0)
(-1.33734477e-12 0 0)
(-2.53492116e-12 0 0)
(-2.0249651e-12 0 0)
(-1.85478175e-12 0 0)
(-1.51884013e-12 0 0)
(-1.54508242e-12 0 0)
(-1.89396865e-12 0 0)
(-8.64171101e-13 0 0)
(-2.14821366e-12 0 0)
(-1.25820284e-12 0 0)
(-1.29743917e-12 0 0)
(-2.59676308e-12 0 0)
(-1.2796026e-12 0 0)
(-6.27456933e-13 0 0)
(-9.95765513e-13 0 0)
(-3.42623993e-14 0 0)
(6.27347858e-14 0 0)
(-5.43026751e-13 0 0)
(-1.81244309e-14 0 0)
(-2.48043042e-13 0 0)
(-2.51455617e-13 0 0)
(-1.25245003e-13 0 0)
(4.29564969e-13 0 0)
(4.32499774e-13 0 0)
(-5.12984858e-13 0 0)
(-4.45024522e-13 0 0)
(-8.28474437e-13 0 0)
(-9.98196747e-13 0 0)
(-8.60624141e-13 0 0)
(-1.37774516e-12 0 0)
(-5.64484239e-14 0 0)
(-6.12353942e-13 0 0)
(8.24491542e-14 0 0)
(-1.35490891e-12 0 0)
(-8.54140867e-13 0 0)
(-4.66736971e-13 0 0)
(-5.11180488e-13 0 0)
(-6.75186187e-14 0 0)
(-4.83328208e-13 0 0)
(-2.78996339e-13 0 0)
(-5.97962937e-13 0 0)
(-1.78838628e-12 0 0)
(-1.74672084e-12 0 0)
(-6.62677819e-13 0 0)
(-5.61322866e-13 0 0)
(-1.3858863e-12 0 0)
(-1.56850728e-12 0 0)
(-2.51480789e-12 0 0)
(-1.5053246e-12 0 0)
(-2.0070707e-12 0 0)
(-1.39454156e-12 0 0)
(-9.3342657e-13 0 0)
(-1.52551204e-12 0 0)
(-1.79707658e-12 0 0)
(-2.07016464e-12 0 0)
(-1.81462911e-12 0 0)
(-1.30636147e-12 0 0)
(-2.22402438e-12 0 0)
(-1.15406997e-12 0 0)
(-7.49130619e-13 0 0)
(-3.24488552e-12 0 0)
(-3.40093127e-12 0 0)
(-3.47551877e-12 0 0)
(-3.30121521e-12 0 0)
(-4.70753209e-12 0 0)
(-4.07247729e-12 0 0)
(-3.44439955e-12 0 0)
(-3.69882912e-12 0 0)
(-4.1261992e-12 0 0)
(-3.01442361e-12 0 0)
(-2.95476247e-12 0 0)
(-3.42244797e-12 0 0)
(-3.72506786e-12 0 0)
(-3.35484141e-12 0 0)
(-3.03204167e-12 0 0)
(-3.46894069e-12 0 0)
(-4.34389177e-12 0 0)
(-3.6611593e-12 0 0)
(-2.77564519e-12 0 0)
(-2.84123161e-12 0 0)
(-3.45799648e-12 0 0)
(-3.09159316e-12 0 0)
(-4.20760784e-12 0 0)
(-4.87016554e-12 0 0)
(-3.3950256e-12 0 0)
(-3.98957065e-12 0 0)
(-4.03993344e-12 0 0)
(-4.02579552e-12 0 0)
(-4.01766434e-12 0 0)
(-2.19922068e-12 0 0)
(-3.42048321e-12 0 0)
(-3.87886775e-12 0 0)
(-3.86786303e-12 0 0)
(-3.90970805e-12 0 0)
(-3.06194451e-12 0 0)
(-4.5214585e-12 0 0)
(-3.51897741e-12 0 0)
(-3.47526564e-12 0 0)
(-2.7624237e-12 0 0)
(-4.23826525e-12 0 0)
(-4.30642831e-12 0 0)
(-3.58318993e-12 0 0)
(-3.15815681e-12 0 0)
(-3.64129568e-12 0 0)
(-4.32900534e-12 0 0)
(-3.69957909e-12 0 0)
(-3.29136516e-12 0 0)
(-4.05048628e-12 0 0)
(-3.99467751e-12 0 0)
(-2.47193691e-12 0 0)
(-3.20256032e-12 0 0)
(-3.07060284e-12 0 0)
(-3.63894334e-12 0 0)
(-3.17417883e-12 0 0)
(-3.77652483e-12 0 0)
(-1.75621916e-12 0 0)
(-2.96685495e-12 0 0)
(-2.78354302e-12 0 0)
(-2.83243891e-12 0 0)
(-2.52932998e-12 0 0)
(-2.36770631e-12 0 0)
(-2.36571288e-12 0 0)
(-2.36555146e-12 0 0)
(-1.56908983e-12 0 0)
(-3.07698163e-12 0 0)
(-1.96968744e-12 0 0)
(-2.2136326e-12 0 0)
(-2.19134028e-12 0 0)
(-1.77821989e-12 0 0)
(-1.85423715e-12 0 0)
(-1.72594806e-12 0 0)
(-2.9670112e-13 0 0)
(-2.59517245e-12 0 0)
(-7.55730173e-13 0 0)
(-1.72944972e-12 0 0)
(-1.64558626e-12 0 0)
(-2.63988103e-12 0 0)
(-1.3301374e-12 0 0)
(-1.80808407e-12 0 0)
(-2.07782454e-12 0 0)
(-2.5701564e-12 0 0)
(-2.43886001e-12 0 0)
(-2.38602248e-12 0 0)
(-1.77600394e-12 0 0)
(-2.08061874e-12 0 0)
(-1.81674136e-12 0 0)
(-1.79880756e-12 0 0)
(-8.5689112e-13 0 0)
(-9.44234845e-13 0 0)
(-1.45072229e-12 0 0)
(-9.67284143e-13 0 0)
(-8.39277357e-14 0 0)
(-2.35693101e-13 0 0)
(-7.64462177e-13 0 0)
(-3.71998316e-13 0 0)
(-2.4208833e-13 0 0)
(-1.93407986e-13 0 0)
(3.97907453e-13 0 0)
(-3.57287308e-13 0 0)
(-5.20172341e-14 0 0)
(-2.0548834e-13 0 0)
(-2.54611817e-13 0 0)
(-1.15904992e-12 0 0)
(-2.59620434e-13 0 0)
(-7.73669227e-14 0 0)
(-5.92702471e-13 0 0)
(-1.21287676e-13 0 0)
(-6.02096322e-13 0 0)
(1.56307649e-13 0 0)
(-6.20669914e-13 0 0)
(-1.01352683e-12 0 0)
(4.47105955e-13 0 0)
(-1.3401965e-12 0 0)
(-3.43624462e-13 0 0)
(1.40910466e-13 0 0)
(-4.15158513e-13 0 0)
(-1.52619101e-13 0 0)
(-5.16061537e-13 0 0)
(4.93773513e-14 0 0)
(2.24601168e-13 0 0)
(-2.03968533e-13 0 0)
(2.30494411e-13 0 0)
(3.73691038e-13 0 0)
(5.64610208e-13 0 0)
(6.34473424e-14 0 0)
(1.79594207e-13 0 0)
(9.05032705e-14 0 0)
(-1.94928743e-13 0 0)
(2.81547153e-14 0 0)
(8.9453629e-14 0 0)
(4.71278233e-13 0 0)
(-1.10966201e-12 0 0)
(-5.66436044e-13 0 0)
(-3.62126658e-13 0 0)
(7.24115868e-13 0 0)
(-3.96537452e-14 0 0)
(-7.53121978e-13 0 0)
(-3.70666566e-13 0 0)
(1.44872363e-13 0 0)
(-1.49924424e-13 0 0)
(-1.48688883e-13 0 0)
(-3.73207399e-13 0 0)
(-1.16539682e-13 0 0)
(-9.31675903e-13 0 0)
(-6.08829745e-13 0 0)
(-6.65969122e-13 0 0)
(-4.65927211e-13 0 0)
(-9.90071735e-14 0 0)
(-6.80241831e-13 0 0)
(-9.4118099e-13 0 0)
(-1.09911081e-12 0 0)
(-5.79679192e-14 0 0)
(-4.68252908e-13 0 0)
(-8.34644179e-13 0 0)
(-8.93871758e-13 0 0)
(-2.74667635e-14 0 0)
(-3.9463152e-13 0 0)
(1.79658103e-13 0 0)
(6.21825041e-13 0 0)
(8.14300302e-13 0 0)
(1.21073892e-12 0 0)
(1.19407701e-12 0 0)
(7.78111317e-13 0 0)
(1.65951301e-12 0 0)
(5.8389388e-13 0 0)
(2.13458885e-12 0 0)