/*--------------------------------*- C++ -*----------------------------------*\
| =========                 |                                                 |
| \\      /  F ield         | OpenFOAM: The Open Source CFD Toolbox           |
|  \\    /   O peration     | Version:  2206                                  |
|   \\  /    A nd           | Website:  www.openfoam.com                      |
|    \\/     M anipulation  |                                                 |
\*---------------------------------------------------------------------------*/
FoamFile
{
    version     2.0;
    format      ascii;
    arch        "LSB;label=32;scalar=64";
    class       volScalarField;
    location    "1.5e-05";
    object      p;
}
// * * * * * * * * * * * * * * * * * * * * * * * * * * * * * * * * * * * * * //

dimensions      [1 -1 -2 0 0 0 0];

internalField   nonuniform List<scalar> 
3183
(
101325
101325
101325
101325
101325
101325
101325
101325
101325
101325
101325
101325
101325
101325
101325
101325
101325
101325
101325
101325
101325
101325
101325
101325
101325
101325
101325
101325
101325
101325
101325
101325
101325
101325
101325
101325
101325
101325
101325
101325
101325
101325
101325
101325
101325
101325
101325
101325
101325
101325
101325
101325
101325
101325
101325
101325
101325
101325
101325
101325
101325
101325
101325
101325
101325
101325
101325
101325
101325
101325
101325
101325
101325
101325
101325
101325
101325
101325
101325
101325
101325
101325
101325
101325
101325
101325
101325
101325
101325
101325
101325
101325
101325
101325
101325
101325
101325
101325
101325
101325
101325
101325
101325
101325
101325
101325
101325
101325
101325
101325
101325
101325
101325
101325
101325
101325
101325
101325
101325
101325
101325
101325
101325
101325
101325
101325
101325
101325
101325
101325
101325
101325
101325
101325
101325
101325
101325
101325
101325
101325
101325
101325
101325
101325
101325
101325
101325
101325
101325
101325
101325
101325
101325
101325
101325
101325
101325
101325
101325
101325
101325
101325
101325
101325
101325
101325
101325
101325
101325
101325
101325
101325
101325
101325
101325
101325
101325
101325
101325
101325
101325
101325
101325
101325
101325
101325
101325
101325
101325
101325
101325
101325
101325
101325
101325
101325
101325
101325
101325
101325
101325
101325
101325
101325
101325
101325
101325
101325
101325
101325
101325
101325
101325
101325
101325
101325
101325
101325
101325
101325
101325
101325
101325
101325
101325
101325
101325
101325
101325
101325
101325
101325
101325
101325
101325
101325
101325
101325
101325
101325
101325
101325
101325
101325
101325
101325
101325
101325
101325
101325
101325
101325
101325
101325
101325
101325
101325
101325
101325
101325
101325
101325
101325
101325
101325
101325
101325
101325
101325
101325
101325
101325
101325
101325
101325
101325
101325
101325
101325
101325
101325
101325
101325
101325
101325
101325
101325
101325
101325
101325
101325
101325
101325
101325
101325
101325
101325
101325
101325
101325
101325
101325
101325
101325
101325
101325
101325
101325
101325
101325
101325
101325
101325
101325
101325
101325
101325
101325
101325
101325
101325
101325
101325
101325
101325
101325
101325
101325
101325
101325
101325
101325
101325
101325
101325
101325
101325
101325
101325
101325
101325
101325
101325
101325
101325
101325
101325
101325
101325
101325
101325
101325
101325
101325
101325
101325
101325
101325
101325
101325
101325
101325
101325
101325
101325
101325
101325
101325
101325
101325
101325
101325
101325
101325
101325
101325
101325
101325
101325
101325
101325
101325
101325
101325
101325
101325
101325
101325
101325
101325
101325
101325
101325
101325
101325
101325
101325
101325
101325
101325
101325
101325
101325
101325
101325
101325
101325
101325
101325
101325
101325
101325
101325
101325
101325
101325
101325
101325
101325
101325
101325
101325
101325
101325
101325
101325
101325
101325
101325
101325
101325
101325
101325
101325
101325
101325
101325
101325
101325
101325
101325
101325
101325
101325
101325
101325
101325
101325
101325
101325
101325
101325
101325
101325
101325
101325
101325
101325
101325
101325
101325
101325
101325
101325
101325
101325
101325
101325
101325
101325
101325
101325
101325
101325
101325
101325
101325
101325
101325
101325
101325
101325
101325
101325
101325
101325
101325
101325
101325
101325
101325
101325
101325
101325
101325
101325
101325
101325
101325
101325
101325
101325
101325
101325
101325
101325
101325
101325
101325
101325
101325
101325
101325
101325
101325
101325
101325
101325
101325
101325
101325
101325
101325
101325
101325
101325
101325
101325
101325
101325
101325
101325
101325
101325
101325
101325
101325
101325
101325
101325
101325
101325
101325
101325
101325
101325
101325
101325
101325
101325
101325
101325
101325
101325
101325
101325
101325
101325
101325
101325
101325
101325
101325
101325
101325
101325
101325
101325
101325
101325
101325
101325
101325
101325
101325
101325
101325
101325
101325
101325
101325
101325
101325
101325
101325
101325
101325
101325
101325
101325
101325
101325
101325
101325
101325
101325
101325
101325
101325
101325
101325
101325
101325
101325
101325
101325
101325
101325
101325
101325
101325
101325
101325
101325
101325
101325
101325
101325
101325
101325
101325
101325
101325
101325
101325
101325
101325
101325
101325
101325
101325
101325
101325
101325
101325
101325
101325
101325
101325
101325
101325
101325
101325
101325
101325
101325
101325
101325
101325
101325
101325
101325
101325
101325
101325
101325
101325
101325
101325
101325
101325
101325
101325
101325
101325
101325
101325
101325
101325
101325
101325
101325
101325
101325
101325
101325
101325
101325
101325
101325
101325
101325
101325
101325
101325
101325
101325
101325
101325
101325
101325
101325
101325
101325
101325
101325
101325
101325
101325
101325
101325
101325
101325
101325
101325
101325
101325
101325
101325
101325
101325
101325
101325
101325
101325
101325
101325
101325
101325
101325
101325
101325
101325
101325
101325
101325
101325
101325
101325
101325
101325
101325
101325
101325
101325
101325
101325
101325
101325
101325
101325
101325
101325
101325
101325
101325
101325
101325
101325
101325
101325
101325
101325
101325
101325
101325
101325
101325
101325
101325
101325
101325
101325
101325
101325
101325
101325
101325
101325
101325
101325
101325
101325
101325
101325
101325
101325
101325
101325
101325
101325
101325
101325
101325
101325
101325
101325
101325
101325
101325
101325
101325
101325
101325
101325
101325
101325
101325
101325
101325
101325
101325
101325
101325
101325
101325
101325
101325
101325
101325
101325
101325
101325
101325
101325
101325
101325
101325
101325
101325
101325
101325
101325
101325
101325
101325
101325
101325
101325
101325
101325
101325
101325
101325
101325
101325
101325
101325
101325
101325
101325
101325
101325
101325
101325
101325
101325
101325
101325
101325
101325
101325
101325
101325
101325
101325
101325
101325
101325
101325
101325
101325
101325
101325
101325
101325
101325
101325
101325
101325
101325
101325
101325
101325
101325
101325
101325
101325
101325
101325
101325
101325
101325
101325
101325
101325
101325
101325
101325
101325
101325
101325
101325
101325
101325
101325
101325
101325
101325
101325
101325
101325
101325
101325
101325
101325
101325
101325
101325
101325
101325
101325
101325
101325
101325
101325
101325
101325
101325
101325
101325
101325
101325
101325
101325
101325
101325
101325
101325
101325
101325
101325
101325
101325
101325
101325
101325
101325
101325
101325
101325
101325
101325
101325
101325
101325
101325
101325
101325
101325
101325
101325
101325
101325
101325
101325
101325
101325
101325
101325
101325
101325
101325
101325
101325
101325
101325
101325
101325
101325
101325
101325
101325
101325
101325
101325
101325
101325
101325
101325
101325
101325
101325
101325
101325
101325
101325
101325
101325
101325
101325
101325
101325
101325
101325
101325
101325
101325
101325
101325
101325
101325
101325
101325
101325
101325
101325
101325
101325
101325
101325
101325
101325
101325
101325
101325
101325
101325
101325
101325
101325
101325
101325
101325
101325
101325
101325
101325
101325
101325
101325
101325
101325
101325
101325
101325
101325
101325
101325
101325
101325
101325
101325
101325
101325
101325
101325
101325
101325
101325
101325
101325
101325
101325
101325
101325
101325
101325
101325
101325
101325
101325
101325
101325
101325
101325
101325
101325
101325
101325
101325
101325
101325
101325
101325
101325
101325
101325
101325
101325
101325
101325
101325
101325
101325
101325
101325
101325
101325
101325
101325
101325
101325
101325
101325
101325
101325
101325
101325
101325
101325
101325
101325
101325
101325
101325
101325
101325
101325
101325
101325
101325
101325
101325
101325
101325
101325
101325
101325
101325
101325
101325
101325
101325
101325
101325
101325
101325
101325
101325
101325
101325
101325
101325
101325
101325
101325
101325
101325
101325
101325
101325
101325
101325
101325
101325
101325
101325
101325
101325
101325
101325
101325
101325
101325
101325
101325
101325
101325
101325
101325
101325
101325
101325
101325
101325
101325
101325
101325
101325
101325
101325
101325
101325
101325
101325
101325
101325
101325
101325
101325
101325
101325
101325
101325
101325
101325
101325
101325
101325
101325
101325
101325
101325
101325
101325
101325
101325
101325
101325
101325
101325
101325
101325
101325
101325
101325
101325
101325
101325
101325
101325
101325
101325
101325
101325
101325
101325
101325
101325
101325
101325
101325
101325
101325
101325
101325
101325
101325
101325
101325
101325
101325
101325
101325
101325
101325
101325
101325
101325
101325
101325
101325
101325
101325
101325
101325
101325
101325
101325
101325
101325
101325
101325
101325
101325
101325
101325
101325
101325
101325
101325
101325
101325
101325
101325
101325
101325
101325
101325
101325
101325
101325
101325
101325
101325
101325
101325
101325
101325
101325
101325
101325
101325
101325
101325
101325
101325
101325
101325
101325
101325
101325
101325
101325
101325
101325
101325
101325
101325
101325
101325
101325
101325
101325
101325
101325
101325
101325
101325
101325
101325
101325
101325
101325
101325
101325
101325
101325
101325
101325
101325
101325
101325
101325
101325
101325
101325
101325
101325
101325
101325
101325
101325
101325
101325
101325
101325
101325
101325
101325
101325
101325
101325
101325
101325
101325
101325
101325
101325
101325
101325
101325
101325
101325
101325
101325
101325
101325
101325
101325
101325
101325
101325
101325
101325
101325
101325
101325
101325
101325
101325
101325
101325
101325
101325
101325
101325
101325
101325
101325
101325
101325
101325
101325
101325
101325
101325
101325
101325
101325
101325
101325
101325
101325
101325
101325
101325
101325
101325
101325
101325
101325
101325
101325
101325
101325
101325
101325
101325
101325
101325
101325
101325
101325
101325
101325
101325
101325
101325
101325
101325
101325
101325
101325
101325
101325
101325
101325
101325
101325
101325
101325
101325
101325
101325
101325
101325
101325
101325
101325
101325
101325
101325
101325
101325
101325
101325
101325
101325
101325
101325
101325
101325
101325
101325
101325
101325
101325
101325
101325
101325
101325
101325
101325
101325
101325
101325
101325
101325
101325
101325
101325
101325
101325
101325
101325
101325
101325
101325
101325
101325
101325
101325
101325
101325
101325
101325
101325
101325
101325
101325
101325
101325
101325
101325
101325
101325
101325
101325
101325
101325
101325
101325
101325
101325
101325
101325
101325
101325
101325
101325
101325
101325
101325
101325
101325
101325
101325
101325
101325
101325
101325
101325
101325
101325
101325
101325
101325
101325
101325
101325
101325
101325
101325
101325
101325
101325
101325
101325
101325
101325
101325
101325
101325
101325
101325
101325
101325
101325
101325
101325
101325
101325
101325
101325
101325
101325
101325
101325
101325
101325
101325
101325
101325
101325
101325
101325
101325
101325
101325
101325
101325
101325
101325
101325
101325
101325
101325
101325
101325
101325
101325
101325
101325
101325
101325
101325
101325
101325
101325
101325
101325
101325
101325
101325
101325
101325
101325
101325
101325
101325
101325
101325
101325
101325
101325
101325
101325
101325
101325
101325
101325
101325
101325
101325
101325
101325
101325
101325
101325
101325
101325
101325
101325
101325
101325
101325
101325
101325
101325
101325
101325
101325
101325
101325
101325
101325
101325
101325
101325
101325
101325
101325
101325
101325
101325
101325
101325
101325
101325
101325
101325
101325
101325
101325
101325
101325
101325
101325
101325
101325
101325
101325
101325
101325
101325
101325
101325
101325
101325
101325
101325
101325
101325
101325
101325
101325
101325
101325
101325
101325
101325
101325
101325
101325
101325
101325
101325
101325
101325
101325
101325
101325
101325
101325
101325
101325
101325
101325
101325
101325
101325
101325
101325
101325
101325
101325
101325
101325
101325
101325
101325
101325
101325
101325
101325
101325
101325
101325
101325
101325
101325
101325
101325
101325
101325
101325
101325
101325
101325
101325
101325
101325
101325
101325
101325
101325
101325
101325
101325
101325
101325
101325
101325
101325
101325
101325
101325
101325
101325
101325
101325
101325
101325
101325
101325
101325
101325
101325
101325
101325
101325
101325
101325
101325
101325
101325
101325
101325
101325
101325
101325
101325
101325
101325
101325
101325
101325
101325
101325
101325
101325
101325
101325
101325
101325
101325
101325
101325
101325
101325
101325
101325
101325
101325
101325
101325
101325
101325
101325
101325
101325
101325
101325
101325
101325
101325
101325
101325
101325
101325
101325
101325
101325
101325
101325
101325
101325
101325
101325
101325
101325
101325
101325
101325
101325
101325
101325
101325
101325
101325
101325
101325
101325
101325
101325
101325
101325
101325
101325
101325
101325
101325
101325
101325
101325
101325
101325
101325
101325
101325
101325
101325
101325
101325
101325
101325
101325
101324.999
101324.999
101324.999
101324.999
101324.999
101324.999
101324.999
101324.999
101324.999
101324.999
101324.999
101324.999
101324.999
101324.999
101324.999
101324.999
101324.999
101324.999
101324.998
101324.998
101324.998
101324.998
101324.998
101324.998
101324.998
101324.998
101324.997
101324.997
101324.997
101324.997
101324.997
101324.997
101324.996
101324.996
101324.996
101324.996
101324.995
101324.995
101324.995
101324.995
101324.994
101324.994
101324.994
101324.993
101324.993
101324.992
101324.992
101324.992
101324.991
101324.991
101324.99
101324.99
101324.989
101324.988
101324.988
101324.987
101324.986
101324.985
101324.985
101324.984
101324.983
101324.982
101324.981
101324.98
101324.979
101324.978
101324.976
101324.975
101324.974
101324.972
101324.971
101324.969
101324.968
101324.966
101324.964
101324.962
101324.96
101324.958
101324.956
101324.954
101324.951
101324.949
101324.946
101324.944
101324.941
101324.938
101324.934
101324.931
101324.928
101324.924
101324.92
101324.916
101324.912
101324.907
101324.903
101324.898
101324.893
101324.888
101324.882
101324.877
101324.871
101324.864
101324.858
101324.851
101324.844
101324.836
101324.829
101324.82
101324.812
101324.803
101324.794
101324.784
101324.774
101324.764
101324.753
101324.742
101324.73
101324.718
101324.705
101324.691
101324.678
101324.663
101324.648
101324.633
101324.616
101324.599
101324.582
101324.564
101324.545
101324.525
101324.504
101324.483
101324.461
101324.438
101324.414
101324.39
101324.364
101324.337
101324.31
101324.281
101324.252
101324.221
101324.189
101324.156
101324.122
101324.087
101324.05
101324.013
101323.974
101323.933
101323.891
101323.848
101323.803
101323.757
101323.709
101323.66
101323.609
101323.557
101323.502
101323.446
101323.389
101323.329
101323.268
101323.204
101323.139
101323.072
101323.002
101322.931
101322.857
101322.782
101322.704
101322.624
101322.541
101322.457
101322.37
101322.28
101322.188
101322.093
101321.996
101321.897
101321.794
101321.689
101321.582
101321.471
101321.358
101321.242
101321.123
101321.001
101320.876
101320.748
101320.617
101320.483
101320.346
101320.206
101320.062
101319.916
101319.766
101319.613
101319.457
101319.297
101319.135
101318.968
101318.799
101318.626
101318.45
101318.271
101318.088
101317.901
101317.712
101317.519
101317.322
101317.122
101316.919
101316.713
101316.503
101316.29
101316.073
101315.853
101315.63
101315.404
101315.174
101314.942
101314.706
101314.467
101314.225
101313.98
101313.733
101313.482
101313.228
101312.972
101312.713
101312.452
101312.188
101311.921
101311.653
101311.381
101311.108
101310.833
101310.555
101310.276
101309.995
101309.712
101309.428
101309.142
101308.855
101308.566
101308.277
101307.987
101307.695
101307.403
101307.111
101306.818
101306.525
101306.232
101305.938
101305.645
101305.353
101305.06
101304.769
101304.478
101304.188
101303.899
101303.612
101303.326
101303.041
101302.759
101302.478
101302.199
101301.923
101301.649
101301.378
101301.11
101300.844
101300.582
101300.323
101300.067
101299.815
101299.566
101299.322
101299.082
101298.845
101298.614
101298.386
101298.164
101297.946
101297.733
101297.525
101297.323
101297.125
101296.933
101296.747
101296.566
101296.392
101296.223
101296.06
101295.903
101295.752
101295.607
101295.469
101295.337
101295.212
101295.093
101294.98
101294.874
101294.775
101294.683
101294.597
101294.518
101294.445
101294.38
101294.321
101294.268
101294.223
101294.184
101294.151
101294.126
101294.107
101294.094
101294.088
101294.088
101294.095
101294.108
101294.127
101294.152
101294.183
101294.22
101294.263
101294.312
101294.366
101294.426
101294.491
101294.561
101294.637
101294.717
101294.802
101294.892
101294.987
101295.086
101295.189
101295.296
101295.408
101295.523
101295.641
101295.764
101295.889
101296.018
101296.15
101296.284
101296.421
101296.561
101296.703
101296.847
101296.993
101297.141
101297.291
101297.442
101297.595
101297.749
101297.904
101298.06
101298.216
101298.374
101298.531
101298.689
101298.848
101299.006
101299.164
101299.322
101299.48
101299.637
101299.794
101299.95
101300.105
101300.259
101300.413
101300.565
101300.716
101300.866
101301.014
101301.162
101301.307
101301.451
101301.594
101301.734
101301.873
101302.011
101302.146
101302.279
101302.411
101302.541
101302.668
101302.794
101302.917
101303.039
101303.159
101303.276
101303.391
101303.504
101303.616
101303.725
101303.832
101303.937
101304.039
101304.14
101304.239
101304.336
101304.431
101304.523
101304.614
101304.703
101304.79
101304.876
101304.959
101305.041
101305.121
101305.199
101305.275
101305.35
101305.424
101305.495
101305.566
101305.635
101305.702
101305.768
101305.833
101305.896
101305.958
101306.019
101306.079
101306.138
101306.195
101306.252
101306.308
101306.362
101306.416
101306.469
101306.521
101306.572
101306.623
101306.673
101306.722
101306.771
101306.819
101306.866
101306.913
101306.959
101307.005
101307.051
101307.096
101307.141
101307.185
101307.229
101307.273
101307.316
101307.36
101307.403
101307.445
101307.488
101307.53
101307.573
101307.615
101307.657
101307.698
101307.74
101307.782
101307.823
101307.864
101307.905
101307.947
101307.988
101308.029
101308.069
101308.11
101308.151
101308.191
101308.232
101308.272
101308.312
101308.352
101308.392
101308.432
101308.471
101308.511
101308.55
101308.589
101308.628
101308.666
101308.705
101308.743
101308.781
101308.818
101308.855
101308.892
101308.929
101308.965
101309.001
101309.037
101309.072
101309.106
101309.141
101309.174
101309.208
101309.241
101309.273
101309.305
101309.337
101309.368
101309.398
101309.428
101309.457
101309.486
101309.514
101309.542
101309.569
101309.596
101309.622
101309.647
101309.672
101309.696
101309.72
101309.743
101309.765
101309.787
101309.809
101309.83
101309.85
101309.87
101309.889
101309.908
101309.926
101309.944
101309.962
101309.979
101309.995
101310.011
101310.027
101310.043
101310.058
101310.072
101310.087
101310.101
101310.115
101310.128
101310.142
101310.155
101310.168
101310.181
101310.194
101310.206
101310.219
101310.231
101310.244
101310.257
101310.269
101310.282
101310.295
101310.307
101310.32
101310.334
101310.347
101310.36
101310.374
101310.388
101310.402
101310.417
101310.431
101310.446
101310.462
101310.477
101310.493
101310.51
101310.527
101310.544
101310.561
101310.579
101310.597
101310.616
101310.635
101310.654
101310.674
101310.694
101310.715
101310.736
101310.757
101310.778
101310.8
101310.822
101310.845
101310.868
101310.891
101310.914
101310.937
101310.961
101310.985
101311.009
101311.033
101311.057
101311.081
101311.105
101311.129
101311.153
101311.178
101311.202
101311.225
101311.249
101311.273
101311.296
101311.319
101311.342
101311.365
101311.387
101311.409
101311.431
101311.452
101311.473
101311.494
101311.514
101311.534
101311.553
101311.572
101311.591
101311.609
101311.627
101311.644
101311.661
101311.677
101311.693
101311.709
101311.724
101311.738
101311.753
101311.767
101311.781
101311.794
101311.807
101311.82
101311.832
101311.844
101311.856
101311.868
101311.879
101311.891
101311.902
101311.913
101311.924
101311.934
101311.945
101311.955
101311.966
101311.976
101311.987
101311.997
101312.007
101312.018
101312.028
101312.038
101312.049
101312.059
101312.069
101312.08
101312.09
101312.101
101312.111
101312.122
101312.132
101312.143
101312.154
101312.165
101312.175
101312.186
101312.197
101312.208
101312.218
101312.229
101312.24
101312.251
101312.262
101312.272
101312.283
101312.294
101312.304
101312.315
101312.325
101312.335
101312.346
101312.356
101312.365
101312.375
101312.385
101312.394
101312.403
101312.412
101312.421
101312.429
101312.437
101312.445
101312.452
101312.46
101312.467
101312.474
101312.48
101312.486
101312.492
101312.498
101312.504
101312.509
101312.514
101312.52
101312.525
101312.53
101312.535
101312.54
101312.545
101312.551
101312.556
101312.562
101312.569
101312.575
101312.583
101312.59
101312.599
101312.607
101312.617
101312.627
101312.638
101312.649
101312.662
101312.675
101312.688
101312.702
101312.717
101312.733
101312.749
101312.765
101312.782
101312.799
101312.816
101312.833
101312.85
101312.867
101312.883
101312.896
101312.889
101312.867
101313.205
101313.356
101313.269
101312.721
101312.615
101312.586
101312.674
101312.71
101312.791
101312.814
101312.863
101312.874
101312.888
101312.882
101312.877
101312.866
101312.855
101312.843
101312.831
101312.819
101312.808
101312.796
101312.785
101312.774
101312.764
101312.754
101312.744
101312.734
101312.725
101312.716
101312.707
101312.699
101312.691
101312.683
101312.675
101312.668
101312.661
101312.654
101312.648
101312.641
101312.635
101312.63
101312.624
101312.619
101312.614
101312.609
101312.604
101312.6
101312.596
101312.592
101312.588
101312.584
101312.58
101312.577
101312.574
101312.571
101312.568
101312.565
101312.562
101312.559
101312.557
101312.554
101312.551
101312.549
101312.547
101312.544
101312.542
101312.54
101312.537
101312.535
101312.533
101312.53
101312.528
101312.525
101312.523
101312.521
101312.518
101312.516
101312.513
101312.51
101312.508
101312.505
101312.502
101312.499
101312.496
101312.493
101312.49
101312.487
101312.484
101312.48
101312.477
101312.474
101312.47
101312.467
101312.463
101312.459
101312.455
101312.451
101312.447
101312.443
101312.439
101312.435
101312.431
101312.427
101312.422
101312.418
101312.413
101312.409
101312.404
101312.4
101312.395
101312.39
101312.385
101312.38
101312.376
101312.371
101312.366
101312.36
101312.355
101312.35
101312.345
101312.34
101312.335
101312.329
101312.324
101312.319
101312.313
101312.308
101312.303
101312.297
101312.292
101312.286
101312.281
101312.275
101312.27
101312.264
101312.258
101312.253
101312.247
101312.242
101312.236
101312.23
101312.225
101312.219
101312.213
101312.208
101312.202
101312.196
101312.19
101312.185
101312.179
101312.173
101312.168
101312.162
101312.156
101312.15
101312.145
101312.139
101312.133
101312.127
101312.122
101312.116
101312.11
101312.105
101312.099
101312.093
101312.087
101312.082
101312.076
101312.07
101312.065
101312.059
101312.053
101312.047
101312.042
101312.036
101312.03
101312.025
101312.019
101312.013
101312.007
101312.002
101311.996
101311.99
101311.984
101311.978
101311.973
101311.967
101311.961
101311.955
101311.95
101311.944
101311.938
101311.932
101311.926
101311.92
101311.914
101311.908
101311.902
101311.896
101311.89
101311.884
101311.878
101311.872
101311.866
101311.86
101311.854
101311.847
101311.841
101311.834
101311.828
101311.822
101311.815
101311.808
101311.802
101311.795
101311.788
101311.781
101311.774
101311.767
101311.76
101311.753
101311.746
101311.739
101311.731
101311.724
101311.716
101311.709
101311.701
101311.693
101311.685
101311.677
101311.669
101311.661
101311.653
101311.644
101311.636
101311.627
101311.618
101311.61
101311.601
101311.592
101311.583
101311.573
101311.564
101311.555
101311.545
101311.535
101311.526
101311.516
101311.506
101311.496
101311.486
101311.476
101311.465
101311.455
101311.444
101311.434
101311.423
101311.412
101311.401
101311.39
101311.379
101311.368
101311.357
101311.346
101311.334
101311.323
101311.311
101311.3
101311.288
101311.276
101311.265
101311.253
101311.241
101311.229
101311.217
101311.205
101311.193
101311.181
101311.169
101311.157
101311.144
101311.132
101311.12
101311.108
101311.095
101311.083
101311.071
101311.059
101311.046
101311.034
101311.022
101311.01
101310.997
101310.985
101310.973
101310.961
101310.949
101310.937
101310.925
101310.913
101310.901
101310.889
101310.877
101310.865
101310.853
101310.841
101310.83
101310.818
101310.807
101310.795
101310.784
101310.772
101310.761
101310.75
101310.739
101310.728
101310.717
101310.706
101310.695
101310.684
101310.674
101310.663
101310.653
101310.642
101310.632
101310.622
101310.611
101310.601
101310.591
101310.582
101310.572
101310.562
101310.552
101310.543
101310.533
101310.524
101310.515
101310.506
101310.497
101310.488
101310.479
101310.47
101310.461
101310.452
101310.444
101310.435
101310.427
101310.418
101310.41
101310.402
101310.394
101310.386
101310.378
101310.37
101310.362
101310.354
101310.346
101310.338
101310.331
101310.323
101310.316
101310.308
101310.301
101310.293
101310.286
101310.278
101310.271
101310.264
101310.257
101310.249
101310.242
101310.235
101310.228
101310.221
101310.213
101310.206
101310.199
101310.192
101310.185
101310.178
101310.171
101310.163
101310.156
101310.149
101310.142
101310.135
101310.127
101310.12
101310.113
101310.106
101310.098
101310.091
101310.083
101310.076
101310.068
101310.061
101310.053
101310.045
101310.038
101310.03
101310.022
101310.014
101310.006
101309.998
101309.99
101309.981
101309.973
101309.965
101309.956
101309.948
101309.939
101309.93
101309.921
101309.912
101309.903
101309.894
101309.885
101309.875
101309.866
101309.856
101309.847
101309.837
101309.827
101309.817
101309.807
101309.796
101309.786
101309.776
101309.765
101309.754
101309.743
101309.732
101309.721
101309.71
101309.698
101309.687
101309.675
101309.663
101309.651
101309.639
101309.627
101309.615
101309.602
101309.59
101309.577
101309.564
101309.551
101309.538
101309.524
101309.511
101309.497
101309.483
101309.47
101309.455
101309.441
101309.427
101309.413
101309.398
101309.383
101309.368
101309.353
101309.338
101309.323
101309.308
101309.292
101309.276
101309.26
101309.245
101309.228
101309.212
101309.196
101309.18
101309.163
101309.146
101309.129
101309.112
101309.095
101309.078
101309.061
101309.044
101309.026
101309.008
101308.991
101308.973
101308.955
101308.937
101308.919
101308.9
101308.882
101308.863
101308.845
101308.826
101308.807
101308.789
101308.77
101308.751
101308.732
101308.712
101308.693
101308.674
101308.654
101308.634
101308.612
101308.589
101308.564
101308.537
101308.507
101308.476
101308.442
101308.406
101308.367
101308.324
101308.279
101308.23
101308.178
101308.121
101308.06
101307.994
101307.924
101307.848
101307.766
101307.678
101307.583
101307.481
101307.371
101307.252
101307.123
101306.983
101306.829
101306.66
101306.472
101306.262
101306.022
101305.746
101305.422
101305.037
101304.573
101304.008
101303.314
101302.463
101301.426
101300.183
101298.736
101297.127
101295.464
101293.941
101292.847
101292.549
101293.417
101295.708
101299.435
101304.274
101309.594
101314.622
101318.727
101321.624
101323.39
101324.322
101324.748
101324.918
101324.976
101324.994
101324.999
101325
101325.001
101325.001
101325.001
101325.001
101325.001
101325.001
101325.001
101325.001
101325.001
101325.001
101325.001
101325
101325
101325
)
;

boundaryField
{
    closed
    {
        type            zeroGradient;
    }
    open
    {
        type            waveTransmissive;
        gamma           1.25;
        fieldInf        101325;
        lInf            1;
        value           uniform 101325;
    }
    sides
    {
        type            empty;
    }
}


// ************************************************************************* //
