/*--------------------------------*- C++ -*----------------------------------*\
| =========                 |                                                 |
| \\      /  F ield         | OpenFOAM: The Open Source CFD Toolbox           |
|  \\    /   O peration     | Version:  2206                                  |
|   \\  /    A nd           | Website:  www.openfoam.com                      |
|    \\/     M anipulation  |                                                 |
\*---------------------------------------------------------------------------*/
FoamFile
{
    version     2.0;
    format      ascii;
    arch        "LSB;label=32;scalar=64";
    class       surfaceScalarField;
    location    "1.5e-05";
    object      phi;
}
// * * * * * * * * * * * * * * * * * * * * * * * * * * * * * * * * * * * * * //

dimensions      [1 0 -1 0 0 0 0];

oriented        oriented;

internalField   nonuniform List<scalar> 
3182
(
5.34610599e-18
-2.27270512e-18
-1.96298587e-18
-2.04464263e-18
-6.22185958e-21
-3.44533363e-23
-2.44013905e-24
2.74276707e-26
4.28649786e-24
7.33823069e-23
7.76978888e-20
3.89742883e-18
3.5979797e-18
6.11441788e-19
1.41854371e-18
-1.15707982e-18
-4.27401305e-18
-4.88869108e-18
-4.50912134e-18
4.29145306e-18
6.76280696e-20
1.78536119e-21
1.12295555e-18
2.33501999e-18
4.05223815e-18
2.45102874e-18
7.85609831e-18
1.72150475e-18
-2.75874303e-20
8.69448694e-19
-1.10237226e-18
-2.28410703e-18
-5.59746405e-18
-6.60084661e-18
-5.36875798e-18
-5.61457838e-18
-4.73761574e-18
-5.31317725e-18
-7.22108501e-18
-5.31953324e-18
-3.67694737e-18
1.57357039e-20
2.17117117e-18
3.00423698e-18
3.17596773e-18
6.28886254e-18
7.90541961e-18
9.20758414e-18
1.07318716e-17
1.24852149e-17
1.17231945e-17
9.69201468e-18
9.33552656e-18
6.73499095e-18
4.34684426e-18
1.1118992e-18
-1.2852351e-18
-4.74830505e-18
-6.717015e-18
-8.90044666e-18
-1.10601747e-17
-1.32658892e-17
-1.52643034e-17
-1.78244875e-17
-2.03607435e-17
-2.34072982e-17
-2.5373972e-17
-2.68774622e-17
-2.90613411e-17
-2.99979487e-17
-3.08201225e-17
-3.23747911e-17
-3.2467873e-17
-3.3079952e-17
-3.48311935e-17
-3.43905385e-17
-3.5364242e-17
-3.49041057e-17
-3.44893372e-17
-3.56715904e-17
-3.48579867e-17
-3.55877077e-17
-3.60974183e-17
-3.69653823e-17
-3.74662514e-17
-3.78663436e-17
-3.92329202e-17
-3.8492443e-17
-3.81052768e-17
-3.88491533e-17
-4.19091622e-17
-4.22563791e-17
-4.27050452e-17
-4.25682758e-17
-4.41171103e-17
-4.39600791e-17
-4.61466347e-17
-4.89140713e-17
-4.74540653e-17
-4.39294513e-17
-4.41848718e-17
-4.15674875e-17
-4.42781054e-17
-4.21288528e-17
-4.34522818e-17
-4.43827936e-17
-4.63552144e-17
-4.7750415e-17
-4.98235083e-17
-5.04313735e-17
-5.07819025e-17
-5.25904311e-17
-5.50323988e-17
-5.5568091e-17
-5.45287238e-17
-5.21746753e-17
-5.56681769e-17
-5.45256346e-17
-5.73769632e-17
-5.6102135e-17
-5.7940908e-17
-5.65348921e-17
-6.1547807e-17
-6.05773284e-17
-5.81272427e-17
-6.06560137e-17
-5.62652155e-17
-5.65885639e-17
-5.42984488e-17
-5.39692375e-17
-5.40772957e-17
-5.69694808e-17
-5.48633318e-17
-5.49226127e-17
-5.77895201e-17
-5.77496616e-17
-5.57854919e-17
-6.02072045e-17
-6.05932855e-17
-6.16162467e-17
-6.30006998e-17
-6.31952127e-17
-6.5408355e-17
-6.67646678e-17
-6.38207574e-17
-6.6307178e-17
-6.95530111e-17
-7.01527782e-17
-7.24117109e-17
-7.14125414e-17
-7.20171969e-17
-7.26443678e-17
-6.91473822e-17
-7.27685068e-17
-7.16671574e-17
-7.29306011e-17
-7.14351207e-17
-7.11767325e-17
-7.19787236e-17
-7.01705044e-17
-7.24654091e-17
-7.29342035e-17
-7.40385544e-17
-7.56736293e-17
-7.97176654e-17
-7.54060085e-17
-7.72482403e-17
-7.62044237e-17
-7.61245398e-17
-7.38813417e-17
-7.56510574e-17
-7.46380779e-17
-7.32971288e-17
-7.30420291e-17
-7.37980683e-17
-7.35439647e-17
-7.56730937e-17
-7.68859147e-17
-7.66218699e-17
-7.66718329e-17
-7.46669986e-17
-7.55434099e-17
-7.58097105e-17
-7.57314231e-17
-7.67195818e-17
-7.76957898e-17
-8.11330037e-17
-7.85403914e-17
-7.98840558e-17
-8.10133584e-17
-8.08681637e-17
-7.99028133e-17
-7.78329105e-17
-7.89765865e-17
-8.05590446e-17
-8.00232593e-17
-8.10606185e-17
-7.94641748e-17
-7.9598357e-17
-8.30157663e-17
-8.29735147e-17
-8.65050781e-17
-8.86845594e-17
-8.80350929e-17
-8.92551658e-17
-9.02418958e-17
-9.05421247e-17
-9.28416991e-17
-9.38943214e-17
-9.41347773e-17
-9.50598918e-17
-9.39742344e-17
-9.31879557e-17
-9.25758906e-17
-9.50082616e-17
-9.51894329e-17
-9.64806096e-17
-9.40977563e-17
-9.23762521e-17
-9.47327687e-17
-9.26539682e-17
-9.56272174e-17
-9.48794764e-17
-9.34845885e-17
-9.55909123e-17
-9.66716731e-17
-9.79103283e-17
-9.59685655e-17
-9.80610545e-17
-1.00123561e-16
-9.93953981e-17
-9.92763096e-17
-9.83899535e-17
-1.00035995e-16
-9.93161524e-17
-1.00012306e-16
-9.76727394e-17
-1.00035941e-16
-9.97757354e-17
-1.01891207e-16
-1.01063667e-16
-1.02648624e-16
-1.04655871e-16
-1.04171125e-16
-1.04546003e-16
-1.03379246e-16
-1.06103407e-16
-1.08402325e-16
-1.06606968e-16
-1.04290467e-16
-1.06433463e-16
-1.04919938e-16
-1.04681262e-16
-1.05830448e-16
-1.06409288e-16
-1.06213144e-16
-1.062566e-16
-1.06736558e-16
-1.0699934e-16
-1.10347189e-16
-1.08151253e-16
-1.11061073e-16
-1.07691061e-16
-1.07419718e-16
-1.09307248e-16
-1.08395077e-16
-1.11656641e-16
-1.13715535e-16
-1.1266134e-16
-1.10772166e-16
-1.11063782e-16
-1.07228927e-16
-1.08654981e-16
-1.08971951e-16
-1.10862831e-16
-1.09408449e-16
-1.09193163e-16
-1.08577175e-16
-1.12917768e-16
-1.10934398e-16
-1.15822185e-16
-1.11793243e-16
-1.16846095e-16
-1.18764069e-16
-1.19390835e-16
-1.16951274e-16
-1.17974596e-16
-1.1624907e-16
-1.17580852e-16
-1.17862844e-16
-1.19211708e-16
-1.2010622e-16
-1.22343256e-16
-1.19576039e-16
-1.18280202e-16
-1.15743816e-16
-1.16222232e-16
-1.15113122e-16
-1.13992466e-16
-1.12304145e-16
-1.11388327e-16
-1.12214569e-16
-1.09500915e-16
-1.1178969e-16
-1.10546505e-16
-1.10278103e-16
-1.11456999e-16
-1.1430581e-16
-1.16167152e-16
-1.17458621e-16
-1.19466318e-16
-1.20500888e-16
-1.22007462e-16
-1.18766877e-16
-1.20952864e-16
-1.20358696e-16
-1.18751237e-16
-1.21706915e-16
-1.20967507e-16
-1.22605879e-16
-1.23061554e-16
-1.25069937e-16
-1.25328361e-16
-1.24780561e-16
-1.2318332e-16
-1.2266092e-16
-1.23682187e-16
-1.21725334e-16
-1.24254304e-16
-1.25275186e-16
-1.23571735e-16
-1.22759795e-16
-1.2383179e-16
-1.21912512e-16
-1.21920584e-16
-1.20539583e-16
-1.19850415e-16
-1.18411887e-16
-1.2157852e-16
-1.18732147e-16
-1.18749575e-16
-1.1766281e-16
-1.14921623e-16
-1.10735372e-16
-1.13180372e-16
-1.11939183e-16
-1.14617474e-16
-1.14263538e-16
-1.13706018e-16
-1.14304105e-16
-1.12584343e-16
-1.13588744e-16
-1.11192882e-16
-1.15003874e-16
-1.1540301e-16
-1.14461643e-16
-1.16619017e-16
-1.16395612e-16
-1.1581096e-16
-1.12931487e-16
-1.14008063e-16
-1.11191316e-16
-1.12247549e-16
-1.1371196e-16
-1.1374375e-16
-1.15048943e-16
-1.13801817e-16
-1.1471317e-16
-1.13478464e-16
-1.12381228e-16
-1.11896739e-16
-1.11862498e-16
-1.11712249e-16
-1.10244009e-16
-1.09243417e-16
-1.08692663e-16
-1.09976739e-16
-1.11860497e-16
-1.1351965e-16
-1.11690485e-16
-1.15537531e-16
-1.13273228e-16
-1.13840299e-16
-1.13361828e-16
-1.10820965e-16
-1.13174155e-16
-1.11051029e-16
-1.13848317e-16
-1.1319726e-16
-1.16701025e-16
-1.12348001e-16
-1.13060353e-16
-1.1160388e-16
-1.10788481e-16
-1.11669592e-16
-1.08951903e-16
-1.12174813e-16
-1.14017965e-16
-1.13717644e-16
-1.0881909e-16
-1.10376527e-16
-1.08769135e-16
-1.10459869e-16
-1.0908353e-16
-1.08337565e-16
-1.04860156e-16
-1.07608174e-16
-1.07150352e-16
-1.05192421e-16
-1.0379565e-16
-1.00239326e-16
-1.0058565e-16
-1.02588345e-16
-9.84975712e-17
-9.9937663e-17
-9.76207066e-17
-9.53934774e-17
-9.66170589e-17
-9.38389596e-17
-9.25515117e-17
-9.15875551e-17
-8.88128457e-17
-9.0481222e-17
-9.30939968e-17
-9.35884551e-17
-9.20250839e-17
-8.96551769e-17
-8.63354672e-17
-8.51634145e-17
-8.25213167e-17
-8.32734874e-17
-8.43784144e-17
-8.34230046e-17
-8.40123284e-17
-8.37429695e-17
-8.08279567e-17
-7.96873439e-17
-7.97540016e-17
-7.69588147e-17
-7.50896526e-17
-7.73180692e-17
-8.03180962e-17
-8.05816614e-17
-8.03506756e-17
-7.91826844e-17
-8.00998261e-17
-7.61418106e-17
-7.720285e-17
-7.57015819e-17
-7.41983662e-17
-7.32844865e-17
-7.24520461e-17
-7.3461562e-17
-7.37376722e-17
-7.58463301e-17
-7.40543334e-17
-7.26548709e-17
-7.29486492e-17
-7.39900518e-17
-7.28598612e-17
-7.11433708e-17
-6.92082236e-17
-6.89561206e-17
-6.80497955e-17
-6.70454243e-17
-6.61625882e-17
-6.55787602e-17
-6.21964842e-17
-6.1021099e-17
-5.68405185e-17
-5.44698487e-17
-5.60806895e-17
-5.37378398e-17
-5.52039636e-17
-5.63813749e-17
-5.21922172e-17
-5.23635734e-17
-5.53452314e-17
-5.41644622e-17
-5.1787116e-17
-5.28721084e-17
-5.34332435e-17
-5.37799979e-17
-5.28168859e-17
-5.24603761e-17
-5.24264565e-17
-5.30815222e-17
-5.32154372e-17
-5.34226522e-17
-5.2951602e-17
-5.11067289e-17
-5.15197773e-17
-5.23409298e-17
-5.40271655e-17
-5.23492756e-17
-5.66072432e-17
-5.49654559e-17
-5.58004223e-17
-5.8280878e-17
-5.345531e-17
-5.24961193e-17
-5.07253497e-17
-5.0073407e-17
-5.06059978e-17
-5.15803782e-17
-4.88537525e-17
-5.11286217e-17
-4.84738478e-17
-4.67530273e-17
-4.34969303e-17
-4.20667392e-17
-4.12652743e-17
-4.10855352e-17
-4.19471608e-17
-3.82672725e-17
-3.84561952e-17
-3.63895918e-17
-3.67382317e-17
-3.68037827e-17
-3.3960218e-17
-3.25540896e-17
-3.28645195e-17
-2.92531784e-17
-3.12481988e-17
-3.13177098e-17
-3.20273926e-17
-2.98574553e-17
-2.99555572e-17
-3.24434086e-17
-3.16205019e-17
-3.42946386e-17
-3.24995471e-17
-3.319839e-17
-3.08641651e-17
-2.93696837e-17
-3.04148797e-17
-3.2280767e-17
-3.40101902e-17
-2.95683564e-17
-3.11845557e-17
-3.29493681e-17
-3.2281945e-17
-3.00902217e-17
-2.93606967e-17
-2.84159311e-17
-2.67624363e-17
-2.497788e-17
-2.85130784e-17
-2.70860242e-17
-2.74894263e-17
-2.57467816e-17
-2.61485565e-17
-2.44480297e-17
-2.35713022e-17
-2.58360895e-17
-2.44423929e-17
-2.28942577e-17
-2.39145463e-17
-2.53639524e-17
-2.65989015e-17
-2.72918985e-17
-2.41537438e-17
-2.46058834e-17
-2.42524933e-17
-2.1687796e-17
-2.33968241e-17
-2.05058863e-17
-2.01600564e-17
-1.66703111e-17
-1.50267496e-17
-1.31936787e-17
-1.56113529e-17
-1.35078354e-17
-1.68810724e-17
-1.94946724e-17
-2.05317617e-17
-2.18174219e-17
-2.03339e-17
-1.81232212e-17
-1.91461935e-17
-1.3918198e-17
-1.11199259e-17
-1.13275126e-17
-1.18000648e-17
-9.8469136e-18
-1.03937328e-17
-1.09579167e-17
-8.88223819e-18
-1.05889209e-17
-8.31703749e-18
-1.01515712e-17
-1.03324861e-17
-1.02921531e-17
-1.14966516e-17
-9.02230925e-18
-8.43076672e-18
-5.32389927e-18
-6.45902337e-18
-5.36849672e-18
-5.06301077e-18
-4.67296869e-18
-3.3273654e-18
-9.35347035e-19
3.51301146e-19
2.0765847e-18
-1.4339208e-19
1.15015484e-18
-8.46647028e-19
-4.45615551e-18
-2.93231376e-18
-3.23399242e-18
-5.82120257e-19
-1.22845764e-18
1.1709143e-18
4.22093545e-18
3.12477917e-18
3.17708521e-18
3.62303437e-18
5.6686218e-18
1.22729243e-18
4.41440175e-18
3.82257166e-18
-3.91104612e-19
3.23497291e-18
2.53226822e-18
4.08159313e-18
7.50767419e-18
9.77050451e-18
9.05553637e-18
9.87598214e-18
9.69955713e-18
1.23279424e-17
1.41946056e-17
1.35652777e-17
1.41544708e-17
1.47487031e-17
1.74518174e-17
1.7118456e-17
1.49319614e-17
1.68688916e-17
1.35910039e-17
1.58731311e-17
1.73902754e-17
1.7196186e-17
1.70047777e-17
1.71383268e-17
1.70030672e-17
1.24319712e-17
1.7007236e-17
1.89852137e-17
1.83889068e-17
2.01076768e-17
1.84785143e-17
1.89562102e-17
1.73665131e-17
1.90716016e-17
1.99929603e-17
1.90303866e-17
1.67201673e-17
1.9183309e-17
2.4115953e-17
2.25441892e-17
1.97105276e-17
2.16608051e-17
2.33289144e-17
2.39495639e-17
2.59183099e-17
2.63937167e-17
2.6304798e-17
2.71174262e-17
2.81060112e-17
2.84191079e-17
3.24125669e-17
3.20878756e-17
3.2832613e-17
3.5324197e-17
3.3918804e-17
3.58787027e-17
3.49275851e-17
3.67663545e-17
3.86367983e-17
3.67788068e-17
3.67712866e-17
3.92559318e-17
3.83716978e-17
3.92171632e-17
4.13251466e-17
3.69040556e-17
4.03404265e-17
4.09494785e-17
3.73708703e-17
3.77014174e-17
3.78994666e-17
3.88138642e-17
3.8255948e-17
3.74804807e-17
3.85136632e-17
4.16858001e-17
4.06700011e-17
4.40897334e-17
4.21160521e-17
4.3868358e-17
4.70318099e-17
4.88151465e-17
5.16800491e-17
5.48925993e-17
5.22643155e-17
5.09285311e-17
4.78719026e-17
5.13699334e-17
5.05330029e-17
5.00350554e-17
5.2494806e-17
5.29305678e-17
5.22850557e-17
5.45584015e-17
5.52791091e-17
5.94497868e-17
5.80983694e-17
6.02485934e-17
6.12907625e-17
5.96597305e-17
6.09754364e-17
5.79343622e-17
5.71256321e-17
5.59423315e-17
5.82936417e-17
5.94372053e-17
6.12829052e-17
6.46303058e-17
6.58101497e-17
6.58952512e-17
6.48589786e-17
6.62844298e-17
6.57774589e-17
6.274734e-17
6.63927015e-17
6.62452573e-17
6.50659777e-17
6.61611706e-17
6.39825809e-17
6.04624428e-17
6.07032529e-17
6.30430938e-17
6.42676883e-17
6.16063855e-17
6.30208354e-17
6.28935221e-17
6.1340827e-17
6.08108863e-17
6.220951e-17
6.30441337e-17
6.05778842e-17
5.95557673e-17
6.07054123e-17
6.36409189e-17
6.05794717e-17
6.30204336e-17
6.48811843e-17
6.38585662e-17
6.77674439e-17
6.69327836e-17
6.41516101e-17
6.76803942e-17
6.77673512e-17
6.78857027e-17
6.60887962e-17
6.49310282e-17
6.29927432e-17
6.25294576e-17
6.55011908e-17
6.65540114e-17
6.74120456e-17
6.84346596e-17
7.19214253e-17
7.11232323e-17
7.06355647e-17
7.14415654e-17
6.8082995e-17
7.10244784e-17
6.70773919e-17
6.8581037e-17
6.97266151e-17
7.05711426e-17
7.14495545e-17
6.90360749e-17
7.20502794e-17
7.00750095e-17
6.92790906e-17
7.21158585e-17
6.97748937e-17
7.19752052e-17
7.22042561e-17
7.27021118e-17
6.69375451e-17
6.67569149e-17
6.65108226e-17
6.73964165e-17
6.43599544e-17
6.64834651e-17
6.79620465e-17
6.92505757e-17
6.90077425e-17
7.05580729e-17
7.6299014e-17
7.73436138e-17
8.06719839e-17
7.82960604e-17
7.43610768e-17
7.33785824e-17
7.28262912e-17
7.16359188e-17
7.49903254e-17
7.35357776e-17
7.63064819e-17
7.22121758e-17
7.24461409e-17
7.34457189e-17
7.5048923e-17
7.67151497e-17
7.35095415e-17
7.61421961e-17
7.41381609e-17
7.1675922e-17
7.14532234e-17
7.46361805e-17
7.33711785e-17
7.35438155e-17
7.6005277e-17
7.27082147e-17
7.15367595e-17
7.02955069e-17
6.94119176e-17
6.82478877e-17
6.62496455e-17
6.68776888e-17
6.42590725e-17
6.51697764e-17
6.25373115e-17
6.17516584e-17
6.06324997e-17
6.20743715e-17
6.45118386e-17
6.68173448e-17
6.57468773e-17
6.42183601e-17
6.60537577e-17
6.25244099e-17
6.4059092e-17
6.2945133e-17
6.25138188e-17
6.16825755e-17
6.57340013e-17
6.32429024e-17
6.38621573e-17
6.11382362e-17
6.39406636e-17
6.00962717e-17
5.6769246e-17
5.78461976e-17
5.80263356e-17
5.64652465e-17
5.43247978e-17
5.67834118e-17
5.54388428e-17
5.67891903e-17
5.93268899e-17
5.81683181e-17
5.71409534e-17
5.64267378e-17
5.82551842e-17
5.57721926e-17
5.94078128e-17
5.98152356e-17
5.91875978e-17
5.67778447e-17
5.75040263e-17
5.88077242e-17
5.9741345e-17
5.46974817e-17
5.73988603e-17
5.57645714e-17
5.84966754e-17
5.78090616e-17
6.06144242e-17
6.29057304e-17
6.13314943e-17
6.20403902e-17
6.3104794e-17
6.40737119e-17
6.0408876e-17
6.23137336e-17
6.19647176e-17
6.49497596e-17
6.28782553e-17
6.37483473e-17
6.26192318e-17
6.10674539e-17
6.05453346e-17
5.9296525e-17
6.06616155e-17
6.11340745e-17
6.13857323e-17
6.1757317e-17
5.99263124e-17
6.07691002e-17
6.07986185e-17
6.22108384e-17
6.06149737e-17
6.27886239e-17
5.85678238e-17
6.02557811e-17
6.10323423e-17
6.15560651e-17
6.22634745e-17
6.16421847e-17
6.01442875e-17
6.21602168e-17
6.2415338e-17
6.5822829e-17
6.1860508e-17
6.23999817e-17
6.10624055e-17
6.22926867e-17
6.52099875e-17
6.41823151e-17
6.54468964e-17
6.14884634e-17
6.24056428e-17
6.37143604e-17
6.2909782e-17
6.50501241e-17
6.57405234e-17
6.06818726e-17
6.1088872e-17
6.04901524e-17
5.97053533e-17
6.03661751e-17
6.28696244e-17
5.9860524e-17
6.16958464e-17
5.92827093e-17
5.96364674e-17
6.2698578e-17
6.06395109e-17
6.08979637e-17
6.44518442e-17
6.41530209e-17
6.69068025e-17
6.35037658e-17
6.19522482e-17
6.05445655e-17
5.92506232e-17
5.74301226e-17
5.32921503e-17
5.45651115e-17
5.09606356e-17
5.09015506e-17
5.24296939e-17
5.25067934e-17
5.22382719e-17
5.39899309e-17
5.56167415e-17
5.19302202e-17
5.42795942e-17
5.49275627e-17
5.12660717e-17
5.40854456e-17
5.56749678e-17
5.63892682e-17
5.86418812e-17
5.92263796e-17
5.96823131e-17
5.95633297e-17
5.71233036e-17
5.8287017e-17
5.43224541e-17
5.58109158e-17
5.7127479e-17
5.63430933e-17
5.81639865e-17
5.76920357e-17
5.68413122e-17
5.9433546e-17
5.66034155e-17
5.13620505e-17
5.10468398e-17
5.32208393e-17
5.38747396e-17
5.58077737e-17
5.36501467e-17
5.58351071e-17
5.35712747e-17
5.23393864e-17
4.9919153e-17
4.99435202e-17
5.01129595e-17
5.12006885e-17
5.2188262e-17
5.00455426e-17
5.01924365e-17
4.55085712e-17
4.93134173e-17
5.06169257e-17
4.75395208e-17
5.11419676e-17
5.17751334e-17
5.00967762e-17
5.09897241e-17
4.81324636e-17
5.06261714e-17
4.92046547e-17
4.58132597e-17
4.59588607e-17
4.41178633e-17
4.05039486e-17
4.11811848e-17
4.16735187e-17
4.21199914e-17
3.9621158e-17
4.1014723e-17
4.32888611e-17
4.16926345e-17
3.8743129e-17
3.61579623e-17
3.81074071e-17
3.41241802e-17
3.36752454e-17
3.57198445e-17
3.47654239e-17
3.29060955e-17
2.95300926e-17
3.2010883e-17
2.7833949e-17
2.43345492e-17
2.60244273e-17
2.70516457e-17
2.60358422e-17
2.45363521e-17
1.95185873e-17
1.97464951e-17
1.95646061e-17
1.94922122e-17
2.13495753e-17
2.11330837e-17
2.44865241e-17
2.47329348e-17
2.49693806e-17
2.53901146e-17
2.30869392e-17
2.1906924e-17
2.28928017e-17
2.21135423e-17
2.28002552e-17
2.49397604e-17
2.52390664e-17
2.52183323e-17
2.79669674e-17
2.85244577e-17
2.73478585e-17
2.83511575e-17
2.45347485e-17
2.43240584e-17
2.4865662e-17
2.52663142e-17
2.64929485e-17
2.22614173e-17
2.17113257e-17
2.06768204e-17
2.14305859e-17
2.23514979e-17
2.5485895e-17
2.48319972e-17
2.84377683e-17
3.09276178e-17
2.84178343e-17
2.73641383e-17
2.558506e-17
2.46914523e-17
2.62825693e-17
2.2742468e-17
2.35384947e-17
1.97702941e-17
1.79093962e-17
1.80131287e-17
2.08608748e-17
2.21104627e-17
1.97495536e-17
1.90871009e-17
2.2232759e-17
2.01831512e-17
1.6350831e-17
1.51618498e-17
1.25833126e-17
1.44848885e-17
1.52397408e-17
1.27819631e-17
1.45016539e-17
1.08610652e-17
1.08064063e-17
1.13189824e-17
1.06843467e-17
9.94405175e-18
6.72759026e-18
8.40391818e-18
8.68654095e-18
8.65040696e-18
6.98818234e-18
9.58020021e-18
9.02145259e-18
6.28221048e-18
6.68446433e-18
7.91875874e-18
5.81019188e-18
2.07954544e-18
3.65808656e-18
1.77424153e-18
1.33560753e-18
3.44440019e-18
1.2865608e-18
1.07533933e-18
-3.20289784e-18
-4.32831961e-18
-3.33132554e-18
-5.89252632e-18
-3.84717633e-18
-4.14015133e-18
-6.18186979e-18
-5.03481845e-18
-9.78928338e-18
-1.09436919e-17
-1.37308436e-17
-1.33379174e-17
-1.46952562e-17
-2.00449877e-17
-2.01852062e-17
-2.03080779e-17
-1.87762176e-17
-2.19048714e-17
-2.7496022e-17
-2.4701208e-17
-2.31122498e-17
-2.3375566e-17
-2.2015614e-17
-2.18603801e-17
-2.29061844e-17
-2.37062938e-17
-2.64183943e-17
-2.69475366e-17
-2.2904071e-17
-2.1628932e-17
-2.25217472e-17
-2.42088909e-17
-2.2991261e-17
-2.40884221e-17
-2.78993198e-17
-2.87780172e-17
-2.83021769e-17
-2.95867385e-17
-2.89130408e-17
-3.07919451e-17
-3.25640629e-17
-3.20738966e-17
-3.03419376e-17
-2.83671239e-17
-2.67483763e-17
-2.8599771e-17
-3.08571233e-17
-2.9227796e-17
-3.27637934e-17
-3.13121487e-17
-3.54819122e-17
-3.50724457e-17
-3.57607199e-17
-3.78314889e-17
-4.1092425e-17
-4.30503253e-17
-4.25870515e-17
-4.1286579e-17
-4.47771145e-17
-4.65376644e-17
-4.93896323e-17
-4.92557476e-17
-4.9919567e-17
-5.19512335e-17
-5.02998517e-17
-4.88373742e-17
-5.0725905e-17
-5.08461302e-17
-5.37134718e-17
-5.10962347e-17
-5.30685212e-17
-5.23443939e-17
-5.30325267e-17
-5.74341031e-17
-5.64032109e-17
-5.59484595e-17
-5.61673744e-17
-5.63292305e-17
-5.94944696e-17
-5.92654603e-17
-6.27773404e-17
-6.38105315e-17
-6.2156649e-17
-6.30804362e-17
-6.21622896e-17
-6.09402432e-17
-5.82605992e-17
-6.23916882e-17
-6.0386511e-17
-5.68758702e-17
-6.07279981e-17
-6.1931052e-17
-6.67961784e-17
-6.55218677e-17
-6.32414994e-17
-6.36002392e-17
-6.442691e-17
-6.18221826e-17
-6.36957053e-17
-6.35891803e-17
-6.70233854e-17
-6.34610105e-17
-6.09942055e-17
-6.3600856e-17
-6.12683961e-17
-6.41212035e-17
-6.24496179e-17
-6.20944315e-17
-6.28035452e-17
-6.19324486e-17
-6.34430598e-17
-6.27317121e-17
-6.57174045e-17
-6.51914148e-17
-6.48629546e-17
-6.56006858e-17
-6.67040466e-17
-6.83343722e-17
-6.70456388e-17
-6.69298915e-17
-6.7019034e-17
-7.0451167e-17
-6.70552022e-17
-6.6789284e-17
-6.80014024e-17
-6.80392925e-17
-6.49275414e-17
-6.42448257e-17
-6.50707828e-17
-6.66447158e-17
-6.7607515e-17
-6.88004496e-17
-6.71074058e-17
-6.7548913e-17
-6.40945418e-17
-6.18014919e-17
-6.58740765e-17
-7.07005521e-17
-7.19372173e-17
-7.34899487e-17
-6.79712228e-17
-6.74939331e-17
-6.76579002e-17
-6.62964564e-17
-6.56120457e-17
-6.6583804e-17
-6.80026757e-17
-6.50286768e-17
-6.48314701e-17
-6.78153482e-17
-6.53687871e-17
-6.70603882e-17
-6.72502857e-17
-6.94925076e-17
-7.28421619e-17
-7.53328463e-17
-7.17745551e-17
-7.26913896e-17
-7.7059258e-17
-7.57527389e-17
-7.79402443e-17
-7.77825456e-17
-7.77354504e-17
-7.87588145e-17
-7.8679241e-17
-7.78153673e-17
-7.74505649e-17
-7.71527757e-17
-7.71065546e-17
-7.74569289e-17
-7.61058246e-17
-7.56927554e-17
-7.71156749e-17
-7.59319388e-17
-7.29029784e-17
-7.38218446e-17
-7.36277668e-17
-7.61157479e-17
-7.39616007e-17
-7.366476e-17
-7.30812921e-17
-7.12875438e-17
-7.10083509e-17
-7.22168909e-17
-7.24995066e-17
-7.29495953e-17
-7.42933773e-17
-7.2178119e-17
-7.32560223e-17
-7.18590573e-17
-7.06566648e-17
-7.16520227e-17
-7.45882747e-17
-7.88178684e-17
-7.77280028e-17
-7.61014384e-17
-7.70628403e-17
-8.07146819e-17
-7.81910874e-17
-7.71740961e-17
-7.61381325e-17
-7.4781521e-17
-7.556867e-17
-7.45636694e-17
-7.48948375e-17
-7.48631617e-17
-7.26832455e-17
-7.43828839e-17
-7.13308143e-17
-7.47922185e-17
-7.76000241e-17
-7.45098835e-17
-7.43100479e-17
-7.55168322e-17
-7.60760129e-17
-7.69014178e-17
-7.22550261e-17
-7.07530316e-17
-6.94411606e-17
-7.0640713e-17
-6.7147215e-17
-6.61052701e-17
-6.97691275e-17
-6.92792597e-17
-7.32452626e-17
-7.10524998e-17
-7.35071156e-17
-7.19392414e-17
-6.80016811e-17
-6.78815026e-17
-6.80900053e-17
-6.69598134e-17
-6.31110551e-17
-6.28260073e-17
-6.12966105e-17
-6.24614545e-17
-6.29415315e-17
-6.50381018e-17
-6.42584744e-17
-6.47259309e-17
-6.18034782e-17
-6.30471986e-17
-6.14441902e-17
-6.09010607e-17
-6.15846462e-17
-6.23938839e-17
-6.30920511e-17
-6.04225296e-17
-6.0056346e-17
-5.90207523e-17
-6.02481309e-17
-5.9864465e-17
-6.0909906e-17
-6.06058893e-17
-5.85575174e-17
-5.97493647e-17
-6.27231036e-17
-6.31747999e-17
-6.38630316e-17
-6.31968573e-17
-6.14051377e-17
-6.16765257e-17
-6.51848326e-17
-6.17365117e-17
-6.06316327e-17
-5.80530012e-17
-5.97565914e-17
-6.02228411e-17
-5.87206689e-17
-6.234291e-17
-6.19576685e-17
-6.38062805e-17
-6.38032175e-17
-6.79334044e-17
-7.06961051e-17
-6.96732041e-17
-7.07646318e-17
-6.99793302e-17
-7.08871977e-17
-6.96600785e-17
-6.6723855e-17
-6.84932417e-17
-6.89051999e-17
-6.86381598e-17
-6.69551298e-17
-6.65425058e-17
-6.62141882e-17
-6.80144092e-17
-6.78320848e-17
-6.74411665e-17
-7.02688108e-17
-6.97050117e-17
-6.87610201e-17
-6.93748149e-17
-7.17243918e-17
-7.43249177e-17
-7.67385747e-17
-7.67917696e-17
-7.96510876e-17
-8.00070454e-17
-8.03166496e-17
-7.63505276e-17
-7.60796661e-17
-7.83841608e-17
-7.58417343e-17
-7.84879608e-17
-7.68849395e-17
-7.55043659e-17
-7.49130062e-17
-7.64927929e-17
-7.41250394e-17
-7.55024115e-17
-7.96935953e-17
-7.76244714e-17
-7.55772121e-17
-7.42428401e-17
-7.49251213e-17
-7.14131356e-17
-7.29633179e-17
-7.0653959e-17
-7.23153079e-17
-6.89737437e-17
-6.92895131e-17
-6.96186522e-17
-7.10615633e-17
-6.75748405e-17
-6.72348151e-17
-6.72753292e-17
-6.68727921e-17
-6.47717654e-17
-6.54811825e-17
-6.97319829e-17
-6.97545847e-17
-6.93923365e-17
-6.97065338e-17
-7.1026578e-17
-6.91676168e-17
-7.09403235e-17
-7.02659935e-17
-7.25739819e-17
-7.015949e-17
-6.97276954e-17
-6.52927278e-17
-6.31864071e-17
-6.03323355e-17
-5.70052457e-17
-5.80519755e-17
-5.70172978e-17
-5.75886067e-17
-5.80364463e-17
-5.8685937e-17
-6.08526557e-17
-5.8026798e-17
-5.83663681e-17
-5.59041151e-17
-5.16996883e-17
-5.23860347e-17
-5.40741441e-17
-5.3491989e-17
-5.18322144e-17
-4.96419137e-17
-5.2315512e-17
-4.74882576e-17
-4.54874379e-17
-4.83085454e-17
-4.77995173e-17
-5.18073844e-17
-4.89432988e-17
-4.8344941e-17
-4.7281219e-17
-4.77627574e-17
-4.4518417e-17
-4.62487037e-17
-4.43363963e-17
-4.34186534e-17
-4.2793189e-17
-4.31779202e-17
-4.48161251e-17
-4.3939179e-17
-4.28335137e-17
-4.24020534e-17
-4.39275313e-17
-4.08093526e-17
-4.40162915e-17
-4.02346483e-17
-4.08260642e-17
-4.02660877e-17
-3.83551779e-17
-3.91276357e-17
-3.74860165e-17
-3.36353875e-17
-3.68922583e-17
-3.33716206e-17
-3.75671895e-17
-3.68685311e-17
-3.70545129e-17
-3.51613892e-17
-3.15156704e-17
-3.47926434e-17
-3.1400669e-17
-3.00965196e-17
-3.22308435e-17
-3.27606693e-17
-3.06827618e-17
-3.27042265e-17
-3.22911678e-17
-2.90861467e-17
-2.72193077e-17
-2.86982341e-17
-2.73107819e-17
-2.23722647e-17
-2.06178792e-17
-2.29382785e-17
-2.19079502e-17
-2.21898579e-17
-2.18239431e-17
-2.06051838e-17
-1.89803804e-17
-2.0263923e-17
-1.84489033e-17
-1.75832899e-17
-1.84985035e-17
-1.82055789e-17
-1.70563828e-17
-1.81599339e-17
-1.6645005e-17
-1.57809733e-17
-1.80037987e-17
-1.7686889e-17
-1.94139742e-17
-2.0833099e-17
-2.0465912e-17
-1.92882357e-17
-1.84464182e-17
-1.95565942e-17
-1.8722454e-17
-1.95456543e-17
-2.00952094e-17
-2.15059061e-17
-1.96959197e-17
-2.12640556e-17
-1.81653347e-17
-1.80300078e-17
-1.79156189e-17
-1.80017892e-17
-1.58318407e-17
-1.48289014e-17
-1.35459594e-17
-1.41056041e-17
-1.45575174e-17
-1.42855726e-17
-1.35180835e-17
-1.18065429e-17
-1.28770503e-17
-1.61671584e-17
-1.59955556e-17
-1.6189217e-17
-1.23183748e-17
-1.20248213e-17
-1.54284004e-17
-1.4037073e-17
-1.51624564e-17
-1.42272278e-17
-1.32344782e-17
-1.29857824e-17
-9.93538062e-18
-1.02102519e-17
-1.07574653e-17
-8.84083254e-18
-9.46087213e-18
-9.62994709e-18
-1.21954223e-17
-7.36912684e-18
-5.10393838e-18
-5.99487274e-18
-6.23627776e-18
-2.51554414e-18
-4.18776078e-18
-3.07350806e-18
-3.55028077e-18
-1.47989483e-18
-2.42522021e-18
-3.28445643e-18
-4.00396262e-20
-4.42467565e-19
2.33824916e-18
3.02763052e-19
2.12047108e-19
1.33143068e-18
4.01236826e-18
7.88971717e-18
7.25494482e-18
7.66124161e-18
9.25516305e-18
7.62199081e-18
5.73109554e-18
3.69855203e-18
3.89547565e-18
4.59574026e-18
7.34493745e-18
9.67844687e-18
1.09643073e-17
1.06591664e-17
1.06924931e-17
1.04608099e-17
1.07437273e-17
8.11669388e-18
1.12687467e-17
1.38043542e-17
1.30576664e-17
1.35019735e-17
1.35865312e-17
1.42833491e-17
1.14449478e-17
1.23920622e-17
1.24717723e-17
1.22040502e-17
1.50868197e-17
1.71794106e-17
1.89305269e-17
2.12216351e-17
2.51583202e-17
2.63761155e-17
2.65589355e-17
2.86666208e-17
3.00908323e-17
2.97472825e-17
3.26831956e-17
3.29522877e-17
3.50838437e-17
3.53103367e-17
3.61875702e-17
3.33912721e-17
3.21468177e-17
3.68824461e-17
3.56000603e-17
3.94043395e-17
3.77699646e-17
4.23401141e-17
4.235564e-17
4.01407361e-17
4.43837967e-17
4.46342075e-17
4.51418188e-17
4.60649724e-17
4.56243069e-17
4.56589232e-17
4.69278357e-17
4.61595059e-17
4.73917909e-17
4.75759548e-17
4.83756975e-17
5.10705404e-17
5.08849843e-17
5.57712126e-17
5.86274478e-17
5.97085002e-17
6.4406293e-17
6.56212188e-17
6.65175901e-17
7.05105214e-17
7.40530444e-17
7.77760097e-17
8.30451953e-17
8.63788834e-17
9.20749037e-17
9.51424386e-17
1.00355292e-16
1.05761647e-16
1.14407559e-16
1.18753324e-16
1.27651883e-16
1.39421727e-16
1.449653e-16
1.53855544e-16
1.61063416e-16
1.68403481e-16
1.7938198e-16
1.88758005e-16
1.98421284e-16
2.09149531e-16
2.2516644e-16
2.38402616e-16
2.56336225e-16
2.75003948e-16
2.90976508e-16
3.07076745e-16
3.27177498e-16
3.47952562e-16
3.72418805e-16
3.94958543e-16
4.21400866e-16
4.47864881e-16
4.80362661e-16
5.15269736e-16
5.48232247e-16
5.8834875e-16
6.32495072e-16
6.78420864e-16
7.3042747e-16
7.82380426e-16
8.35437993e-16
8.9579225e-16
9.61971669e-16
1.0329026e-15
1.11275714e-15
1.19625687e-15
1.28114072e-15
1.3825344e-15
1.48492055e-15
1.5995165e-15
1.71780367e-15
1.84593858e-15
1.98691477e-15
2.1380866e-15
2.30206912e-15
2.47781334e-15
2.66459882e-15
2.87086351e-15
3.09100038e-15
3.32442473e-15
3.58225222e-15
3.85224516e-15
4.14602449e-15
4.46297837e-15
4.80360739e-15
5.17189236e-15
5.56586457e-15
5.98549581e-15
6.4443201e-15
6.93001085e-15
7.45780948e-15
8.02470577e-15
8.63736062e-15
9.28992923e-15
9.99474219e-15
1.0748308e-14
1.15606511e-14
1.24348386e-14
1.33736716e-14
1.43809739e-14
1.5463834e-14
1.66260277e-14
1.78741307e-14
1.92178321e-14
2.06550543e-14
2.22051623e-14
2.38671985e-14
2.56476075e-14
2.75621128e-14
2.96172943e-14
3.1824082e-14
3.41924491e-14
3.67332075e-14
3.9454754e-14
4.23773794e-14
4.55128511e-14
4.88734519e-14
5.24768723e-14
5.63453854e-14
6.04858841e-14
6.49319368e-14
6.96924808e-14
7.47976618e-14
8.02652661e-14
8.6121362e-14
9.24037416e-14
9.91298021e-14
1.0633412e-13
1.14056398e-13
1.22320618e-13
1.31170277e-13
1.40646071e-13
1.50790124e-13
1.61647441e-13
1.73268184e-13
1.85709075e-13
1.99014931e-13
2.13256121e-13
2.28489133e-13
2.44784539e-13
2.62213772e-13
2.80850863e-13
3.00783736e-13
3.22091788e-13
3.44875356e-13
3.69224698e-13
3.95253012e-13
4.2306408e-13
4.52783875e-13
4.84540422e-13
5.1846057e-13
5.54694796e-13
5.93397092e-13
6.34722116e-13
6.78856018e-13
7.2596938e-13
7.76265995e-13
8.29948031e-13
8.87243983e-13
9.48381619e-13
1.01361628e-12
1.08321458e-12
1.15745274e-12
1.23663442e-12
1.3210741e-12
1.41111767e-12
1.50712121e-12
1.60946597e-12
1.71855884e-12
1.83482555e-12
1.9587244e-12
2.09073768e-12
2.23138319e-12
2.38119886e-12
2.54077368e-12
2.71071228e-12
2.8916645e-12
3.08432659e-12
3.28941595e-12
3.50772277e-12
3.74006097e-12
3.98729333e-12
4.25035018e-12
4.53020062e-12
4.82787804e-12
5.14447904e-12
5.48116187e-12
5.839152e-12
6.21974496e-12
6.62431466e-12
7.05431751e-12
7.51128719e-12
7.9968465e-12
8.51271767e-12
9.06071635e-12
9.64276906e-12
1.02608975e-11
1.09172582e-11
1.16141126e-11
1.23538621e-11
1.31390337e-11
1.39723057e-11
1.48564929e-11
1.57945867e-11
1.6789728e-11
1.78452391e-11
1.89646264e-11
2.0151585e-11
2.14100169e-11
2.27440322e-11
2.41579752e-11
2.56564193e-11
2.72441844e-11
2.89263522e-11
3.07082843e-11
3.25956183e-11
3.45942963e-11
3.67105914e-11
3.89510855e-11