/*--------------------------------*- C++ -*----------------------------------*\
| =========                 |                                                 |
| \\      /  F ield         | OpenFOAM: The Open Source CFD Toolbox           |
|  \\    /   O peration     | Version:  2206                                  |
|   \\  /    A nd           | Website:  www.openfoam.com                      |
|    \\/     M anipulation  |                                                 |
\*---------------------------------------------------------------------------*/
FoamFile
{
    version     2.0;
    format      ascii;
    arch        "LSB;label=32;scalar=64";
    class       volScalarField;
    location    "1.5e-05";
    object      PVsourcePV;
}
// * * * * * * * * * * * * * * * * * * * * * * * * * * * * * * * * * * * * * //

dimensions      [1 -3 -1 0 0 0 0];

internalField   nonuniform List<scalar> 
3183
(
0
0
0
0
0
0
0
0
0
0
0
0
0
0
0
0
0
0
0
0
0
0
0
0
0
0
0
0
0
0
0
0
0
0
0
0
0
0
0
0
0
0
0
0
0
0
0
0
0
0
0
0
0
0
0
0
0
0
0
0
0
0
0
0
0
0
0
0
0
0
0
0
0
0
0
0
0
0
0
0
0
0
0
0
0
0
0
0
0
0
0
0
0
0
0
0
0
0
0
0
0
0
0
0
0
0
0
0
0
0
0
0
0
0
0
0
0
0
0
0
0
0
0
0
0
0
0
0
0
0
0
0
0
0
0
0
0
0
0
0
0
0
0
0
0
0
0
0
0
0
0
0
0
0
0
0
0
0
0
0
0
0
0
0
0
0
0
0
0
0
0
0
0
0
0
0
0
0
0
0
0
0
0
0
0
0
0
0
0
0
0
0
0
0
0
0
0
0
0
0
0
0
0
0
0
0
0
0
0
0
0
0
0
0
0
0
0
0
0
0
0
0
0
0
0
0
0
0
0
0
0
0
0
0
0
0
0
0
0
0
0
0
0
0
0
0
0
0
0
0
0
0
0
0
0
0
0
0
0
0
0
0
0
0
0
0
0
0
0
0
0
0
0
0
0
0
0
0
0
0
0
0
0
0
0
0
0
0
0
0
0
0
0
0
0
0
0
0
0
0
0
0
0
0
0
0
0
0
0
0
0
0
0
0
0
0
0
0
0
0
0
0
0
0
0
0
0
0
0
0
0
0
0
0
0
0
0
0
0
0
0
0
0
0
0
0
0
0
0
0
0
0
0
0
0
0
0
0
0
0
0
0
0
0
0
0
0
0
0
0
0
0
0
0
0
0
0
0
0
0
0
0
0
0
0
0
0
0
0
0
0
0
0
0
0
0
0
0
0
0
0
0
0
0
0
0
0
0
0
0
0
0
0
0
0
0
0
0
0
0
0
0
0
0
0
0
0
0
0
0
0
0
0
0
0
0
0
0
0
0
0
0
0
0
0
0
0
0
0
0
0
0
0
0
0
0
0
0
0
0
0
0
0
0
0
0
0
0
0
0
0
0
0
0
0
0
0
0
0
0
0
0
0
0
0
0
0
0
0
0
0
0
0
0
0
0
0
0
0
0
0
0
0
0
0
0
0
0
0
0
0
0
0
0
0
0
0
0
0
0
0
0
0
0
0
0
0
0
0
0
0
0
0
0
0
0
0
0
0
0
0
0
0
0
0
0
0
0
0
0
0
0
0
0
0
0
0
0
0
0
0
0
0
0
0
0
0
0
0
0
0
0
0
0
0
0
0
0
0
0
0
0
0
0
0
0
0
0
0
0
0
0
0
0
0
0
0
0
0
0
0
0
0
0
0
0
0
0
0
0
0
0
0
0
0
0
0
0
0
0
0
0
0
0
0
0
0
0
0
0
0
0
0
0
0
0
0
0
0
0
0
0
0
0
0
0
0
0
0
0
0
0
0
0
0
0
0
0
0
0
0
0
0
0
0
0
0
0
0
0
0
0
0
0
0
0
0
0
0
0
0
0
0
0
0
0
0
0
0
0
0
0
0
0
0
0
0
0
0
0
0
0
0
0
0
0
0
0
0
0
0
0
0
0
0
0
0
0
0
0
0
0
0
0
0
0
0
0
0
0
0
0
0
0
0
0
0
0
0
0
0
0
0
0
0
0
0
0
0
0
0
0
0
0
0
0
0
0
0
0
0
0
0
0
0
0
0
0
0
0
0
0
0
0
0
0
0
0
0
0
0
0
0
0
0
0
0
0
0
0
0
0
0
0
0
0
0
0
0
0
0
0
0
0
0
0
0
0
0
0
0
0
0
0
0
0
0
0
0
0
0
0
0
0
0
0
0
0
0
0
0
0
0
0
0
0
0
0
0
0
0
0
0
0
0
0
0
0
0
0
0
0
0
0
0
0
0
0
0
0
0
0
0
0
0
0
0
0
0
0
0
0
0
0
0
0
0
0
0
0
0
0
0
0
0
0
0
0
0
0
0
0
0
0
0
0
0
0
0
0
0
0
0
0
0
0
0
0
0
0
0
0
0
0
0
0
0
0
0
0
0
0
0
0
0
0
0
0
0
0
0
0
0
0
0
0
0
0
0
0
0
0
0
0
0
0
0
0
0
0
0
0
0
0
0
0
0
0
0
0
0
0
0
0
0
0
0
0
0
0
0
0
0
0
0
0
0
0
0
0
0
0
0
0
0
0
0
0
0
0
0
0
0
0
0
0
0
0
0
0
0
0
0
0
0
0
0
0
0
0
0
0
0
0
0
0
0
0
0
0
0
0
0
0
0
0
0
0
0
0
0
0
0
0
0
0
0
0
0
0
0
0
0
0
0
0
0
0
0
0
0
0
0
0
0
0
0
0
0
0
0
0
0
0
0
0
0
0
0
0
0
0
0
0
0
0
0
0
0
0
0
0
0
0
0
0
0
0
0
0
0
0
0
0
0
0
0
0
0
0
0
0
0
0
0
0
0
0
0
0
0
0
0
0
0
0
0
0
0
0
0
0
0
0
0
0
0
0
0
0
0
0
0
0
0
0
0
0
0
0
0
0
0
0
0
0
0
0
0
0
0
0
0
0
0
0
0
0
0
0
0
0
0
0
0
0
0
0
0
0
0
0
0
0
0
0
0
0
0
0
0
0
0
0
0
0
0
0
0
0
0
0
0
0
0
0
0
0
0
0
0
0
0
0
0
0
0
0
0
0
0
0
0
0
0
0
0
0
0
0
0
0
0
0
0
0
0
0
0
0
0
0
0
0
0
0
0
0
0
0
0
0
0
0
0
0
0
0
0
0
0
0
0
0
0
0
0
0
0
0
0
0
0
0
0
0
0
0
0
0
0
0
0
0
0
0
0
0
0
0
0
0
0
0
0
0
0
0
0
0
0
0
0
0
0
0
0
0
0
0
0
0
0
0
0
0
0
0
0
0
0
0
0
0
0
0
0
0
0
0
0
0
0
0
0
0
0
0
0
0
0
0
0
0
0
0
0
0
0
0
0
0
0
0
0
0
0
0
0
0
0
0
0
0
0
0
0
0
0
0
0
0
0
0
0
0
0
0
0
0
0
0
0
0
0
0
0
0
0
0
0
0
0
0
0
0
0
0
0
0
0
0
0
0
0
0
0
0
0
0
0
0
0
0
0
0
0
0
0
0
0
0
0
0
0
0
0
0
0
0
0
0
0
0
0
0
0
0
0
0
0
0
0
0
0
0
0
0
0
0
0
0
0
0
0
0
0
0
0
0
0
0
0
0
0
0
0
0
0
0
0
0
0
0
0
0
0
0
0
0
0
0
0
0
0
0
0
0
0
0
0
0
0
0
0
0
0
0
0
0
0
0
0
0
0
0
0
0
0
0
0
0
0
0
0
0
0
0
0
0
0
0
0
0
0
0
0
0
0
0
0
0
0
0
0
0
0
0
0
0
0
0
0
0
0
0
0
0
0
0
0
0
0
0
0
0
0
0
0
0
0
0
0
0
0
0
0
0
0
0
0
0
0
0
0
0
0
0
0
0
0
0
0
0
0
0
0
0
0
0
0
0
0
0
0
0
0
0
0
0
0
0
0
0
0
0
0
0
0
0
0
0
0
0
0
0
0
0
0
0
0
0
0
0
0
0
0
0
0
0
0
0
0
0
0
0
0
0
0
0
0
0
0
0
0
0
0
0
0
0
0
0
0
0
0
0
0
0
0
0
0
0
0
0
0
0
0
0
0
0
0
0
0
0
0
0
0
0
0
0
0
0
0
0
0
0
0
0
0
0
0
0
0
0
0
0
0
0
0
0
0
0
0
0
0
0
0
0
0
0
0
0
0
0
0
0
0
0
0
0
0
0
0
0
0
0
0
0
0
0
0
0
0
0
0
0
0
0
0
0
0
0
0
0
0
0
0
0
0
0
0
0
0
0
0
0
0
0
0
0
0
0
0
0
0
0
0
0
0
0
0
0
0
0
0
0
0
0
0
0
0
0
0
0
0
0
0
0
0
0
0
0
0
0
0
0
0
0
0
0
0
0
0
0
0
0
0
0
0
0
0
0
0
0
0
0
0
0
0
0
0
0
0
0
0
0
0
0
0
0
0
0
0
0
0
0
0
0
0
0
0
0
0
0
0
0
0
0
0
0
0
0
0
0
0
0
0
0
0
0
0
0
0
0
0
0
0
0
0
0
0
0
0
0
0
0
0
0
0
0
0
0
0
0
0
0
0
0
0
0
0
0
0
0
0
0
0
0
0
0
0
0
0
0
0
0
0
0
0
0
0
0
0
0
0
0
0
0
0
0
0
0
0
0
0
0
0
0
0
0
0
0
0
0
0
0
0
0
0
0
0
0
0
0
0
0
0
0
0
0
0
0
0
0
0
0
0
0
0
0
0
0
0
0
0
0
0
0
0
0
0
0
0
0
0
0
0
0
0
0
0
0
0
0
0
0
0
0
0
0
0
0
0
0
0
0
0
0
0
0
0
0
0
0
0
0
0
0
0
0
0
0
0
0
0
0
0
0
0
0
0
0
0
0
0
0
0
0
0
0
0
0
0
0
0
0
0
0
0
0
0
0
0
0
0
0
0
0
0
0
0
0
0
0
0
0
0
0
0
0
0
0
0
0
0
0
0
0
0
0
0
0
0
0
0
0
0
0
0
0
0
0
0
0
0
0
0
0
0
0
0
0
0
0
0
0
0
0
0
0
0
0
0
0
0
0
0
0
0
0
0
0
0
0
0
0
0
0
0
0
0
0
0
0
0
0
0
0
0
0
0
0
0
0
0
0
0
0
0
0
0
0
0
0
0
0
0
0
0
0
0
0
0
0
0
0
0
0
0
0
0
0
0
0
0
0
0
0
0
0
0
0
0
0
0
0
0
0
0
0
0
0
0
0
0
0
0
0
0
0
0
0
0
0
0
0
0
0
0
0
0
0
0
0
0
0
0
0
0
0
0
0
0
0
0
0
0
0
0
0
0
0
0
0
0
0
0
0
0
0
0
0
0
0
0
0
0
0
0
0
0
0
0
0
0
0
0
0
0
0
0
0
0
0
0
0
0
0
0
0
0
0
0
0
0
0
0
0
0
0
0
0
0
0
0
0
0
0
0
0
0
0
0
0
0
0
0
0
0
0
0
0
0
0
0
0
0
0
0
0
0
0
0
0
0
0
0
0
0
0
0
0
0
0
0
0
0
0
0
0
0
0
0
0
0
0
0
0
0
0
0
0
0
0
0
0
0
0
0
0
0
0
0
0
0
0
0
0
0
0
0
0
0
0
0
0
0
0
0
0
0
0
0
0
0
0
0
0
0
0
0
0
0
0
0
8.5261414e-299
3.39347759e-299
5.1101424e-296
2.06566776e-296
3.03048077e-293
1.2437531e-293
1.77825238e-290
7.40743264e-291
1.03248318e-287
4.36404264e-288
5.93176309e-285
2.54338277e-285
3.37208453e-282
1.46621771e-282
1.89683124e-279
8.3625393e-280
1.05578477e-276
4.71859635e-277
5.81485037e-274
2.63299103e-274
3.16896373e-271
1.45434886e-271
1.70887312e-268
7.94651962e-269
9.11829354e-266
4.29721935e-266
4.81420987e-263
2.29749092e-263
2.51501041e-260
1.2152104e-260
1.30002771e-257
6.35885423e-258
6.64901533e-255
3.29179792e-255
3.36470432e-252
1.68581696e-252
1.6846643e-249
8.54093776e-250
8.34541371e-247
4.28067635e-247
4.09016294e-244
2.12238234e-244
1.98326555e-241
1.0409523e-241
9.51386499e-239
5.05038492e-239
4.51498524e-236
2.42378407e-236
2.11965571e-233
1.15060804e-233
9.84394948e-231
5.40271439e-231
4.52223264e-228
2.50919097e-228
2.05494069e-225
1.15259663e-225
9.23614834e-223
5.23632462e-223
4.10590609e-220
2.35268544e-220
1.80523536e-217
1.04537128e-217
7.8495444e-215
4.59332071e-215
3.37535012e-212
1.995774e-212
1.43527051e-209
8.57436534e-210
6.0348274e-207
3.64229411e-207
2.50891813e-204
1.52969738e-204
1.03126861e-201
6.35136808e-202
4.19075835e-199
2.60694996e-199
1.6835246e-196
1.05772505e-196
6.68530901e-194
4.24186822e-194
2.62401566e-191
1.68133399e-191
1.01793622e-188
6.58612402e-189
3.90255213e-186
2.54947067e-186
1.47847543e-183
9.75164459e-184
5.53450028e-181
3.68532103e-181
2.04692353e-178
1.37594984e-178
7.47897375e-176
5.07479079e-176
2.69933074e-173
1.84875172e-173
9.62273594e-171
6.65179289e-171
3.38783441e-168
2.36347685e-168
1.17781669e-165
8.29215305e-166
4.0430943e-163
2.87233643e-163
1.37017883e-160
9.82204435e-161
4.58365778e-158
3.31521225e-158
1.51342422e-155
1.10434702e-155
4.9313101e-153
3.63014545e-153
1.58545575e-150
1.17734462e-150
5.02887102e-148
3.76685144e-148
1.57341409e-145
1.18872139e-145
4.85512526e-143
3.69944695e-143
1.47729882e-140
1.13520429e-140
4.43168835e-138
3.43410732e-138
1.31045497e-135
1.02394125e-135
3.81893756e-133
3.00865716e-133
1.09658522e-130
8.71000157e-131
3.10191204e-128
2.48381391e-128
8.64186657e-126
6.97554916e-126
2.3706966e-123
1.92883511e-123
6.40220327e-121
5.25004834e-121
1.7016013e-118
1.40628133e-118
4.44985264e-116
3.70600324e-116
1.14464812e-113
9.60599726e-114
2.89541036e-111
2.44824399e-111
7.19990803e-109
6.13350492e-109
1.75947361e-106
1.50995506e-106
4.22406624e-104
3.6515139e-104
9.95901524e-102
8.67122061e-102
2.30503332e-99
2.02126092e-99
5.23530322e-97
4.62303457e-97
1.1663519e-94
1.03708143e-94
2.54770838e-92
2.28080276e-92
5.45381651e-90
4.9152888e-90
1.14358547e-87
1.0374861e-87
2.34762072e-85
2.14368127e-85
4.71561747e-83
4.33352934e-83
9.26287285e-81
8.56585613e-81
1.77819023e-78
1.65453087e-78
3.333859e-76
3.12078431e-76
6.10020441e-74
5.7441741e-74
1.08852907e-71
1.03094419e-71
1.8926967e-69
1.80273373e-69
3.20396941e-67
3.06856951e-67
5.27538779e-65
5.07970397e-65
8.43994612e-63
8.16952225e-63
1.31059757e-60
1.27506421e-60
1.97300866e-58
1.92896527e-58
2.87580651e-56
2.82491378e-56
4.05277373e-54
3.99896849e-54
5.51367714e-52
5.46315314e-52
7.22930267e-50
7.18876425e-50
9.11830299e-48
9.0873087e-48
1.10409802e-45
1.09903228e-45
1.28055125e-43
1.26733943e-43
1.41901176e-41
1.37390555e-41
1.49821019e-39
1.49656092e-39
1.50136879e-37
1.49496374e-37
1.42393459e-35
1.412687e-35
1.27236955e-33
1.26003399e-33
1.06594175e-31
1.05678181e-31
8.32479917e-30
8.25571357e-30
6.0205024e-28
5.93576963e-28
3.9998102e-26
3.99551481e-26
2.41638286e-24
2.40913183e-24
1.31200494e-22
1.3062201e-22
6.30221181e-21
6.26873656e-21
2.62409107e-19
2.60631227e-19
9.21092117e-18
9.21150536e-18
2.61756256e-16
2.60398516e-16
5.65841588e-15
5.67950038e-15
8.74426829e-11
8.82113916e-11
0.00473253183
0.0209540419
0.547909143
0.653792862
0.649319224
0.579199083
0.189749716
0.155832805
0.0298684096
0.0262915973
0.00651181219
0.00594087351
0.00125222522
0.00118956544
0.000216824959
0.000213671805
3.52453912e-05
3.52591454e-05
5.82864642e-06
5.82542037e-06
1.37644145e-06
1.37837791e-06
7.57799499e-07
7.58250087e-07
6.77930908e-07
6.7794498e-07
6.68209516e-07
6.68212196e-07
6.67104262e-07
6.67104609e-07
6.66983849e-07
6.66985054e-07
6.66971484e-07
6.66973781e-07
6.66969503e-07
6.66972712e-07
6.66970312e-07
6.66970585e-07
6.66970559e-07
6.66969419e-07
6.66971621e-07
6.66969922e-07
6.66971932e-07
6.66970066e-07
6.66971584e-07
6.66970883e-07
6.6697117e-07
6.66971444e-07
6.66971648e-07
6.66970975e-07
6.66971681e-07
6.66971089e-07
6.66971631e-07
6.66971043e-07
6.66971751e-07
6.66970872e-07
6.66971032e-07
6.66972742e-07
6.6696998e-07
6.66971557e-07
6.66971135e-07
6.66971876e-07
6.66971086e-07
6.66970241e-07
6.66971083e-07
6.66971007e-07
6.66970911e-07
6.66971413e-07
6.66970897e-07
6.66971551e-07
6.66970083e-07
6.66970792e-07
6.66969964e-07
6.66971738e-07
6.66970087e-07
6.66971624e-07
6.6697123e-07
6.6697173e-07
6.66970396e-07
6.66972126e-07
6.66970693e-07
6.66971037e-07
6.66971173e-07
6.66971616e-07
6.66971181e-07
6.66969949e-07
6.66972264e-07
6.66970127e-07
6.66971516e-07
6.66969407e-07
6.66972526e-07
6.66970448e-07
6.6697201e-07
6.66970634e-07
6.6697213e-07
6.66970431e-07
6.66971713e-07
6.6697158e-07
6.66971625e-07
6.66971911e-07
6.66970718e-07
6.66971353e-07
6.66971593e-07
6.66971248e-07
6.66971331e-07
6.66971518e-07
6.66971741e-07
6.66970978e-07
6.66971458e-07
6.66971361e-07
6.66970446e-07
6.66971453e-07
6.6697111e-07
6.66970697e-07
6.66971148e-07
6.66970938e-07
6.66970309e-07
6.66972057e-07
6.66970355e-07
6.66972406e-07
6.66970572e-07
6.6697218e-07
6.66969699e-07
6.66971445e-07
6.66971414e-07
6.66971068e-07
6.66970547e-07
6.66972407e-07
6.66971043e-07
6.66972124e-07
6.66971917e-07
6.66971175e-07
6.66972153e-07
6.66971967e-07
6.66971214e-07
6.66972142e-07
6.66971376e-07
6.66971686e-07
6.66971353e-07
6.66971111e-07
6.66971138e-07
6.66971479e-07
6.6696985e-07
6.66972104e-07
6.66970241e-07
6.66971106e-07
6.66970706e-07
6.66971106e-07
6.66972302e-07
6.66970512e-07
6.66972004e-07
6.66970554e-07
6.66972198e-07
6.66970433e-07
6.66972354e-07
6.66971431e-07
6.66971938e-07
6.66971014e-07
6.66971545e-07
6.66971125e-07
6.66973151e-07
6.66969923e-07
6.66973662e-07
6.66969755e-07
6.66973281e-07
6.6697063e-07
6.66972208e-07
6.66971735e-07
6.66971093e-07
6.66971057e-07
6.66970526e-07
6.66971336e-07
6.66970385e-07
6.6697194e-07
6.66970966e-07
6.66971675e-07
6.66971878e-07
6.66972309e-07
6.66971896e-07
6.66971973e-07
6.66972162e-07
6.66972868e-07
6.66971277e-07
6.66972988e-07
6.66970835e-07
6.66970986e-07
6.66971944e-07
6.66971401e-07
6.66971804e-07
6.66971551e-07
6.66972351e-07
6.66970609e-07
6.66972082e-07
6.66971741e-07
6.66972354e-07
6.6697116e-07
6.66971356e-07
6.66971142e-07
6.66971993e-07
6.66970811e-07
6.66973264e-07
6.66969991e-07
6.66973199e-07
6.66970869e-07
6.66971932e-07
6.66971745e-07
6.66971436e-07
6.669715e-07
6.6697294e-07
6.66972152e-07
6.66972345e-07
6.66972168e-07
6.66971423e-07
6.66972049e-07
6.66972147e-07
6.66972107e-07
6.66971422e-07
6.66971511e-07
6.66971699e-07
6.66972256e-07
6.66971401e-07
6.6697161e-07
6.66972157e-07
6.66972063e-07
6.66971833e-07
6.66971526e-07
6.66973148e-07
6.66970828e-07
6.66972496e-07
6.66972119e-07
6.6697198e-07
6.66971914e-07
6.66971675e-07
6.66971987e-07
6.66971475e-07
6.66973071e-07
6.66971365e-07
6.6697285e-07
6.66971636e-07
6.66972742e-07
6.66972142e-07
6.66973394e-07
6.66970433e-07
6.66974126e-07
6.66970241e-07
6.66973279e-07
6.66970987e-07
6.66971445e-07
6.66972338e-07
6.66970437e-07
6.66972678e-07
6.66971293e-07
6.66972363e-07
6.66971341e-07
6.6697246e-07
6.66971868e-07
6.66971878e-07
6.66972355e-07
6.6697238e-07
6.66972409e-07
6.66972399e-07
6.66971964e-07
6.66972782e-07
6.6697169e-07
6.66972321e-07
6.66970907e-07
6.66972185e-07
6.66971488e-07
6.66972153e-07
6.66970776e-07
6.66973181e-07
6.66970726e-07
6.66972378e-07
6.66972121e-07
6.66972022e-07
6.66972633e-07
6.66972015e-07
6.66972151e-07
6.66971959e-07
6.66971823e-07
6.66971948e-07
6.66971902e-07
6.66971644e-07
6.66972185e-07
6.66971536e-07
6.66971943e-07
6.66971731e-07
6.66972459e-07
6.66972016e-07
6.66972095e-07
6.66972304e-07
6.6697182e-07
6.66972925e-07
6.66970722e-07
6.66971258e-07
6.66972731e-07
6.66971268e-07
6.66972823e-07
6.6697264e-07
6.66972526e-07
6.66972159e-07
6.66972174e-07
6.66972892e-07
6.66972183e-07
6.66971917e-07
6.66972595e-07
6.66971725e-07
6.66972011e-07
6.66971137e-07
6.66972654e-07
6.66971582e-07
6.66973149e-07
6.66970969e-07
6.66973502e-07
6.66971881e-07
6.66972392e-07
6.66972372e-07
6.6697248e-07
6.66971969e-07
6.66970845e-07
6.66973486e-07
6.66970923e-07
6.66973456e-07
6.66970999e-07
6.6697308e-07
6.66971602e-07
6.66971713e-07
6.66972604e-07
6.66971899e-07
6.66972432e-07
6.669724e-07
6.66972382e-07
6.66971923e-07
6.66972592e-07
6.66971551e-07
6.66972412e-07
6.66972258e-07
6.66972942e-07
6.66971382e-07
6.66972651e-07
6.66972293e-07
6.66972883e-07
6.66972436e-07
6.66973133e-07
6.66972364e-07
6.66972369e-07
6.6697196e-07
6.66972886e-07
6.66972527e-07
6.66971476e-07
6.66973445e-07
6.66972197e-07
6.6697169e-07
6.66972358e-07
6.66972079e-07
6.66972011e-07
6.66972959e-07
6.66971774e-07
6.66973447e-07
6.66972362e-07
6.66972252e-07
6.66972405e-07
6.66972305e-07
6.66972436e-07
6.66972774e-07
6.66972138e-07
6.66972716e-07
6.66972613e-07
6.66973398e-07
6.66972904e-07
6.66972915e-07
6.66972898e-07
6.66973188e-07
6.66972309e-07
6.66973346e-07
6.66972065e-07
6.66973003e-07
6.66971911e-07
6.66973139e-07
6.669722e-07
6.66972878e-07
6.66972481e-07
6.66972665e-07
6.66972141e-07
6.66972601e-07
6.66973055e-07
6.66971658e-07
6.66973438e-07
6.66971154e-07
6.6697313e-07
6.66971372e-07
6.66972999e-07
6.66971936e-07
6.66972656e-07
6.66972473e-07
6.66972403e-07
6.66973107e-07
6.66972644e-07
6.66972708e-07
6.66972532e-07
6.66972394e-07
6.66972309e-07
6.66971989e-07
6.66973439e-07
6.66971058e-07
6.66973891e-07
6.66971463e-07
6.6697373e-07
6.6697214e-07
6.66972444e-07
6.6697271e-07
6.66973486e-07
6.66972716e-07
6.66972922e-07
6.66972469e-07
6.6697257e-07
6.66972864e-07
6.66972944e-07
6.66973255e-07
6.66973068e-07
6.66973364e-07
6.6697341e-07
6.66972042e-07
6.66974416e-07
6.66972182e-07
6.66973633e-07
6.66972428e-07
6.66973571e-07
6.66972727e-07
6.6697392e-07
6.66972322e-07
6.66973959e-07
6.66973254e-07
6.66972211e-07
6.66973888e-07
6.6697263e-07
6.6697364e-07
6.66973458e-07
6.66972969e-07
6.66973186e-07
6.66972779e-07
6.66972988e-07
6.66972353e-07
6.66973408e-07
6.66972191e-07
6.66973546e-07
6.66972998e-07
6.66973808e-07
6.6697289e-07
6.66973297e-07
6.66973655e-07
6.66972721e-07
6.66973397e-07
6.66973016e-07
6.66972351e-07
6.66973558e-07
6.66972516e-07
6.6697321e-07
6.66973523e-07
6.66972488e-07
6.66973538e-07
6.66972878e-07
6.66972265e-07
6.6697389e-07
6.66972149e-07
6.66974474e-07
6.66973273e-07
6.66973587e-07
6.66972722e-07
6.66973403e-07
6.66972466e-07
6.66972834e-07
6.66972681e-07
6.669722e-07
6.66973288e-07
6.6697327e-07
6.6697293e-07
6.66973581e-07
6.66972335e-07
6.66972906e-07
6.66972342e-07
6.66973321e-07
6.66972055e-07
6.66973266e-07
6.66972451e-07
6.66972829e-07
6.6697287e-07
6.6697237e-07
6.66973275e-07
6.66972612e-07
6.66973484e-07
6.66972586e-07
6.66974157e-07
6.66972282e-07
6.66974197e-07
6.66970795e-07
6.66974799e-07
6.66971286e-07
6.66973925e-07
6.66971545e-07
6.66973112e-07
6.66972818e-07
6.66972996e-07
6.66973559e-07
6.66973731e-07
6.66972367e-07
6.66974079e-07
6.6697292e-07
6.66973035e-07
6.66973165e-07
6.66973316e-07
6.66972939e-07
6.66973325e-07
6.66973201e-07
6.66973427e-07
6.66973255e-07
6.66973234e-07
6.66973478e-07
6.66973203e-07
6.6697309e-07
6.66973494e-07
6.66973383e-07
6.66973427e-07
6.66973338e-07
6.66973429e-07
6.66973339e-07
6.66973487e-07
6.66973511e-07
6.66973541e-07
6.66973573e-07
6.6697361e-07
6.66973721e-07
6.66973773e-07
6.6697374e-07
6.66973862e-07
6.66973943e-07
6.66973956e-07
6.66974059e-07
6.66974155e-07
6.66974293e-07
6.66974368e-07
6.66974483e-07
6.66974656e-07
6.6697478e-07
6.66974976e-07
6.66975196e-07
6.66975435e-07
6.66975644e-07
6.66975932e-07
6.66976185e-07
6.66976415e-07
6.66976642e-07
6.66976813e-07
6.66976936e-07
6.66977036e-07
6.66977085e-07
6.669771e-07
6.66977085e-07
6.6697709e-07
6.66977132e-07
6.66977103e-07
6.66977122e-07
6.66977114e-07
6.66977108e-07
6.66977126e-07
6.66977124e-07
6.66977114e-07
6.66977132e-07
6.66977109e-07
6.66977118e-07
6.66977109e-07
6.66977114e-07
6.66977111e-07
6.66977111e-07
6.66977119e-07
6.66977107e-07
6.66977094e-07
6.66977134e-07
)
;

boundaryField
{
    closed
    {
        type            calculated;
        value           uniform 0;
    }
    open
    {
        type            calculated;
        value           uniform 0;
    }
    sides
    {
        type            empty;
    }
}


// ************************************************************************* //
