/*--------------------------------*- C++ -*----------------------------------*\
| =========                 |                                                 |
| \\      /  F ield         | OpenFOAM: The Open Source CFD Toolbox           |
|  \\    /   O peration     | Version:  2206                                  |
|   \\  /    A nd           | Website:  www.openfoam.com                      |
|    \\/     M anipulation  |                                                 |
\*---------------------------------------------------------------------------*/
FoamFile
{
    version     2.0;
    format      ascii;
    arch        "LSB;label=32;scalar=64";
    class       volVectorField;
    location    "1.5e-05";
    object      U;
}
// * * * * * * * * * * * * * * * * * * * * * * * * * * * * * * * * * * * * * //

dimensions      [0 1 -1 0 0 0 0];

internalField   nonuniform List<vector> 
3183
(
(4.41760426e-13 0 0)
(1.5857168e-13 0 0)
(-3.12845282e-13 0 0)
(-3.59137138e-13 0 0)
(-1.59557157e-13 0 0)
(-1.00745596e-17 0 0)
(-7.7090554e-19 0 0)
(-6.8753452e-23 0 0)
(8.30085772e-21 0 0)
(1.27918884e-18 0 0)
(1.42706026e-14 0 0)
(2.54963048e-13 0 0)
(6.59458425e-13 0 0)
(2.42434678e-13 0 0)
(1.60784126e-13 0 0)
(3.30870956e-14 0 0)
(-3.44447306e-13 0 0)
(-6.71807817e-13 0 0)
(-8.90704972e-13 0 0)
(-1.84941542e-13 0 0)
(3.60159502e-13 0 0)
(1.82268242e-16 0 0)
(1.10384622e-13 0 0)
(3.42672117e-13 0 0)
(4.24601366e-13 0 0)
(6.36495618e-13 0 0)
(8.24008857e-13 0 0)
(7.92527696e-13 0 0)
(1.28949647e-13 0 0)
(2.47063943e-13 0 0)
(-7.48105466e-15 0 0)
(-1.2495313e-13 0 0)
(-6.64308123e-13 0 0)
(-9.00891493e-13 0 0)
(-8.90465147e-13 0 0)
(-8.6650455e-13 0 0)
(-8.67968533e-13 0 0)
(-8.67861051e-13 0 0)
(-9.85968079e-13 0 0)
(-1.06198509e-12 0 0)
(-7.61103145e-13 0 0)
(-1.92082026e-13 0 0)
(4.62815772e-13 0 0)
(1.556694e-13 0 0)
(4.98858929e-13 0 0)
(9.14373589e-13 0 0)
(9.45504099e-13 0 0)
(1.33207539e-12 0 0)
(1.38496253e-12 0 0)
(1.8703024e-12 0 0)
(1.77305687e-12 0 0)
(1.90568598e-12 0 0)
(1.28944791e-12 0 0)
(1.37584313e-12 0 0)
(1.01117744e-12 0 0)
(4.58205359e-13 0 0)
(8.65971611e-14 0 0)
(-2.83252427e-13 0 0)
(-9.51121787e-13 0 0)
(-1.11176673e-12 0 0)
(-1.45683402e-12 0 0)
(-2.06289178e-12 0 0)
(-2.18607204e-12 0 0)
(-2.78260928e-12 0 0)
(-2.85965463e-12 0 0)
(-3.30413014e-12 0 0)
(-3.98181377e-12 0 0)
(-3.74858174e-12 0 0)
(-4.14721992e-12 0 0)
(-4.83113411e-12 0 0)
(-4.63126939e-12 0 0)
(-4.85759992e-12 0 0)
(-4.61463393e-12 0 0)
(-4.83237057e-12 0 0)
(-5.71792285e-12 0 0)
(-5.41899566e-12 0 0)
(-5.17211055e-12 0 0)
(-5.32482551e-12 0 0)
(-5.27694109e-12 0 0)
(-5.48844027e-12 0 0)
(-6.19396637e-12 0 0)
(-5.29750728e-12 0 0)
(-5.29326729e-12 0 0)
(-6.50082672e-12 0 0)
(-5.32899378e-12 0 0)
(-5.55263606e-12 0 0)
(-6.17455687e-12 0 0)
(-6.21637501e-12 0 0)
(-5.31969738e-12 0 0)
(-5.37237186e-12 0 0)
(-7.17370593e-12 0 0)
(-6.59485235e-12 0 0)
(-5.42605936e-12 0 0)
(-6.91059697e-12 0 0)
(-7.19491528e-12 0 0)
(-6.89671285e-12 0 0)
(-6.6428656e-12 0 0)
(-7.40879087e-12 0 0)
(-7.15519136e-12 0 0)
(-7.21710906e-12 0 0)
(-6.46822814e-12 0 0)
(-6.34329823e-12 0 0)
(-7.04320766e-12 0 0)
(-7.01861532e-12 0 0)
(-6.05722808e-12 0 0)
(-6.61457933e-12 0 0)
(-6.82141012e-12 0 0)
(-7.39471325e-12 0 0)
(-8.07135524e-12 0 0)
(-8.30319009e-12 0 0)
(-7.45255665e-12 0 0)
(-7.82581443e-12 0 0)
(-7.94615072e-12 0 0)
(-8.55332774e-12 0 0)
(-8.35971525e-12 0 0)
(-8.86981945e-12 0 0)
(-7.8728629e-12 0 0)
(-7.81656302e-12 0 0)
(-8.33463781e-12 0 0)
(-9.79897078e-12 0 0)
(-9.09071216e-12 0 0)
(-8.63741086e-12 0 0)
(-8.35480997e-12 0 0)
(-9.67400546e-12 0 0)
(-8.96635116e-12 0 0)
(-9.23765659e-12 0 0)
(-8.59703441e-12 0 0)
(-9.49733521e-12 0 0)
(-8.4767088e-12 0 0)
(-8.47970052e-12 0 0)
(-7.66160824e-12 0 0)
(-8.41249807e-12 0 0)
(-9.29018364e-12 0 0)
(-8.33341146e-12 0 0)
(-8.31912739e-12 0 0)
(-8.61929976e-12 0 0)
(-9.39640333e-12 0 0)
(-8.67333836e-12 0 0)
(-9.83306418e-12 0 0)
(-8.70189399e-12 0 0)
(-9.77394377e-12 0 0)
(-9.95407631e-12 0 0)
(-9.9260206e-12 0 0)
(-1.08259341e-11 0 0)
(-9.19893493e-12 0 0)
(-1.03287758e-11 0 0)
(-1.01671379e-11 0 0)
(-1.131012e-11 0 0)
(-1.05580672e-11 0 0)
(-1.0864799e-11 0 0)
(-1.03348277e-11 0 0)
(-1.19890195e-11 0 0)
(-1.15236651e-11 0 0)
(-1.04444084e-11 0 0)
(-1.14896987e-11 0 0)
(-1.02907313e-11 0 0)
(-1.13409224e-11 0 0)
(-1.22772572e-11 0 0)
(-1.05266283e-11 0 0)
(-1.12058197e-11 0 0)
(-1.0870102e-11 0 0)
(-1.06620771e-11 0 0)
(-1.15337974e-11 0 0)
(-1.09585797e-11 0 0)
(-1.26773791e-11 0 0)
(-1.27899648e-11 0 0)
(-1.10695044e-11 0 0)
(-1.11731863e-11 0 0)
(-1.14786171e-11 0 0)
(-1.18296696e-11 0 0)
(-1.15737394e-11 0 0)
(-1.09112373e-11 0 0)
(-1.16123067e-11 0 0)
(-1.1006094e-11 0 0)
(-1.18729183e-11 0 0)
(-1.11508726e-11 0 0)
(-1.19762149e-11 0 0)
(-1.14868184e-11 0 0)
(-1.1388966e-11 0 0)
(-1.24090622e-11 0 0)
(-1.12700401e-11 0 0)
(-1.21472293e-11 0 0)
(-1.11824358e-11 0 0)
(-1.12110624e-11 0 0)
(-1.19026229e-11 0 0)
(-1.25961992e-11 0 0)
(-1.17637989e-11 0 0)
(-1.25047811e-11 0 0)
(-1.22332904e-11 0 0)
(-1.17515013e-11 0 0)
(-1.23326812e-11 0 0)
(-1.25330023e-11 0 0)
(-1.25398645e-11 0 0)
(-1.19677387e-11 0 0)
(-1.28429699e-11 0 0)
(-1.20866193e-11 0 0)
(-1.21274417e-11 0 0)
(-1.21479809e-11 0 0)
(-1.23558257e-11 0 0)
(-1.33815213e-11 0 0)
(-1.24152383e-11 0 0)
(-1.25922034e-11 0 0)
(-1.34464245e-11 0 0)
(-1.38787974e-11 0 0)
(-1.49128816e-11 0 0)
(-1.36784045e-11 0 0)
(-1.37486886e-11 0 0)
(-1.33015623e-11 0 0)
(-1.57326495e-11 0 0)
(-1.44604926e-11 0 0)
(-1.4181303e-11 0 0)
(-1.47041587e-11 0 0)
(-1.37474451e-11 0 0)
(-1.51519204e-11 0 0)
(-1.46103248e-11 0 0)
(-1.48363041e-11 0 0)
(-1.46803026e-11 0 0)
(-1.4021791e-11 0 0)
(-1.40016238e-11 0 0)
(-1.43800426e-11 0 0)
(-1.50338286e-11 0 0)
(-1.47673417e-11 0 0)
(-1.48368312e-11 0 0)
(-1.41541014e-11 0 0)
(-1.42326698e-11 0 0)
(-1.43124933e-11 0 0)
(-1.44334434e-11 0 0)
(-1.59301008e-11 0 0)
(-1.45925877e-11 0 0)
(-1.51962324e-11 0 0)
(-1.51549767e-11 0 0)
(-1.55622719e-11 0 0)
(-1.53502406e-11 0 0)
(-1.51506146e-11 0 0)
(-1.57830803e-11 0 0)
(-1.46526764e-11 0 0)
(-1.48056769e-11 0 0)
(-1.4906862e-11 0 0)
(-1.61598623e-11 0 0)
(-1.58585578e-11 0 0)
(-1.57798098e-11 0 0)
(-1.57954054e-11 0 0)
(-1.5328635e-11 0 0)
(-1.55403354e-11 0 0)
(-1.61277759e-11 0 0)
(-1.65522683e-11 0 0)
(-1.49857027e-11 0 0)
(-1.68216586e-11 0 0)
(-1.6460251e-11 0 0)
(-1.65997863e-11 0 0)
(-1.55839042e-11 0 0)
(-1.6800135e-11 0 0)
(-1.59780181e-11 0 0)
(-1.65368195e-11 0 0)
(-1.71335797e-11 0 0)
(-1.58531794e-11 0 0)
(-1.64245263e-11 0 0)
(-1.56666513e-11 0 0)
(-1.62554626e-11 0 0)
(-1.68580254e-11 0 0)
(-1.67623016e-11 0 0)
(-1.71318596e-11 0 0)
(-1.74790978e-11 0 0)
(-1.58151416e-11 0 0)
(-1.71121485e-11 0 0)
(-1.73011556e-11 0 0)
(-1.6757163e-11 0 0)
(-1.78688863e-11 0 0)
(-1.70019662e-11 0 0)
(-1.66263265e-11 0 0)
(-1.70127328e-11 0 0)
(-1.72703312e-11 0 0)
(-1.66895855e-11 0 0)
(-1.69894014e-11 0 0)
(-1.64477821e-11 0 0)
(-1.64893941e-11 0 0)
(-1.692933e-11 0 0)
(-1.78776268e-11 0 0)
(-1.64899857e-11 0 0)
(-1.70610359e-11 0 0)
(-1.68842393e-11 0 0)
(-1.76333034e-11 0 0)
(-1.76916269e-11 0 0)
(-1.85517182e-11 0 0)
(-1.75976072e-11 0 0)
(-1.84322767e-11 0 0)
(-1.71596189e-11 0 0)
(-1.85306312e-11 0 0)
(-1.84090767e-11 0 0)
(-1.77033241e-11 0 0)
(-1.88386336e-11 0 0)
(-1.8036642e-11 0 0)
(-1.85020117e-11 0 0)
(-1.84383058e-11 0 0)
(-1.77399939e-11 0 0)
(-1.75514711e-11 0 0)
(-1.82283295e-11 0 0)
(-1.78665471e-11 0 0)
(-1.735122e-11 0 0)
(-1.76367435e-11 0 0)
(-1.74237849e-11 0 0)
(-1.69052388e-11 0 0)
(-1.71718739e-11 0 0)
(-1.6870057e-11 0 0)
(-1.77784402e-11 0 0)
(-1.75460143e-11 0 0)
(-1.65182622e-11 0 0)
(-1.68142177e-11 0 0)
(-1.8270186e-11 0 0)
(-1.84659521e-11 0 0)
(-1.80196213e-11 0 0)
(-1.85336855e-11 0 0)
(-1.82256318e-11 0 0)
(-1.85701707e-11 0 0)
(-1.84100344e-11 0 0)
(-1.84625173e-11 0 0)
(-1.85440455e-11 0 0)
(-1.93810797e-11 0 0)
(-1.7767262e-11 0 0)
(-1.95146894e-11 0 0)
(-1.8796782e-11 0 0)
(-1.87394866e-11 0 0)
(-1.94786867e-11 0 0)
(-1.87390616e-11 0 0)
(-1.95133059e-11 0 0)
(-1.8975462e-11 0 0)
(-1.89549437e-11 0 0)
(-1.9014646e-11 0 0)
(-1.87022781e-11 0 0)
(-1.96984513e-11 0 0)
(-1.84490124e-11 0 0)
(-1.92791664e-11 0 0)
(-1.99044994e-11 0 0)
(-1.86613307e-11 0 0)
(-1.82074898e-11 0 0)
(-1.80674592e-11 0 0)
(-1.83820889e-11 0 0)
(-1.94504554e-11 0 0)
(-1.81510848e-11 0 0)
(-1.90634292e-11 0 0)
(-1.78045001e-11 0 0)
(-1.85742148e-11 0 0)
(-1.74632763e-11 0 0)
(-1.72180931e-11 0 0)
(-1.70403835e-11 0 0)
(-1.70937869e-11 0 0)
(-1.79814255e-11 0 0)
(-1.75739329e-11 0 0)
(-1.73377414e-11 0 0)
(-1.82375926e-11 0 0)
(-1.75490582e-11 0 0)
(-1.70900211e-11 0 0)
(-1.76451579e-11 0 0)
(-1.67851862e-11 0 0)
(-1.73082927e-11 0 0)
(-1.78368597e-11 0 0)
(-1.80037083e-11 0 0)
(-1.78036224e-11 0 0)
(-1.846668e-11 0 0)
(-1.66505622e-11 0 0)
(-1.79300301e-11 0 0)
(-1.78409941e-11 0 0)
(-1.70038198e-11 0 0)
(-1.76182763e-11 0 0)
(-1.6708583e-11 0 0)
(-1.81148621e-11 0 0)
(-1.72061067e-11 0 0)
(-1.78596616e-11 0 0)
(-1.72061255e-11 0 0)
(-1.76818892e-11 0 0)
(-1.70080807e-11 0 0)
(-1.72317578e-11 0 0)
(-1.75668597e-11 0 0)
(-1.66294588e-11 0 0)
(-1.6808532e-11 0 0)
(-1.74602229e-11 0 0)
(-1.63203118e-11 0 0)
(-1.67747613e-11 0 0)
(-1.77861401e-11 0 0)
(-1.79126634e-11 0 0)
(-1.73913096e-11 0 0)
(-1.67876417e-11 0 0)
(-1.80987854e-11 0 0)
(-1.74364004e-11 0 0)
(-1.73218325e-11 0 0)
(-1.75016674e-11 0 0)
(-1.72226932e-11 0 0)
(-1.78401191e-11 0 0)
(-1.73027598e-11 0 0)
(-1.72987088e-11 0 0)
(-1.75819987e-11 0 0)
(-1.75861796e-11 0 0)
(-1.70702019e-11 0 0)
(-1.71910454e-11 0 0)
(-1.78702233e-11 0 0)
(-1.65758457e-11 0 0)
(-1.66757092e-11 0 0)
(-1.85571401e-11 0 0)
(-1.79248545e-11 0 0)
(-1.60071081e-11 0 0)
(-1.66288605e-11 0 0)
(-1.68093006e-11 0 0)
(-1.67534107e-11 0 0)
(-1.74516391e-11 0 0)
(-1.63840779e-11 0 0)
(-1.66043262e-11 0 0)
(-1.63417101e-11 0 0)
(-1.65791684e-11 0 0)
(-1.63928178e-11 0 0)
(-1.63259433e-11 0 0)
(-1.5486036e-11 0 0)
(-1.47029873e-11 0 0)
(-1.53927114e-11 0 0)
(-1.57683275e-11 0 0)
(-1.59922018e-11 0 0)
(-1.45204282e-11 0 0)
(-1.45010047e-11 0 0)
(-1.45086929e-11 0 0)
(-1.55401619e-11 0 0)
(-1.48449795e-11 0 0)
(-1.40626891e-11 0 0)
(-1.34855248e-11 0 0)
(-1.32428651e-11 0 0)
(-1.41423054e-11 0 0)
(-1.47111473e-11 0 0)
(-1.43610687e-11 0 0)
(-1.41732845e-11 0 0)
(-1.3336131e-11 0 0)
(-1.37025349e-11 0 0)
(-1.23655825e-11 0 0)
(-1.20965078e-11 0 0)
(-1.33942048e-11 0 0)
(-1.28273186e-11 0 0)
(-1.29462591e-11 0 0)
(-1.27507582e-11 0 0)
(-1.23935351e-11 0 0)
(-1.22123128e-11 0 0)
(-1.27242218e-11 0 0)
(-1.17402447e-11 0 0)
(-1.10697987e-11 0 0)
(-1.22637219e-11 0 0)
(-1.27133376e-11 0 0)
(-1.24964569e-11 0 0)
(-1.21250106e-11 0 0)
(-1.15505736e-11 0 0)
(-1.32751085e-11 0 0)
(-1.15563472e-11 0 0)
(-1.31450257e-11 0 0)
(-1.1611136e-11 0 0)
(-1.07531605e-11 0 0)
(-1.1341315e-11 0 0)
(-1.16859286e-11 0 0)
(-1.16211573e-11 0 0)
(-1.15026329e-11 0 0)
(-1.08635756e-11 0 0)
(-1.10685159e-11 0 0)
(-1.17700108e-11 0 0)
(-1.12741962e-11 0 0)
(-1.14166498e-11 0 0)
(-1.00436842e-11 0 0)
(-1.12582687e-11 0 0)
(-1.19364412e-11 0 0)
(-1.09287131e-11 0 0)
(-1.05247551e-11 0 0)
(-1.02717285e-11 0 0)
(-1.03750714e-11 0 0)
(-1.02243132e-11 0 0)
(-9.62476515e-12 0 0)
(-8.69475246e-12 0 0)
(-9.424023e-12 0 0)
(-8.84408945e-12 0 0)
(-7.82300405e-12 0 0)
(-8.55463646e-12 0 0)
(-8.20193696e-12 0 0)
(-9.06680505e-12 0 0)
(-8.39585821e-12 0 0)
(-8.05559292e-12 0 0)
(-8.38556476e-12 0 0)
(-7.98882567e-12 0 0)
(-8.71382184e-12 0 0)
(-8.54805318e-12 0 0)
(-7.98088298e-12 0 0)
(-9.04888612e-12 0 0)
(-7.42967182e-12 0 0)
(-8.43624015e-12 0 0)
(-7.42996463e-12 0 0)
(-8.22117569e-12 0 0)
(-9.34120184e-12 0 0)
(-8.29627678e-12 0 0)
(-7.61038833e-12 0 0)
(-8.20129719e-12 0 0)
(-8.01534936e-12 0 0)
(-7.81171741e-12 0 0)
(-7.98017961e-12 0 0)
(-8.43048297e-12 0 0)
(-8.39635699e-12 0 0)
(-8.59275023e-12 0 0)
(-9.03950484e-12 0 0)
(-8.61059372e-12 0 0)
(-8.07257006e-12 0 0)
(-8.72915745e-12 0 0)
(-7.57311641e-12 0 0)
(-7.2405286e-12 0 0)
(-8.34255375e-12 0 0)
(-7.03724342e-12 0 0)
(-7.91430095e-12 0 0)
(-7.89219844e-12 0 0)
(-7.56568228e-12 0 0)
(-7.32388642e-12 0 0)
(-6.29734061e-12 0 0)
(-7.03951559e-12 0 0)
(-6.74513279e-12 0 0)
(-6.62543659e-12 0 0)
(-5.87768561e-12 0 0)
(-6.82379284e-12 0 0)
(-5.23217024e-12 0 0)
(-6.3378568e-12 0 0)
(-5.07224974e-12 0 0)
(-5.50565726e-12 0 0)
(-5.36946653e-12 0 0)
(-6.29612187e-12 0 0)
(-5.37172587e-12 0 0)
(-3.88978349e-12 0 0)
(-4.61662854e-12 0 0)
(-4.71560603e-12 0 0)
(-5.09660469e-12 0 0)
(-4.60202104e-12 0 0)
(-4.65574756e-12 0 0)
(-5.33100299e-12 0 0)
(-5.08632409e-12 0 0)
(-5.38150188e-12 0 0)
(-4.75445636e-12 0 0)
(-4.68202877e-12 0 0)
(-5.45720129e-12 0 0)
(-3.89004067e-12 0 0)
(-5.49285699e-12 0 0)
(-4.67540482e-12 0 0)
(-4.65046327e-12 0 0)
(-5.13045469e-12 0 0)
(-5.40806586e-12 0 0)
(-4.95288239e-12 0 0)
(-4.38087264e-12 0 0)
(-5.37919113e-12 0 0)
(-4.38981832e-12 0 0)
(-4.38327578e-12 0 0)
(-3.87903446e-12 0 0)
(-5.03457799e-12 0 0)
(-3.85609305e-12 0 0)
(-4.39080194e-12 0 0)
(-4.40225448e-12 0 0)
(-4.13044303e-12 0 0)
(-3.83828013e-12 0 0)
(-3.84402326e-12 0 0)
(-4.13495134e-12 0 0)
(-4.421389e-12 0 0)
(-3.49821762e-12 0 0)
(-2.99563361e-12 0 0)
(-3.46475706e-12 0 0)
(-4.68388406e-12 0 0)
(-3.2408174e-12 0 0)
(-3.4129147e-12 0 0)
(-4.41981034e-12 0 0)
(-3.36939126e-12 0 0)
(-4.00569847e-12 0 0)
(-4.05876051e-12 0 0)
(-2.94715625e-12 0 0)
(-2.98198589e-12 0 0)
(-3.1414387e-12 0 0)
(-2.63610521e-12 0 0)
(-3.22904035e-12 0 0)
(-2.33385289e-12 0 0)
(-2.14827868e-12 0 0)
(-1.9418771e-12 0 0)
(-2.82267638e-12 0 0)
(-2.95478614e-12 0 0)
(-2.42253568e-12 0 0)
(-4.07819701e-12 0 0)
(-2.5696866e-12 0 0)
(-3.54856197e-12 0 0)
(-2.17849654e-12 0 0)
(-3.38918175e-12 0 0)
(-2.20192804e-12 0 0)
(-1.00934768e-12 0 0)
(-1.77383019e-12 0 0)
(-2.32386447e-12 0 0)
(-1.31615574e-12 0 0)
(-1.45365052e-12 0 0)
(-1.96664316e-12 0 0)
(-1.30215723e-12 0 0)
(-2.0231148e-12 0 0)
(-9.64539718e-13 0 0)
(-8.37065258e-13 0 0)
(-2.18118467e-12 0 0)
(-1.61290982e-12 0 0)
(-1.43823019e-12 0 0)
(-1.80672475e-12 0 0)
(-7.82286967e-13 0 0)
(-5.35963196e-13 0 0)
(-1.59838733e-12 0 0)
(-1.62979785e-13 0 0)
(-7.18022961e-13 0 0)
(-1.60427435e-12 0 0)
(2.73556573e-13 0 0)
(-5.17214064e-13 0 0)
(6.10043784e-13 0 0)
(-2.24903631e-13 0 0)
(5.84042972e-13 0 0)
(1.4791058e-13 0 0)
(-3.57705209e-13 0 0)
(-1.62444544e-12 0 0)
(-4.09218552e-14 0 0)
(6.37130395e-13 0 0)
(-4.9009156e-13 0 0)
(-6.63249236e-13 0 0)
(5.71227444e-13 0 0)
(8.59696533e-13 0 0)
(1.53101547e-13 0 0)
(8.85678651e-13 0 0)
(4.38749052e-13 0 0)
(7.87104166e-13 0 0)
(9.01847235e-13 0 0)
(-3.28872482e-13 0 0)
(3.97485725e-13 0 0)
(9.12302118e-13 0 0)
(-1.88727395e-13 0 0)
(9.48070001e-13 0 0)
(5.94133669e-13 0 0)
(1.19641341e-12 0 0)
(1.71557104e-12 0 0)
(2.08729697e-12 0 0)
(1.15454048e-12 0 0)
(8.75361464e-13 0 0)
(2.66928199e-12 0 0)
(2.31372344e-12 0 0)
(2.17783356e-12 0 0)
(2.05043827e-12 0 0)
(2.26031646e-12 0 0)
(2.97708317e-12 0 0)
(2.24696784e-12 0 0)
(2.46671267e-12 0 0)
(2.11838727e-12 0 0)
(2.49561486e-12 0 0)
(2.56667204e-12 0 0)
(3.06071649e-12 0 0)
(2.73154428e-12 0 0)
(2.2330099e-12 0 0)
(3.21797201e-12 0 0)
(2.39196579e-12 0 0)
(2.24775533e-12 0 0)
(2.83432805e-12 0 0)
(2.4565251e-12 0 0)
(3.68910088e-12 0 0)
(2.23224183e-12 0 0)
(2.9607282e-12 0 0)
(3.14812206e-12 0 0)
(3.23352899e-12 0 0)
(3.26623393e-12 0 0)
(2.58801228e-12 0 0)
(2.77109711e-12 0 0)
(2.4123866e-12 0 0)
(3.07073658e-12 0 0)
(4.58857392e-12 0 0)
(2.96287622e-12 0 0)
(2.47594699e-12 0 0)
(4.67788084e-12 0 0)
(3.19486362e-12 0 0)
(3.82257074e-12 0 0)
(4.23781473e-12 0 0)
(4.35674225e-12 0 0)
(3.70656322e-12 0 0)
(4.54461848e-12 0 0)
(4.36307591e-12 0 0)
(4.54235778e-12 0 0)
(4.46215087e-12 0 0)
(5.47165494e-12 0 0)
(4.50595452e-12 0 0)
(5.77195118e-12 0 0)
(5.46879831e-12 0 0)
(5.50463006e-12 0 0)
(5.55357189e-12 0 0)
(5.9996911e-12 0 0)
(6.00747026e-12 0 0)
(5.70546689e-12 0 0)
(5.77833011e-12 0 0)
(5.69095129e-12 0 0)
(5.3758922e-12 0 0)
(6.66706361e-12 0 0)
(5.81468232e-12 0 0)
(5.4578734e-12 0 0)
(6.54128135e-12 0 0)
(5.80665402e-12 0 0)
(5.79239579e-12 0 0)
(6.39149169e-12 0 0)
(5.35966269e-12 0 0)
(6.70742398e-12 0 0)
(6.03892418e-12 0 0)
(5.9341998e-12 0 0)
(5.57675092e-12 0 0)
(6.71232272e-12 0 0)
(6.72029437e-12 0 0)
(6.67393555e-12 0 0)
(6.02464967e-12 0 0)
(7.16784417e-12 0 0)
(7.52530735e-12 0 0)
(8.10692032e-12 0 0)
(7.97513823e-12 0 0)
(8.65935026e-12 0 0)
(7.78117701e-12 0 0)
(7.53482629e-12 0 0)
(7.01610211e-12 0 0)
(8.59700062e-12 0 0)
(7.27834485e-12 0 0)
(7.65761809e-12 0 0)
(8.72956062e-12 0 0)
(8.09529409e-12 0 0)
(8.72893761e-12 0 0)
(8.17618046e-12 0 0)
(8.74785262e-12 0 0)
(9.14601811e-12 0 0)
(9.00045276e-12 0 0)
(8.7598423e-12 0 0)
(9.0417615e-12 0 0)
(9.7402855e-12 0 0)
(9.40868189e-12 0 0)
(9.33433105e-12 0 0)
(8.3182039e-12 0 0)
(8.9754206e-12 0 0)
(9.18657425e-12 0 0)
(8.97325169e-12 0 0)
(9.96185429e-12 0 0)
(1.01814983e-11 0 0)
(1.00446735e-11 0 0)
(1.0231039e-11 0 0)
(8.92338693e-12 0 0)
(9.88099038e-12 0 0)
(1.05551591e-11 0 0)
(1.01267392e-11 0 0)
(9.91182322e-12 0 0)
(1.04484168e-11 0 0)
(9.87667738e-12 0 0)
(1.00889094e-11 0 0)
(8.96412605e-12 0 0)
(1.01015971e-11 0 0)
(9.66816218e-12 0 0)
(9.31438378e-12 0 0)
(9.32808122e-12 0 0)
(9.71711681e-12 0 0)
(9.39137752e-12 0 0)
(9.62676317e-12 0 0)
(9.42419752e-12 0 0)
(9.61387674e-12 0 0)
(8.89063666e-12 0 0)
(1.04363829e-11 0 0)
(8.70169402e-12 0 0)
(8.75425322e-12 0 0)
(9.75016976e-12 0 0)
(9.88186523e-12 0 0)
(9.35140969e-12 0 0)
(9.28692824e-12 0 0)
(1.06265846e-11 0 0)
(1.08599702e-11 0 0)
(1.00725891e-11 0 0)
(9.5467881e-12 0 0)
(9.79445985e-12 0 0)
(1.08798894e-11 0 0)
(1.0780992e-11 0 0)
(9.98497434e-12 0 0)
(1.03487084e-11 0 0)
(9.81158973e-12 0 0)
(9.67695354e-12 0 0)
(1.0664429e-11 0 0)
(9.56602392e-12 0 0)
(1.02160706e-11 0 0)
(1.0334212e-11 0 0)
(1.0746367e-11 0 0)
(1.16458703e-11 0 0)
(1.05501692e-11 0 0)
(1.12478787e-11 0 0)
(1.14191126e-11 0 0)
(1.01425044e-11 0 0)
(1.03965184e-11 0 0)
(1.02894599e-11 0 0)
(1.05206723e-11 0 0)
(1.11025873e-11 0 0)
(1.11351265e-11 0 0)
(1.10361404e-11 0 0)
(1.06957133e-11 0 0)
(1.1087822e-11 0 0)
(9.81725245e-12 0 0)
(1.07957023e-11 0 0)
(1.08779235e-11 0 0)
(1.18570189e-11 0 0)
(1.03860775e-11 0 0)
(1.12673219e-11 0 0)
(1.0302315e-11 0 0)
(1.0155272e-11 0 0)
(1.02346964e-11 0 0)
(9.70325527e-12 0 0)
(1.02363476e-11 0 0)
(9.89389389e-12 0 0)
(1.06816293e-11 0 0)
(1.07249428e-11 0 0)
(1.08601429e-11 0 0)
(1.05964745e-11 0 0)
(1.12533865e-11 0 0)
(1.20209077e-11 0 0)
(1.24768726e-11 0 0)
(1.20425016e-11 0 0)
(1.19252287e-11 0 0)
(1.06097802e-11 0 0)
(1.21797892e-11 0 0)
(1.0931511e-11 0 0)
(1.12886865e-11 0 0)
(1.13146912e-11 0 0)
(1.16508603e-11 0 0)
(1.06935622e-11 0 0)
(1.16462342e-11 0 0)
(1.14597254e-11 0 0)
(1.11934468e-11 0 0)
(1.18608052e-11 0 0)
(1.1104631e-11 0 0)
(1.1627146e-11 0 0)
(1.16816722e-11 0 0)
(1.12327972e-11 0 0)
(1.15691248e-11 0 0)
(1.08614648e-11 0 0)
(1.0492989e-11 0 0)
(1.21396042e-11 0 0)
(1.17321447e-11 0 0)
(1.19364123e-11 0 0)
(1.02906544e-11 0 0)
(1.1329161e-11 0 0)
(1.00426628e-11 0 0)
(1.09764432e-11 0 0)
(1.03802681e-11 0 0)
(1.01452283e-11 0 0)
(9.77778103e-12 0 0)
(9.86408954e-12 0 0)
(9.69946835e-12 0 0)
(9.36238367e-12 0 0)
(9.50851068e-12 0 0)
(9.00490177e-12 0 0)
(1.04847599e-11 0 0)
(1.00470841e-11 0 0)
(9.85058007e-12 0 0)
(1.03892305e-11 0 0)
(9.37436686e-12 0 0)
(1.03288911e-11 0 0)
(9.4834536e-12 0 0)
(9.55799379e-12 0 0)
(1.02158631e-11 0 0)
(9.72924806e-12 0 0)
(9.85159961e-12 0 0)
(9.60273061e-12 0 0)
(1.00818691e-11 0 0)
(9.04282078e-12 0 0)
(9.17256546e-12 0 0)
(1.0236861e-11 0 0)
(9.29515141e-12 0 0)
(8.16268719e-12 0 0)
(9.36178513e-12 0 0)
(8.47070024e-12 0 0)
(8.56520327e-12 0 0)
(9.11251905e-12 0 0)
(7.88921909e-12 0 0)
(8.56919423e-12 0 0)
(9.15608318e-12 0 0)
(9.3247041e-12 0 0)
(8.10305185e-12 0 0)
(9.07892771e-12 0 0)
(8.78572274e-12 0 0)
(8.84171694e-12 0 0)
(8.85527894e-12 0 0)
(8.45856777e-12 0 0)
(9.94015502e-12 0 0)
(8.01040859e-12 0 0)
(9.01706251e-12 0 0)
(9.54330841e-12 0 0)
(9.10263977e-12 0 0)
(8.51506443e-12 0 0)
(8.544257e-12 0 0)
(8.65004834e-12 0 0)
(8.62972028e-12 0 0)
(9.36501495e-12 0 0)
(8.89920704e-12 0 0)
(9.55449082e-12 0 0)
(9.68146045e-12 0 0)
(9.24633575e-12 0 0)
(9.88109378e-12 0 0)
(9.96766277e-12 0 0)
(8.93676237e-12 0 0)
(9.41853938e-12 0 0)
(1.02287732e-11 0 0)
(9.7814644e-12 0 0)
(9.44233709e-12 0 0)
(9.50090793e-12 0 0)
(9.69865562e-12 0 0)
(1.00461059e-11 0 0)
(9.82183052e-12 0 0)
(8.53443652e-12 0 0)
(9.26282186e-12 0 0)
(9.99802232e-12 0 0)
(8.67176151e-12 0 0)
(8.97263519e-12 0 0)
(9.73467482e-12 0 0)
(9.57616847e-12 0 0)
(8.91616279e-12 0 0)
(9.49835384e-12 0 0)
(9.69612223e-12 0 0)
(9.55556293e-12 0 0)
(8.93893693e-12 0 0)
(8.82398485e-12 0 0)
(9.5765798e-12 0 0)
(9.42673651e-12 0 0)
(9.32400681e-12 0 0)
(9.28077992e-12 0 0)
(1.00753322e-11 0 0)
(9.55797183e-12 0 0)
(8.92582717e-12 0 0)
(9.76696836e-12 0 0)
(1.02152262e-11 0 0)
(9.1545126e-12 0 0)
(9.60935012e-12 0 0)
(1.00495344e-11 0 0)
(9.76124113e-12 0 0)
(1.02140449e-11 0 0)
(9.48369322e-12 0 0)
(9.87143236e-12 0 0)
(9.9593599e-12 0 0)
(8.93696945e-12 0 0)
(1.00738261e-11 0 0)
(9.50568097e-12 0 0)
(1.0306771e-11 0 0)
(9.59190765e-12 0 0)
(9.24159497e-12 0 0)
(9.57930876e-12 0 0)
(9.21838219e-12 0 0)
(8.87551981e-12 0 0)
(9.78175266e-12 0 0)
(9.13692146e-12 0 0)
(9.21770985e-12 0 0)
(9.13550159e-12 0 0)
(9.60040434e-12 0 0)
(9.55595109e-12 0 0)
(1.01523753e-11 0 0)
(9.34413677e-12 0 0)
(9.31108253e-12 0 0)
(9.78340489e-12 0 0)
(9.66005345e-12 0 0)
(1.074133e-11 0 0)
(9.03455537e-12 0 0)
(9.44119873e-12 0 0)
(9.8159057e-12 0 0)
(9.27283196e-12 0 0)
(7.98988357e-12 0 0)
(8.75003193e-12 0 0)
(7.63062203e-12 0 0)
(7.91750518e-12 0 0)
(7.53135094e-12 0 0)
(8.25110418e-12 0 0)
(7.67924756e-12 0 0)
(8.19625192e-12 0 0)
(9.16977652e-12 0 0)
(8.28190052e-12 0 0)
(8.23463203e-12 0 0)
(7.68847571e-12 0 0)
(8.64009212e-12 0 0)
(7.73844476e-12 0 0)
(9.33759212e-12 0 0)
(8.69866465e-12 0 0)
(8.71820898e-12 0 0)
(8.83611629e-12 0 0)
(9.56650313e-12 0 0)
(9.22589639e-12 0 0)
(9.14597356e-12 0 0)
(8.96883684e-12 0 0)
(8.16755396e-12 0 0)
(8.34231135e-12 0 0)
(8.6298916e-12 0 0)
(9.16633978e-12 0 0)
(8.57246729e-12 0 0)
(9.18313675e-12 0 0)
(8.20058136e-12 0 0)
(1.00126049e-11 0 0)
(8.71135528e-12 0 0)
(8.22354316e-12 0 0)
(7.3341279e-12 0 0)
(8.49744776e-12 0 0)
(8.62714076e-12 0 0)
(8.50319425e-12 0 0)
(7.51892734e-12 0 0)
(9.37339785e-12 0 0)
(7.9238138e-12 0 0)
(8.1228228e-12 0 0)
(7.66733617e-12 0 0)
(8.52623547e-12 0 0)
(7.32525828e-12 0 0)
(7.66240464e-12 0 0)
(7.99301306e-12 0 0)
(7.79311435e-12 0 0)
(8.1678462e-12 0 0)
(6.72230321e-12 0 0)
(7.11622771e-12 0 0)
(7.52146008e-12 0 0)
(8.25847811e-12 0 0)
(7.47511063e-12 0 0)
(7.29839863e-12 0 0)
(8.80144835e-12 0 0)
(7.34055167e-12 0 0)
(8.13734072e-12 0 0)
(7.60544387e-12 0 0)
(7.39043529e-12 0 0)
(7.406661e-12 0 0)
(6.76037722e-12 0 0)
(7.14202552e-12 0 0)
(6.34364663e-12 0 0)
(6.27559908e-12 0 0)
(6.59232288e-12 0 0)
(6.86162337e-12 0 0)
(6.18439901e-12 0 0)
(6.58886131e-12 0 0)
(7.0355483e-12 0 0)
(6.07096607e-12 0 0)
(5.93562064e-12 0 0)
(5.97949875e-12 0 0)
(5.24818669e-12 0 0)
(5.64540235e-12 0 0)
(5.59554497e-12 0 0)
(5.39123843e-12 0 0)
(4.99569722e-12 0 0)
(5.82862516e-12 0 0)
(4.54909773e-12 0 0)
(4.4749057e-12 0 0)
(4.83947241e-12 0 0)
(4.43312029e-12 0 0)
(3.61288735e-12 0 0)
(4.40057245e-12 0 0)
(4.55325764e-12 0 0)
(3.36806188e-12 0 0)
(2.75662353e-12 0 0)
(2.905958e-12 0 0)
(3.50529577e-12 0 0)
(3.35582683e-12 0 0)
(2.29035808e-12 0 0)
(3.36047577e-12 0 0)
(3.5007573e-12 0 0)
(3.90361231e-12 0 0)
(4.06095128e-12 0 0)
(3.43407447e-12 0 0)
(4.23314959e-12 0 0)
(3.43446761e-12 0 0)
(3.10699038e-12 0 0)
(3.05113591e-12 0 0)
(3.96101129e-12 0 0)
(2.93735849e-12 0 0)
(4.4125133e-12 0 0)
(3.26585825e-12 0 0)
(4.50329325e-12 0 0)
(4.55366714e-12 0 0)
(4.24168241e-12 0 0)
(4.2362903e-12 0 0)
(3.65506922e-12 0 0)
(4.32101731e-12 0 0)
(3.81811816e-12 0 0)
(4.0851132e-12 0 0)
(3.57446472e-12 0 0)
(3.73685582e-12 0 0)
(3.27928177e-12 0 0)
(3.12098652e-12 0 0)
(2.52976838e-12 0 0)
(3.62028343e-12 0 0)
(4.88220785e-12 0 0)
(3.9075883e-12 0 0)
(3.76719823e-12 0 0)
(4.61466903e-12 0 0)
(4.31691781e-12 0 0)
(4.29832925e-12 0 0)
(4.43050303e-12 0 0)
(4.25624664e-12 0 0)
(3.28223257e-12 0 0)
(3.14452172e-12 0 0)
(3.92077591e-12 0 0)
(3.6133574e-12 0 0)
(2.71787528e-12 0 0)
(2.48070179e-12 0 0)
(2.2327844e-12 0 0)
(3.09428877e-12 0 0)
(3.71751214e-12 0 0)
(2.92049576e-12 0 0)
(3.61876966e-12 0 0)
(2.79021097e-12 0 0)
(2.89861965e-12 0 0)
(2.06302595e-12 0 0)
(2.06076479e-12 0 0)
(2.64992872e-12 0 0)
(1.44255462e-12 0 0)
(2.16203361e-12 0 0)
(2.21508735e-12 0 0)
(1.38432713e-12 0 0)
(2.01376286e-12 0 0)
(1.83153884e-12 0 0)
(1.94059742e-12 0 0)
(1.62697642e-12 0 0)
(1.14796285e-12 0 0)
(1.19024474e-12 0 0)
(5.23700079e-13 0 0)
(1.45544957e-12 0 0)
(9.59904441e-13 0 0)
(2.01387601e-12 0 0)
(1.43520249e-12 0 0)
(1.56146736e-12 0 0)
(5.9267581e-13 0 0)
(1.00317416e-12 0 0)
(1.43333021e-12 0 0)
(2.22065396e-13 0 0)
(7.62786461e-13 0 0)
(-1.30484728e-14 0 0)
(3.90684998e-13 0 0)
(-2.61438597e-13 0 0)
(1.10909568e-12 0 0)
(-1.12767814e-13 0 0)
(-6.49627273e-13 0 0)
(1.37598549e-13 0 0)
(-1.18234661e-12 0 0)
(3.7945789e-14 0 0)
(-6.38307608e-13 0 0)
(-5.34477806e-13 0 0)
(-1.57594263e-12 0 0)
(-8.58504726e-13 0 0)
(-7.34861299e-13 0 0)
(-1.77060891e-12 0 0)
(-1.66230178e-12 0 0)
(-2.65484052e-12 0 0)
(-1.66033711e-12 0 0)
(-2.95641181e-12 0 0)
(-2.60789235e-12 0 0)
(-2.78835718e-12 0 0)
(-3.05554615e-12 0 0)
(-3.41045656e-12 0 0)
(-3.74001287e-12 0 0)
(-4.4668722e-12 0 0)
(-3.06962756e-12 0 0)
(-3.68479038e-12 0 0)
(-3.69565295e-12 0 0)
(-2.97103e-12 0 0)
(-3.81969094e-12 0 0)
(-3.06679166e-12 0 0)
(-3.85289417e-12 0 0)
(-4.48246853e-12 0 0)
(-3.35456351e-12 0 0)
(-3.42130512e-12 0 0)
(-3.37188619e-12 0 0)
(-3.61234689e-12 0 0)
(-3.15166758e-12 0 0)
(-4.63874352e-12 0 0)
(-4.27994788e-12 0 0)
(-3.07586746e-12 0 0)
(-4.65594191e-12 0 0)
(-4.50963533e-12 0 0)
(-4.97267909e-12 0 0)
(-4.3425914e-12 0 0)
(-4.50276764e-12 0 0)
(-5.32202016e-12 0 0)
(-4.29160805e-12 0 0)
(-4.80433955e-12 0 0)
(-4.31288058e-12 0 0)
(-4.00978752e-12 0 0)
(-4.0575311e-12 0 0)
(-5.20864248e-12 0 0)
(-5.05187907e-12 0 0)
(-4.50028359e-12 0 0)
(-5.39460091e-12 0 0)
(-4.93746693e-12 0 0)
(-5.26112258e-12 0 0)
(-5.31606619e-12 0 0)
(-6.42660468e-12 0 0)
(-6.6662568e-12 0 0)
(-5.99703916e-12 0 0)
(-6.86530488e-12 0 0)
(-6.91610406e-12 0 0)
(-6.0705007e-12 0 0)
(-7.1971774e-12 0 0)
(-8.60762025e-12 0 0)
(-6.92045468e-12 0 0)
(-7.24706412e-12 0 0)
(-8.52579622e-12 0 0)
(-7.29870037e-12 0 0)
(-7.40300404e-12 0 0)
(-7.77047787e-12 0 0)
(-8.25868398e-12 0 0)
(-8.42857569e-12 0 0)
(-7.93889259e-12 0 0)
(-8.33123042e-12 0 0)
(-7.86908407e-12 0 0)
(-6.80617287e-12 0 0)
(-8.83511538e-12 0 0)
(-8.9395844e-12 0 0)
(-8.81709452e-12 0 0)
(-8.09514651e-12 0 0)
(-8.99279036e-12 0 0)
(-8.46540756e-12 0 0)
(-9.50886412e-12 0 0)
(-9.73359919e-12 0 0)
(-1.03151618e-11 0 0)
(-1.00463259e-11 0 0)
(-9.48221781e-12 0 0)
(-9.55476096e-12 0 0)
(-8.89446294e-12 0 0)
(-9.12130712e-12 0 0)
(-9.70851193e-12 0 0)
(-8.81372609e-12 0 0)
(-8.85054339e-12 0 0)
(-8.77168734e-12 0 0)
(-1.03305797e-11 0 0)
(-1.05367411e-11 0 0)
(-1.01946522e-11 0 0)
(-9.98012712e-12 0 0)
(-9.59532026e-12 0 0)
(-1.01391561e-11 0 0)
(-9.59349268e-12 0 0)
(-9.15658325e-12 0 0)
(-1.0157083e-11 0 0)
(-1.06954773e-11 0 0)
(-9.4454509e-12 0 0)
(-9.380118e-12 0 0)
(-1.02588589e-11 0 0)
(-1.04905054e-11 0 0)
(-9.41548601e-12 0 0)
(-1.01029888e-11 0 0)
(-9.38299881e-12 0 0)
(-9.55934688e-12 0 0)
(-9.38747051e-12 0 0)
(-1.0101537e-11 0 0)
(-9.8008352e-12 0 0)
(-1.06950619e-11 0 0)
(-9.3713621e-12 0 0)
(-9.75593411e-12 0 0)
(-1.122057e-11 0 0)
(-1.05503837e-11 0 0)
(-1.0180222e-11 0 0)
(-9.71271721e-12 0 0)
(-1.07232339e-11 0 0)
(-1.03378724e-11 0 0)
(-1.1416114e-11 0 0)
(-1.00070411e-11 0 0)
(-9.5606298e-12 0 0)
(-9.91064431e-12 0 0)
(-1.09461319e-11 0 0)
(-1.06010448e-11 0 0)
(-1.04780944e-11 0 0)
(-9.13116859e-12 0 0)
(-9.84730498e-12 0 0)
(-1.03642633e-11 0 0)
(-1.10200558e-11 0 0)
(-1.05744251e-11 0 0)
(-9.520389e-12 0 0)
(-9.83874868e-12 0 0)
(-1.05626136e-11 0 0)
(-1.07697828e-11 0 0)
(-1.04855026e-11 0 0)
(-1.08468506e-11 0 0)
(-1.03622976e-11 0 0)
(-1.08863814e-11 0 0)
(-1.03239537e-11 0 0)
(-1.06866906e-11 0 0)
(-9.98821854e-12 0 0)
(-9.48770953e-12 0 0)
(-1.0607379e-11 0 0)
(-1.04290114e-11 0 0)
(-9.94227131e-12 0 0)
(-1.0312649e-11 0 0)
(-9.85024191e-12 0 0)
(-1.03072671e-11 0 0)
(-1.0725866e-11 0 0)
(-1.05097695e-11 0 0)
(-1.06617035e-11 0 0)
(-1.17254081e-11 0 0)
(-1.12176123e-11 0 0)
(-1.08244858e-11 0 0)
(-1.09525284e-11 0 0)
(-1.17756056e-11 0 0)
(-1.22994816e-11 0 0)
(-1.16410816e-11 0 0)
(-1.29790481e-11 0 0)
(-1.14360072e-11 0 0)
(-1.16860346e-11 0 0)
(-1.25953954e-11 0 0)
(-1.23767852e-11 0 0)
(-1.2266889e-11 0 0)
(-1.19270162e-11 0 0)
(-1.14995669e-11 0 0)
(-1.20017431e-11 0 0)
(-1.11228835e-11 0 0)
(-1.19276979e-11 0 0)
(-1.19778236e-11 0 0)
(-1.12405523e-11 0 0)
(-1.17021569e-11 0 0)
(-1.11471371e-11 0 0)
(-1.22021062e-11 0 0)
(-1.10186529e-11 0 0)
(-1.13691197e-11 0 0)
(-1.1525775e-11 0 0)
(-1.10979897e-11 0 0)
(-1.04984115e-11 0 0)
(-1.13447982e-11 0 0)
(-1.07791387e-11 0 0)
(-1.13116018e-11 0 0)
(-1.08926714e-11 0 0)
(-1.15693757e-11 0 0)
(-1.15548632e-11 0 0)
(-1.1075562e-11 0 0)
(-1.11852834e-11 0 0)
(-1.07679676e-11 0 0)
(-1.13128038e-11 0 0)
(-1.19161242e-11 0 0)
(-1.20384843e-11 0 0)
(-1.14052414e-11 0 0)
(-1.17083489e-11 0 0)
(-1.25676347e-11 0 0)
(-1.15314216e-11 0 0)
(-1.21807654e-11 0 0)
(-1.20364012e-11 0 0)
(-1.1964956e-11 0 0)
(-1.1494739e-11 0 0)
(-1.19827739e-11 0 0)
(-1.11236657e-11 0 0)
(-1.08819756e-11 0 0)
(-1.15321271e-11 0 0)
(-1.14116146e-11 0 0)
(-1.09904048e-11 0 0)
(-1.12009384e-11 0 0)
(-1.21322042e-11 0 0)
(-1.16832958e-11 0 0)
(-1.09708e-11 0 0)
(-1.22557322e-11 0 0)
(-1.08944821e-11 0 0)
(-1.18930154e-11 0 0)
(-1.11647682e-11 0 0)
(-1.10816192e-11 0 0)
(-1.11697426e-11 0 0)
(-1.05223229e-11 0 0)
(-1.11867046e-11 0 0)
(-1.04216791e-11 0 0)
(-9.97631428e-12 0 0)
(-1.09693662e-11 0 0)
(-1.13090462e-11 0 0)
(-1.06456618e-11 0 0)
(-1.13733477e-11 0 0)
(-1.11069516e-11 0 0)
(-1.03569173e-11 0 0)
(-9.82616145e-12 0 0)
(-1.09759972e-11 0 0)
(-1.09497262e-11 0 0)
(-1.00672516e-11 0 0)