/*--------------------------------*- C++ -*----------------------------------*\
| =========                 |                                                 |
| \\      /  F ield         | OpenFOAM: The Open Source CFD Toolbox           |
|  \\    /   O peration     | Version:  2206                                  |
|   \\  /    A nd           | Website:  www.openfoam.com                      |
|    \\/     M anipulation  |                                                 |
\*---------------------------------------------------------------------------*/
FoamFile
{
    version     2.0;
    format      ascii;
    arch        "LSB;label=32;scalar=64";
    class       surfaceScalarField;
    location    "8.6e-06";
    object      phi;
}
// * * * * * * * * * * * * * * * * * * * * * * * * * * * * * * * * * * * * * //

dimensions      [1 0 -1 0 0 0 0];

oriented        oriented;

internalField   nonuniform List<scalar> 
3182
(
3.02962578e-18
-2.74617805e-18
5.61778357e-19
-1.17386846e-18
-1.14342957e-21
-1.09616991e-23
-7.9963515e-25
-2.28918856e-29
2.59235552e-25
9.44080947e-24
2.17160784e-22
9.35112213e-19
3.5929389e-18
-1.55818637e-18
7.92691214e-19
-7.29383157e-19
-1.53271651e-19
-3.59916229e-18
-3.87147487e-18
4.68793678e-18
2.92098768e-20
3.05954121e-22
5.01589228e-22
8.4376472e-19
2.3578144e-18
1.85018211e-18
3.3965399e-18
4.58376091e-19
-5.25759185e-19
-4.87315625e-19
-2.25651001e-18
-4.39042896e-18
-3.3059845e-18
-3.11879773e-18
-1.08635804e-18
2.03271957e-19
-5.9947666e-19
-1.13177329e-18
-2.78372793e-19
-4.12529471e-19
-1.84024722e-18
-2.21397644e-18
-1.4132385e-18
-1.19471087e-18
-1.2950469e-18
-1.41495936e-18
-1.08869247e-18
-1.08870659e-18
-9.79111861e-19
-3.20541026e-19
6.49395317e-19
1.21310594e-18
1.84612295e-18
3.36013077e-18
3.69059407e-18
4.13737023e-18
5.43196159e-18
5.64924926e-18
5.64960549e-18
6.73612384e-18
7.17430376e-18
7.59757487e-18
9.31828119e-18
1.10671691e-17
1.2629496e-17
1.3710378e-17
1.50112386e-17
1.60952574e-17
1.61146801e-17
1.69434563e-17
1.69622358e-17
1.70633939e-17
1.65586281e-17
1.56389396e-17
1.4762316e-17
1.47814894e-17
1.43258606e-17
1.44139158e-17
1.36355121e-17
1.33273859e-17
1.23815419e-17
1.11682566e-17
1.12029557e-17
9.33932415e-18
8.29408194e-18
7.63012232e-18
7.98378083e-18
7.09080522e-18
6.73135096e-18
7.32930516e-18
4.9790922e-18
4.17134396e-18
2.9099351e-18
3.75652548e-18
2.46642776e-18
-3.3438196e-19
-7.73509818e-19
1.60618967e-18
1.6489562e-18
-1.93008318e-18
-6.67985541e-19
-2.84906108e-18
-3.23338476e-18
-2.72914235e-18
-4.96323352e-18
-5.69772325e-18
-6.58761296e-18
-4.608039e-18
-5.3895418e-18
-4.34491262e-18
-7.59155254e-18
-5.31541598e-18
-7.10116753e-18
-4.68689192e-18
-5.42738244e-18
-4.9811051e-18
-7.98529907e-18
-6.35373303e-18
-1.10964439e-17
-1.00035422e-17
-7.02945823e-18
-4.91655283e-18
-6.32864923e-18
-9.28634946e-18
-6.67093931e-18
-1.22366875e-17
-9.90551212e-18
-1.15632875e-17
-8.51306278e-18
-1.35748048e-17
-1.1344547e-17
-1.3525921e-17
-1.40546864e-17
-1.42551544e-17
-1.41753083e-17
-1.52209896e-17
-1.64457682e-17
-1.70335171e-17
-1.78665601e-17
-1.6173362e-17
-2.0010027e-17
-1.95520007e-17
-1.77375559e-17
-1.92309398e-17
-1.77063333e-17
-1.88443228e-17
-2.12978174e-17
-2.00204551e-17
-2.28477186e-17
-2.38742856e-17
-2.51857464e-17
-2.53230354e-17
-2.60971722e-17
-2.52994958e-17
-2.5519521e-17
-2.29873395e-17
-2.3776966e-17
-2.33872938e-17
-2.39496773e-17
-2.47654031e-17
-2.55080333e-17
-2.47762891e-17
-2.64702285e-17
-2.49531357e-17
-2.40986132e-17
-2.70873517e-17
-2.58232053e-17
-2.64180687e-17
-2.6791564e-17
-2.36313314e-17
-2.7607891e-17
-2.5683679e-17
-2.86450965e-17
-3.15079203e-17
-3.12578638e-17
-3.23065613e-17
-3.38972564e-17
-3.23335825e-17
-3.5643682e-17
-3.73278688e-17
-3.39632959e-17
-3.67026474e-17
-3.87417424e-17
-3.97630766e-17
-4.26114131e-17
-3.96362371e-17
-3.92859935e-17
-3.62558655e-17
-3.77124606e-17
-3.9675102e-17
-3.95909624e-17
-3.63221887e-17
-3.71339856e-17
-3.93999691e-17
-3.79221701e-17
-4.21862222e-17
-4.49480183e-17
-4.46509839e-17
-4.54599136e-17
-4.73343079e-17
-4.71483288e-17
-4.68134302e-17
-4.68303892e-17
-4.40912062e-17
-4.45711742e-17
-4.50462379e-17
-4.64047118e-17
-4.62640137e-17
-4.48870571e-17
-4.55094074e-17
-5.01315849e-17
-5.03138654e-17
-4.81503409e-17
-4.70794423e-17
-4.68830904e-17
-4.68333576e-17
-5.02738496e-17
-5.28497234e-17
-5.26586347e-17
-4.87344267e-17
-5.29312155e-17
-5.51553634e-17
-5.84029698e-17
-5.5744982e-17
-5.64560159e-17
-5.82571138e-17
-5.54802731e-17
-5.40816628e-17
-5.65563659e-17
-5.24209983e-17
-5.38246247e-17
-5.39553433e-17
-4.96597762e-17
-4.92730937e-17
-4.94867232e-17
-4.64961971e-17
-5.11935091e-17
-5.20547716e-17
-5.33654569e-17
-5.28952902e-17
-5.45163077e-17
-5.73430458e-17
-5.84435861e-17
-5.88729865e-17
-5.86761284e-17
-5.74310179e-17
-5.81210055e-17
-5.94627199e-17
-6.18778887e-17
-6.1699599e-17
-6.48440046e-17
-6.57224629e-17
-6.45926759e-17
-6.70475617e-17
-6.73302666e-17
-6.25524705e-17
-6.30450125e-17
-6.56110761e-17
-6.44952095e-17
-6.40422122e-17
-6.34775151e-17
-6.57650499e-17
-6.35951616e-17
-6.30265371e-17
-6.3683552e-17
-6.24958693e-17
-6.18363436e-17
-6.00869039e-17
-6.09462367e-17
-5.99157516e-17
-6.28997955e-17
-6.183824e-17
-6.12670518e-17
-6.2014146e-17
-6.72326542e-17
-6.37763585e-17
-6.60576311e-17
-6.80474641e-17
-6.90200747e-17
-6.84376155e-17
-6.71801897e-17
-6.7988665e-17
-7.03679064e-17
-7.17260807e-17
-7.30085052e-17
-7.46287243e-17
-7.55476901e-17
-7.61543732e-17
-7.5289705e-17
-7.56383911e-17
-7.48304625e-17
-7.71113671e-17
-7.81978794e-17
-7.78869892e-17
-7.84313898e-17
-7.71637002e-17
-7.59353576e-17
-7.48935606e-17
-7.68840099e-17
-7.75201957e-17
-7.87968583e-17
-7.88040816e-17
-7.68366388e-17
-7.99877814e-17
-8.00687683e-17
-8.09953285e-17
-8.38078826e-17
-8.17985619e-17
-8.34324964e-17
-8.29369749e-17
-8.27660817e-17
-8.53408479e-17
-8.60292514e-17
-8.48768695e-17
-8.64560763e-17
-8.76655507e-17
-8.98245172e-17
-8.98976792e-17
-8.85578302e-17
-9.00880424e-17
-8.86871597e-17
-8.82832922e-17
-8.81860535e-17
-8.69434237e-17
-8.69487238e-17
-8.51430245e-17
-8.33383552e-17
-8.18770228e-17
-8.55436213e-17
-8.3712556e-17
-8.61193658e-17
-8.45891401e-17
-8.35355107e-17
-8.00502032e-17
-7.92398449e-17
-8.17184153e-17
-7.88567903e-17
-7.911974e-17
-7.9884963e-17
-7.72884125e-17
-7.58933894e-17
-7.80169013e-17
-7.84476961e-17
-8.04675532e-17
-8.40514963e-17
-8.15388042e-17
-8.43930894e-17
-8.71078966e-17
-8.58895993e-17
-8.79048092e-17
-8.56287059e-17
-8.47697187e-17
-8.22683066e-17
-8.65146891e-17
-8.26559641e-17
-8.64827548e-17
-8.38337934e-17
-8.29729894e-17
-8.41080443e-17
-8.40061727e-17
-8.06557759e-17
-7.99362826e-17
-8.34855212e-17
-8.52777612e-17
-8.16949084e-17
-8.48001693e-17
-8.15016922e-17
-8.19222152e-17
-7.93416893e-17
-8.4529116e-17
-8.34859835e-17
-8.07665679e-17
-8.05514614e-17
-7.84991167e-17
-7.84996365e-17
-7.78379927e-17
-7.64147125e-17
-7.60886743e-17
-7.63313505e-17
-7.72057509e-17
-7.38136893e-17
-7.14807277e-17
-6.58347685e-17
-6.68353287e-17
-6.55377923e-17
-6.85759608e-17
-6.76917629e-17
-6.31965977e-17
-6.47444922e-17
-6.4879162e-17
-6.42673773e-17
-6.40782737e-17
-6.19548285e-17
-6.3222949e-17
-5.65119295e-17
-6.0801054e-17
-5.73816638e-17
-5.5138645e-17
-5.27103624e-17
-5.37244943e-17
-5.22772079e-17
-5.48695921e-17
-5.28052562e-17
-5.31720788e-17
-5.45159635e-17
-5.44802389e-17
-5.23933538e-17
-5.18233418e-17
-5.39433588e-17
-5.17866681e-17
-4.87551976e-17
-4.88635957e-17
-4.53346752e-17
-4.84266183e-17
-4.66254623e-17
-4.77569845e-17
-4.74634293e-17
-4.93630622e-17
-4.61930543e-17
-4.9006805e-17
-5.05343296e-17
-5.05208218e-17
-4.96528291e-17
-5.02484796e-17
-5.30131472e-17
-5.20438364e-17
-5.27171308e-17
-4.88199051e-17
-4.749653e-17
-4.66353157e-17
-4.62695518e-17
-4.46012505e-17
-4.65453401e-17
-4.19495468e-17
-4.54423796e-17
-4.46212496e-17
-4.23563785e-17
-4.41570582e-17
-4.01249284e-17
-4.04024651e-17
-3.86207922e-17
-3.65865179e-17
-3.94755178e-17
-3.94431605e-17
-3.70199788e-17
-3.95378765e-17
-3.4233449e-17
-3.64119689e-17
-3.919991e-17
-3.79703699e-17
-3.9336991e-17
-3.83137203e-17
-3.78947046e-17
-3.60659706e-17
-3.33361336e-17
-3.37900969e-17
-3.41817257e-17
-3.26790234e-17
-3.59716606e-17
-3.72604339e-17
-3.20993456e-17
-3.29283608e-17
-2.87468944e-17
-3.17546172e-17
-2.99309605e-17
-3.09083545e-17
-2.63878213e-17
-2.65011532e-17
-2.80721e-17
-2.97440125e-17
-3.11916448e-17
-3.30553152e-17
-3.17259059e-17
-2.88805912e-17
-2.91624473e-17
-2.78520768e-17
-2.7748099e-17
-3.10091196e-17
-2.90842611e-17
-2.88412295e-17
-2.68279079e-17
-2.80284317e-17
-2.42695217e-17
-2.37804125e-17
-2.36320338e-17
-2.10094475e-17
-2.25341074e-17
-2.29809468e-17
-2.07728909e-17
-2.06011162e-17
-1.57542598e-17
-1.51678607e-17
-1.3823994e-17
-1.44345974e-17
-1.26641579e-17
-1.78742502e-17
-1.54212385e-17
-1.4302035e-17
-1.62860568e-17
-1.3102252e-17
-1.20798252e-17
-1.56286531e-17
-1.76968755e-17
-1.79390306e-17
-1.41191994e-17
-1.25325726e-17
-1.39091732e-17
-1.0513781e-17
-1.21011414e-17
-7.74215019e-18
-6.33911922e-18
-9.73310466e-18
-6.30325092e-18
-1.00340746e-17
-7.15904827e-18
-1.0031418e-17
-6.88891945e-18
-8.01638071e-18
-8.82144104e-18
-1.23329582e-17
-1.23260803e-17
-1.2224691e-17
-7.92797591e-18
-1.06990368e-17
-8.13771862e-18
-8.80805438e-18
-8.14490552e-18
-6.70800058e-18
-7.45528393e-18
-9.20123119e-18
-1.27678168e-17
-1.1898353e-17
-1.13033884e-17
-7.34684494e-18
-6.19518553e-18
-4.3214151e-18
-6.16066517e-18
-6.89896039e-18
-6.75170447e-18
-3.02114977e-18
-4.05592063e-18
-2.58389597e-18
-3.70195608e-18
-3.38050712e-18
-2.67013448e-18
-4.32196748e-18
-9.57268568e-19
-8.51731173e-19
-1.00021705e-19
1.89025568e-18
2.97346286e-18
3.87330876e-18
8.81233615e-18
8.37220262e-18
8.93327822e-18
8.63111803e-18
8.36803104e-18
1.00403027e-17
6.32446662e-18
4.40791128e-18
6.8644698e-18
1.01555355e-17
1.01054968e-17
1.1038408e-17
1.01176728e-17
1.05534615e-17
1.46165924e-17
1.33085397e-17
1.52409315e-17
1.08459624e-17
1.40690546e-17
1.35509684e-17
1.58301675e-17
1.42507835e-17
1.62041206e-17
1.4402945e-17
1.28545275e-17
1.35233018e-17
1.51939762e-17
1.67800578e-17
1.75908901e-17
2.22110226e-17
2.03243454e-17
2.00655945e-17
2.38307402e-17
2.05440548e-17
2.48725961e-17
2.88693196e-17
2.70185047e-17
2.88050094e-17
2.83365811e-17
3.00810067e-17
2.7648829e-17
2.80205048e-17
2.92831415e-17
2.95064558e-17
2.90601326e-17
2.98833431e-17
2.58823341e-17
2.70456155e-17
2.77942793e-17
2.82915381e-17
2.8277948e-17
2.84283366e-17
2.5717482e-17
2.93642789e-17
2.65516205e-17
2.24995774e-17
2.25853699e-17
2.19645682e-17
1.85973469e-17
2.04039574e-17
1.90742459e-17
2.15596043e-17
2.19968078e-17
2.45735821e-17
2.30320366e-17
2.52688601e-17
2.78239155e-17
2.61526668e-17
2.60265064e-17
2.74467765e-17
2.47656477e-17
2.40492495e-17
2.48474059e-17
2.32740573e-17
2.49192624e-17
2.60116984e-17
2.48748309e-17
2.49458053e-17
2.30261162e-17
2.55410449e-17
2.88175334e-17
2.69376136e-17
2.65619606e-17
2.856638e-17
2.47148623e-17
2.30893251e-17
2.58865585e-17
2.38485557e-17
2.12691767e-17
2.09248912e-17
1.85290405e-17
2.04566917e-17
1.97200697e-17
1.84915724e-17
2.15149711e-17
2.38610468e-17
2.41667117e-17
2.39807009e-17
2.5178865e-17
2.28075741e-17
2.54087602e-17
2.28026236e-17
2.06013494e-17
2.4325441e-17
1.97147095e-17
2.13792305e-17
2.09410292e-17
2.0526971e-17
2.34516177e-17
2.30293265e-17
2.08784836e-17
2.01963582e-17
2.20125316e-17
2.26552245e-17
2.48720857e-17
2.47587513e-17
2.61347565e-17
2.48472801e-17
2.67490399e-17
2.6722522e-17
2.52826061e-17
2.85831844e-17
2.29994039e-17
2.70828991e-17
2.77372103e-17
2.74312483e-17
2.78033498e-17
2.8953729e-17
3.16702727e-17
3.41705666e-17
3.35722371e-17
3.31076146e-17
3.2500247e-17
2.98264374e-17
3.28864248e-17
3.22304362e-17
3.61347112e-17
3.59461112e-17
3.51884878e-17
3.42618602e-17
3.61422827e-17
3.65102214e-17
3.62700862e-17
3.71547215e-17
3.79419525e-17
3.64963487e-17
3.86980155e-17
4.01525795e-17
3.62911807e-17
3.7882402e-17
3.66934274e-17
3.64031386e-17
4.00083989e-17
3.71462517e-17
3.3781277e-17
3.57553783e-17
3.59575192e-17
3.24538829e-17
3.1959678e-17
3.20782725e-17
3.31357565e-17
3.45479339e-17
3.00158624e-17
3.04467742e-17
2.65640313e-17
2.86640644e-17
2.39882244e-17
2.78169757e-17
3.06731362e-17
3.19988316e-17
2.97994482e-17
3.04717587e-17
3.25318779e-17
3.24988215e-17
3.18087373e-17
3.0303821e-17
3.07830595e-17
3.08755306e-17
3.27295917e-17
2.71816853e-17
2.6019473e-17
2.68113983e-17
2.94449534e-17
2.79415519e-17
3.12751754e-17
3.03744623e-17
2.83807861e-17
3.01114202e-17
2.90156906e-17
2.32221976e-17
2.42772395e-17
2.30665574e-17
2.52219677e-17
2.51333704e-17
2.31736921e-17
2.36241281e-17
2.53742678e-17
2.28163405e-17
2.38819324e-17
2.36414773e-17
2.43313106e-17
2.57282917e-17
2.43119894e-17
2.44008029e-17
2.33210582e-17
2.13021941e-17
1.78364802e-17
1.80644843e-17
1.54933159e-17
1.60435077e-17
1.54866667e-17
1.95065334e-17
1.7876628e-17
2.07630877e-17
1.64083771e-17
1.74924812e-17
1.58452811e-17
1.72697066e-17
1.76849292e-17
2.05279797e-17
2.27936173e-17
1.9853584e-17
2.50314052e-17
2.56721098e-17
2.20454368e-17
2.48074162e-17
2.6913493e-17
2.61947803e-17
2.68953129e-17
2.67853654e-17
2.82748277e-17
2.4737216e-17
2.28793142e-17
2.48193412e-17
2.16967986e-17
2.33560977e-17
2.17388077e-17
2.36084322e-17
2.17100793e-17
2.45559253e-17
2.32452127e-17
2.23147666e-17
2.42576399e-17
2.51693495e-17
2.52493984e-17
2.47548656e-17
2.32180002e-17
2.51447802e-17
2.5508593e-17
2.48827547e-17
2.60039558e-17
2.31370849e-17
2.36528761e-17
2.34749631e-17
2.43554989e-17
2.88536266e-17
2.82125149e-17
2.66578664e-17
2.62812616e-17
2.56347922e-17
2.62364402e-17
2.66433068e-17
2.92661895e-17
2.77966152e-17
2.59576648e-17
2.55618773e-17
2.4178768e-17
2.54526403e-17
2.30267708e-17
2.40921094e-17
2.30946669e-17
2.34440613e-17
2.62535752e-17
2.64472806e-17
2.65085186e-17
2.52689586e-17
2.31481698e-17
2.29946222e-17
2.59442552e-17
2.50580832e-17
2.48694049e-17
2.76569703e-17
2.45300893e-17
2.30988706e-17
2.37751468e-17
2.39149157e-17
2.6068138e-17
2.50579646e-17
2.35220079e-17
2.45588011e-17
2.54188033e-17
2.61049635e-17
2.73981162e-17
2.5275196e-17
2.65000133e-17
2.51694067e-17
2.66799272e-17
2.85287222e-17
3.05880479e-17
2.91012733e-17
2.85107169e-17
2.91584992e-17
2.93585755e-17
2.89117926e-17
2.99862292e-17
3.15060958e-17
3.21832404e-17
3.48239915e-17
3.28449343e-17
3.34568144e-17
3.10764621e-17
3.27498067e-17
3.4101959e-17
3.23890946e-17
3.27190255e-17
3.46398967e-17
3.18407257e-17
3.29839676e-17
3.26672162e-17
3.34307497e-17
3.01786312e-17
3.11910474e-17
3.157831e-17
3.34331928e-17
3.34410264e-17
3.4883051e-17
3.49468187e-17
3.43980628e-17
3.55756656e-17
3.42305054e-17
3.70965392e-17
3.46151486e-17
3.72439743e-17
3.67384319e-17
3.7933701e-17
4.01055194e-17
3.89503732e-17
4.12070369e-17
4.07596335e-17
4.10797478e-17
4.22316228e-17
4.51163394e-17
4.37174855e-17
4.34635855e-17
4.44477947e-17
4.68059511e-17
4.56622438e-17
4.57891274e-17
4.48341128e-17
4.24630838e-17
4.37952446e-17
4.26096425e-17
3.96943594e-17
4.07723072e-17
3.95805505e-17
4.23256924e-17
4.30734565e-17
4.44276993e-17
4.61806619e-17
4.64793794e-17
4.81624991e-17
4.52380324e-17
4.49838167e-17
4.57339009e-17
4.72227554e-17
4.62501486e-17
4.75040243e-17
4.95409808e-17
4.70790408e-17
4.72991406e-17
4.84419576e-17
5.05482253e-17
5.05961957e-17
5.2728129e-17
5.35641064e-17
5.39745578e-17
5.22001968e-17
5.3467343e-17
5.38512084e-17
5.42692942e-17
5.21951337e-17
5.24685468e-17
5.43925151e-17
5.02554516e-17
5.40150148e-17
5.18753502e-17
5.19868483e-17
5.06540154e-17
4.72870518e-17
4.76974134e-17
5.00086395e-17
4.62651877e-17
4.65717063e-17
4.51824708e-17
4.85661429e-17
5.00006185e-17
5.11222993e-17
4.88051032e-17
4.80716477e-17
4.73805738e-17
4.72197673e-17
4.5266466e-17
4.541497e-17
4.16696431e-17
3.93933723e-17
4.22535371e-17
4.39998454e-17
4.26302164e-17
4.21354867e-17
4.40177582e-17
4.72549783e-17
4.56889505e-17
4.32690219e-17
4.24373865e-17
4.19070036e-17
4.24033825e-17
4.30498505e-17
4.20716788e-17
4.54190091e-17
4.64395143e-17
4.51004079e-17
4.41196685e-17
4.70057343e-17
5.00743874e-17
5.05477253e-17
4.85869265e-17
4.81383011e-17
5.02394913e-17
4.75784663e-17
5.15521158e-17
4.96272255e-17
5.05552005e-17
5.12223913e-17
4.97847251e-17
5.49378788e-17
5.40571152e-17
5.5016333e-17
5.67407899e-17
5.38323955e-17
5.54745948e-17
5.53562478e-17
5.35458771e-17
5.64882662e-17
5.71845509e-17
5.84002225e-17
5.54654389e-17
5.04583545e-17
4.89926428e-17
5.15612915e-17
4.79219282e-17
5.00174985e-17
4.72418341e-17
4.76492341e-17
4.6839795e-17
5.02086411e-17
4.39639537e-17
4.4746993e-17
4.10947506e-17
3.74884023e-17
3.80752499e-17
3.52890791e-17
3.49815425e-17
3.71643842e-17
3.27255017e-17
3.86017348e-17
3.60553945e-17
3.69241544e-17
3.60084855e-17
3.50753741e-17
3.28285663e-17
3.41235931e-17
3.01879778e-17
3.17367508e-17
2.91582865e-17
3.06554192e-17
3.09081608e-17
3.07764349e-17
2.98299295e-17
2.4961381e-17
2.69403692e-17
2.37969081e-17
1.88283691e-17
1.85159114e-17
1.84882828e-17
1.60048055e-17
1.4968557e-17
1.47420504e-17
1.13807476e-17
1.18268155e-17
9.92182598e-18
1.27852328e-17
1.31775385e-17
1.46314822e-17
1.56750724e-17
1.64393601e-17
1.40652161e-17
1.43155815e-17
1.49065587e-17
1.53182703e-17
1.52084779e-17
1.44468863e-17
1.25001361e-17
1.21290526e-17
9.56223628e-18
1.12406763e-17
1.02016034e-17
6.96490876e-18
7.35366675e-18
8.29351139e-18
7.18078405e-18
6.52446991e-18
8.25425315e-18
6.77122114e-18
6.72386916e-18
6.93916012e-18
7.43338586e-18
1.01061707e-17
8.50484769e-18
5.29011229e-18
4.65438945e-18
3.94452389e-18
6.47742233e-18
4.67673025e-18
5.7617056e-18
4.17751101e-18
4.75757086e-18
4.10806355e-18
3.58481652e-18
1.35671123e-20
1.81839889e-18
1.15540371e-18
1.85177686e-20
1.85300197e-18
4.04299209e-18
2.62364029e-18
4.39444546e-19
1.54312622e-18
1.66211524e-18
-1.68954987e-19
1.90826444e-18
1.55383255e-18
3.24543313e-18
9.21631335e-19
1.83540232e-19
4.94558616e-19
-1.78850793e-18
1.74651264e-18
-1.52212976e-18
-7.3790632e-19
-3.95667309e-18
-2.79077995e-18
-2.66748756e-18
-2.94290843e-18
-3.3905528e-18
-3.97764878e-18
-6.06549014e-18
-4.91434031e-18
-4.90329576e-18
-6.50169844e-18
-7.67770564e-18
-4.34498773e-18
-7.7152542e-18
-6.80910138e-18
-5.81774087e-18
-7.97635708e-18
-1.05086511e-17
-1.28083161e-17
-1.20329426e-17
-1.24195051e-17
-1.56363352e-17
-2.01947927e-17
-1.97338625e-17
-1.99914329e-17
-1.78944306e-17
-1.71043108e-17
-2.10412325e-17
-1.98659887e-17
-2.04538161e-17
-2.00799554e-17
-2.03559343e-17
-2.47377637e-17
-2.29300663e-17
-2.53025221e-17
-2.39283256e-17
-2.53186197e-17
-2.15671688e-17
-2.14975409e-17
-2.01169147e-17
-1.89733155e-17
-1.88440762e-17
-1.72341655e-17
-2.03185043e-17
-2.23857496e-17
-1.87791911e-17
-1.89902944e-17
-1.9222123e-17
-2.0517813e-17
-2.16519394e-17
-1.92602132e-17
-1.8892061e-17
-2.12759636e-17
-1.8911745e-17
-1.71618657e-17
-1.92525586e-17
-1.96620226e-17
-2.12313246e-17
-2.04915371e-17
-2.17915049e-17
-2.47060392e-17
-2.26795503e-17
-2.35053402e-17
-2.1468467e-17
-2.06874823e-17
-1.97045402e-17
-1.80825038e-17
-1.81762232e-17
-1.65846009e-17
-1.58899461e-17
-1.92605229e-17
-1.95886111e-17
-1.95527161e-17
-1.90820652e-17
-2.30594521e-17
-2.3055151e-17
-2.51972704e-17
-2.30711415e-17
-2.28475354e-17
-2.34929039e-17
-2.21540396e-17
-2.40503157e-17
-2.337443e-17
-2.66742222e-17
-2.5144261e-17
-2.43138199e-17
-2.16540239e-17
-2.23530943e-17
-2.38178367e-17
-2.17400575e-17
-2.70309023e-17
-3.17992945e-17
-3.24525814e-17
-2.77830998e-17
-2.89488277e-17
-3.15923044e-17
-3.19282963e-17
-3.71072353e-17
-4.03081694e-17
-3.81731619e-17
-4.2466802e-17
-4.44062357e-17
-4.22950165e-17
-3.9964098e-17
-4.22145851e-17
-3.89581378e-17
-4.08393588e-17
-4.06588894e-17
-4.0395648e-17
-4.33441992e-17
-4.45079908e-17
-4.1529822e-17
-3.89227912e-17
-3.87589138e-17
-3.69332389e-17
-3.97804451e-17
-3.98042128e-17
-3.87299556e-17
-3.68251883e-17
-3.60520366e-17
-3.83798015e-17
-3.91021787e-17
-4.12369424e-17
-4.36771467e-17
-4.48355897e-17
-4.40156265e-17
-4.32315931e-17
-4.25744221e-17
-4.67392898e-17
-4.31138034e-17
-4.68066408e-17
-4.07886182e-17
-4.20139875e-17
-4.35421275e-17
-4.30904516e-17
-4.00621225e-17
-3.80247779e-17
-4.1033881e-17
-4.19580681e-17
-4.32133459e-17
-4.22741475e-17
-4.54495551e-17
-4.65009933e-17
-4.99825121e-17
-5.00050782e-17
-5.00004658e-17
-4.60450442e-17
-4.86519159e-17
-4.62241841e-17
-4.63152512e-17
-4.87449864e-17
-5.20441018e-17
-5.07643703e-17
-4.70299689e-17
-4.56149226e-17
-4.30608013e-17
-4.36032941e-17
-4.80066948e-17
-4.99829414e-17
-4.78834923e-17
-4.96927188e-17
-4.91074192e-17
-4.4651783e-17
-4.54105346e-17
-4.58868355e-17
-4.38718032e-17
-4.658933e-17
-4.64379213e-17
-4.52711797e-17
-4.30772968e-17
-4.26327002e-17
-4.13375519e-17
-4.14385562e-17
-3.92707334e-17
-4.18338628e-17
-4.34595211e-17
-4.15791301e-17
-4.56270324e-17
-4.63295828e-17
-4.56605707e-17
-4.49982267e-17
-4.13974666e-17
-4.37196788e-17
-4.1954476e-17
-4.05700784e-17
-4.09717491e-17
-4.23238235e-17
-4.23095856e-17
-4.56646163e-17
-4.41816782e-17
-4.17858679e-17
-4.29148746e-17
-4.01726546e-17
-4.09254794e-17
-4.08690731e-17
-4.01407418e-17
-3.78007127e-17
-4.12345668e-17
-3.95713843e-17
-4.30854512e-17
-4.27589686e-17
-4.08137622e-17
-4.10322193e-17
-4.02296964e-17
-3.74939472e-17
-3.70334501e-17
-3.64865311e-17
-3.43869056e-17
-3.2003113e-17
-3.27367465e-17
-2.91689017e-17
-2.8769042e-17
-2.6324533e-17
-2.48166551e-17
-2.75463655e-17
-2.83302594e-17
-2.81653923e-17
-3.01251054e-17
-2.80563195e-17
-2.73616027e-17
-2.79336976e-17
-2.766826e-17
-2.85911877e-17
-2.84023711e-17
-3.00146551e-17
-2.86323716e-17
-2.97840453e-17
-2.82724369e-17
-3.08068179e-17
-2.72063622e-17
-2.81723131e-17
-3.12851875e-17
-3.26747055e-17
-2.74345139e-17
-3.14174323e-17
-3.20583993e-17
-2.77141712e-17
-2.93867642e-17
-2.78511387e-17
-2.81069619e-17
-2.65427058e-17
-2.90843955e-17
-3.13039792e-17
-3.17432998e-17
-2.913389e-17
-2.88308639e-17
-2.91078911e-17
-3.2439512e-17
-2.94328585e-17
-3.03406365e-17
-2.80511637e-17
-2.97574674e-17
-3.09363584e-17
-2.91571121e-17
-2.9865512e-17
-2.87789375e-17
-2.99731139e-17
-2.91760053e-17
-2.91499996e-17
-3.11921119e-17
-3.17891143e-17
-2.79869351e-17
-2.78512868e-17
-3.01438627e-17
-2.9649685e-17
-2.89987939e-17
-2.83345402e-17
-2.72699149e-17
-2.98404209e-17
-3.41553574e-17
-3.20650115e-17
-3.00494943e-17
-2.95024515e-17
-2.90100676e-17
-2.60762326e-17
-2.99179255e-17
-2.84736619e-17
-2.89744513e-17
-3.04250839e-17
-3.08337743e-17
-2.76086235e-17
-2.78365779e-17
-3.05511685e-17
-3.36644222e-17
-3.37399781e-17
-3.13075619e-17
-3.27921912e-17
-3.41369679e-17
-3.57028824e-17
-3.55129228e-17
-3.32093983e-17
-3.22230371e-17
-3.34367764e-17
-3.36998805e-17
-3.25481424e-17
-3.30138957e-17
-3.16625092e-17
-3.02085599e-17
-3.21917931e-17
-3.3024455e-17
-3.48967105e-17
-3.65386544e-17
-3.51397966e-17
-3.69872728e-17
-3.62711329e-17
-3.58561623e-17
-3.29142868e-17
-3.24333503e-17
-3.25739804e-17
-3.0532918e-17
-3.1833216e-17
-3.21514844e-17
-3.03940271e-17
-2.97973051e-17
-3.25948927e-17
-2.99843666e-17
-2.86134957e-17
-3.17271492e-17
-2.98053817e-17
-2.98073645e-17
-2.73316994e-17
-2.94682296e-17
-2.8671558e-17
-2.98209623e-17
-3.142283e-17
-2.75779543e-17
-2.87075428e-17
-3.045324e-17
-3.08076765e-17
-3.05301435e-17
-3.27470497e-17
-3.10043487e-17
-2.88489254e-17
-2.95989719e-17
-3.00830823e-17
-3.1771298e-17
-3.5204311e-17
-3.48017832e-17
-3.3135446e-17
-3.62739606e-17
-3.88193932e-17
-3.79927263e-17
-3.48034355e-17
-3.24244742e-17
-2.94077947e-17
-2.69686492e-17
-2.56065652e-17
-2.70428618e-17
-2.69256701e-17
-2.86283016e-17
-3.05857554e-17
-3.03379648e-17
-3.23108819e-17
-3.00668626e-17
-3.37592894e-17
-3.34853536e-17
-3.42837546e-17
-3.17545807e-17
-3.27170467e-17
-2.71167876e-17
-2.8700206e-17
-2.78382866e-17
-3.10123787e-17
-2.7717798e-17
-3.20326502e-17
-3.07433923e-17
-3.08459735e-17
-3.13103806e-17
-3.48722626e-17
-3.34729191e-17
-3.54073815e-17
-3.57201237e-17
-3.41325452e-17
-3.42278886e-17
-3.51274379e-17
-3.49588847e-17
-3.08089122e-17
-3.1680924e-17
-3.56588125e-17
-3.20038677e-17
-3.25634655e-17
-3.05479103e-17
-3.29584112e-17
-2.97743685e-17
-3.09566336e-17
-3.04846684e-17
-3.34042124e-17
-3.17429588e-17
-3.49769439e-17
-3.58902109e-17
-3.63846038e-17
-3.69582349e-17
-3.43178398e-17
-3.62079661e-17
-3.6399545e-17
-3.69494357e-17
-3.81377004e-17
-3.6622991e-17
-3.60255987e-17
-3.83142226e-17
-3.88477449e-17
-3.81218016e-17
-3.68750218e-17
-3.71440036e-17
-3.44827166e-17
-3.65008942e-17
-3.23494866e-17
-3.38191735e-17
-3.07358596e-17
-3.47363308e-17
-3.39602333e-17
-3.38580984e-17
-3.05907544e-17
-2.66115811e-17
-2.7680625e-17
-2.84241365e-17
-2.80097783e-17
-2.82694189e-17
-2.8877758e-17
-2.94310876e-17
-3.00229062e-17
-3.07786401e-17
-3.40142954e-17
-3.3139828e-17
-3.33364477e-17
-3.16249403e-17
-3.39971759e-17
-3.36784895e-17
-3.21785758e-17
-3.08689239e-17
-2.69390202e-17
-2.94246546e-17
-3.02968548e-17
-2.77186527e-17
-3.017965e-17
-2.83265831e-17
-3.04910732e-17
-2.87696128e-17
-2.50207847e-17
-2.58428073e-17
-2.65387222e-17
-2.97426548e-17
-2.91675214e-17
-2.94328529e-17
-2.76586903e-17
-2.68256395e-17
-2.56467137e-17
-2.32197318e-17
-2.17902852e-17
-2.12948696e-17
-2.35857636e-17
-2.25823209e-17
-2.19355073e-17
-2.11719367e-17
-2.21064723e-17
-1.91941159e-17
-1.75007062e-17
-1.86110667e-17
-1.76947574e-17
-2.16835813e-17
-2.10790569e-17
-1.90120209e-17
-1.8454514e-17
-1.94548165e-17
-2.03533757e-17
-1.93388512e-17
-2.01860475e-17
-2.11802922e-17
-2.29907806e-17
-2.38267263e-17
-2.34422528e-17
-2.59667411e-17
-2.51309942e-17
-2.52770487e-17
-2.20252106e-17
-2.04534015e-17
-1.94860736e-17
-1.75643761e-17
-1.7039327e-17
-1.71277338e-17
-1.78222496e-17
-1.54702674e-17
-1.82525385e-17
-1.51035214e-17
-1.62932326e-17
-1.79250196e-17
-1.46666627e-17
-1.38050561e-17
-1.3898725e-17
-1.84467161e-17
-1.59934657e-17
-1.97343907e-17
-2.10039302e-17
-2.22300354e-17
-1.76335544e-17
-2.1205117e-17
-1.62320655e-17
-1.70256408e-17
-1.70986042e-17
-1.98530141e-17
-2.11190346e-17
-2.07876727e-17
-2.17045626e-17
-2.28050389e-17
-2.11400305e-17
-2.35832816e-17
-2.33682383e-17
-2.45253333e-17
-2.04652486e-17
-2.16681659e-17
-2.2849731e-17
-2.25204927e-17
-2.32364505e-17
-2.08943152e-17
-2.28395003e-17
-2.61182341e-17
-2.34367631e-17
-2.46211417e-17
-2.0487434e-17
-1.87497373e-17
-1.94027639e-17
-2.08252853e-17
-2.01363444e-17
-1.76551646e-17
-1.93272705e-17
-1.66026439e-17
-1.81704966e-17
-1.71628964e-17
-1.67590755e-17
-1.68308237e-17
-1.70566816e-17
-1.65124654e-17
-1.58704454e-17
-1.65448203e-17
-1.75055953e-17
-1.72746022e-17
-1.59482393e-17
-1.37751973e-17
-1.43353805e-17
-1.3483637e-17
-9.68039959e-18
-4.65251603e-18
-2.87526576e-18
-2.64406111e-18
-2.41632974e-18
-2.0749804e-19
-2.49747274e-18
-6.69295131e-19
-1.20508659e-18
-4.65954199e-18
-3.44235384e-18
-3.8232812e-18
-4.44183776e-18
-3.62587615e-18
-2.71067093e-18
-2.51827498e-18
-2.01336221e-18
-1.56521958e-18
9.00061291e-19
5.17247448e-18
6.84814764e-18
8.57187305e-18
5.78513214e-18
5.84005759e-18
6.41134118e-18
6.19949506e-18
4.75770129e-18
6.48496756e-18
8.09882339e-18
8.98191021e-18
9.84084065e-18
6.99829305e-18
9.80141195e-18
6.00836273e-18
8.12087858e-18
8.43554557e-18
9.93321723e-18
9.79605491e-18
1.14690913e-17
8.54584591e-18
5.84311456e-18
4.72129148e-18
4.73183994e-18
6.31040266e-18
1.00097206e-17
8.29536864e-18
7.85139368e-18
1.18940647e-17
1.11002496e-17
1.35484994e-17
1.1882799e-17
1.1197456e-17
1.16711506e-17
1.24084396e-17
1.2711439e-17
1.49781352e-17
1.62610083e-17
1.95874569e-17
2.19612771e-17
2.53339452e-17
2.88170592e-17
2.42934924e-17
2.75041242e-17
2.38569007e-17
2.68024488e-17
2.68393497e-17
2.27756263e-17
2.11521046e-17
2.51850116e-17
2.51977577e-17
2.51249825e-17
2.514952e-17
2.56871754e-17
2.44160392e-17
2.64992147e-17
2.94961634e-17
2.86027081e-17
2.785677e-17
2.92881532e-17
2.88669897e-17
2.87427745e-17
2.80765622e-17
2.36899274e-17
2.47918608e-17
2.30582893e-17
2.40813916e-17
2.64453239e-17
2.64645621e-17
2.43403258e-17
2.62629572e-17
2.68438814e-17
2.63928034e-17
2.62158596e-17
2.44540141e-17
2.40145221e-17
2.48038564e-17
3.11460572e-17
3.15950143e-17
3.06509008e-17
3.0617076e-17
2.91742636e-17
3.41679738e-17
3.54846745e-17
3.75363873e-17
3.85084849e-17
4.22833727e-17
4.09449549e-17
4.08972863e-17
4.27332985e-17
4.50128927e-17
4.42008103e-17
4.41312699e-17
4.34053155e-17
4.35885266e-17
4.39242852e-17
4.4719517e-17
4.43311636e-17
4.54371331e-17
4.24289318e-17
4.49991482e-17
4.27254811e-17
4.25890798e-17
4.83716386e-17
5.02004507e-17
5.0752612e-17
4.69087961e-17
4.68045454e-17
4.70383407e-17
4.77333427e-17
4.72479958e-17
4.91073958e-17
5.02295801e-17
5.46416837e-17
5.54803738e-17
5.56107279e-17
5.87671168e-17
5.56746375e-17
5.51395476e-17
5.74936047e-17
5.88652752e-17
5.75665404e-17
6.00315202e-17
5.87812154e-17
5.89364341e-17
5.86643472e-17
5.81943853e-17
6.00790229e-17
6.21567445e-17
6.37118047e-17
6.47709219e-17
6.29221194e-17
6.44173298e-17
6.52522236e-17
6.5606313e-17
6.43456061e-17
6.59920585e-17
6.32116094e-17
6.38992649e-17
6.45233405e-17
6.62684734e-17
6.82744193e-17
6.97950016e-17
7.06234211e-17
7.11543568e-17
7.40852113e-17
7.33095715e-17
7.29892503e-17
7.38688118e-17
7.43986492e-17
7.2283189e-17
7.48661733e-17
7.58104254e-17
7.52771917e-17
7.6366325e-17
7.25055858e-17
7.48307182e-17
7.47437353e-17
8.10695918e-17
7.8607709e-17
8.17242833e-17
8.08136766e-17
8.24027371e-17
8.33807074e-17
8.29590472e-17
8.43603885e-17
8.28533837e-17
8.33323036e-17
8.2522635e-17
8.5908232e-17
8.16099823e-17
8.26107755e-17
8.15144111e-17
8.10219798e-17
8.13731847e-17
7.97553917e-17
7.80208368e-17
7.68535756e-17
7.89875158e-17
7.98285325e-17
8.12322571e-17
8.1559266e-17
8.01840904e-17
8.02687356e-17
8.35324977e-17
8.66177336e-17
8.49662235e-17
8.55477655e-17
8.41679867e-17
8.421338e-17
8.5673196e-17
8.72911867e-17
8.54421973e-17
8.50916358e-17
8.36500049e-17
8.06356435e-17
8.03700089e-17
8.21903139e-17
7.87284186e-17
7.99175879e-17
8.22522914e-17
8.23112291e-17
8.09539044e-17
8.12878116e-17
8.07201338e-17
8.01908927e-17
8.17830521e-17
8.18321999e-17
8.4031866e-17
8.20734672e-17
8.26897431e-17
8.59844107e-17
8.57845777e-17
8.88390791e-17
8.82512338e-17
8.71942719e-17
8.94353577e-17
9.01597913e-17
8.83146236e-17
8.78400891e-17
8.94405204e-17