/*--------------------------------*- C++ -*----------------------------------*\
| =========                 |                                                 |
| \\      /  F ield         | OpenFOAM: The Open Source CFD Toolbox           |
|  \\    /   O peration     | Version:  2206                                  |
|   \\  /    A nd           | Website:  www.openfoam.com                      |
|    \\/     M anipulation  |                                                 |
\*---------------------------------------------------------------------------*/
FoamFile
{
    version     2.0;
    format      ascii;
    arch        "LSB;label=32;scalar=64";
    class       volScalarField;
    location    "8.6e-06";
    object      PVsourcePV;
}
// * * * * * * * * * * * * * * * * * * * * * * * * * * * * * * * * * * * * * //

dimensions      [1 -3 -1 0 0 0 0];

internalField   nonuniform List<scalar> 
3183
(
0
0
0
0
0
0
0
0
0
0
0
0
0
0
0
0
0
0
0
0
0
0
0
0
0
0
0
0
0
0
0
0
0
0
0
0
0
0
0
0
0
0
0
0
0
0
0
0
0
0
0
0
0
0
0
0
0
0
0
0
0
0
0
0
0
0
0
0
0
0
0
0
0
0
0
0
0
0
0
0
0
0
0
0
0
0
0
0
0
0
0
0
0
0
0
0
0
0
0
0
0
0
0
0
0
0
0
0
0
0
0
0
0
0
0
0
0
0
0
0
0
0
0
0
0
0
0
0
0
0
0
0
0
0
0
0
0
0
0
0
0
0
0
0
0
0
0
0
0
0
0
0
0
0
0
0
0
0
0
0
0
0
0
0
0
0
0
0
0
0
0
0
0
0
0
0
0
0
0
0
0
0
0
0
0
0
0
0
0
0
0
0
0
0
0
0
0
0
0
0
0
0
0
0
0
0
0
0
0
0
0
0
0
0
0
0
0
0
0
0
0
0
0
0
0
0
0
0
0
0
0
0
0
0
0
0
0
0
0
0
0
0
0
0
0
0
0
0
0
0
0
0
0
0
0
0
0
0
0
0
0
0
0
0
0
0
0
0
0
0
0
0
0
0
0
0
0
0
0
0
0
0
0
0
0
0
0
0
0
0
0
0
0
0
0
0
0
0
0
0
0
0
0
0
0
0
0
0
0
0
0
0
0
0
0
0
0
0
0
0
0
0
0
0
0
0
0
0
0
0
0
0
0
0
0
0
0
0
0
0
0
0
0
0
0
0
0
0
0
0
0
0
0
0
0
0
0
0
0
0
0
0
0
0
0
0
0
0
0
0
0
0
0
0
0
0
0
0
0
0
0
0
0
0
0
0
0
0
0
0
0
0
0
0
0
0
0
0
0
0
0
0
0
0
0
0
0
0
0
0
0
0
0
0
0
0
0
0
0
0
0
0
0
0
0
0
0
0
0
0
0
0
0
0
0
0
0
0
0
0
0
0
0
0
0
0
0
0
0
0
0
0
0
0
0
0
0
0
0
0
0
0
0
0
0
0
0
0
0
0
0
0
0
0
0
0
0
0
0
0
0
0
0
0
0
0
0
0
0
0
0
0
0
0
0
0
0
0
0
0
0
0
0
0
0
0
0
0
0
0
0
0
0
0
0
0
0
0
0
0
0
0
0
0
0
0
0
0
0
0
0
0
0
0
0
0
0
0
0
0
0
0
0
0
0
0
0
0
0
0
0
0
0
0
0
0
0
0
0
0
0
0
0
0
0
0
0
0
0
0
0
0
0
0
0
0
0
0
0
0
0
0
0
0
0
0
0
0
0
0
0
0
0
0
0
0
0
0
0
0
0
0
0
0
0
0
0
0
0
0
0
0
0
0
0
0
0
0
0
0
0
0
0
0
0
0
0
0
0
0
0
0
0
0
0
0
0
0
0
0
0
0
0
0
0
0
0
0
0
0
0
0
0
0
0
0
0
0
0
0
0
0
0
0
0
0
0
0
0
0
0
0
0
0
0
0
0
0
0
0
0
0
0
0
0
0
0
0
0
0
0
0
0
0
0
0
0
0
0
0
0
0
0
0
0
0
0
0
0
0
0
0
0
0
0
0
0
0
0
0
0
0
0
0
0
0
0
0
0
0
0
0
0
0
0
0
0
0
0
0
0
0
0
0
0
0
0
0
0
0
0
0
0
0
0
0
0
0
0
0
0
0
0
0
0
0
0
0
0
0
0
0
0
0
0
0
0
0
0
0
0
0
0
0
0
0
0
0
0
0
0
0
0
0
0
0
0
0
0
0
0
0
0
0
0
0
0
0
0
0
0
0
0
0
0
0
0
0
0
0
0
0
0
0
0
0
0
0
0
0
0
0
0
0
0
0
0
0
0
0
0
0
0
0
0
0
0
0
0
0
0
0
0
0
0
0
0
0
0
0
0
0
0
0
0
0
0
0
0
0
0
0
0
0
0
0
0
0
0
0
0
0
0
0
0
0
0
0
0
0
0
0
0
0
0
0
0
0
0
0
0
0
0
0
0
0
0
0
0
0
0
0
0
0
0
0
0
0
0
0
0
0
0
0
0
0
0
0
0
0
0
0
0
0
0
0
0
0
0
0
0
0
0
0
0
0
0
0
0
0
0
0
0
0
0
0
0
0
0
0
0
0
0
0
0
0
0
0
0
0
0
0
0
0
0
0
0
0
0
0
0
0
0
0
0
0
0
0
0
0
0
0
0
0
0
0
0
0
0
0
0
0
0
0
0
0
0
0
0
0
0
0
0
0
0
0
0
0
0
0
0
0
0
0
0
0
0
0
0
0
0
0
0
0
0
0
0
0
0
0
0
0
0
0
0
0
0
0
0
0
0
0
0
0
0
0
0
0
0
0
0
0
0
0
0
0
0
0
0
0
0
0
0
0
0
0
0
0
0
0
0
0
0
0
0
0
0
0
0
0
0
0
0
0
0
0
0
0
0
0
0
0
0
0
0
0
0
0
0
0
0
0
0
0
0
0
0
0
0
0
0
0
0
0
0
0
0
0
0
0
0
0
0
0
0
0
0
0
0
0
0
0
0
0
0
0
0
0
0
0
0
0
0
0
0
0
0
0
0
0
0
0
0
0
0
0
0
0
0
0
0
0
0
0
0
0
0
0
0
0
0
0
0
0
0
0
0
0
0
0
0
0
0
0
0
0
0
0
0
0
0
0
0
0
0
0
0
0
0
0
0
0
0
0
0
0
0
0
0
0
0
0
0
0
0
0
0
0
0
0
0
0
0
0
0
0
0
0
0
0
0
0
0
0
0
0
0
0
0
0
0
0
0
0
0
0
0
0
0
0
0
0
0
0
0
0
0
0
0
0
0
0
0
0
0
0
0
0
0
0
0
0
0
0
0
0
0
0
0
0
0
0
0
0
0
0
0
0
0
0
0
0
0
0
0
0
0
0
0
0
0
0
0
0
0
0
0
0
0
0
0
0
0
0
0
0
0
0
0
0
0
0
0
0
0
0
0
0
0
0
0
0
0
0
0
0
0
0
0
0
0
0
0
0
0
0
0
0
0
0
0
0
0
0
0
0
0
0
0
0
0
0
0
0
0
0
0
0
0
0
0
0
0
0
0
0
0
0
0
0
0
0
0
0
0
0
0
0
0
0
0
0
0
0
0
0
0
0
0
0
0
0
0
0
0
0
0
0
0
0
0
0
0
0
0
0
0
0
0
0
0
0
0
0
0
0
0
0
0
0
0
0
0
0
0
0
0
0
0
0
0
0
0
0
0
0
0
0
0
0
0
0
0
0
0
0
0
0
0
0
0
0
0
0
0
0
0
0
0
0
0
0
0
0
0
0
0
0
0
0
0
0
0
0
0
0
0
0
0
0
0
0
0
0
0
0
0
0
0
0
0
0
0
0
0
0
0
0
0
0
0
0
0
0
0
0
0
0
0
0
0
0
0
0
0
0
0
0
0
0
0
0
0
0
0
0
0
0
0
0
0
0
0
0
0
0
0
0
0
0
0
0
0
0
0
0
0
0
0
0
0
0
0
0
0
0
0
0
0
0
0
0
0
0
0
0
0
0
0
0
0
0
0
0
0
0
0
0
0
0
0
0
0
0
0
0
0
0
0
0
0
0
0
0
0
0
0
0
0
0
0
0
0
0
0
0
0
0
0
0
0
0
0
0
0
0
0
0
0
0
0
0
0
0
0
0
0
0
0
0
0
0
0
0
0
0
0
0
0
0
0
0
0
0
0
0
0
0
0
0
0
0
0
0
0
0
0
0
0
0
0
0
0
0
0
0
0
0
0
0
0
0
0
0
0
0
0
0
0
0
0
0
0
0
0
0
0
0
0
0
0
0
0
0
0
0
0
0
0
0
0
0
0
0
0
0
0
0
0
0
0
0
0
0
0
0
0
0
0
0
0
0
0
0
0
0
0
0
0
0
0
0
0
0
0
0
0
0
0
0
0
0
0
0
0
0
0
0
0
0
0
0
0
0
0
0
0
0
0
0
0
0
0
0
0
0
0
0
0
0
0
0
0
0
0
0
0
0
0
0
0
0
0
0
0
0
0
0
0
0
0
0
0
0
0
0
0
0
0
0
0
0
0
0
0
0
0
0
0
0
0
0
0
0
0
0
0
0
0
0
0
0
0
0
0
0
0
0
0
0
0
0
0
0
0
0
0
0
0
0
0
0
0
0
0
0
0
0
0
0
0
0
0
0
0
0
0
0
0
0
0
0
0
0
0
0
0
0
0
0
0
0
0
0
0
0
0
0
0
0
0
0
0
0
0
0
0
0
0
0
0
0
0
0
0
0
0
0
0
0
0
0
0
0
0
0
0
0
0
0
0
0
0
0
0
0
0
0
0
0
0
0
0
0
0
0
0
0
0
0
0
0
0
0
0
0
0
0
0
0
0
0
0
0
0
0
0
0
0
0
0
0
0
0
0
0
0
0
0
0
0
0
0
0
0
0
0
0
0
0
0
0
0
0
0
0
0
0
0
0
0
0
0
0
0
0
0
0
0
0
0
0
0
0
0
0
0
0
0
0
0
0
0
0
0
0
0
0
0
0
0
0
0
0
0
0
0
0
0
0
0
0
0
0
0
0
0
0
0
0
0
0
0
0
0
0
0
0
0
0
0
0
0
0
0
0
0
0
0
0
0
0
0
0
0
0
0
0
0
0
0
0
0
0
0
0
0
0
0
0
0
0
0
0
0
0
0
0
0
0
0
0
0
0
0
0
0
0
0
0
0
0
0
0
0
0
0
0
0
0
0
0
0
0
0
0
0
0
0
0
0
0
0
0
0
0
0
0
0
0
0
0
0
0
0
0
0
0
0
0
0
0
0
0
0
0
0
0
0
0
0
0
0
0
0
0
0
0
0
0
0
0
0
0
0
0
0
0
0
0
0
0
0
0
0
0
0
0
0
0
0
0
0
0
0
0
0
0
0
0
0
0
0
0
0
0
0
0
0
0
0
0
0
0
0
0
0
0
0
0
0
0
0
0
0
0
0
0
0
0
0
0
0
0
0
0
0
0
0
0
0
0
0
0
0
0
0
0
0
0
0
0
0
0
0
0
0
0
0
0
0
0
0
0
0
0
0
0
0
0
0
0
0
0
0
0
0
0
0
0
0
0
0
0
0
0
0
0
0
0
0
0
0
0
0
0
0
0
0
0
0
0
0
0
0
0
0
0
0
0
0
0
0
0
0
0
0
0
0
0
0
0
0
0
0
0
0
0
0
0
0
0
0
0
0
0
0
0
0
0
0
0
0
0
0
0
0
0
0
0
0
0
0
0
0
0
0
0
0
0
0
0
0
0
0
0
0
0
0
0
0
0
0
0
0
0
0
0
0
0
0
0
0
0
0
1.45678374e-299
0
2.34553974e-296
0
3.63134298e-293
0
5.41560195e-290
0
7.79257408e-287
0
1.0834319e-283
0
1.45740823e-280
0
1.89906654e-277
0
2.39967897e-274
0
2.94343297e-271
0
3.50785098e-268
0
4.06518008e-265
0
4.5846571e-262
0
5.03538929e-259
0
5.38946353e-256
0
5.6248397e-253
0
5.72760838e-250
0
5.69329588e-247
0
5.52705744e-244
0
5.24277984e-241
0
4.86127978e-238
0
4.40790522e-235
7.43991775e-237
3.90990389e-232
1.477053e-233
3.39391375e-229
1.95744761e-230
2.88386518e-226
2.21079761e-227
2.39948262e-223
2.27507136e-224
1.95546013e-220
2.19425523e-221
1.56128029e-217
2.01278169e-218
1.22156714e-214
1.77125067e-215
9.36817311e-212
1.50366308e-212
7.04341185e-209
1.23611471e-209
5.19259758e-206
9.867081e-207
3.75436118e-203
7.6634058e-204
2.66260965e-200
5.80008518e-201
1.85252212e-197
4.28309491e-198
1.26462703e-194
3.08899776e-195
8.47145324e-192
2.17751282e-192
5.5692626e-189
1.50131887e-189
3.59355717e-186
1.01296018e-186
2.27602083e-183
6.69142886e-184
1.41509477e-180
4.32933361e-181
8.63734777e-178
2.74436369e-178
5.17587875e-175
1.70491051e-175
3.04519504e-172
1.03825258e-172
1.75908712e-169
6.19914713e-170
9.9772321e-167
3.62961102e-167
5.55632936e-164
2.08423393e-164
3.03823374e-161
1.17392039e-161
1.63119248e-158
6.48595246e-159
8.5986646e-156
3.5154368e-156
4.45025496e-153
1.86927739e-153
2.26124966e-150
9.75140485e-151
1.12797326e-147
4.99070161e-148
5.52341788e-145
2.50582827e-145
2.65486884e-142
1.23430681e-142
1.25246787e-139
5.96426089e-140
5.79876702e-137
2.8269898e-137
2.63452433e-134
1.3142903e-134
1.17439125e-131
5.99261145e-132
5.13580359e-129
2.67947642e-129
2.20304921e-126
1.17472683e-126
9.26807083e-124
5.04909892e-124
3.82319743e-121
2.12721046e-121
1.54615363e-118
8.78311634e-119
6.1288148e-116
3.55338806e-116
2.38067666e-113
1.40831127e-113
9.05980473e-111
5.46656476e-111
3.37689908e-108
2.07768277e-108
1.23246848e-105
7.7298803e-106
4.40312021e-103
2.81426704e-103
1.53932707e-100
1.00234408e-100
5.26423272e-98
3.49121378e-98
1.76039431e-95
1.1887257e-95
5.75413853e-93
3.95510068e-93
1.83762909e-90
1.2853336e-90
5.73112888e-88
4.07806338e-88
1.74465491e-85
1.26256481e-85
5.18121451e-83
3.8122372e-83
1.50021594e-80
1.12196472e-80
4.2325666e-78
3.2164587e-78
1.16275322e-75
8.97595461e-76
3.10804275e-73
2.43650529e-73
8.07714001e-71
6.42823117e-71
2.03903943e-68
1.64693599e-68
4.99556443e-66
4.09367831e-66
1.18656487e-63
9.86179995e-64
2.7293702e-61
2.29993959e-61
6.07249612e-59
5.18632778e-59
1.30503816e-56
1.12927396e-56
2.70512792e-54
2.37075459e-54
5.39945364e-52
4.79076289e-52
1.0359021e-49
9.30157444e-50
1.90638998e-47
1.73161772e-47
3.35767103e-45
3.08384585e-45
5.64520233e-43
5.24024203e-43
9.03369376e-41
8.47126166e-41
1.37133026e-38
1.29843096e-38
1.96712937e-36
1.87964357e-36
2.654521e-34
2.55831182e-34
3.35201271e-32
3.25643312e-32
3.93601722e-30
3.85203073e-30
4.26517531e-28
4.20207648e-28
4.22558166e-26
4.1874948e-26
3.78281685e-24
3.76422922e-24
3.01424683e-22
3.00414254e-22
2.09549908e-20
2.04253205e-20
1.23662445e-18
1.20928577e-18
5.94309475e-17
5.91985536e-17
2.17922295e-15
2.1817381e-15
1.13768494e-11
1.17742465e-11
0.035266283
0.117730554
0.767478068
0.755701117
0.275540981
0.223921078
0.0300174311
0.0264629314
0.00466766675
0.00435021557
0.00062955375
0.000616251196
7.75501355e-05
7.74844256e-05
9.24764917e-06
9.27882248e-06
1.55402122e-06
1.55591728e-06
7.60882294e-07
7.61455438e-07
6.86599389e-07
6.86589106e-07
6.80048239e-07
6.80049344e-07
6.79517899e-07
6.79518012e-07
6.7947735e-07
6.79477691e-07
6.7947306e-07
6.79474875e-07
6.79473531e-07
6.79474835e-07
6.79472672e-07
6.79475847e-07
6.79472616e-07
6.7947402e-07
6.79473741e-07
6.79472677e-07
6.79474185e-07
6.79473462e-07
6.79473895e-07
6.79473141e-07
6.79474742e-07
6.79473477e-07
6.79474205e-07
6.79473622e-07
6.7947482e-07
6.79473749e-07
6.79474169e-07
6.79473201e-07
6.79474184e-07
6.79473205e-07
6.7947467e-07
6.79472983e-07
6.7947422e-07
6.79474442e-07
6.79473804e-07
6.79474244e-07
6.79473675e-07
6.79473852e-07
6.79473321e-07
6.79474001e-07
6.7947387e-07
6.79473773e-07
6.79474269e-07
6.79473182e-07
6.79474187e-07
6.79473587e-07
6.79473598e-07
6.79472931e-07
6.79473705e-07
6.79473218e-07
6.79473283e-07
6.79473895e-07
6.79472942e-07
6.79475038e-07
6.79473047e-07
6.79474936e-07
6.7947411e-07
6.79474214e-07
6.79473718e-07
6.79474626e-07
6.79473284e-07
6.79474845e-07
6.79473447e-07
6.79474282e-07
6.79473939e-07
6.79473216e-07
6.79474026e-07
6.79473104e-07
6.79474615e-07
6.79473934e-07
6.7947418e-07
6.79473846e-07
6.79474943e-07
6.79474112e-07
6.79473525e-07
6.79473953e-07
6.79474585e-07
6.79474111e-07
6.79474387e-07
6.7947409e-07
6.79474421e-07
6.79474834e-07
6.79473774e-07
6.79473694e-07
6.79474268e-07
6.79474486e-07
6.79473809e-07
6.79474362e-07
6.79473694e-07
6.79473009e-07
6.79473907e-07
6.79474127e-07
6.79473679e-07
6.79474252e-07
6.79474058e-07
6.79474234e-07
6.7947399e-07
6.79474261e-07
6.79473688e-07
6.79474429e-07
6.79473701e-07
6.79474951e-07
6.79473418e-07
6.79474345e-07
6.79473421e-07
6.79474821e-07
6.79473455e-07
6.79475105e-07
6.79473632e-07
6.79474336e-07
6.79474773e-07
6.79475182e-07
6.79475245e-07
6.79473957e-07
6.7947557e-07
6.79473678e-07
6.79474691e-07
6.79473242e-07
6.79474571e-07
6.7947334e-07
6.79473808e-07
6.79473835e-07
6.79474031e-07
6.79474059e-07
6.7947392e-07
6.79473804e-07
6.79474308e-07
6.79474164e-07
6.79474782e-07
6.79472619e-07
6.79475533e-07
6.79473619e-07
6.79474745e-07
6.79474345e-07
6.79474464e-07
6.79473765e-07
6.79474889e-07
6.79474874e-07
6.79475286e-07
6.79473661e-07
6.79475206e-07
6.79473998e-07
6.79475533e-07
6.79474362e-07
6.79474451e-07
6.79474345e-07
6.79474371e-07
6.79473859e-07
6.79474811e-07
6.79473449e-07
6.79474212e-07
6.79473962e-07
6.79474747e-07
6.79474217e-07
6.79474655e-07
6.79474783e-07
6.79474208e-07
6.79475463e-07
6.79475045e-07
6.79475518e-07
6.79475342e-07
6.79475022e-07
6.79475022e-07
6.79474786e-07
6.79474388e-07
6.79474606e-07
6.79474417e-07
6.79474927e-07
6.79474958e-07
6.794741e-07
6.79475184e-07
6.79474749e-07
6.79475455e-07
6.79474533e-07
6.7947474e-07
6.79474416e-07
6.79475042e-07
6.79473829e-07
6.79475426e-07
6.79474272e-07
6.79474834e-07
6.7947411e-07
6.79474678e-07
6.79474658e-07
6.79474595e-07
6.7947478e-07
6.79475343e-07
6.79474897e-07
6.79475224e-07
6.79474417e-07
6.794756e-07
6.79475113e-07
6.79474485e-07
6.79474913e-07
6.79474586e-07
6.79474916e-07
6.79474664e-07
6.79475205e-07
6.79474589e-07
6.79475503e-07
6.79473797e-07
6.79474911e-07
6.79474435e-07
6.794741e-07
6.79475068e-07
6.7947512e-07
6.79474779e-07
6.79475826e-07
6.79474852e-07
6.79474902e-07
6.79475232e-07
6.79475694e-07
6.79474876e-07
6.79474869e-07
6.79475176e-07
6.79475617e-07
6.79475441e-07
6.79475527e-07
6.79475101e-07
6.79476061e-07
6.79475003e-07
6.79474972e-07
6.79474892e-07
6.79475957e-07
6.79474729e-07
6.79475245e-07
6.79474347e-07
6.79475111e-07
6.79474908e-07
6.79475206e-07
6.79475233e-07
6.79474933e-07
6.79474489e-07
6.79475484e-07
6.79474831e-07
6.79475831e-07
6.79475292e-07
6.7947439e-07
6.79475921e-07
6.79475252e-07
6.79475531e-07
6.79474926e-07
6.79476305e-07
6.79474635e-07
6.79475334e-07
6.79474671e-07
6.79475457e-07
6.79474302e-07
6.79475885e-07
6.79474561e-07
6.79474664e-07
6.79475885e-07
6.79474763e-07
6.79476195e-07
6.79474795e-07
6.79475471e-07
6.79475402e-07
6.79474714e-07
6.79475896e-07
6.7947468e-07
6.79475429e-07
6.7947522e-07
6.7947512e-07
6.79474438e-07
6.79475247e-07
6.79474454e-07
6.79475137e-07
6.79475505e-07
6.79474582e-07
6.79475163e-07
6.79475273e-07
6.79475243e-07
6.79475319e-07
6.79474508e-07
6.79474715e-07
6.79475861e-07
6.79475789e-07
6.7947551e-07
6.79475237e-07
6.79475305e-07
6.79475033e-07
6.79475721e-07
6.79474989e-07
6.79475727e-07
6.79475638e-07
6.79475508e-07
6.79475825e-07
6.79475621e-07
6.79476042e-07
6.79475398e-07
6.79475492e-07
6.79475402e-07
6.79475256e-07
6.79475574e-07
6.79476298e-07
6.79474134e-07
6.79476954e-07
6.79474673e-07
6.79476437e-07
6.79474964e-07
6.79475845e-07
6.79475567e-07
6.79475387e-07
6.79475271e-07
6.79475804e-07
6.79475484e-07
6.79475472e-07
6.79475991e-07
6.79475455e-07
6.79475579e-07
6.79475344e-07
6.79475359e-07
6.79475263e-07
6.79475145e-07
6.79476476e-07
6.79475418e-07
6.79474802e-07
6.79476308e-07
6.79475024e-07
6.79475493e-07
6.79475472e-07
6.79475826e-07
6.79475488e-07
6.79476383e-07
6.79475275e-07
6.79475691e-07
6.7947561e-07
6.79475515e-07
6.79475894e-07
6.79476362e-07
6.79475171e-07
6.79475362e-07
6.79476373e-07
6.79474624e-07
6.79476682e-07
6.79475655e-07
6.79475316e-07
6.7947578e-07
6.79476173e-07
6.79474999e-07
6.79476594e-07
6.7947538e-07
6.79475404e-07
6.79476386e-07
6.79475382e-07
6.79476778e-07
6.79475828e-07
6.79477106e-07
6.79476042e-07
6.7947637e-07
6.79475805e-07
6.79476602e-07
6.79475478e-07
6.79476236e-07
6.79475379e-07
6.79476051e-07
6.79475985e-07
6.79475607e-07
6.79476304e-07
6.79476118e-07
6.79476294e-07
6.79476101e-07
6.79475885e-07
6.79474714e-07
6.79476115e-07
6.79475807e-07
6.79475399e-07
6.79476478e-07
6.79475692e-07
6.79476055e-07
6.7947587e-07
6.79476152e-07
6.79476102e-07
6.79476274e-07
6.79476692e-07
6.79476352e-07
6.79475824e-07
6.79476016e-07
6.79475962e-07
6.7947644e-07
6.79475378e-07
6.794774e-07
6.79475384e-07
6.79476811e-07
6.79475577e-07
6.79477074e-07
6.79476188e-07
6.79476629e-07
6.79476387e-07
6.79476509e-07
6.79476491e-07
6.79476321e-07
6.79476617e-07
6.79476384e-07
6.79476477e-07
6.79476183e-07
6.79476418e-07
6.79476243e-07
6.79476195e-07
6.79476961e-07
6.79475968e-07
6.79476754e-07
6.79476502e-07
6.79476426e-07
6.79477035e-07
6.79476418e-07
6.79476151e-07
6.79477299e-07
6.79476306e-07
6.79476517e-07
6.79476777e-07
6.79477312e-07
6.7947713e-07
6.79476737e-07
6.79476842e-07
6.79477599e-07
6.79476524e-07
6.79477378e-07
6.79476136e-07
6.79477126e-07
6.79476079e-07
6.79476991e-07
6.79477558e-07
6.79476161e-07
6.79476604e-07
6.794776e-07
6.79477059e-07
6.79476384e-07
6.79476685e-07
6.79476691e-07
6.79476824e-07
6.79476371e-07
6.79476857e-07
6.79477524e-07
6.79476314e-07
6.79476803e-07
6.79476349e-07
6.7947675e-07
6.79476615e-07
6.79477416e-07
6.79476212e-07
6.79477105e-07
6.79476668e-07
6.79477831e-07
6.79477256e-07
6.79476759e-07
6.79476917e-07
6.79477093e-07
6.79477749e-07
6.79476583e-07
6.79476503e-07
6.79478093e-07
6.79475217e-07
6.79478571e-07
6.79475762e-07
6.79477253e-07
6.79476467e-07
6.79477082e-07
6.79476361e-07
6.79477339e-07
6.79476826e-07
6.7947687e-07
6.79476664e-07
6.79476849e-07
6.79477505e-07
6.79476447e-07
6.79477387e-07
6.79476874e-07
6.7947761e-07
6.79477377e-07
6.794773e-07
6.79477103e-07
6.79478469e-07
6.7947611e-07
6.79477726e-07
6.79476437e-07
6.79478176e-07
6.79475883e-07
6.79477971e-07
6.79476536e-07
6.79478268e-07
6.79476996e-07
6.79477436e-07
6.79477425e-07
6.79477229e-07
6.79477633e-07
6.79477488e-07
6.7947724e-07
6.79477469e-07
6.79477381e-07
6.79477602e-07
6.79477724e-07
6.79477743e-07
6.79477724e-07
6.79477425e-07
6.79477671e-07
6.79477572e-07
6.79477489e-07
6.794778e-07
6.79477787e-07
6.79477792e-07
6.79477794e-07
6.79477802e-07
6.79477795e-07
6.7947791e-07
6.79477936e-07
6.79477939e-07
6.79478005e-07
6.79477991e-07
6.79478078e-07
6.79478125e-07
6.79478097e-07
6.79478175e-07
6.79478196e-07
6.79478155e-07
6.79478186e-07
6.7947822e-07
6.79478252e-07
6.79478241e-07
6.79478236e-07
6.79478267e-07
6.79478247e-07
6.7947825e-07
6.79478259e-07
6.7947826e-07
6.7947823e-07
6.79478266e-07
6.79478243e-07
6.79478253e-07
6.79478252e-07
6.79478257e-07
6.79478254e-07
6.79478268e-07
6.79478256e-07
6.79478255e-07
6.79478244e-07
6.79478235e-07
6.79478262e-07
6.79478244e-07
6.79478254e-07
6.79478257e-07
6.79478247e-07
6.79478262e-07
6.79478256e-07
6.79478256e-07
6.79478266e-07
6.7947825e-07
6.79478263e-07
6.79478244e-07
6.79478262e-07
6.79478257e-07
6.79478249e-07
6.79478261e-07
6.79478244e-07
6.79478244e-07
6.79478271e-07
)
;

boundaryField
{
    closed
    {
        type            calculated;
        value           uniform 0;
    }
    open
    {
        type            calculated;
        value           uniform 0;
    }
    sides
    {
        type            empty;
    }
}


// ************************************************************************* //
