/*--------------------------------*- C++ -*----------------------------------*\
| =========                 |                                                 |
| \\      /  F ield         | OpenFOAM: The Open Source CFD Toolbox           |
|  \\    /   O peration     | Version:  2206                                  |
|   \\  /    A nd           | Website:  www.openfoam.com                      |
|    \\/     M anipulation  |                                                 |
\*---------------------------------------------------------------------------*/
FoamFile
{
    version     2.0;
    format      ascii;
    arch        "LSB;label=32;scalar=64";
    class       volScalarField;
    location    "8.6e-06";
    object      sourcePV;
}
// * * * * * * * * * * * * * * * * * * * * * * * * * * * * * * * * * * * * * //

dimensions      [1 -3 -1 0 0 0 0];

internalField   nonuniform List<scalar> 
3183
(
0
0
0
0
0
0
0
0
0
0
0
0
0
0
0
0
0
0
0
0
0
0
0
0
0
0
0
0
0
0
0
0
0
0
0
0
0
0
0
0
0
0
0
0
0
0
0
0
0
0
0
0
0
0
0
0
0
0
0
0
0
0
0
0
0
0
0
0
0
0
0
0
0
0
0
0
0
0
0
0
0
0
0
0
0
0
0
0
0
0
0
0
0
0
0
0
0
0
0
0
0
0
0
0
0
0
0
0
0
0
0
0
0
0
0
0
0
0
0
0
0
0
0
0
0
0
0
0
0
0
0
0
0
0
0
0
0
0
0
0
0
0
0
0
0
0
0
0
0
0
0
0
0
0
0
0
0
0
0
0
0
0
0
0
0
0
0
0
0
0
0
0
0
0
0
0
0
0
0
0
0
0
0
0
0
0
0
0
0
0
0
0
0
0
0
0
0
0
0
0
0
0
0
0
0
0
0
0
0
0
0
0
0
0
0
0
0
0
0
0
0
0
0
0
0
0
0
0
0
0
0
0
0
0
0
0
0
0
0
0
0
0
0
0
0
0
0
0
0
0
0
0
0
0
0
0
0
0
0
0
0
0
0
0
0
0
0
0
0
0
0
0
0
0
0
0
0
0
0
0
0
0
0
0
0
0
0
0
0
0
0
0
0
0
0
0
0
0
0
0
0
0
0
0
0
0
0
0
0
0
0
0
0
0
0
0
0
0
0
0
0
0
0
0
0
0
0
0
0
0
0
0
0
0
0
0
0
0
0
0
0
0
0
0
0
0
0
0
0
0
0
0
0
0
0
0
0
0
0
0
0
0
0
0
0
0
0
0
0
0
0
0
0
0
0
0
0
0
0
0
0
0
0
0
0
0
0
0
0
0
0
0
0
0
0
0
0
0
0
0
0
0
0
0
0
0
0
0
0
0
0
0
0
0
0
0
0
0
0
0
0
0
0
0
0
0
0
0
0
0
0
0
0
0
0
0
0
0
0
0
0
0
0
0
0
0
0
0
0
0
0
0
0
0
0
0
0
0
0
0
0
0
0
0
0
0
0
0
0
0
0
0
0
0
0
0
0
0
0
0
0
0
0
0
0
0
0
0
0
0
0
0
0
0
0
0
0
0
0
0
0
0
0
0
0
0
0
0
0
0
0
0
0
0
0
0
0
0
0
0
0
0
0
0
0
0
0
0
0
0
0
0
0
0
0
0
0
0
0
0
0
0
0
0
0
0
0
0
0
0
0
0
0
0
0
0
0
0
0
0
0
0
0
0
0
0
0
0
0
0
0
0
0
0
0
0
0
0
0
0
0
0
0
0
0
0
0
0
0
0
0
0
0
0
0
0
0
0
0
0
0
0
0
0
0
0
0
0
0
0
0
0
0
0
0
0
0
0
0
0
0
0
0
0
0
0
0
0
0
0
0
0
0
0
0
0
0
0
0
0
0
0
0
0
0
0
0
0
0
0
0
0
0
0
0
0
0
0
0
0
0
0
0
0
0
0
0
0
0
0
0
0
0
0
0
0
0
0
0
0
0
0
0
0
0
0
0
0
0
0
0
0
0
0
0
0
0
0
0
0
0
0
0
0
0
0
0
0
0
0
0
0
0
0
0
0
0
0
0
0
0
0
0
0
0
0
0
0
0
0
0
0
0
0
0
0
0
0
0
0
0
0
0
0
0
0
0
0
0
0
0
0
0
0
0
0
0
0
0
0
0
0
0
0
0
0
0
0
0
0
0
0
0
0
0
0
0
0
0
0
0
0
0
0
0
0
0
0
0
0
0
0
0
0
0
0
0
0
0
0
0
0
0
0
0
0
0
0
0
0
0
0
0
0
0
0
0
0
0
0
0
0
0
0
0
0
0
0
0
0
0
0
0
0
0
0
0
0
0
0
0
0
0
0
0
0
0
0
0
0
0
0
0
0
0
0
0
0
0
0
0
0
0
0
0
0
0
0
0
0
0
0
0
0
0
0
0
0
0
0
0
0
0
0
0
0
0
0
0
0
0
0
0
0
0
0
0
0
0
0
0
0
0
0
0
0
0
0
0
0
0
0
0
0
0
0
0
0
0
0
0
0
0
0
0
0
0
0
0
0
0
0
0
0
0
0
0
0
0
0
0
0
0
0
0
0
0
0
0
0
0
0
0
0
0
0
0
0
0
0
0
0
0
0
0
0
0
0
0
0
0
0
0
0
0
0
0
0
0
0
0
0
0
0
0
0
0
0
0
0
0
0
0
0
0
0
0
0
0
0
0
0
0
0
0
0
0
0
0
0
0
0
0
0
0
0
0
0
0
0
0
0
0
0
0
0
0
0
0
0
0
0
0
0
0
0
0
0
0
0
0
0
0
0
0
0
0
0
0
0
0
0
0
0
0
0
0
0
0
0
0
0
0
0
0
0
0
0
0
0
0
0
0
0
0
0
0
0
0
0
0
0
0
0
0
0
0
0
0
0
0
0
0
0
0
0
0
0
0
0
0
0
0
0
0
0
0
0
0
0
0
0
0
0
0
0
0
0
0
0
0
0
0
0
0
0
0
0
0
0
0
0
0
0
0
0
0
0
0
0
0
0
0
0
0
0
0
0
0
0
0
0
0
0
0
0
0
0
0
0
0
0
0
0
0
0
0
0
0
0
0
0
0
0
0
0
0
0
0
0
0
0
0
0
0
0
0
0
0
0
0
0
0
0
0
0
0
0
0
0
0
0
0
0
0
0
0
0
0
0
0
0
0
0
0
0
0
0
0
0
0
0
0
0
0
0
0
0
0
0
0
0
0
0
0
0
0
0
0
0
0
0
0
0
0
0
0
0
0
0
0
0
0
0
0
0
0
0
0
0
0
0
0
0
0
0
0
0
0
0
0
0
0
0
0
0
0
0
0
0
0
0
0
0
0
0
0
0
0
0
0
0
0
0
0
0
0
0
0
0
0
0
0
0
0
0
0
0
0
0
0
0
0
0
0
0
0
0
0
0
0
0
0
0
0
0
0
0
0
0
0
0
0
0
0
0
0
0
0
0
0
0
0
0
0
0
0
0
0
0
0
0
0
0
0
0
0
0
0
0
0
0
0
0
0
0
0
0
0
0
0
0
0
0
0
0
0
0
0
0
0
0
0
0
0
0
0
0
0
0
0
0
0
0
0
0
0
0
0
0
0
0
0
0
0
0
0
0
0
0
0
0
0
0
0
0
0
0
0
0
0
0
0
0
0
0
0
0
0
0
0
0
0
0
0
0
0
0
0
0
0
0
0
0
0
0
0
0
0
0
0
0
0
0
0
0
0
0
0
0
0
0
0
0
0
0
0
0
0
0
0
0
0
0
0
0
0
0
0
0
0
0
0
0
0
0
0
0
0
0
0
0
0
0
0
0
0
0
0
0
0
0
0
0
0
0
0
0
0
0
0
0
0
0
0
0
0
0
0
0
0
0
0
0
0
0
0
0
0
0
0
0
0
0
0
0
0
0
0
0
0
0
0
0
0
0
0
0
0
0
0
0
0
0
0
0
0
0
0
0
0
0
0
0
0
0
0
0
0
0
0
0
0
0
0
0
0
0
0
0
0
0
0
0
0
0
0
0
0
0
0
0
0
0
0
0
0
0
0
0
0
0
0
0
0
0
0
0
0
0
0
0
0
0
0
0
0
0
0
0
0
0
0
0
0
0
0
0
0
0
0
0
0
0
0
0
0
0
0
0
0
0
0
0
0
0
0
0
0
0
0
0
0
0
0
0
0
0
0
0
0
0
0
0
0
0
0
0
0
0
0
0
0
0
0
0
0
0
0
0
0
0
0
0
0
0
0
0
0
0
0
0
0
0
0
0
0
0
0
0
0
0
0
0
0
0
0
0
0
0
0
0
0
0
0
0
0
0
0
0
0
0
0
0
0
0
0
0
0
0
0
0
0
0
0
0
0
0
0
0
0
0
0
0
0
0
0
0
0
0
0
0
0
0
0
0
0
0
0
0
0
0
0
0
0
0
0
0
0
0
0
0
0
0
0
0
0
0
0
0
0
0
0
0
0
0
0
0
0
0
0
0
0
0
0
0
0
0
0
0
0
0
0
0
0
0
0
0
0
0
0
0
0
0
0
0
0
0
0
0
0
0
0
0
0
0
0
0
0
0
0
0
0
0
0
0
0
0
0
0
0
0
0
0
0
0
0
0
0
0
0
0
0
0
0
0
0
0
0
0
0
0
0
0
0
0
0
0
0
0
0
0
0
0
0
0
0
0
0
0
0
0
0
0
0
0
0
0
0
0
0
0
0
0
0
0
0
0
0
0
0
0
0
0
0
0
0
0
0
0
0
0
0
0
0
0
0
0
0
0
0
0
0
0
0
0
0
0
0
0
0
0
0
0
0
0
0
0
0
0
0
0
0
0
0
0
0
0
0
0
0
0
0
0
0
0
0
0
0
0
0
0
0
0
0
0
0
0
0
0
0
0
0
0
0
0
0
0
0
0
0
0
0
0
0
0
0
0
0
0
0
0
0
0
0
0
0
0
0
0
0
0
0
0
0
0
0
0
0
0
0
0
0
0
0
0
0
0
0
0
0
0
0
0
0
0
0
0
0
0
0
0
0
0
0
0
0
0
0
0
0
0
0
0
0
0
0
0
0
0
0
0
0
0
0
0
0
0
0
0
0
0
0
0
0
0
0
0
0
0
0
0
0
0
0
0
0
0
0
0
0
0
0
0
0
0
0
0
0
0
0
0
0
0
0
0
0
0
0
0
0
0
0
0
0
0
0
0
0
0
0
0
0
0
0
0
0
0
0
0
0
0
0
0
0
0
0
0
0
0
0
0
0
0
0
0
0
0
0
0
0
0
0
0
0
0
0
0
0
0
0
0
0
0
0
0
0
0
0
0
0
0
0
0
0
0
0
0
0
0
0
0
0
0
0
0
0
0
0
0
0
0
0
0
0
0
0
0
0
0
0
0
0
0
0
0
0
0
0
0
0
0
0
0
0
0
0
0
0
0
0
0
0
0
0
0
0
0
0
0
0
0
0
0
0
0
0
0
0
0
0
0
0
0
0
0
0
0
0
0
0
0
0
0
0
0
0
0
0
0
0
0
0
0
0
0
0
0
0
0
0
0
0
0
0
0
0
0
0
0
0
0
0
0
0
0
0
0
0
0
0
0
0
0
0
0
0
0
0
0
0
0
0
0
0
0
0
0
0
0
0
0
0
0
0
0
0
0
0
0
0
0
0
0
0
0
0
0
0
0
0
0
0
0
0
0
0
0
0
0
0
0
0
0
0
0
0
0
0
0
0
0
0
0
0
0
0
0
0
0
0
0
0
0
0
0
0
0
0
0
0
0
0
0
0
0
0
0
0
0
0
0
0
0
0
0
0
0
0
0
0
0
0
1.51591193e-299
0
2.54339803e-296
0
4.0950767e-293
0
6.33995995e-290
0
9.45509683e-287
0
1.36050513e-283
0
1.89156324e-280
0
2.54448832e-277
0
3.31557936e-274
0
4.18959835e-271
0
5.1389382e-268
0
6.12435535e-265
0
7.09739594e-262
0
8.00435062e-259
0
8.79128374e-256
0
9.40946179e-253
0
9.82040492e-250
0
9.99982871e-247
0
9.93992253e-244
0
9.64968693e-241
0
9.1533668e-238
0
8.48730602e-235
0
7.6957596e-232
1.29893488e-233
6.82629931e-229
2.57878612e-230
5.92543239e-226
3.41750683e-227
5.03493882e-223
3.85983048e-224
4.18925555e-220
3.972046e-221
3.41403689e-217
3.83094914e-218
2.72583851e-214
3.51411459e-215
2.13273347e-211
3.0924257e-212
1.63558889e-208
2.62524464e-209
1.22970894e-205
2.15813207e-206
9.06575362e-203
1.7226932e-203
6.55473738e-200
1.33795365e-200
4.64864891e-197
1.01263659e-197
3.23431747e-194
7.47785333e-195
2.20791173e-191
5.3930797e-192
1.47903061e-188
3.80171858e-189
9.72337289e-186
2.62115189e-186
6.27398973e-183
1.76852669e-183
3.97370368e-180
1.16825624e-180
2.47061327e-177
7.55858147e-178
1.50799413e-174
4.79138325e-175
9.03656421e-172
2.97660244e-172
5.31660455e-169
1.81268468e-169
3.07118936e-166
1.0823088e-166
1.74192447e-163
6.33693613e-164
9.70079276e-161
3.63886302e-161
5.30445082e-158
2.04954705e-158
2.84789817e-155
1.13238213e-155
1.50124044e-152
6.13759942e-153
7.76969799e-150
3.2635705e-150
3.94791469e-147
1.7024973e-147
1.96932797e-144
8.71326355e-145
9.64333262e-142
4.37492438e-142
4.63513423e-139
2.15497567e-139
2.18668306e-136
1.04130002e-136
1.01240645e-133
4.93564014e-134
4.59961476e-131
2.2946188e-131
2.05036911e-128
1.04624975e-128
8.96659701e-126
4.67809659e-126
3.84630255e-123
2.05095501e-123
1.61811204e-120
8.81521937e-121
6.67491854e-118
3.71389572e-118
2.69942887e-115
1.53344386e-115
1.07002948e-112
6.2038585e-113
4.15642223e-110
2.45876996e-110
1.58175087e-107
9.54407278e-108
5.89572647e-105
3.62742535e-105
2.15176613e-102
1.34955943e-102
7.68740545e-100
4.91342748e-100
2.68751039e-97
1.74999204e-97
9.19082137e-95
6.09530846e-95
3.07347158e-92
2.07539563e-92
1.00461477e-89
6.90520837e-90
3.20831575e-87
2.24406331e-87
1.00059751e-84
7.11988889e-85
3.04599216e-82
2.2043113e-82
9.04587992e-80
6.65578309e-80
2.61922629e-77
1.95883767e-77
7.389636e-75
5.6156137e-75
2.03005029e-72
1.56711148e-72
5.42633034e-70
4.25389341e-70
1.41018749e-67
1.12230457e-67
3.55995795e-65
2.87538475e-65
8.72175353e-63
7.14715098e-63
2.07162303e-60
1.72177118e-60
4.76520611e-58
4.01546342e-58
1.0601968e-55
9.05480717e-56
2.2784655e-53
1.97159886e-53
4.72288153e-51
4.1390993e-51
9.42690351e-49
8.36419063e-49
1.80858097e-46
1.62396143e-46
3.32836535e-44
3.02323054e-44
5.86215623e-42
5.38408499e-42
9.85595603e-40
9.14893603e-40
1.57719216e-37
1.47899716e-37
2.39420484e-35
2.26693e-35
3.43441023e-33
3.28166881e-33
4.63452694e-31
4.46655538e-31
5.85227738e-29
5.68540501e-29
6.87189057e-27
6.72525859e-27
7.44656752e-25
7.33640331e-25
7.37744098e-23
7.31094516e-23
6.60441812e-21
6.57196598e-21
5.26257208e-19
5.24493102e-19
3.65853083e-17
3.56605572e-17
2.15902203e-15
2.11129144e-15
1.03760463e-13
1.03354726e-13
3.80470429e-12
3.8090955e-12
2.35706012e-09
2.42056301e-09
0.706230367
2.11567463
10.2325778
9.82635206
3.31182796
2.67899225
0.352558653
0.31081059
0.0548223531
0.0510938474
0.00739418729
0.00723794706
0.000910832589
0.000910060819
0.000108610948
0.000108977082
1.82482802e-05
1.82705497e-05
8.93275974e-06
8.9394914e-06
8.0602973e-06
8.06017653e-06
7.98335319e-06
7.98336616e-06
7.97712427e-06
7.97712561e-06
7.97664802e-06
7.97665202e-06
7.97659764e-06
7.97661895e-06
7.97660317e-06
7.97661848e-06
7.97659307e-06
7.97663037e-06
7.97659242e-06
7.97660891e-06
7.97660563e-06
7.97659314e-06
7.97661085e-06
7.97660236e-06
7.97660745e-06
7.97659859e-06
7.97661739e-06
7.97660253e-06
7.97661108e-06
7.97660424e-06
7.9766183e-06
7.97660573e-06
7.97661066e-06
7.97659929e-06
7.97661084e-06
7.97659934e-06
7.97661654e-06
7.97659673e-06
7.97661126e-06
7.97661386e-06
7.97660638e-06
7.97661154e-06
7.97660486e-06
7.97660694e-06
7.9766007e-06
7.97660869e-06
7.97660715e-06
7.97660601e-06
7.97661183e-06
7.97659907e-06
7.97661087e-06
7.97660382e-06
7.97660395e-06
7.97659612e-06
7.97660521e-06
7.97659949e-06
7.97660025e-06
7.97660745e-06
7.97659625e-06
7.97662086e-06
7.97659748e-06
7.97661967e-06
7.97660997e-06
7.97661118e-06
7.97660536e-06
7.97661602e-06
7.97660027e-06
7.9766186e-06
7.97660218e-06
7.97661199e-06
7.97660795e-06
7.97659947e-06
7.97660898e-06
7.97659816e-06
7.9766159e-06
7.9766079e-06
7.97661079e-06
7.97660686e-06
7.97661975e-06
7.97660999e-06
7.97660309e-06
7.97660812e-06
7.97661555e-06
7.97660998e-06
7.97661322e-06
7.97660973e-06
7.97661362e-06
7.97661847e-06
7.97660603e-06
7.97660508e-06
7.97661182e-06
7.97661438e-06
7.97660643e-06
7.97661292e-06
7.97660508e-06
7.97659703e-06
7.97660758e-06
7.97661017e-06
7.9766049e-06
7.97661164e-06
7.97660935e-06
7.97661143e-06
7.97660856e-06
7.97661175e-06
7.97660501e-06
7.97661372e-06
7.97660517e-06
7.97661985e-06
7.97660184e-06
7.97661273e-06
7.97660187e-06
7.97661832e-06
7.97660228e-06
7.97662166e-06
7.97660435e-06
7.97661263e-06
7.97661775e-06
7.97662256e-06
7.9766233e-06
7.97660817e-06
7.97662711e-06
7.97660489e-06
7.97661679e-06
7.97659978e-06
7.97661538e-06
7.97660092e-06
7.97660642e-06
7.97660674e-06
7.97660905e-06
7.97660937e-06
7.97660773e-06
7.97660638e-06
7.9766123e-06
7.9766106e-06
7.97661786e-06
7.97659246e-06
7.97662668e-06
7.97660421e-06
7.97661742e-06
7.97661273e-06
7.97661413e-06
7.97660591e-06
7.97661912e-06
7.97661894e-06
7.97662378e-06
7.97660469e-06
7.97662283e-06
7.97660865e-06
7.97662668e-06
7.97661292e-06
7.97661397e-06
7.97661273e-06
7.97661303e-06
7.97660702e-06
7.9766182e-06
7.9766022e-06
7.97661116e-06
7.97660823e-06
7.97661744e-06
7.97661123e-06
7.97661637e-06
7.97661787e-06
7.97661112e-06
7.97662586e-06
7.97662095e-06
7.9766265e-06
7.97662443e-06
7.97662068e-06
7.97662067e-06
7.97661791e-06
7.97661323e-06
7.97661579e-06
7.97661357e-06
7.97661956e-06
7.97661993e-06
7.97660985e-06
7.97662258e-06
7.97661748e-06
7.97662577e-06
7.97661493e-06
7.97661737e-06
7.97661356e-06
7.97662092e-06
7.97660666e-06
7.97662542e-06
7.97661187e-06
7.97661847e-06
7.97660997e-06
7.97661664e-06
7.97661641e-06
7.97661566e-06
7.97661784e-06
7.97662444e-06
7.97661921e-06
7.97662306e-06
7.97661358e-06
7.97662746e-06
7.97662174e-06
7.97661437e-06
7.9766194e-06
7.97661556e-06
7.97661944e-06
7.97661647e-06
7.97662282e-06
7.97661559e-06
7.97662633e-06
7.97660629e-06
7.97661937e-06
7.97661378e-06
7.97660985e-06
7.97662121e-06
7.97662183e-06
7.97661783e-06
7.97663012e-06
7.97661868e-06
7.97661927e-06
7.97662314e-06
7.97662858e-06
7.97661896e-06
7.97661888e-06
7.97662249e-06
7.97662766e-06
7.9766256e-06
7.97662661e-06
7.97662161e-06
7.97663289e-06
7.97662045e-06
7.97662009e-06
7.97661915e-06
7.97663166e-06
7.97661724e-06
7.9766233e-06
7.97661275e-06
7.97662172e-06
7.97661934e-06
7.97662283e-06
7.97662315e-06
7.97661964e-06
7.97661441e-06
7.97662611e-06
7.97661844e-06
7.97663019e-06
7.97662385e-06
7.97661326e-06
7.97663123e-06
7.97662339e-06
7.97662666e-06
7.97661955e-06
7.97663575e-06
7.97661613e-06
7.97662435e-06
7.97661655e-06
7.97662579e-06
7.97661222e-06
7.97663082e-06
7.97661526e-06
7.97661648e-06
7.97663081e-06
7.97661763e-06
7.97663445e-06
7.97661802e-06
7.97662595e-06
7.97662514e-06
7.97661706e-06
7.97663095e-06
7.97661666e-06
7.97662546e-06
7.976623e-06
7.97662183e-06
7.97661382e-06
7.97662332e-06
7.97661401e-06
7.97662203e-06
7.97662635e-06
7.97661552e-06
7.97662234e-06
7.97662363e-06
7.97662327e-06
7.97662417e-06
7.97661465e-06
7.97661707e-06
7.97663053e-06
7.97662969e-06
7.97662641e-06
7.97662321e-06
7.976624e-06
7.97662081e-06
7.97662889e-06
7.97662029e-06
7.97662896e-06
7.97662792e-06
7.97662638e-06
7.97663011e-06
7.97662772e-06
7.97663266e-06
7.97662509e-06
7.9766262e-06
7.97662514e-06
7.97662343e-06
7.97662717e-06
7.97663566e-06
7.97661025e-06
7.97664337e-06
7.97661658e-06
7.9766373e-06
7.97662e-06
7.97663034e-06
7.97662708e-06
7.97662496e-06
7.97662361e-06
7.97662987e-06
7.97662611e-06
7.97662596e-06
7.97663206e-06
7.97662577e-06
7.97662722e-06
7.97662447e-06
7.97662464e-06
7.97662351e-06
7.97662213e-06
7.97663776e-06
7.97662533e-06
7.9766181e-06
7.97663579e-06
7.97662071e-06
7.97662621e-06
7.97662597e-06
7.97663012e-06
7.97662615e-06
7.97663667e-06
7.97662365e-06
7.97662853e-06
7.97662758e-06
7.97662647e-06
7.97663092e-06
7.97663641e-06
7.97662243e-06
7.97662468e-06
7.97663655e-06
7.976616e-06
7.97664017e-06
7.97662811e-06
7.97662413e-06
7.97662958e-06
7.9766342e-06
7.97662041e-06
7.97663915e-06
7.97662488e-06
7.97662516e-06
7.9766367e-06
7.97662491e-06
7.97664131e-06
7.97663014e-06
7.97664516e-06
7.97663266e-06
7.97663651e-06
7.97662988e-06
7.97663924e-06
7.97662603e-06
7.97663494e-06
7.97662487e-06
7.97663277e-06
7.97663199e-06
7.97662755e-06
7.97663573e-06
7.97663355e-06
7.97663562e-06
7.97663335e-06
7.97663082e-06
7.97661706e-06
7.97663352e-06
7.9766299e-06
7.97662511e-06
7.97663778e-06
7.97662855e-06
7.97663281e-06
7.97663064e-06
7.97663396e-06
7.97663336e-06
7.97663539e-06
7.97664029e-06
7.9766363e-06
7.9766301e-06
7.97663236e-06
7.97663172e-06
7.97663733e-06
7.97662486e-06
7.9766486e-06
7.97662493e-06
7.97664169e-06
7.9766272e-06
7.97664478e-06
7.97663437e-06
7.97663955e-06
7.97663671e-06
7.97663815e-06
7.97663793e-06
7.97663594e-06
7.97663941e-06
7.97663668e-06
7.97663777e-06
7.97663432e-06
7.97663708e-06
7.97663503e-06
7.97663445e-06
7.97664346e-06
7.97663178e-06
7.97664102e-06
7.97663806e-06
7.97663716e-06
7.97664432e-06
7.97663708e-06
7.97663393e-06
7.97664743e-06
7.97663576e-06
7.97663823e-06
7.9766413e-06
7.97664758e-06
7.97664544e-06
7.97664082e-06
7.97664206e-06
7.97665094e-06
7.97663832e-06
7.97664835e-06
7.97663376e-06
7.97664539e-06
7.9766331e-06
7.97664381e-06
7.97665047e-06
7.97663406e-06
7.97663926e-06
7.97665095e-06
7.9766446e-06
7.97663668e-06
7.97664021e-06
7.97664028e-06
7.97664185e-06
7.97663652e-06
7.97664223e-06
7.97665006e-06
7.97663585e-06
7.9766416e-06
7.97663626e-06
7.97664098e-06
7.97663939e-06
7.97664879e-06
7.97663465e-06
7.97664514e-06
7.97664001e-06
7.97665368e-06
7.97664692e-06
7.97664108e-06
7.97664294e-06
7.976645e-06
7.97665271e-06
7.97663902e-06
7.97663808e-06
7.97665675e-06
7.97662297e-06
7.97666236e-06
7.97662937e-06
7.97664689e-06
7.97663765e-06
7.97664488e-06
7.9766364e-06
7.97664789e-06
7.97664187e-06
7.97664239e-06
7.97663996e-06
7.97664214e-06
7.97664984e-06
7.97663742e-06
7.97664845e-06
7.97664243e-06
7.97665107e-06
7.97664834e-06
7.97664744e-06
7.97664512e-06
7.97666116e-06
7.97663346e-06
7.97665244e-06
7.9766373e-06
7.97665772e-06
7.97663079e-06
7.97665532e-06
7.97663846e-06
7.9766588e-06
7.97664387e-06
7.97664904e-06
7.9766489e-06
7.9766466e-06
7.97665135e-06
7.97664964e-06
7.97664673e-06
7.97664942e-06
7.97664839e-06
7.97665099e-06
7.97665242e-06
7.97665264e-06
7.97665242e-06
7.9766489e-06
7.97665179e-06
7.97665063e-06
7.97664965e-06
7.97665331e-06
7.97665316e-06
7.97665321e-06
7.97665324e-06
7.97665333e-06
7.97665325e-06
7.9766546e-06
7.9766549e-06
7.97665494e-06
7.97665571e-06
7.97665555e-06
7.97665657e-06
7.97665712e-06
7.9766568e-06
7.97665771e-06
7.97665796e-06
7.97665748e-06
7.97665784e-06
7.97665824e-06
7.97665861e-06
7.97665848e-06
7.97665843e-06
7.97665879e-06
7.97665856e-06
7.97665859e-06
7.9766587e-06
7.97665871e-06
7.97665836e-06
7.97665878e-06
7.97665851e-06
7.97665862e-06
7.97665861e-06
7.97665868e-06
7.97665864e-06
7.9766588e-06
7.97665866e-06
7.97665865e-06
7.97665852e-06
7.97665841e-06
7.97665874e-06
7.97665853e-06
7.97665864e-06
7.97665868e-06
7.97665856e-06
7.97665874e-06
7.97665866e-06
7.97665866e-06
7.97665878e-06
7.97665859e-06
7.97665875e-06
7.97665853e-06
7.97665874e-06
7.97665868e-06
7.97665858e-06
7.97665872e-06
7.97665852e-06
7.97665852e-06
7.97665884e-06
)
;

boundaryField
{
    closed
    {
        type            calculated;
        value           uniform 0;
    }
    open
    {
        type            calculated;
        value           uniform 0;
    }
    sides
    {
        type            empty;
    }
}


// ************************************************************************* //
