/*--------------------------------*- C++ -*----------------------------------*\
| =========                 |                                                 |
| \\      /  F ield         | OpenFOAM: The Open Source CFD Toolbox           |
|  \\    /   O peration     | Version:  2206                                  |
|   \\  /    A nd           | Website:  www.openfoam.com                      |
|    \\/     M anipulation  |                                                 |
\*---------------------------------------------------------------------------*/
FoamFile
{
    version     2.0;
    format      ascii;
    arch        "LSB;label=32;scalar=64";
    class       surfaceScalarField;
    location    "2.4e-06";
    object      phi;
}
// * * * * * * * * * * * * * * * * * * * * * * * * * * * * * * * * * * * * * //

dimensions      [1 0 -1 0 0 0 0];

oriented        oriented;

internalField   nonuniform List<scalar> 
3182
(
5.82292748e-19
-5.14539595e-19
1.62399685e-19
-3.38686959e-19
-2.38211907e-23
-8.74527685e-25
-6.35846135e-26
-6.86656608e-31
9.95614152e-30
4.44843376e-25
6.09934295e-24
3.22487307e-22
1.27195177e-18
-4.87503975e-19
-9.47942249e-19
-1.18576905e-23
1.0008484e-18
-1.08383764e-18
-1.81329309e-18
2.29691402e-18
6.50198374e-22
2.19296198e-23
2.25427632e-24
8.50026949e-24
7.86797038e-23
5.43616664e-19
2.53510307e-18
-2.05243528e-18
-1.08406277e-18
-5.64418334e-20
-1.350366e-18
1.46058229e-18
-5.41093611e-20
-9.1902812e-19
3.24930592e-19
4.86096349e-19
-4.8771412e-19
-4.86251606e-19
4.87205716e-19
-1.09890229e-19
-1.30249554e-18
-9.69652872e-19
1.06261765e-19
1.51891256e-18
3.26856215e-19
1.73245189e-18
4.33615616e-19
-1.09487804e-19
-7.58013229e-19
-7.59584987e-19
-1.74400947e-21
-1.2943951e-18
-4.31987683e-19
5.39312525e-19
6.49424707e-19
1.17974338e-21
4.35387095e-19
-2.74606982e-21
-4.3359048e-19
-8.66972717e-19
-1.95009155e-18
-6.52360395e-19
-3.37689394e-21
-2.16865664e-19
1.05060413e-20
2.20513502e-19
6.51102565e-19
1.29780867e-18
8.77438821e-19
1.28882175e-18
1.73588204e-18
1.75317926e-18
2.17241315e-18
3.04324768e-18
3.05655008e-18
2.19027779e-18
1.73820488e-18
3.06471261e-18
3.94072135e-18
4.82392994e-18
5.66899444e-18
5.18860759e-18
6.03952705e-18
5.22147451e-18
4.24562897e-18
5.15714185e-18
2.62021095e-18
2.54698722e-18
2.49671047e-18
3.45528907e-18
3.54206862e-18
1.96606864e-18
1.18380003e-18
1.77331607e-18
-5.7730193e-20
1.64415819e-19
2.1077918e-18
1.90999525e-18
-3.13969891e-19
1.21086114e-18
-5.52480307e-19
-2.25797806e-18
-4.34180001e-18
-4.81480772e-18
-5.98062614e-18
-5.29641576e-18
-3.94736076e-18
-3.17252061e-18
-2.97961629e-18
-5.45647733e-18
-6.56093038e-18
-8.03225994e-18
-7.36029892e-18
-7.43963211e-18
-7.93488713e-18
-8.96908418e-18
-8.74938441e-18
-5.46197739e-18
-1.79194588e-18
-2.99929352e-20
-1.03525872e-18
-1.15092331e-18
-5.21982471e-19
-1.44534724e-18
-2.32126069e-18
-2.41136828e-18
-2.12903232e-18
5.48513864e-20
2.60754845e-19
-2.32679643e-18
2.77510746e-18
1.17338639e-18
-4.97409308e-19
5.05676598e-18
4.3139189e-18
2.77115591e-18
2.60430189e-18
6.11676107e-19
3.28554078e-18
-3.10819402e-19
-2.54301633e-18
-1.52778438e-18
5.99451602e-19
-1.55261438e-18
-2.62186898e-18
-5.46298039e-18
1.12184944e-18
-1.37375761e-18
3.10421629e-18
1.37732972e-18
-3.38397178e-20
-1.99296466e-18
-1.59512199e-19
-1.17498171e-18
-1.2992952e-18
-1.359655e-18
-6.17750127e-19
1.01231763e-18
2.17928568e-18
2.62692664e-18
9.20541879e-19
2.45050317e-18
4.81556853e-18
2.91108627e-18
1.37285743e-18
1.67882193e-18
3.92142058e-18
3.85587157e-18
5.26532687e-18
4.19878703e-18
5.32378004e-18
4.9495077e-18
3.6054617e-18
3.31771366e-18
2.82274952e-18
2.08840752e-19
8.36276825e-19
2.30723734e-18
3.85825355e-18
3.80533519e-18
1.80509154e-18
3.79388566e-18
6.31407807e-18
3.06774739e-18
3.40942022e-18
8.174009e-18
8.01632596e-18
8.1059691e-18
8.56568517e-18
6.72195276e-18
6.51530298e-18
4.90670682e-18
7.45168665e-18
4.07792553e-18
6.47941359e-18
5.65712746e-18
1.0739824e-17
6.86706073e-18
7.23132202e-18
6.29822741e-18
8.73026701e-18
6.63493468e-18
5.91803545e-18
3.69573736e-18
4.9130832e-18
3.08576634e-18
4.23086616e-18
5.98063391e-18
1.20800092e-18
3.00981678e-18
-8.86455003e-19
3.95365349e-19
1.67386624e-18
2.88985692e-18
1.18598786e-18
4.21628685e-18
3.05651821e-18
2.57881705e-18
4.60262635e-19
1.79256528e-18
1.80912362e-18
5.43074352e-18
1.41004729e-18
-2.39224764e-18
-3.15114568e-18
-7.79887315e-20
3.851073e-19
7.07058221e-19
4.29256816e-18
2.71822535e-18
-2.72807804e-19
2.72628629e-18
6.50462591e-19
-1.79406206e-18
-5.42639328e-18
-3.17299899e-18
-4.96226379e-18
9.17518521e-19
-2.11386546e-18
-7.83955019e-19
-1.51152882e-18
-1.35338831e-18
2.50838492e-19
3.33644731e-18
9.08743697e-19
1.89994745e-18
1.17417491e-18
2.84362359e-18
1.22696343e-18
1.30587633e-18
3.28143997e-18
3.55301209e-18
2.66894414e-18
3.14254586e-20
7.85661067e-20
1.54797163e-18
1.83753315e-18
-7.55268985e-19
-4.06839867e-19
1.08785319e-18
3.05030485e-19
-2.57678019e-18
-3.61403505e-18
-6.18502191e-18
-7.24240636e-18
-4.90804867e-18
-8.35798151e-18
-8.94465149e-18
-9.97237184e-18
-1.07089535e-17
-1.01069022e-17
-1.23387176e-17
-1.21225676e-17
-1.10381882e-17
-1.25205181e-17
-1.10692289e-17
-1.1749572e-17
-1.1889102e-17
-8.21934667e-18
-7.92850535e-18
-9.05378051e-18
-1.14589759e-17
-1.28901252e-17
-1.25849768e-17
-1.24860392e-17
-1.38390755e-17
-1.2495492e-17
-1.22398983e-17
-1.23850176e-17
-1.41398507e-17
-1.36768263e-17
-1.45833919e-17
-1.493226e-17
-1.33929893e-17
-1.68814245e-17
-1.55233745e-17
-1.4676572e-17
-1.69598473e-17
-1.34592204e-17
-1.26205493e-17
-1.28243324e-17
-1.55116656e-17
-1.56429697e-17
-1.5500314e-17
-1.5823043e-17
-1.72125052e-17
-2.05269593e-17
-1.68405958e-17
-1.7607372e-17
-1.80345183e-17
-2.03943228e-17
-2.03378929e-17
-1.99041756e-17
-2.16443244e-17
-2.05759852e-17
-2.09416754e-17
-1.93698817e-17
-2.13460776e-17
-1.99164487e-17
-2.02167564e-17
-2.15310731e-17
-2.03840518e-17
-2.21710883e-17
-1.8908349e-17
-1.97392629e-17
-2.07809781e-17
-1.96521967e-17
-2.09216387e-17
-2.1102767e-17
-2.15893283e-17
-1.9404777e-17
-1.93392859e-17
-2.02245028e-17
-1.82661293e-17
-1.49852452e-17
-1.68795386e-17
-1.53053586e-17
-1.50555822e-17
-1.68855103e-17
-1.40851095e-17
-1.74374934e-17
-1.61882568e-17
-1.56501899e-17
-1.67374047e-17
-1.68977343e-17
-1.67455424e-17
-1.60431585e-17
-1.79711243e-17
-1.89501366e-17
-1.76320656e-17
-1.48407437e-17
-1.50864014e-17
-1.52520846e-17
-1.81455136e-17
-1.89289021e-17
-1.9537887e-17
-1.77488776e-17
-1.6286401e-17
-1.85706222e-17
-1.9204111e-17
-1.4893603e-17
-1.80217448e-17
-2.118304e-17
-1.9746735e-17
-2.03283493e-17
-2.06390466e-17
-1.65101093e-17
-1.74419181e-17
-1.3902109e-17
-1.23516476e-17
-1.18051058e-17
-9.29418167e-18
-9.58829642e-18
-8.39004591e-18
-1.21973405e-17
-1.29260257e-17
-1.23376944e-17
-1.52126599e-17
-1.58356558e-17
-1.49649277e-17
-1.16211271e-17
-1.33573363e-17
-1.30744727e-17
-1.31289691e-17
-1.25011206e-17
-9.53444769e-18
-1.27825332e-17
-1.48568872e-17
-1.54182072e-17
-1.14836525e-17
-1.28884385e-17
-1.0279488e-17
-1.1760363e-17
-7.46638711e-18
-6.77713573e-18
-8.42594258e-18
-6.79615636e-18
-8.42533972e-18
-4.25881056e-18
-3.63116962e-18
-6.27676069e-18
-2.96637967e-18
-4.85291155e-18
-4.53792975e-18
-3.58382057e-18
-5.62328007e-18
-9.36750028e-19
-2.97776328e-18
-2.0717385e-18
-1.4894509e-20
-1.07490586e-20
-5.07519654e-19
-4.12739308e-18
1.60217598e-20
1.04441159e-18
2.37951838e-18
2.30671351e-18
3.59525655e-19
1.4893069e-18
-6.60422032e-19
-1.32675737e-18
-6.04289607e-19
-1.9984529e-18
-1.41169562e-18
-1.80550432e-18
-3.2381671e-18
4.06230822e-20
2.48616176e-18
8.16425795e-19
-1.26228204e-18
-3.99281309e-18
-6.09196033e-18
-1.73086761e-18
-2.94034256e-18
-2.98025852e-18
-5.48541312e-20
-1.02436219e-18
-2.77582095e-19
-3.5574175e-19
8.04601422e-19
2.50324068e-18
-3.47365657e-19
9.89008989e-19
5.78910575e-19
2.74976222e-18
5.26170081e-19
-7.61785068e-19
-2.41341947e-18
-2.17302361e-18
1.26240425e-18
3.74891581e-18
7.51836166e-19
2.30594179e-18
1.49587211e-18
2.44123534e-18
4.35864334e-18
3.94755032e-18
2.09966061e-19
4.94106804e-18
2.20256648e-18
6.23059106e-18
2.87544253e-18
4.55243955e-18
1.15385277e-18
2.55701933e-18
1.84278225e-18
4.56647897e-18
6.93767935e-18
7.54340188e-18
5.76410936e-18
8.57656582e-18
7.45055273e-18
4.92321278e-18
6.28120392e-18
5.19606867e-18
6.66622555e-18
5.05343132e-18
5.13748509e-18
3.51504428e-18
2.17821403e-18
2.84898083e-18
-1.98590123e-18
-3.05403168e-19
7.07107776e-19
2.36651403e-18
7.6829673e-19
1.05593026e-18
-5.71209352e-20
-2.00778672e-18
-3.39613196e-18
-5.79118585e-19
-2.45492478e-18
-2.72940604e-18
-3.41268296e-18
-2.2572084e-18
-7.54518003e-18
-4.06828377e-18
-5.67680074e-18
-5.59447827e-18
-5.64459192e-18
-3.71953736e-18
-2.61949053e-18
-1.61809594e-18
-3.79782712e-18
-4.20244293e-18
-2.37757377e-18
-2.75412529e-18
-6.550882e-18
-8.14607912e-18
-5.13148772e-18
-6.83796335e-19
-1.37564389e-18
-2.33269299e-18
-6.6170361e-18
-4.28543912e-18
-8.92129191e-18
-5.07328724e-18
-5.4626423e-18
-3.66152264e-18
-4.13170181e-18
-1.45048676e-18
-3.05685175e-18
-3.05811372e-18
-5.89526088e-18
-5.8564944e-18
-5.55687932e-18
-7.39519027e-18
-8.6594996e-18
-6.47045148e-18
-3.8672838e-18
-4.81751876e-18
-3.45837155e-18
-7.36115478e-18
-9.69230604e-18
-7.06375717e-18
-8.8727251e-18
-9.75429551e-18
-9.12816578e-18
-7.4784343e-18
-6.99195876e-18
-6.38818959e-18
-5.1947481e-18
-7.3406031e-19
-1.11823345e-18
-1.21050474e-18
-5.52424718e-19
1.24929702e-18
-2.4400989e-18
4.17576841e-19
-3.36864787e-18
-1.731157e-18
-6.73273473e-19
-2.62161803e-18
-1.42906257e-18
-9.98718288e-20
-1.0433457e-18
-1.09906644e-18
-9.68009375e-19
-1.29374207e-18
-3.54076057e-18
-3.42063898e-18
-3.19933443e-18
-4.84888404e-19
-4.55119913e-19
1.18614366e-18
1.30611912e-18
4.11725999e-18
5.1839121e-18
8.72195757e-18
6.23015902e-18
6.37182371e-18
6.9949245e-18
6.95799186e-18
8.85399013e-18
6.07597994e-18
6.27117188e-18
9.53241142e-18
7.83686194e-18
9.29593199e-18
1.00310739e-17
1.10498541e-17
1.18612032e-17
1.02888218e-17
1.00175728e-17
1.13650734e-17
1.05886952e-17
1.2784129e-17
1.34662233e-17
1.37262363e-17
1.47760753e-17
1.57317801e-17
1.25734108e-17
1.46545594e-17
1.05663452e-17
1.2932886e-17
1.30711429e-17
8.89771092e-18
1.00110242e-17
8.58451781e-18
1.18702738e-17
1.11281284e-17
1.53355107e-17
1.30861986e-17
1.07040769e-17
9.17200849e-18
8.7767113e-18
9.51260664e-18
7.98718398e-18
5.52089105e-18
2.88646447e-18
2.32110309e-18
3.21808783e-18
1.03320767e-18
1.64629491e-18
9.67722592e-19
1.15891304e-18
1.73783862e-18
-9.76447753e-19
2.50134358e-18
2.86236397e-18
1.23295537e-18
2.49249191e-18
5.60729301e-18
3.65837996e-18
2.15249768e-18
7.69930545e-19
1.82269288e-18
1.57491342e-18
-7.83709541e-19
7.95982052e-19
1.89814825e-18
1.22269789e-18
2.71546324e-18
3.24348012e-18
4.39200162e-18
5.92826622e-18
4.93359029e-18
1.7121573e-18
7.78191267e-19
-6.1985914e-19
1.54495366e-18
7.37086982e-19
-8.72190811e-19
1.65479576e-19
-4.58357001e-18
-4.85339481e-18
-5.51168224e-18
-3.56810258e-18
-3.83766566e-19
6.17719983e-20
-3.32954074e-18
-5.01439914e-18
-1.16453703e-18
-1.3473352e-18
-4.19498548e-18
-3.36135883e-18
-3.57312342e-18
-3.5669148e-18
-5.23870437e-18
-3.15047945e-18
-6.38338542e-18
-8.31509631e-18
-1.15634769e-17
-1.36908306e-17
-1.26460694e-17
-1.06906427e-17
-7.34266248e-18
-5.70637648e-18
-5.15305747e-18
-6.33847119e-18
-7.23538343e-18
-4.36147108e-18
-2.87929841e-18
-4.78577184e-18
-2.58276588e-18
-5.17138341e-18
-3.67591963e-18
-1.82075995e-18
-3.16070157e-18
7.95030472e-19
1.11969337e-18
3.11527803e-18
6.73809921e-18
6.45004522e-18
5.11395699e-18
2.20194397e-18
3.15579368e-18
1.49396744e-18
5.03444547e-18
6.30207024e-18
2.85610545e-18
2.00195292e-18
-1.05371602e-18
3.77976668e-18
7.77279606e-18
6.75359337e-18
9.79058957e-18
9.75610596e-18
7.78579638e-18
1.4027177e-17
1.19327701e-17
1.29945579e-17
9.45977467e-18
9.34055614e-18
1.2215479e-17
1.072564e-17
1.06205177e-17
1.293865e-17
1.31142763e-17
1.33478197e-17
1.45826167e-17
1.48761525e-17
1.35687806e-17
1.47695799e-17
1.51919467e-17
1.62535861e-17
1.81951907e-17
2.09605039e-17
1.87658547e-17
2.1457018e-17
2.03869989e-17
1.93685093e-17
2.25194517e-17
1.85680698e-17
1.39302256e-17
1.54876467e-17
1.91361864e-17
1.521503e-17
1.64797941e-17
1.92332513e-17
1.74842275e-17
1.89356582e-17
1.67846681e-17
1.70549136e-17
1.79440689e-17
1.58656174e-17
1.71435716e-17
1.7519367e-17
1.52498535e-17
1.82970876e-17
1.17517101e-17
1.16505689e-17
1.12413751e-17
1.07399947e-17
8.94307455e-18
7.50400572e-18
9.63038474e-18
7.9919294e-18
6.72216635e-18
5.93949595e-18
9.65475894e-18
8.6745354e-18
5.65803238e-18
5.36550139e-18
6.68458399e-18
8.24712597e-18
8.14153101e-18
9.96881088e-18
6.4080921e-18
2.94978105e-18
3.17940651e-18
4.31720793e-18
4.08719874e-18
4.38405001e-18
3.64085872e-18
2.89795606e-18
-8.49866478e-19
8.61504092e-20
8.98526119e-20
-1.11609089e-19
-4.30505049e-18
-2.49193093e-18
-2.06946082e-18
-4.1950197e-18
-4.08591859e-18
-2.9294096e-18
-4.09105644e-18
-4.8303624e-18
6.48370786e-19
-8.97846468e-19
-1.08494004e-19
-2.95982395e-18
-7.15088509e-18
-5.16947857e-18
-1.59175345e-18
-3.70947689e-18
-2.81732299e-18
-5.29864414e-18
-2.21668298e-18
-3.58823242e-18
-5.88070371e-18
-2.48326186e-18
-3.83176357e-18
-7.35291571e-18
-4.872103e-18
-6.79810482e-18
-5.9909337e-18
-7.22572174e-18
-1.17433229e-17
-9.66360781e-18
-9.57811787e-18
-1.08951447e-17
-9.33471429e-18
-1.08084393e-17
-1.36661832e-17
-9.8027876e-18
-8.18065074e-18
-6.26294199e-18
-5.70093938e-18
-7.4021146e-18
-4.57052135e-18
-5.69922997e-18
-2.46929244e-18
-2.02558583e-18
-2.58500384e-19
-2.7348589e-18
-3.5664932e-18
-2.70214369e-18
-1.84624576e-18
-3.31203319e-20
4.99677657e-18
3.05970093e-18
4.72948828e-18
4.67913579e-18
4.47513959e-18
4.33267219e-18
-2.03347475e-18
-1.17784569e-18
-2.224517e-18
-7.25651291e-19
-7.87050817e-19
-3.72758424e-18
-1.8365325e-19
1.28162207e-19
-2.21189507e-18
-9.72917284e-19
-1.21038499e-18
-4.59492944e-18
-8.40899578e-19
-1.23247734e-18
-1.78409908e-18
-1.98304922e-18
-7.99092359e-19
2.68479335e-18
3.09564083e-19
6.17320856e-19
3.12273447e-18
3.26800847e-18
2.36637062e-18
1.96288567e-18
-8.09639416e-19
4.84152787e-18
1.16489178e-18
2.29997046e-18
1.81886979e-18
-1.27727004e-18
-6.57589496e-19
-1.00216503e-18
-2.17277926e-18
-1.39703533e-18
-1.96100598e-18
2.9407173e-19
-4.78602211e-19
1.67913356e-18
1.19812152e-18
9.98875385e-19
-8.19028309e-19
-1.07221374e-18
-2.19035871e-18
-2.55853661e-18
-1.80992557e-18
-5.82591415e-18
-3.61448284e-18
-1.97009661e-18
-1.61176298e-18
1.49589659e-18
-1.39245054e-18
-2.04924062e-18
-9.01600815e-19
-1.30678753e-18
2.53555879e-18
3.3290108e-18
2.27267682e-18
1.31432962e-18
-7.26024961e-19
-2.30107084e-18
-4.21789205e-18
-3.85485459e-18
-4.1113933e-18
-5.54486741e-18
-3.16743241e-18
-2.63572631e-18
-2.63411001e-18
-9.85926258e-19
-3.74624889e-18
1.53225476e-20
4.12400117e-18
2.32560524e-18
4.06340662e-18
4.87229316e-18
2.82747308e-18
5.70385275e-18
1.48572596e-18
1.75966521e-18
8.61928657e-19
-1.23553785e-18
-1.18676652e-18
4.30541266e-19
3.30138896e-18
2.42362399e-18
-1.31944398e-18
-1.57196162e-18
-2.48083767e-18
-1.34254476e-18
3.46963284e-18
1.71254127e-18
3.5406073e-18
2.43064858e-18
4.37140553e-18
4.16077847e-18
3.25240131e-18
1.15259827e-18
3.05306482e-19
-1.2229874e-18
3.59564565e-18
2.349579e-18
7.49735713e-19
-2.03487398e-19
2.65094098e-18
1.01186965e-18
1.07108639e-18
1.84700716e-18
-1.77719543e-18
-1.6013649e-18
-1.86639771e-19
-1.07019084e-18
3.81222768e-18
-8.29028772e-19
2.12309496e-18
2.88165561e-18
5.23937451e-18
4.36717934e-18
5.04858314e-18
5.07297778e-18
4.81368577e-18
9.39827447e-18
8.06674282e-18
6.32683604e-18
6.38577677e-18
2.7332844e-18
3.95213292e-18
3.81213939e-18
5.09820713e-19
3.46011258e-18
1.86006274e-18
2.05665076e-18
1.75704355e-18
3.83955068e-18
1.82354526e-18
7.04837953e-18
9.24547699e-18
9.2394485e-18
1.08769627e-17
1.08524043e-17
9.22369811e-18
1.13654141e-17
1.16313725e-17
1.36756541e-17
1.27980839e-17
1.35497324e-17
1.08530609e-17
1.28082598e-17
1.3390982e-17
1.49595221e-17
1.23980363e-17
1.51445427e-17
9.74237676e-18
1.05286252e-17
1.13371365e-17
1.3304241e-17
1.33535375e-17
1.69650099e-17
1.84346512e-17
1.78788136e-17
1.89081147e-17
1.52558249e-17
1.49580562e-17
1.65682867e-17
1.52439475e-17
1.53615161e-17
1.62408043e-17
1.71632954e-17
1.71731589e-17
1.36320526e-17
1.44927969e-17
1.43396191e-17
1.52760053e-17
1.61478004e-17
1.58050283e-17
1.94956998e-17
2.00789332e-17
1.76578889e-17
1.73639937e-17
1.74428813e-17
1.96149495e-17
1.94131536e-17
1.75120543e-17
1.70418296e-17
1.53680873e-17
1.1595661e-17
1.23077192e-17
1.27711122e-17
1.16386467e-17
1.11053946e-17
1.04250247e-17
8.50213241e-18
1.30551851e-17
1.08421124e-17
6.71770922e-18
5.11401765e-18
4.53439354e-18
7.12241864e-18
6.70463912e-18
5.56292358e-18
6.30618672e-18
6.05519544e-18
7.69107966e-18
5.23776013e-18
8.93664476e-18
7.44406455e-18
2.99522609e-18
1.31384021e-18
2.06266192e-19
-2.63736037e-18
3.53489252e-19
6.9824698e-20
3.10344617e-18
1.30988175e-18
2.94713659e-18
7.50224621e-18
6.21328828e-18
1.00118892e-17
1.0165044e-17
9.21476407e-18
1.02667553e-17
7.67879603e-18
7.80558085e-18
8.26502987e-18
5.63664711e-18
7.39713496e-18
5.98990722e-18
5.93211568e-18
8.94822823e-18
9.52222102e-18
8.981417e-18
6.72576128e-18
8.28216502e-18
8.12230383e-18
5.21301555e-18
5.88636052e-18
6.5610416e-18
4.75325016e-18
9.88627988e-18
1.04533028e-17
1.24262142e-17
8.98012972e-18
8.9646961e-18
6.84168703e-18
8.30824598e-18
8.68608411e-18
6.56953006e-18
1.02629529e-17
1.04238068e-17
8.85758818e-18
9.9816505e-18
9.58843842e-18
8.66029453e-18
7.07242061e-18
7.82780275e-18
1.03133511e-17
1.20510291e-17
1.12194952e-17
8.461798e-18
5.84835193e-18
6.66475518e-18
4.59315452e-18
4.44182801e-18
4.43612148e-18
3.23415472e-18
2.08572511e-18
6.01684397e-18
5.90080296e-18
5.11396682e-18
3.13773403e-18
3.81863469e-18
3.03185426e-18
1.02497767e-18
4.53581448e-18
4.84733132e-18
2.88347688e-18
-2.0462749e-18
1.94053076e-18
-1.14225721e-18
-8.52858281e-19
-2.67328307e-18
-2.22913639e-18
-2.99547084e-18
-4.48197737e-18
-3.70211753e-18
-1.25049806e-19
-2.07301623e-18
-3.60553041e-19
-1.05634326e-18
-2.93772664e-18
-2.58029166e-18
-4.13156942e-18
-1.68900418e-18
-5.34288427e-19
-6.3218534e-19
-3.28994755e-20
-5.70566057e-19
-4.35889948e-18
-5.40171922e-18
-4.03309158e-18
-7.21080303e-18
-8.34520211e-18
-9.08206641e-18
-8.97998599e-18
-1.31358608e-17
-9.77424505e-18
-1.27543969e-17
-1.24341363e-17
-1.29304215e-17
-1.41518276e-17
-1.58828736e-17
-1.76309356e-17
-1.63619103e-17
-1.47130438e-17
-1.55435483e-17
-1.36640954e-17
-1.1250329e-17
-9.94098566e-18
-6.34668841e-18
-5.57900231e-18
-4.86366138e-18
-6.73409364e-18
-7.27958244e-18
-8.16758788e-18
-8.276148e-18
-7.12445918e-18
-2.61667389e-18
-2.58591103e-18
-3.31313422e-18
-6.6266416e-19
-8.8982815e-19
-3.86030309e-18
-2.74545883e-18
-6.17751261e-18
-9.61304818e-18
-7.09589406e-18
-8.65742371e-18
-6.95785011e-18
-4.66843596e-18
-5.16214875e-18
-3.72128417e-18
-2.22662584e-18
-1.62455511e-18
2.69686044e-19
-1.4049054e-18
-1.64421452e-18
-4.59950771e-18
-3.74881785e-18
-8.28423358e-18
-6.50653493e-18
-6.77567351e-18
-9.03626427e-18
-5.41428446e-18
-4.30503274e-18
-5.17236184e-18
-6.55139917e-18
-6.95671188e-18
-7.9060004e-18
-5.64061762e-18
-2.00488394e-18
-7.72377751e-18
-4.30718097e-18
-4.79032818e-18
-8.85847574e-18
-4.61744404e-18
-4.25519143e-18
-3.58028762e-18
-3.88672585e-18
-8.03314348e-18
-1.1283892e-17
-9.88938137e-18
-7.24769395e-18
-8.35114619e-18
-9.99100977e-18
-1.05323436e-17
-1.33825928e-17
-1.05680007e-17
-1.2560496e-17
-1.70656463e-17
-1.55355563e-17
-1.16753888e-17
-1.21532307e-17
-1.13665053e-17
-9.34213535e-18
-1.11950066e-17
-1.23122235e-17
-1.08314084e-17
-1.27732973e-17
-1.00003863e-17
-1.37034808e-17
-1.03104545e-17
-1.24890626e-17
-1.36305711e-17
-1.60065092e-17
-1.75348145e-17
-1.62307406e-17
-1.30570906e-17
-1.84887112e-17
-1.36262343e-17
-1.19326995e-17
-1.30040956e-17
-1.424617e-17
-1.12275653e-17
-1.18788196e-17
-1.19634915e-17
-1.1772129e-17
-1.37310168e-17
-1.29835033e-17
-1.32214574e-17
-1.2226704e-17
-1.52697312e-17
-1.21959479e-17
-1.3975419e-17
-1.22361888e-17
-1.35886162e-17
-1.27427307e-17
-1.28920712e-17
-1.32006154e-17
-8.65133067e-18
-1.08248169e-17
-1.40981159e-17
-1.32430429e-17
-1.72910836e-17
-1.60779425e-17
-1.26133415e-17
-1.0794276e-17
-8.83862614e-18
-7.18325683e-18
-7.76368951e-18
-1.07484461e-17
-9.94634683e-18
-1.33876161e-17
-1.38688434e-17
-1.431377e-17
-1.39602825e-17
-1.2270958e-17
-1.22793369e-17
-8.54381611e-18
-1.02662475e-17
-1.16581524e-17
-8.22706952e-18
-8.7158403e-18
-8.16254874e-18
-7.37265414e-18
-7.99946432e-18
-8.10584268e-18
-9.12378925e-18
-8.82426622e-18
-8.22231329e-18
-7.3059324e-18
-8.36521274e-18
-8.5196568e-18
-7.52224667e-18
-7.17702152e-18
-5.99604476e-18
-5.79902274e-18
-2.32752764e-18
-1.72994901e-18
-3.19016934e-18
-6.70957407e-18
-4.61684536e-18
-9.26311941e-18
-5.62826479e-18
-3.48861132e-18
-3.76102645e-18
-3.24406825e-18
-2.96897969e-18
-2.18037511e-19
-1.116983e-18
1.74615834e-18
4.57228496e-18
5.8230299e-18
6.16248301e-18
6.83655016e-18
5.13816644e-18
2.95528624e-18
-1.47779816e-18
-2.15180382e-18
-2.99579637e-18
-1.89039836e-18
1.08733462e-18
-1.91241413e-20
3.76411111e-18
3.49471557e-18
-3.62578977e-19
-1.87671612e-18
-3.87382461e-18
-3.89323659e-18
-7.23764587e-18
-5.34542274e-18
-4.59134973e-18
-5.91155878e-18
-3.83768141e-18
-3.73245366e-18
-7.75860604e-19
-5.42081895e-19
1.37736362e-18
-1.88321003e-18
-1.36222972e-19
-1.48594595e-19
2.97337747e-18
1.21514784e-18
1.82901179e-18
-1.4819383e-19
-3.77880105e-18
-4.38722739e-18
-4.35310947e-18
-3.38014645e-18
-1.21408091e-18
2.04055918e-19
-2.49326993e-18
-1.33979874e-18
-5.15332954e-19
2.34963729e-18
4.89870337e-18
6.50238216e-18
6.25507739e-18
5.86279864e-18
5.22932597e-18
2.29510482e-18
1.58581475e-18
2.84207228e-18
7.3630639e-19
1.95543362e-18
2.82594309e-18
2.89657947e-18
5.22015465e-18
5.0416746e-18
4.31709501e-18
7.38155425e-18
3.73962914e-18
5.75933818e-18
6.39081423e-18
7.71675243e-18
5.89321036e-18
7.89314918e-18
4.41891566e-18
3.59735731e-18
4.80726746e-18
3.44699181e-18
3.49426594e-18
5.81372733e-18
2.89365579e-18
3.81116854e-18
2.05368096e-18
2.67394902e-20
1.92376925e-18
5.97071937e-18
3.50467063e-18
6.28161494e-18
5.32125867e-18
4.96121684e-18
5.5074191e-18
2.26351674e-18
3.03089379e-18
3.14805157e-18
3.75650084e-18
5.36067331e-18
6.2544216e-18
4.68617441e-18
4.08313465e-18
4.36473198e-18
4.07635614e-18
1.72463014e-18
2.90879982e-18
4.86596168e-18
2.56313662e-18
3.58707967e-18
1.09662211e-18
4.12623216e-19
2.81886896e-18
3.34889151e-18
4.1209878e-18
8.47052149e-18
7.68426878e-18
7.81847638e-18
5.54355248e-18
8.45931858e-18
6.58402669e-18
4.95648429e-18
3.73356384e-18
3.98092498e-18
4.03316163e-18
1.590198e-18
2.79900656e-18
2.88362785e-18
3.48954345e-18
5.73694724e-18
2.59231803e-18
-1.42827538e-18
3.13254465e-19
3.09431439e-18
-1.59971384e-18
2.13601873e-19
2.02751275e-18
-9.73487516e-19
4.3079909e-18
1.08752747e-18
3.544096e-18
4.63725004e-18
4.00811861e-18
2.0518396e-18
1.30538994e-18
1.87750066e-18
6.5854594e-19
1.30514273e-18
3.5923742e-19
1.52843494e-18
6.76453127e-19
2.06693977e-18
-1.33932651e-18
6.09300811e-19
-2.94651186e-18
-5.17778466e-18
-5.45595012e-18
-4.76256875e-18
-3.78748643e-18
-4.37834723e-18
-1.30311431e-18
-2.14359072e-18
-6.30878711e-18
-5.86896901e-18
-6.30182248e-18
-7.90392606e-18
-7.77123444e-18
-3.69569644e-18
-7.06287035e-18
-6.04645202e-18
-4.44974444e-18
-5.50367169e-18
-4.26720385e-18
-6.41703779e-18
-5.27595514e-18
-6.40506972e-18
-5.99299602e-18
-5.43453696e-18
-5.03781498e-18
-6.68844117e-18
-8.41025697e-18
-9.40640843e-18
-7.17994098e-18
-7.92903922e-18
-6.567409e-18
-1.02989716e-17
-7.5007851e-18
-1.13718664e-17
-1.09819624e-17
-1.08278921e-17
-1.00783361e-17
-1.06813868e-17
-9.23221499e-18
-1.05472997e-17
-1.10799848e-17
-8.60257024e-18
-1.00353991e-17
-9.91411956e-18
-8.61256282e-18
-6.97618348e-18
-4.80611734e-18
-6.52770572e-18
-9.40457042e-18
-1.05387352e-17
-1.26603142e-17
-1.29467019e-17
-1.15037916e-17
-1.50966206e-17
-1.27688373e-17
-1.16425006e-17
-1.24449695e-17
-1.64287513e-17
-1.41675786e-17
-1.35062271e-17
-1.52102306e-17
-1.21652546e-17
-1.35250345e-17
-1.19802091e-17
-1.13591855e-17
-1.31860245e-17
-1.44079162e-17
-1.13776467e-17
-9.99293412e-18
-1.43543637e-17
-1.10421573e-17
-7.41169706e-18
-5.70780573e-18
-7.28181519e-18
-6.30240626e-18
-5.92562396e-18
-5.64897396e-18
-6.4460689e-18
-6.09611997e-18
-4.88131142e-18
-5.5576659e-18
-1.53280352e-18
-3.7490368e-18
-6.6927819e-18
-4.03820821e-18
-1.40222032e-18
-1.91661527e-18
-1.83910431e-18
-1.10772573e-18
2.08863733e-19
-1.47269283e-18
-3.05381235e-18
-2.58290426e-19
-1.87947402e-18
1.63241034e-19
3.12055731e-18
2.07718665e-18
4.49233015e-18
1.89479921e-18
3.6332343e-18
3.91426385e-18
2.54245706e-18
1.78437312e-18
3.89371579e-18
4.26597154e-18
7.25948897e-18
7.62753452e-18
9.44171513e-18
5.89867825e-18
8.61580636e-18
8.78138265e-18
8.55082045e-18
5.2387673e-18
1.63975467e-18
2.46447427e-18
4.68741003e-18
6.32993026e-18
9.64980274e-18
5.09188404e-18
6.43883145e-18
2.73284848e-18
1.77841324e-18
5.4294998e-19
2.14902182e-18
1.61109514e-18
1.49752123e-18
7.79277607e-19
3.68986723e-19
-6.21181712e-19
-6.0552202e-18
-4.57224031e-18
-3.90997929e-18
-4.01194039e-18
-3.14633318e-18
-6.80320633e-18
-6.20916666e-18
-4.54784131e-18
-7.20270322e-18
-2.30513723e-18
-4.29132148e-18
-4.30741853e-18
-6.66230769e-18
-2.52008935e-18
-1.23083996e-18
-5.77728911e-18
-6.29960361e-18
-7.78537866e-18
-5.99957582e-18
-4.87494258e-18
-6.59094704e-18
-8.58951014e-18
-1.04251241e-17
-1.44836475e-17
-1.43267605e-17
-1.14023239e-17
-1.17919587e-17
-1.14328582e-17
-1.19915247e-17
-1.25617863e-17
-1.02391368e-17
-1.03282444e-17
-1.09322215e-17
-7.49536419e-18
-7.71413416e-18
-1.02464838e-17
-1.1279298e-17
-1.49722529e-17
-1.14531375e-17
-1.49601087e-17
-1.63498815e-17
-1.77554066e-17
-1.53465169e-17
-1.43161403e-17
-1.04957551e-17
-1.1759226e-17
-1.20126578e-17
-1.00610228e-17
-1.1199309e-17
-9.97434231e-18
-1.28721265e-17
-1.31175145e-17
-1.06725291e-17
-1.09911436e-17
-7.08497277e-18
-9.68967931e-18
-1.0060307e-17
-5.74861255e-18
-7.54750866e-18
-7.83770852e-18
-8.42258435e-18
-8.51179839e-18
-1.04315757e-17
-1.09501058e-17
-8.99267733e-18
-1.0279515e-17
-9.5613497e-18
-1.30151521e-17
-1.43913409e-17
-1.65823051e-17
-1.37896979e-17
-1.11312013e-17
-9.92535708e-18
-9.98690499e-18
-8.28039601e-18
-9.11634986e-18
-1.06046596e-17
-7.90878797e-18
-5.71376232e-18
-7.43293915e-18
-8.4640906e-18
-1.01071658e-17
-5.60493596e-18
-4.46349831e-18
-4.45571819e-18
-5.3475684e-18
-6.7888158e-18
-5.16183156e-18
-4.62730875e-18
-2.63664414e-18
-3.19416695e-18
-5.12976514e-18
-1.98310251e-18
4.75108888e-19
-1.11661574e-18
2.25981672e-18
-3.35176286e-19
1.90812255e-18
1.76431015e-18
3.5595515e-18
1.26976643e-19
1.02398759e-18
3.53642765e-18
3.63264222e-18
3.58936979e-18
4.54496155e-18
3.49247858e-18
4.6465401e-18
5.51099763e-18
5.05858375e-18
2.19586132e-18
6.57254993e-18
7.45161947e-18
4.61235804e-18
4.11372081e-18
5.50605868e-19
6.18193139e-19
4.11342198e-19
-5.45284158e-19
1.45621377e-19
1.3145819e-18
-9.01625613e-19
1.36122524e-18
3.36730637e-18
1.77759848e-18
5.20611221e-18
3.64228455e-18
1.83731687e-18
1.25274706e-18
1.69936949e-18
1.59126265e-18
8.47261544e-19
2.87685046e-19
-1.38389666e-19
2.25927699e-18
1.38867653e-18
1.53957828e-18
-1.93937359e-19
2.5548583e-18
6.1240651e-18
2.34671219e-18
2.82865184e-18
1.41218791e-18
2.9954686e-18
9.02216794e-18
6.7062286e-18
6.64297225e-18
8.03279244e-18
9.36117292e-18
7.81349966e-18
9.88938383e-18
8.97703575e-18
7.9628412e-18
7.46952229e-18
5.38070885e-18
3.77127012e-18
3.30423481e-18
5.3732875e-18
2.53726865e-18
2.04106751e-18
-1.79424876e-19
2.10484588e-18
4.71509284e-18
2.33732311e-18
-1.42917691e-18
3.0533579e-18
2.80674742e-18
3.4151763e-18
8.41575085e-19
3.05395002e-18
2.36949172e-18
4.34893066e-18
8.56445735e-19
-5.46596685e-19
2.45940818e-18
4.16174024e-18
3.6372193e-18
1.48135059e-18
4.61453426e-18
4.80198095e-18
5.73931114e-18
7.16026481e-18
6.74809777e-18
6.21020241e-18
8.44971114e-18
8.91464544e-18
1.15808163e-17
1.14095126e-17
1.14567798e-17
1.3655966e-17
1.14026973e-17
1.19391489e-17
1.08389195e-17
7.88459985e-18
8.94875382e-18
9.51164907e-18
6.78801352e-18
7.13714444e-18
8.19723504e-18
7.77121946e-18
1.09670555e-17
1.02923137e-17
7.42539353e-18
5.72773309e-18
2.28202733e-18
5.61519661e-18
3.27173254e-18
6.51988657e-18
5.56171967e-18
5.00773141e-18
3.83640341e-18
5.31511812e-18
3.0884352e-18
2.42913165e-18
1.26556963e-18
-1.49553049e-18
-2.64246164e-18
7.32708259e-19
3.31932482e-18
1.60442671e-18
-1.42715356e-18
-6.45342804e-19
-1.10346059e-18
1.50155491e-18
-3.27109362e-18
4.85744645e-19
2.77221051e-20
-6.167163e-19
9.34614582e-19
3.2932437e-18
1.7962653e-18
2.80131999e-18
3.05110969e-18
2.72119352e-18
3.37006776e-18
3.47688076e-18
4.82243447e-18
3.66662735e-18
3.46554986e-18
7.01174762e-18
4.4418514e-18
6.97949117e-18
7.51781338e-18
4.85373382e-18
2.55093208e-18
4.33139924e-18
3.08988251e-18
5.48177986e-18
5.41028952e-18
4.57491959e-18
3.73292195e-18
4.76850308e-18
5.41554326e-18
1.09114849e-17
1.21095877e-17
1.37461577e-17
1.36487198e-17
1.1613634e-17
9.08112015e-18
1.09397928e-17
1.06654045e-17
9.08170968e-18
1.2250591e-17
7.5420279e-18
1.0696135e-17
1.07533532e-17
9.98680822e-18
8.78880364e-18
1.14622347e-17
9.27383693e-18
8.36214798e-18
9.06779551e-18
1.0711869e-17
1.26128658e-17
1.37987067e-17
1.22887279e-17
1.3992576e-17
1.63240571e-17
1.30830184e-17
1.48990982e-17
1.47577971e-17
1.28441612e-17
1.32000308e-17
1.63302442e-17
1.55378907e-17
1.50752507e-17
1.47550394e-17
1.37102429e-17
1.77380176e-17
1.92360713e-17
1.96383178e-17
2.08304554e-17
1.85149689e-17
1.95670443e-17
1.95417795e-17
2.12530529e-17
1.86384961e-17
1.79041213e-17
1.60001813e-17
1.70890066e-17
1.56940921e-17
1.6004651e-17
1.78103571e-17
1.67123454e-17
1.67309165e-17
1.61272957e-17
1.82983774e-17
1.73168586e-17
1.76684959e-17
1.70374923e-17
1.77215044e-17
2.27999314e-17
2.1332712e-17
1.84759193e-17
1.97702101e-17
2.21151255e-17
2.49364928e-17
2.46938075e-17
2.28102588e-17
2.3347152e-17
2.3188299e-17
2.34463027e-17
2.55352621e-17
2.29583069e-17
2.13256184e-17