/*--------------------------------*- C++ -*----------------------------------*\
| =========                 |                                                 |
| \\      /  F ield         | OpenFOAM: The Open Source CFD Toolbox           |
|  \\    /   O peration     | Version:  2206                                  |
|   \\  /    A nd           | Website:  www.openfoam.com                      |
|    \\/     M anipulation  |                                                 |
\*---------------------------------------------------------------------------*/
FoamFile
{
    version     2.0;
    format      ascii;
    arch        "LSB;label=32;scalar=64";
    class       volVectorField;
    location    "2.4e-06";
    object      U;
}
// * * * * * * * * * * * * * * * * * * * * * * * * * * * * * * * * * * * * * //

dimensions      [0 1 -1 0 0 0 0];

internalField   nonuniform List<vector> 
3183
(
(3.93855442e-14 0 0)
(-5.40560642e-15 0 0)
(-1.51691997e-14 0 0)
(-2.39425365e-14 0 0)
(-2.51938339e-14 0 0)
(-2.55173113e-19 0 0)
(-2.00896324e-20 0 0)
(-3.24966477e-25 0 0)
(1.02647903e-25 0 0)
(2.89191309e-24 0 0)
(1.33567332e-19 0 0)
(1.70447488e-18 0 0)
(9.78291153e-14 0 0)
(4.31687597e-14 0 0)
(-7.33789533e-14 0 0)
(-8.45662065e-14 0 0)
(8.51136093e-14 0 0)
(-1.22176644e-14 0 0)
(-2.39899316e-13 0 0)
(1.35197284e-14 0 0)
(1.61275349e-13 0 0)
(6.28334892e-18 0 0)
(6.13398292e-19 0 0)
(9.39449762e-20 0 0)
(2.46303903e-18 0 0)
(4.28544175e-14 0 0)
(2.51112429e-13 0 0)
(6.77386082e-15 0 0)
(-2.49513084e-13 0 0)
(-3.00660149e-14 0 0)
(-1.57854179e-13 0 0)
(7.47526757e-14 0 0)
(1.22332919e-13 0 0)
(-1.01123154e-13 0 0)
(2.83514677e-18 0 0)
(9.15922675e-14 0 0)
(-9.64056491e-14 0 0)
(-1.01430434e-13 0 0)
(1.06687256e-13 0 0)
(-2.49983916e-14 0 0)
(-2.10190323e-13 0 0)
(-1.93434e-13 0 0)
(1.44473436e-14 0 0)
(1.37760433e-13 0 0)
(1.93241818e-13 0 0)
(1.35692177e-13 0 0)
(1.42689419e-13 0 0)
(1.86414375e-14 0 0)
(-1.38021894e-13 0 0)
(-1.45482187e-13 0 0)
(-2.63228986e-16 0 0)
(-9.18884156e-14 0 0)
(-1.4485012e-13 0 0)
(5.07536626e-14 0 0)
(1.60177854e-13 0 0)
(6.29003229e-16 0 0)
(1.18761954e-13 0 0)
(3.0816873e-14 0 0)
(-3.31341096e-14 0 0)
(-6.89925828e-14 0 0)
(-2.54348869e-13 0 0)
(-1.91380493e-13 0 0)
(-8.09798881e-14 0 0)
(-8.43598214e-14 0 0)
(8.80488787e-16 0 0)
(9.31500464e-14 0 0)
(9.9192336e-14 0 0)
(1.03022876e-13 0 0)
(2.7205754e-13 0 0)
(-5.36067015e-14 0 0)
(2.98383136e-13 0 0)
(3.21125258e-13 0 0)
(2.02788077e-13 0 0)
(5.58894831e-13 0 0)
(5.19046015e-13 0 0)
(2.4672306e-13 0 0)
(2.44470554e-13 0 0)
(5.20551414e-13 0 0)
(3.70118914e-13 0 0)
(8.60010231e-13 0 0)
(1.00004704e-12 0 0)
(7.39304079e-13 0 0)
(1.20132789e-12 0 0)
(3.73829017e-13 0 0)
(1.48692829e-13 0 0)
(7.41613422e-13 0 0)
(4.08049662e-13 0 0)
(4.65917513e-13 0 0)
(4.03021234e-13 0 0)
(2.1004509e-13 0 0)
(6.64410091e-13 0 0)
(6.80404743e-13 0 0)
(8.26552751e-14 0 0)
(-1.10712175e-13 0 0)
(3.11960162e-13 0 0)
(1.79148323e-13 0 0)
(-4.24220217e-13 0 0)
(9.80408967e-13 0 0)
(1.91240452e-13 0 0)
(1.04591113e-13 0 0)
(-3.43647864e-13 0 0)
(2.84051548e-13 0 0)
(-9.65678214e-13 0 0)
(-4.8652129e-13 0 0)
(-1.02964926e-12 0 0)
(-1.99841703e-13 0 0)
(-8.01143822e-13 0 0)
(-6.06222783e-13 0 0)
(-3.85579247e-13 0 0)
(-6.75289693e-13 0 0)
(-7.81013478e-13 0 0)
(-9.06709758e-13 0 0)
(-1.01471582e-12 0 0)
(-1.38173749e-12 0 0)
(-7.17005835e-13 0 0)
(-1.92169673e-12 0 0)
(-1.4222317e-12 0 0)
(-1.34434647e-12 0 0)
(3.07124184e-13 0 0)
(-6.37060372e-14 0 0)
(-4.46168943e-13 0 0)
(-4.47426198e-13 0 0)
(-2.31193056e-13 0 0)
(-6.67872436e-15 0 0)
(-2.72053462e-13 0 0)
(-5.62795347e-13 0 0)
(2.52355709e-13 0 0)
(-4.52379106e-13 0 0)
(2.3515104e-14 0 0)
(-9.04081963e-13 0 0)
(4.57885962e-13 0 0)
(-5.6536367e-14 0 0)
(3.93196319e-13 0 0)
(4.58682722e-13 0 0)
(7.14672035e-13 0 0)
(3.83655949e-13 0 0)
(5.13277396e-13 0 0)
(1.54723246e-13 0 0)
(5.7950771e-14 0 0)
(3.63378382e-13 0 0)
(2.99255832e-14 0 0)
(-7.75535738e-13 0 0)
(-5.32880811e-14 0 0)
(-5.76532651e-13 0 0)
(1.07749608e-13 0 0)
(-1.07817281e-13 0 0)
(-7.27360447e-13 0 0)
(-2.9165384e-13 0 0)
(-4.89636241e-13 0 0)
(3.40773074e-13 0 0)
(7.4783122e-13 0 0)
(-7.82806875e-13 0 0)
(-4.50456893e-13 0 0)
(4.0350276e-13 0 0)
(-2.45235028e-14 0 0)
(-4.37251763e-13 0 0)
(-4.86609561e-13 0 0)
(1.38739034e-13 0 0)
(3.60994226e-13 0 0)
(4.02530127e-13 0 0)
(6.78891322e-14 0 0)
(9.05659991e-13 0 0)
(1.23448347e-14 0 0)
(6.39509646e-13 0 0)
(1.98616875e-13 0 0)
(8.29391652e-13 0 0)
(-1.12664298e-14 0 0)
(1.69224436e-14 0 0)
(6.99979236e-13 0 0)
(1.22330799e-12 0 0)
(-1.00553751e-13 0 0)
(1.47456964e-12 0 0)
(5.48058256e-13 0 0)
(1.02916967e-12 0 0)
(3.27594298e-13 0 0)
(1.55421686e-13 0 0)
(5.99904385e-13 0 0)
(1.06586501e-14 0 0)
(2.99485382e-13 0 0)
(7.80643763e-13 0 0)
(2.85142327e-13 0 0)
(-1.50619946e-13 0 0)
(5.81172897e-13 0 0)
(1.11920159e-12 0 0)
(1.24371383e-12 0 0)
(6.89529815e-13 0 0)
(1.51943254e-12 0 0)
(7.15961819e-13 0 0)
(9.41275957e-13 0 0)
(1.44390439e-12 0 0)
(1.12573496e-12 0 0)
(1.12770563e-12 0 0)
(2.02871105e-13 0 0)
(1.32407922e-12 0 0)
(9.06926073e-13 0 0)
(1.00172317e-12 0 0)
(1.27550823e-12 0 0)
(1.11339489e-12 0 0)
(9.36721486e-13 0 0)
(1.84474032e-12 0 0)
(1.27836681e-12 0 0)
(1.98971679e-13 0 0)
(1.34512998e-12 0 0)
(1.13846089e-12 0 0)
(3.15679385e-13 0 0)
(5.9701057e-13 0 0)
(1.44888091e-13 0 0)
(1.19203402e-12 0 0)
(5.33614758e-13 0 0)
(3.14563917e-13 0 0)
(2.2544256e-13 0 0)
(1.81391949e-14 0 0)
(-5.9943108e-13 0 0)
(7.84807535e-13 0 0)
(-1.73510201e-13 0 0)
(4.31857609e-13 0 0)
(7.7278262e-13 0 0)
(1.08243953e-13 0 0)
(1.12825547e-12 0 0)
(-3.83065872e-14 0 0)
(-8.80244438e-13 0 0)
(1.11738106e-12 0 0)
(4.44247719e-13 0 0)
(3.60263143e-13 0 0)
(-2.09299392e-13 0 0)
(-1.59967946e-12 0 0)
(1.21453023e-13 0 0)
(4.7142745e-13 0 0)
(5.71983827e-13 0 0)
(2.45387092e-13 0 0)
(3.44261796e-13 0 0)
(5.55854729e-13 0 0)
(-2.54950189e-13 0 0)
(6.60838233e-13 0 0)
(-8.98343108e-13 0 0)
(-9.46315758e-13 0 0)
(-9.17339684e-13 0 0)
(8.48374855e-13 0 0)
(-2.67095232e-13 0 0)
(-2.24933475e-13 0 0)
(5.91511967e-14 0 0)
(-6.42130799e-13 0 0)
(-4.55068386e-14 0 0)
(9.36574813e-13 0 0)
(-3.08802583e-14 0 0)
(-1.39360143e-13 0 0)
(9.62143048e-14 0 0)
(2.22392087e-13 0 0)
(3.94799491e-13 0 0)
(-1.54760595e-13 0 0)
(6.50679459e-13 0 0)
(3.97862376e-13 0 0)
(7.35092391e-13 0 0)
(1.30335793e-13 0 0)
(2.02887986e-13 0 0)
(-1.90091428e-13 0 0)
(4.46819109e-13 0 0)
(3.40870421e-13 0 0)
(3.65977685e-13 0 0)
(-4.12428753e-13 0 0)
(4.80278923e-13 0 0)
(8.13142427e-14 0 0)
(-5.02633037e-13 0 0)
(-9.01795517e-13 0 0)
(-1.17433028e-12 0 0)
(-1.62139042e-12 0 0)
(-7.55453443e-13 0 0)
(-1.16704221e-12 0 0)
(-1.49921096e-12 0 0)
(-1.80243299e-12 0 0)
(-1.20220557e-12 0 0)
(-1.58073777e-12 0 0)
(-2.26731856e-12 0 0)
(-1.5152661e-12 0 0)
(-2.10338596e-12 0 0)
(-1.58706082e-12 0 0)
(-1.46813316e-12 0 0)
(-2.10637776e-12 0 0)
(-1.69685429e-12 0 0)
(-1.22011191e-12 0 0)
(-1.38449194e-12 0 0)
(-1.86116981e-12 0 0)
(-1.7922993e-12 0 0)
(-1.76978987e-12 0 0)
(-1.55803633e-12 0 0)
(-1.72529522e-12 0 0)
(-2.30613904e-12 0 0)
(-1.36095676e-12 0 0)
(-2.69012604e-12 0 0)
(-1.74371135e-12 0 0)
(-2.29145165e-12 0 0)
(-1.79825337e-12 0 0)
(-2.15702719e-12 0 0)
(-2.24684115e-12 0 0)
(-2.64744957e-12 0 0)
(-1.82582455e-12 0 0)
(-2.10824698e-12 0 0)
(-2.6036992e-12 0 0)
(-2.50285524e-12 0 0)
(-2.97937893e-12 0 0)
(-7.56402086e-13 0 0)
(-1.84010873e-12 0 0)
(-2.39082215e-12 0 0)
(-2.51631152e-12 0 0)
(-2.96455114e-12 0 0)
(-3.57526935e-12 0 0)
(-2.41071823e-12 0 0)
(-3.0626817e-12 0 0)
(-2.68508132e-12 0 0)
(-2.32124728e-12 0 0)
(-3.53135886e-12 0 0)
(-3.21778065e-12 0 0)
(-2.82942319e-12 0 0)
(-3.07270112e-12 0 0)
(-3.16712283e-12 0 0)
(-3.37873451e-12 0 0)
(-3.5305506e-12 0 0)
(-3.35479023e-12 0 0)
(-2.68705073e-12 0 0)
(-2.94684618e-12 0 0)
(-3.28404592e-12 0 0)
(-3.58295914e-12 0 0)
(-3.63199495e-12 0 0)
(-2.89458889e-12 0 0)
(-3.01950369e-12 0 0)
(-3.00013098e-12 0 0)
(-3.15515519e-12 0 0)
(-3.73868053e-12 0 0)
(-3.24255158e-12 0 0)
(-3.03645812e-12 0 0)
(-2.89670631e-12 0 0)
(-3.03088738e-12 0 0)
(-2.72081378e-12 0 0)
(-3.33206961e-12 0 0)
(-2.46013888e-12 0 0)
(-2.32019392e-12 0 0)
(-1.90080184e-12 0 0)
(-2.95565679e-12 0 0)
(-2.45531794e-12 0 0)
(-1.92493556e-12 0 0)
(-2.43879961e-12 0 0)
(-2.93393465e-12 0 0)
(-2.4328103e-12 0 0)
(-1.90795785e-12 0 0)
(-2.50348689e-12 0 0)
(-2.62531274e-12 0 0)
(-3.15045179e-12 0 0)
(-2.41824568e-12 0 0)
(-2.76201826e-12 0 0)
(-3.10624843e-12 0 0)
(-2.44670042e-12 0 0)
(-1.77187861e-12 0 0)
(-2.83628721e-12 0 0)
(-2.68690986e-12 0 0)
(-2.53077926e-12 0 0)
(-2.37987754e-12 0 0)
(-3.33240596e-12 0 0)
(-2.48555412e-12 0 0)
(-3.13512761e-12 0 0)
(-2.88660462e-12 0 0)
(-2.45381843e-12 0 0)
(-2.6899202e-12 0 0)
(-3.70770035e-12 0 0)
(-3.22697168e-12 0 0)
(-2.49027737e-12 0 0)
(-3.53565709e-12 0 0)
(-2.76618405e-12 0 0)
(-2.76052521e-12 0 0)
(-1.72974084e-12 0 0)
(-2.21037887e-12 0 0)
(-1.73530955e-12 0 0)
(-1.66859316e-12 0 0)
(-1.13424554e-12 0 0)
(-1.81984097e-12 0 0)
(-1.57396022e-12 0 0)
(-2.19291052e-12 0 0)
(-1.65030664e-12 0 0)
(-2.05085079e-12 0 0)
(-2.41857778e-12 0 0)
(-3.37915191e-12 0 0)
(-1.6140987e-12 0 0)
(-1.65582524e-12 0 0)
(-2.08271179e-12 0 0)
(-2.48086265e-12 0 0)
(-2.10040739e-12 0 0)
(-1.82845398e-12 0 0)
(-1.94151294e-12 0 0)
(-2.09500031e-12 0 0)
(-2.6178742e-12 0 0)
(-1.8315538e-12 0 0)
(-2.13584845e-12 0 0)
(-1.82570898e-12 0 0)
(-1.43240382e-12 0 0)
(-1.53361078e-12 0 0)
(-1.28556757e-12 0 0)
(-8.80088071e-13 0 0)
(-1.37107997e-12 0 0)
(-1.21322364e-12 0 0)
(-1.32983544e-12 0 0)
(-2.69932282e-13 0 0)
(-2.37460004e-13 0 0)
(-8.97409119e-13 0 0)
(-6.23882548e-13 0 0)
(-8.47093093e-13 0 0)
(-9.83570922e-13 0 0)
(-8.46778731e-13 0 0)
(-1.98096742e-13 0 0)
(6.43561737e-14 0 0)
(-7.22742664e-13 0 0)
(-6.14809704e-13 0 0)
(2.81615044e-13 0 0)
(1.26017347e-13 0 0)
(-1.26785721e-13 0 0)
(-7.64424028e-13 0 0)
(2.73086114e-13 0 0)
(-4.13206905e-13 0 0)
(4.76630874e-13 0 0)
(3.01327939e-13 0 0)
(4.5520639e-13 0 0)
(-4.85870225e-14 0 0)
(4.07867955e-14 0 0)
(-1.61322585e-13 0 0)
(1.00371509e-13 0 0)
(-1.83905532e-13 0 0)
(-8.36108146e-13 0 0)
(-4.1430967e-13 0 0)
(7.45141189e-13 0 0)
(-9.03101648e-14 0 0)
(-1.93508136e-13 0 0)
(1.09681772e-13 0 0)
(1.30910389e-13 0 0)
(-1.16117484e-12 0 0)
(-7.18132373e-13 0 0)
(7.49469561e-14 0 0)
(-3.34381815e-13 0 0)
(-8.60289658e-13 0 0)
(-1.73744836e-13 0 0)
(6.40114001e-13 0 0)
(-9.75966079e-13 0 0)
(3.32946345e-13 0 0)
(2.21931087e-13 0 0)
(-1.77201826e-14 0 0)
(-1.9424714e-13 0 0)
(2.51746226e-13 0 0)
(6.51149488e-13 0 0)
(2.76014229e-13 0 0)
(-1.18901453e-13 0 0)
(3.01364151e-13 0 0)
(-9.68889012e-13 0 0)
(4.20376813e-13 0 0)
(3.1431762e-15 0 0)
(2.44103301e-13 0 0)
(8.95045315e-13 0 0)
(1.4180862e-13 0 0)
(5.73844795e-13 0 0)
(-2.31573586e-13 0 0)
(9.4920506e-13 0 0)
(9.24109957e-13 0 0)
(5.99697457e-13 0 0)
(3.56214218e-13 0 0)
(4.19680047e-13 0 0)
(6.1784783e-13 0 0)
(9.48136495e-13 0 0)
(9.17921432e-14 0 0)
(5.82018652e-15 0 0)
(9.56166166e-13 0 0)
(2.2600212e-13 0 0)
(7.6707379e-13 0 0)
(8.10798645e-13 0 0)
(7.56288226e-13 0 0)
(1.11945147e-12 0 0)
(2.15711079e-12 0 0)
(2.96631018e-13 0 0)
(1.54870136e-12 0 0)
(8.11035728e-13 0 0)
(8.03726212e-13 0 0)
(3.02314716e-13 0 0)
(1.15586545e-12 0 0)
(4.01701597e-13 0 0)
(3.08707745e-13 0 0)
(1.84814707e-13 0 0)
(4.9003959e-15 0 0)
(-6.87704777e-13 0 0)
(-2.7803898e-13 0 0)
(3.80796333e-13 0 0)
(2.70762098e-13 0 0)
(3.10229296e-13 0 0)
(3.029802e-13 0 0)
(-6.49903999e-13 0 0)
(7.0840229e-14 0 0)
(-9.4202525e-13 0 0)
(3.53976969e-13 0 0)
(-6.9235499e-13 0 0)
(-4.36637511e-13 0 0)
(3.72218571e-13 0 0)
(-1.1561808e-12 0 0)
(-1.14865688e-12 0 0)
(-1.4379926e-13 0 0)
(-1.93622749e-12 0 0)
(-6.45037692e-13 0 0)
(-6.08316787e-13 0 0)
(-1.13189659e-12 0 0)
(-3.19347524e-13 0 0)
(-3.23092867e-13 0 0)
(-3.02572922e-13 0 0)
(-5.12395008e-13 0 0)
(-5.39469036e-13 0 0)
(-3.52752682e-13 0 0)
(-1.4069871e-12 0 0)
(-6.39399608e-13 0 0)
(-8.94707504e-13 0 0)
(-4.86973057e-13 0 0)
(-6.52693935e-13 0 0)
(4.77287188e-14 0 0)
(-5.17806797e-13 0 0)
(-1.79256451e-12 0 0)
(-1.25741015e-12 0 0)
(-6.82920295e-13 0 0)
(-9.11695523e-13 0 0)
(-7.07268268e-13 0 0)
(-9.59754692e-14 0 0)
(1.64248356e-14 0 0)
(-8.15985484e-13 0 0)
(-1.05431479e-12 0 0)
(-7.25828671e-13 0 0)
(-7.02309631e-13 0 0)
(-1.67411844e-12 0 0)
(-5.59185119e-13 0 0)
(-1.09813614e-12 0 0)
(-5.6551629e-13 0 0)
(-9.3057688e-13 0 0)
(-2.50197419e-13 0 0)
(-1.35640367e-12 0 0)
(-1.08663523e-12 0 0)
(-1.44562721e-12 0 0)
(-6.40154539e-13 0 0)
(-1.45960117e-12 0 0)
(-2.18657374e-12 0 0)
(-8.22677318e-13 0 0)
(-8.99574776e-13 0 0)
(-1.20794007e-12 0 0)
(-7.1562495e-13 0 0)
(-8.35130958e-13 0 0)
(-3.14947674e-13 0 0)
(2.05651835e-13 0 0)
(3.29962782e-13 0 0)
(-4.32184024e-13 0 0)
(-1.64711421e-13 0 0)
(-1.60692806e-13 0 0)
(2.94959811e-13 0 0)
(-7.624552e-13 0 0)
(-3.13409443e-13 0 0)
(-3.85311116e-13 0 0)
(1.2103743e-13 0 0)
(-5.5060262e-13 0 0)
(-5.27457751e-13 0 0)
(2.01691516e-13 0 0)
(-3.33257545e-14 0 0)
(1.39020808e-13 0 0)
(-2.53715308e-13 0 0)
(-8.49473527e-13 0 0)
(-1.00350265e-12 0 0)
(-2.33172304e-13 0 0)
(-4.93622601e-13 0 0)
(4.66830504e-13 0 0)
(-3.02541512e-13 0 0)
(1.25143375e-12 0 0)
(6.2616081e-13 0 0)
(9.15204642e-13 0 0)
(1.51694432e-12 0 0)
(7.74234448e-13 0 0)
(7.77106692e-13 0 0)
(1.31810467e-12 0 0)
(1.32426532e-12 0 0)
(1.05615857e-12 0 0)
(8.24548303e-13 0 0)
(1.08021231e-12 0 0)
(9.09848284e-13 0 0)
(2.03123642e-12 0 0)
(1.55254739e-12 0 0)
(1.43336605e-12 0 0)
(1.54293652e-12 0 0)
(2.08738485e-12 0 0)
(9.24627172e-13 0 0)
(1.83485968e-12 0 0)
(2.26854985e-12 0 0)
(1.900641e-12 0 0)
(1.71581994e-12 0 0)
(1.66830233e-12 0 0)
(2.67155225e-12 0 0)
(1.71409499e-12 0 0)
(2.79697317e-12 0 0)
(1.66480604e-12 0 0)
(1.98006182e-12 0 0)
(1.59595083e-12 0 0)
(2.4254335e-12 0 0)
(1.67401914e-12 0 0)
(1.11604073e-12 0 0)
(1.21483435e-12 0 0)
(1.47960556e-12 0 0)
(1.51943438e-12 0 0)
(1.9206019e-12 0 0)
(2.6292559e-12 0 0)
(2.12256634e-12 0 0)
(1.10392185e-12 0 0)
(1.25949672e-12 0 0)
(1.31611611e-12 0 0)
(1.34480857e-12 0 0)
(1.38044424e-12 0 0)
(7.74122697e-13 0 0)
(-7.3191794e-14 0 0)
(6.07112886e-13 0 0)
(1.27407421e-12 0 0)
(-6.08000841e-13 0 0)
(5.8131927e-13 0 0)
(2.11112347e-13 0 0)
(-5.80696448e-14 0 0)
(2.55208038e-14 0 0)
(-3.31387505e-14 0 0)
(9.08892355e-13 0 0)
(1.768751e-13 0 0)
(1.04397716e-12 0 0)
(7.00738914e-13 0 0)
(2.40313568e-13 0 0)
(4.3336139e-13 0 0)
(2.70983159e-13 0 0)
(5.06204149e-13 0 0)
(-8.19545999e-14 0 0)
(2.71456653e-13 0 0)
(5.15056256e-13 0 0)
(-4.82527195e-13 0 0)
(-8.3454464e-14 0 0)
(1.07283559e-12 0 0)
(5.00245344e-13 0 0)
(4.75953881e-13 0 0)
(6.02972917e-13 0 0)
(1.60562162e-13 0 0)
(8.01710413e-13 0 0)
(2.12181004e-13 0 0)
(2.01522209e-14 0 0)
(2.75412511e-13 0 0)
(3.34641969e-13 0 0)
(-9.82707131e-14 0 0)
(-4.33148936e-13 0 0)
(-5.0506684e-13 0 0)
(-3.63683925e-13 0 0)
(-7.16295119e-13 0 0)
(-7.04663868e-13 0 0)
(-5.5957954e-13 0 0)
(2.12462871e-13 0 0)
(1.79116203e-13 0 0)
(-1.18707803e-12 0 0)
(1.77469502e-13 0 0)
(4.64032321e-13 0 0)
(-1.39081807e-12 0 0)
(6.90509338e-14 0 0)
(-3.0891089e-13 0 0)
(-7.66670608e-13 0 0)
(-8.00499741e-13 0 0)
(-6.68483846e-13 0 0)
(-7.47223484e-13 0 0)
(-1.29054311e-12 0 0)
(-1.37764614e-12 0 0)
(-2.21272559e-12 0 0)
(-2.05914822e-12 0 0)
(-1.46456609e-12 0 0)
(-1.51822805e-12 0 0)
(-7.30608881e-13 0 0)
(-1.1013377e-12 0 0)
(-1.12689248e-12 0 0)
(-9.9141323e-13 0 0)
(-6.90271504e-13 0 0)
(-5.35906895e-13 0 0)
(-3.60820751e-13 0 0)
(-7.16861865e-13 0 0)
(-2.54014593e-13 0 0)
(-1.08242468e-12 0 0)
(2.55393275e-13 0 0)
(-5.24236573e-13 0 0)
(-1.26345171e-13 0 0)
(-1.46832804e-13 0 0)
(7.78064443e-14 0 0)
(1.04534881e-12 0 0)
(1.09707132e-12 0 0)
(7.79378422e-13 0 0)
(8.76294461e-13 0 0)
(6.38880368e-13 0 0)
(4.45000883e-14 0 0)
(3.6663735e-13 0 0)
(7.23449915e-13 0 0)
(3.96150884e-13 0 0)
(3.35441181e-13 0 0)
(6.7431864e-13 0 0)
(7.83250514e-14 0 0)
(3.05236586e-13 0 0)
(1.5348227e-12 0 0)
(1.38219113e-12 0 0)
(1.47314882e-12 0 0)
(2.94850931e-13 0 0)
(2.37138159e-12 0 0)
(1.78580202e-12 0 0)
(1.86657442e-12 0 0)
(1.36225539e-12 0 0)
(1.98379568e-12 0 0)
(1.24629124e-12 0 0)
(1.8269415e-12 0 0)
(1.36711312e-12 0 0)
(1.51962098e-12 0 0)
(1.74756004e-12 0 0)
(2.02824069e-12 0 0)
(2.16955898e-12 0 0)
(2.37500284e-12 0 0)
(2.75407327e-12 0 0)
(2.69329806e-12 0 0)
(2.0813641e-12 0 0)
(2.37578942e-12 0 0)
(2.84364881e-12 0 0)
(2.77729128e-12 0 0)
(2.42285913e-12 0 0)
(3.32932888e-12 0 0)
(2.56404323e-12 0 0)
(3.39430184e-12 0 0)
(4.06133372e-12 0 0)
(2.35858205e-12 0 0)
(2.76755282e-12 0 0)
(2.3227085e-12 0 0)
(3.07095245e-12 0 0)
(1.8484022e-12 0 0)
(2.90222895e-12 0 0)
(3.1235521e-12 0 0)
(1.90537832e-12 0 0)
(3.17822534e-12 0 0)
(2.80597455e-12 0 0)
(2.50598371e-12 0 0)
(2.3251352e-12 0 0)
(2.99436444e-12 0 0)
(3.00585974e-12 0 0)
(2.60383201e-12 0 0)
(2.76602002e-12 0 0)
(2.5024005e-12 0 0)
(2.37422772e-12 0 0)
(1.51217313e-12 0 0)
(2.22638547e-12 0 0)
(7.97158727e-13 0 0)
(1.72440971e-12 0 0)
(9.6487368e-13 0 0)
(1.89808892e-12 0 0)
(1.01474688e-12 0 0)
(5.21943974e-13 0 0)
(1.44233261e-12 0 0)
(5.98118119e-13 0 0)
(1.67018879e-12 0 0)
(1.31382214e-12 0 0)
(4.37639266e-13 0 0)
(1.60912141e-12 0 0)
(1.02186504e-12 0 0)
(1.71572082e-12 0 0)
(9.82847002e-13 0 0)
(1.15009531e-12 0 0)
(1.1297124e-12 0 0)
(2.10831269e-14 0 0)
(7.83535681e-13 0 0)
(1.82883143e-13 0 0)
(7.43620004e-13 0 0)
(1.19037154e-12 0 0)
(2.24141632e-14 0 0)
(1.01693054e-13 0 0)
(-1.28149898e-13 0 0)
(5.85238133e-13 0 0)
(-2.72752785e-13 0 0)
(-4.69978681e-15 0 0)
(-9.70767288e-13 0 0)
(-8.90899762e-13 0 0)
(1.91073611e-13 0 0)
(-8.37612912e-13 0 0)
(2.64415187e-13 0 0)
(-1.17356939e-12 0 0)
(-8.19906448e-13 0 0)
(3.01937787e-14 0 0)
(-1.91093337e-13 0 0)
(-8.69330073e-14 0 0)
(-3.54317596e-13 0 0)
(-3.78289502e-13 0 0)
(-1.24334917e-12 0 0)
(-3.16684618e-13 0 0)
(-4.09850239e-13 0 0)
(-7.33143559e-13 0 0)
(-3.40818626e-13 0 0)
(-4.80291899e-13 0 0)
(-4.60009422e-13 0 0)
(-5.70911919e-13 0 0)
(-6.32098919e-13 0 0)
(-2.19230924e-13 0 0)
(-1.07185431e-12 0 0)
(-1.54122631e-12 0 0)
(-7.35394907e-13 0 0)
(-1.50010947e-12 0 0)
(-4.20962839e-13 0 0)
(-1.0317879e-12 0 0)
(-2.21125044e-12 0 0)
(-1.57784968e-12 0 0)
(-1.18500345e-12 0 0)
(-1.84961472e-12 0 0)
(-1.73967938e-12 0 0)
(-1.5970951e-12 0 0)
(-1.90625898e-12 0 0)
(-5.1399715e-13 0 0)
(-1.36185043e-12 0 0)
(-7.31968278e-13 0 0)
(-9.12160573e-13 0 0)
(-6.85100368e-13 0 0)
(-1.086036e-12 0 0)
(-6.05806346e-13 0 0)
(-2.29859215e-13 0 0)
(-7.43920055e-13 0 0)
(-2.50970113e-13 0 0)
(4.69107896e-14 0 0)
(-4.1816256e-13 0 0)
(-3.65736102e-13 0 0)
(-2.93266907e-13 0 0)
(6.64368532e-13 0 0)
(9.30147709e-13 0 0)
(3.17434014e-13 0 0)
(7.8290017e-13 0 0)
(6.00622885e-13 0 0)
(7.92063303e-13 0 0)
(6.20593879e-14 0 0)
(-1.22903183e-13 0 0)
(-3.46345321e-13 0 0)
(-2.6201049e-13 0 0)
(-5.31383693e-13 0 0)
(-2.11448524e-14 0 0)
(-1.07560462e-12 0 0)
(6.31227609e-13 0 0)
(-3.01148637e-13 0 0)
(1.18571279e-13 0 0)
(-4.75827028e-13 0 0)
(-2.56466557e-13 0 0)
(1.89702297e-13 0 0)
(-4.76986102e-14 0 0)
(-5.17143026e-13 0 0)
(-5.03441646e-13 0 0)
(-4.38012575e-13 0 0)
(9.55436642e-13 0 0)
(-7.14654046e-13 0 0)
(3.33606944e-13 0 0)
(5.2114691e-13 0 0)
(9.0731181e-13 0 0)
(5.44847178e-14 0 0)
(6.192219e-13 0 0)
(1.01007346e-13 0 0)
(4.72267897e-13 0 0)
(-2.57943862e-15 0 0)
(5.52236018e-13 0 0)
(1.24085515e-12 0 0)
(-7.65796056e-13 0 0)
(-5.96331734e-13 0 0)
(-4.71227017e-15 0 0)
(2.65682913e-13 0 0)
(-4.72314538e-13 0 0)
(-6.1876242e-14 0 0)
(4.33746522e-14 0 0)
(-9.95135237e-14 0 0)
(-9.26963234e-16 0 0)
(1.67683033e-14 0 0)
(8.33812149e-13 0 0)
(-6.99447131e-13 0 0)
(-6.31255274e-14 0 0)
(1.28533915e-13 0 0)
(-4.99200911e-13 0 0)
(-4.9483468e-13 0 0)
(-1.01274183e-12 0 0)
(-1.12802805e-12 0 0)
(5.78936833e-14 0 0)
(5.35959153e-13 0 0)
(5.04854421e-14 0 0)
(-6.42709594e-13 0 0)
(-4.80079781e-13 0 0)
(-9.73134882e-15 0 0)
(3.90248083e-13 0 0)
(3.73838065e-13 0 0)
(5.92985807e-14 0 0)
(1.51429187e-13 0 0)
(3.03746548e-13 0 0)
(7.84101949e-13 0 0)
(-4.36305585e-13 0 0)
(1.27911898e-14 0 0)
(-1.31620057e-12 0 0)
(-1.36837664e-12 0 0)
(-4.27497863e-13 0 0)
(-5.58867367e-13 0 0)
(-4.60572041e-13 0 0)
(-1.58123647e-13 0 0)
(-3.78679072e-13 0 0)
(-3.39926589e-13 0 0)
(1.20865118e-13 0 0)
(4.882141e-13 0 0)
(4.14969661e-13 0 0)
(-2.5907011e-13 0 0)
(8.71087917e-13 0 0)
(9.31461793e-13 0 0)
(9.13991868e-13 0 0)
(3.80500016e-13 0 0)
(2.04570312e-13 0 0)
(-1.7388567e-13 0 0)
(6.64118449e-14 0 0)
(-9.7598497e-13 0 0)
(5.57883051e-13 0 0)
(4.95868187e-13 0 0)
(1.06662954e-12 0 0)
(-9.23444937e-13 0 0)
(-2.21046489e-13 0 0)
(-3.52233833e-15 0 0)
(2.89218686e-14 0 0)
(4.19652525e-13 0 0)
(3.1976547e-13 0 0)
(3.15929646e-13 0 0)
(6.76708985e-13 0 0)
(6.72451047e-13 0 0)
(6.90128142e-13 0 0)
(-1.29038098e-13 0 0)
(3.30980355e-13 0 0)
(5.7980004e-13 0 0)
(-2.01205477e-13 0 0)
(1.93290521e-13 0 0)
(7.78894179e-13 0 0)
(1.69167935e-13 0 0)
(1.30744888e-13 0 0)
(1.81482272e-13 0 0)
(-4.24601875e-13 0 0)
(4.48393927e-13 0 0)
(6.40288369e-13 0 0)
(-5.17526532e-13 0 0)
(-3.76139807e-13 0 0)
(-5.13648339e-14 0 0)
(4.5373267e-13 0 0)
(4.02718147e-13 0 0)
(1.69508672e-13 0 0)
(4.22156646e-13 0 0)
(2.55000189e-15 0 0)
(7.64620491e-13 0 0)
(2.34594343e-13 0 0)
(1.31920531e-12 0 0)
(8.19177496e-13 0 0)
(5.97169881e-13 0 0)
(1.15414781e-12 0 0)
(1.49430423e-12 0 0)
(1.45445785e-12 0 0)
(6.00387579e-13 0 0)
(1.05284614e-12 0 0)
(7.58782625e-13 0 0)
(6.90378542e-13 0 0)
(2.56854206e-13 0 0)
(-6.74717312e-14 0 0)
(6.60851143e-13 0 0)
(-3.20951724e-15 0 0)
(4.60516279e-13 0 0)
(4.8854357e-13 0 0)
(9.40867751e-14 0 0)
(4.93195037e-13 0 0)
(1.18466989e-12 0 0)
(1.99479909e-12 0 0)
(2.1444632e-12 0 0)
(8.03656373e-13 0 0)
(1.44853592e-12 0 0)
(1.72768565e-12 0 0)
(1.66467568e-12 0 0)
(1.88338255e-12 0 0)
(1.99891437e-12 0 0)
(2.14700063e-12 0 0)
(1.67910077e-12 0 0)
(2.43055857e-12 0 0)
(1.27071969e-12 0 0)
(2.54154954e-12 0 0)
(2.2022445e-12 0 0)
(2.34032173e-12 0 0)
(1.92908236e-12 0 0)
(1.88532823e-12 0 0)
(1.1359766e-12 0 0)
(2.21365794e-12 0 0)
(1.80387835e-12 0 0)
(2.51485329e-12 0 0)
(3.1493707e-12 0 0)
(3.06183939e-12 0 0)
(2.03077769e-12 0 0)
(2.33401997e-12 0 0)
(2.49786954e-12 0 0)
(2.9070258e-12 0 0)
(2.0947791e-12 0 0)
(2.10006664e-12 0 0)
(2.72064411e-12 0 0)
(2.39721732e-12 0 0)
(3.17460834e-12 0 0)
(2.06154013e-12 0 0)
(1.94147024e-12 0 0)
(1.77681452e-12 0 0)
(2.65597722e-12 0 0)
(2.07771408e-12 0 0)
(2.96091098e-12 0 0)
(2.74578899e-12 0 0)
(2.76547925e-12 0 0)
(3.27825478e-12 0 0)
(3.4357247e-12 0 0)
(1.90325396e-12 0 0)
(2.87416819e-12 0 0)
(2.76574354e-12 0 0)
(3.83770724e-12 0 0)
(1.97869082e-12 0 0)
(2.98529323e-12 0 0)
(1.65625969e-12 0 0)
(1.81909778e-12 0 0)
(2.19009461e-12 0 0)
(1.80084264e-12 0 0)
(1.63224907e-12 0 0)
(1.14434125e-12 0 0)
(1.537159e-12 0 0)
(1.19024227e-12 0 0)
(2.25274264e-12 0 0)
(1.05816982e-12 0 0)
(1.72974056e-12 0 0)
(8.36227273e-13 0 0)
(5.80559993e-13 0 0)
(5.80738564e-13 0 0)
(8.67604372e-13 0 0)
(1.23397061e-12 0 0)
(7.10127133e-13 0 0)
(1.09426632e-12 0 0)
(1.28128178e-12 0 0)
(8.24560629e-13 0 0)
(1.20512652e-12 0 0)
(9.01434145e-13 0 0)
(4.16275706e-13 0 0)
(4.73573191e-13 0 0)
(-2.73413412e-13 0 0)
(-3.30084009e-13 0 0)
(-2.58058117e-13 0 0)
(9.90337226e-13 0 0)
(1.26410769e-13 0 0)
(-1.85806389e-13 0 0)
(1.32243578e-12 0 0)
(9.47659714e-13 0 0)
(1.29001127e-12 0 0)
(8.83100101e-13 0 0)
(1.94734498e-12 0 0)
(1.80611884e-12 0 0)
(1.18183156e-12 0 0)
(1.31229243e-12 0 0)
(1.12018494e-12 0 0)
(7.21601389e-13 0 0)
(1.0013431e-12 0 0)
(6.62998709e-13 0 0)
(1.11388204e-12 0 0)
(6.80889669e-13 0 0)
(2.23034362e-12 0 0)
(7.9082348e-13 0 0)
(6.19886367e-13 0 0)
(1.35241561e-12 0 0)
(1.97668136e-12 0 0)
(6.8340495e-13 0 0)
(1.95888361e-12 0 0)
(5.73663626e-13 0 0)
(2.35812821e-13 0 0)
(1.34206179e-12 0 0)
(2.34186396e-12 0 0)
(1.24428958e-12 0 0)
(1.25293591e-12 0 0)
(1.66874387e-12 0 0)
(1.1692553e-12 0 0)
(1.26850236e-12 0 0)
(9.59597848e-13 0 0)
(1.62495559e-12 0 0)
(8.82116447e-13 0 0)
(8.85219297e-13 0 0)
(1.89799177e-12 0 0)
(2.5207885e-12 0 0)
(1.45801882e-12 0 0)
(6.58853621e-13 0 0)
(1.10160912e-12 0 0)
(1.55807915e-12 0 0)
(1.012754e-12 0 0)
(1.78756186e-12 0 0)
(1.95635851e-12 0 0)
(1.39443674e-12 0 0)
(6.67676165e-13 0 0)
(1.03308831e-12 0 0)
(1.23473606e-12 0 0)
(6.98372069e-13 0 0)
(1.20886893e-12 0 0)
(6.59769564e-13 0 0)
(1.02071856e-14 0 0)
(1.88373079e-13 0 0)
(1.57186153e-12 0 0)
(1.21744433e-12 0 0)
(2.81747061e-13 0 0)
(2.53495154e-13 0 0)
(5.88387173e-13 0 0)
(3.16477498e-14 0 0)
(1.38977994e-12 0 0)
(8.46875866e-13 0 0)
(2.37492367e-13 0 0)
(2.19655858e-13 0 0)
(7.68038184e-14 0 0)
(2.32058438e-13 0 0)
(-6.8970891e-13 0 0)
(-3.65725277e-14 0 0)
(-4.39695176e-13 0 0)
(-1.49183398e-13 0 0)
(-6.25095265e-13 0 0)
(-6.15641583e-13 0 0)
(-3.03587374e-13 0 0)
(-6.19746158e-13 0 0)
(-5.50298178e-14 0 0)
(-2.39359747e-13 0 0)
(-4.04734119e-14 0 0)
(-1.55761256e-13 0 0)
(-6.49925035e-13 0 0)
(-7.67855217e-13 0 0)
(6.44636938e-13 0 0)
(-4.48619736e-13 0 0)
(-3.47368476e-14 0 0)
(7.03963606e-13 0 0)
(-1.77251504e-13 0 0)
(-1.49097967e-12 0 0)
(-5.91891444e-13 0 0)
(-6.20442715e-13 0 0)
(-1.63666896e-12 0 0)
(-7.61389741e-13 0 0)
(-1.06038676e-12 0 0)
(-2.06257012e-12 0 0)
(-1.87316759e-12 0 0)
(-1.57223673e-12 0 0)
(-1.87680328e-12 0 0)
(-2.96253899e-12 0 0)
(-1.93730983e-12 0 0)
(-1.70925856e-12 0 0)
(-2.39264618e-12 0 0)
(-3.23478745e-12 0 0)
(-1.85457774e-12 0 0)
(-2.68312094e-12 0 0)
(-2.5435773e-12 0 0)
(-1.50321158e-12 0 0)
(-1.73093667e-12 0 0)
(-1.38001224e-12 0 0)
(-1.01357429e-12 0 0)
(-3.73851359e-13 0 0)
(-5.62425055e-13 0 0)
(-1.69283479e-12 0 0)
(-9.25945854e-13 0 0)
(-1.13974391e-12 0 0)
(-1.05995038e-12 0 0)
(-9.63629651e-13 0 0)
(-1.51884459e-14 0 0)
(-1.29322319e-12 0 0)
(-5.60344402e-13 0 0)
(1.82144196e-13 0 0)
(-1.08276028e-13 0 0)
(-2.31527941e-14 0 0)
(-9.90351365e-13 0 0)
(-1.10897485e-12 0 0)
(-1.54496325e-12 0 0)
(-1.17849879e-12 0 0)
(-1.2397611e-12 0 0)
(-7.58746884e-13 0 0)
(-4.51974737e-13 0 0)
(-4.69268934e-13 0 0)
(-5.79492988e-13 0 0)
(-3.71579791e-13 0 0)
(3.39708971e-13 0 0)
(-6.62924043e-13 0 0)
(-1.65667314e-13 0 0)
(-4.08420126e-13 0 0)
(-3.72109173e-13 0 0)
(-9.37130131e-13 0 0)
(-1.77137643e-12 0 0)
(-6.66318613e-13 0 0)
(-8.93951422e-13 0 0)
(-1.36662018e-12 0 0)
(-1.36875655e-12 0 0)
(-3.32070227e-13 0 0)
(-9.52131098e-13 0 0)
(-1.06588974e-12 0 0)
(-8.36796403e-13 0 0)
(-1.35537021e-12 0 0)
(-6.17896233e-13 0 0)
(-1.19323818e-12 0 0)
(-2.55281736e-13 0 0)
(-3.25987407e-13 0 0)
(-9.13216247e-13 0 0)
(-9.01607427e-13 0 0)
(-1.54449726e-12 0 0)
(-3.08418676e-13 0 0)
(-3.70871216e-13 0 0)
(-4.50971466e-13 0 0)
(-6.47433163e-13 0 0)
(-6.67034514e-13 0 0)
(-1.53310162e-12 0 0)
(-1.38009359e-12 0 0)
(-1.57169305e-12 0 0)
(-1.65425555e-12 0 0)
(-2.29112537e-12 0 0)
(-1.28916529e-12 0 0)
(-1.74712998e-12 0 0)
(-2.07102277e-12 0 0)
(-2.63875712e-12 0 0)
(-2.35032821e-12 0 0)
(-1.57683088e-12 0 0)
(-1.83356745e-12 0 0)
(-1.73882058e-12 0 0)
(-1.63249387e-12 0 0)
(-1.6673991e-12 0 0)
(-1.98317078e-12 0 0)
(-2.27539588e-12 0 0)
(-1.94206243e-12 0 0)
(-1.304277e-12 0 0)
(-1.44173543e-12 0 0)
(-2.14450432e-12 0 0)
(-1.92468123e-12 0 0)
(-2.73896676e-12 0 0)
(-2.77987053e-12 0 0)
(-2.11641216e-12 0 0)
(-1.86185488e-12 0 0)
(-2.86402823e-12 0 0)
(-2.48657948e-12 0 0)
(-2.54900685e-12 0 0)
(-1.38431271e-12 0 0)
(-2.07715937e-12 0 0)
(-2.38468061e-12 0 0)
(-1.64921621e-12 0 0)
(-2.09304771e-12 0 0)
(-1.40487556e-12 0 0)
(-2.37518568e-12 0 0)
(-1.58890268e-12 0 0)
(-2.34888745e-12 0 0)
(-1.22718857e-12 0 0)
(-2.42725539e-12 0 0)
(-2.35796099e-12 0 0)
(-1.6720158e-12 0 0)
(-1.68505324e-12 0 0)
(-2.10046362e-12 0 0)
(-2.54111459e-12 0 0)
(-2.01400322e-12 0 0)
(-1.46405985e-12 0 0)
(-2.47691032e-12 0 0)
(-1.92960025e-12 0 0)
(-1.44051169e-12 0 0)
(-1.70721134e-12 0 0)
(-2.44670815e-12 0 0)
(-2.68020584e-12 0 0)
(-1.84311799e-12 0 0)
(-2.64048237e-12 0 0)
(-1.14287115e-12 0 0)
(-1.48669033e-12 0 0)
(-8.69913595e-13 0 0)
(-1.55443439e-12 0 0)
(-1.67941853e-12 0 0)
(-1.79455057e-12 0 0)
(-2.0380347e-12 0 0)
(-2.56298579e-12 0 0)
(-1.57586331e-12 0 0)
(-1.75981291e-12 0 0)
(-1.89694532e-12 0 0)
(-1.85925755e-12 0 0)
(-1.59811464e-12 0 0)
(-1.51074556e-12 0 0)
(-2.23705373e-12 0 0)
(-1.42810895e-12 0 0)
(-8.87721323e-13 0 0)
(-1.26442239e-12 0 0)
(-8.43482409e-13 0 0)
(-1.14655351e-12 0 0)
(-1.7192749e-12 0 0)
(-2.07392899e-12 0 0)
(-8.4995738e-13 0 0)
(-7.80440162e-13 0 0)
(-1.06699462e-12 0 0)
(-1.38887191e-12 0 0)
(-1.28884887e-12 0 0)
(-1.10026899e-12 0 0)
(-1.23565952e-12 0 0)
(-7.54663827e-13 0 0)
(-9.87186354e-13 0 0)
(-1.41078101e-13 0 0)
(-4.32701343e-13 0 0)
(-9.01763712e-13 0 0)
(-8.26850318e-13 0 0)
(-1.19911679e-12 0 0)
(-7.67570428e-13 0 0)
(-1.12948497e-12 0 0)
(-4.53228956e-13 0 0)
(-2.88055795e-13 0 0)
(-5.9702302e-13 0 0)
(9.03079095e-14 0 0)
(1.59338913e-13 0 0)
(2.05466237e-14 0 0)
(2.75113751e-13 0 0)
(9.50697735e-13 0 0)
(1.424812e-12 0 0)
(4.82630066e-13 0 0)
(8.34657865e-13 0 0)
(7.89349491e-13 0 0)
(3.28471474e-13 0 0)
(-2.03583406e-13 0 0)
(1.3180429e-13 0 0)
(-4.83333479e-13 0 0)
(-3.80596668e-14 0 0)
(6.5611655e-14 0 0)
(9.78107784e-13 0 0)
(-6.11780669e-13 0 0)
(4.73599082e-13 0 0)
(3.8183564e-13 0 0)
(-2.05995253e-13 0 0)
(-1.16717401e-12 0 0)
(-8.79209585e-13 0 0)
(-1.50051839e-12 0 0)
(-2.17827846e-13 0 0)
(-7.52855282e-13 0 0)
(-8.08365274e-13 0 0)
(-2.69883182e-13 0 0)
(-2.84612268e-13 0 0)
(-6.35277611e-13 0 0)
(4.61499149e-13 0 0)
(-3.54471918e-13 0 0)
(2.38543838e-13 0 0)
(6.64332152e-14 0 0)
(6.89593554e-14 0 0)
(4.30703334e-13 0 0)
(1.62985816e-14 0 0)
(2.52461258e-13 0 0)
(-2.00096907e-13 0 0)
(-3.39712162e-13 0 0)
(-4.30448686e-13 0 0)
(-6.74531846e-13 0 0)
(-1.25762374e-12 0 0)
(-6.10007374e-14 0 0)
(2.45527392e-13 0 0)
(-2.49082862e-13 0 0)
(-2.02174187e-13 0 0)
(8.83684736e-13 0 0)
(5.18291478e-13 0 0)
(3.89348605e-13 0 0)
(4.15296862e-13 0 0)
(1.37145498e-12 0 0)
(1.35206465e-12 0 0)
(7.06489327e-13 0 0)
(6.36453428e-15 0 0)
(3.08447747e-13 0 0)
(-1.60992645e-14 0 0)
(8.88126531e-13 0 0)
(1.12323574e-13 0 0)
(3.31040174e-13 0 0)
(6.144765e-13 0 0)
(7.18585949e-14 0 0)
(9.17442365e-13 0 0)
(1.05074819e-12 0 0)
(7.40300472e-13 0 0)
(9.9850066e-13 0 0)
(1.4246974e-12 0 0)
(4.6234638e-13 0 0)
(9.03475975e-13 0 0)
(6.81570033e-13 0 0)