/*--------------------------------*- C++ -*----------------------------------*\
| =========                 |                                                 |
| \\      /  F ield         | OpenFOAM: The Open Source CFD Toolbox           |
|  \\    /   O peration     | Version:  2206                                  |
|   \\  /    A nd           | Website:  www.openfoam.com                      |
|    \\/     M anipulation  |                                                 |
\*---------------------------------------------------------------------------*/
FoamFile
{
    version     2.0;
    format      ascii;
    arch        "LSB;label=32;scalar=64";
    class       volScalarField;
    location    "1.24e-05";
    object      p;
}
// * * * * * * * * * * * * * * * * * * * * * * * * * * * * * * * * * * * * * //

dimensions      [1 -1 -2 0 0 0 0];

internalField   nonuniform List<scalar> 
3183
(
101325
101325
101325
101325
101325
101325
101325
101325
101325
101325
101325
101325
101325
101325
101325
101325
101325
101325
101325
101325
101325
101325
101325
101325
101325
101325
101325
101325
101325
101325
101325
101325
101325
101325
101325
101325
101325
101325
101325
101325
101325
101325
101325
101325
101325
101325
101325
101325
101325
101325
101325
101325
101325
101325
101325
101325
101325
101325
101325
101325
101325
101325
101325
101325
101325
101325
101325
101325
101325
101325
101325
101325
101325
101325
101325
101325
101325
101325
101325
101325
101325
101325
101325
101325
101325
101325
101325
101325
101325
101325
101325
101325
101325
101325
101325
101325
101325
101325
101325
101325
101325
101325
101325
101325
101325
101325
101325
101325
101325
101325
101325
101325
101325
101325
101325
101325
101325
101325
101325
101325
101325
101325
101325
101325
101325
101325
101325
101325
101325
101325
101325
101325
101325
101325
101325
101325
101325
101325
101325
101325
101325
101325
101325
101325
101325
101325
101325
101325
101325
101325
101325
101325
101325
101325
101325
101325
101325
101325
101325
101325
101325
101325
101325
101325
101325
101325
101325
101325
101325
101325
101325
101325
101325
101325
101325
101325
101325
101325
101325
101325
101325
101325
101325
101325
101325
101325
101325
101325
101325
101325
101325
101325
101325
101325
101325
101325
101325
101325
101325
101325
101325
101325
101325
101325
101325
101325
101325
101325
101325
101325
101325
101325
101325
101325
101325
101325
101325
101325
101325
101325
101325
101325
101325
101325
101325
101325
101325
101325
101325
101325
101325
101325
101325
101325
101325
101325
101325
101325
101325
101325
101325
101325
101325
101325
101325
101325
101325
101325
101325
101325
101325
101325
101325
101325
101325
101325
101325
101325
101325
101325
101325
101325
101325
101325
101325
101325
101325
101325
101325
101325
101325
101325
101325
101325
101325
101325
101325
101325
101325
101325
101325
101325
101325
101325
101325
101325
101325
101325
101325
101325
101325
101325
101325
101325
101325
101325
101325
101325
101325
101325
101325
101325
101325
101325
101325
101325
101325
101325
101325
101325
101325
101325
101325
101325
101325
101325
101325
101325
101325
101325
101325
101325
101325
101325
101325
101325
101325
101325
101325
101325
101325
101325
101325
101325
101325
101325
101325
101325
101325
101325
101325
101325
101325
101325
101325
101325
101325
101325
101325
101325
101325
101325
101325
101325
101325
101325
101325
101325
101325
101325
101325
101325
101325
101325
101325
101325
101325
101325
101325
101325
101325
101325
101325
101325
101325
101325
101325
101325
101325
101325
101325
101325
101325
101325
101325
101325
101325
101325
101325
101325
101325
101325
101325
101325
101325
101325
101325
101325
101325
101325
101325
101325
101325
101325
101325
101325
101325
101325
101325
101325
101325
101325
101325
101325
101325
101325
101325
101325
101325
101325
101325
101325
101325
101325
101325
101325
101325
101325
101325
101325
101325
101325
101325
101325
101325
101325
101325
101325
101325
101325
101325
101325
101325
101325
101325
101325
101325
101325
101325
101325
101325
101325
101325
101325
101325
101325
101325
101325
101325
101325
101325
101325
101325
101325
101325
101325
101325
101325
101325
101325
101325
101325
101325
101325
101325
101325
101325
101325
101325
101325
101325
101325
101325
101325
101325
101325
101325
101325
101325
101325
101325
101325
101325
101325
101325
101325
101325
101325
101325
101325
101325
101325
101325
101325
101325
101325
101325
101325
101325
101325
101325
101325
101325
101325
101325
101325
101325
101325
101325
101325
101325
101325
101325
101325
101325
101325
101325
101325
101325
101325
101325
101325
101325
101325
101325
101325
101325
101325
101325
101325
101325
101325
101325
101325
101325
101325
101325
101325
101325
101325
101325
101325
101325
101325
101325
101325
101325
101325
101325
101325
101325
101325
101325
101325
101325
101325
101325
101325
101325
101325
101325
101325
101325
101325
101325
101325
101325
101325
101325
101325
101325
101325
101325
101325
101325
101325
101325
101325
101325
101325
101325
101325
101325
101325
101325
101325
101325
101325
101325
101325
101325
101325
101325
101325
101325
101325
101325
101325
101325
101325
101325
101325
101325
101325
101325
101325
101325
101325
101325
101325
101325
101325
101325
101325
101325
101325
101325
101325
101325
101325
101325
101325
101325
101325
101325
101325
101325
101325
101325
101325
101325
101325
101325
101325
101325
101325
101325
101325
101325
101325
101325
101325
101325
101325
101325
101325
101325
101325
101325
101325
101325
101325
101325
101325
101325
101325
101325
101325
101325
101325
101325
101325
101325
101325
101325
101325
101325
101325
101325
101325
101325
101325
101325
101325
101325
101325
101325
101325
101325
101325
101325
101325
101325
101325
101325
101325
101325
101325
101325
101325
101325
101325
101325
101325
101325
101325
101325
101325
101325
101325
101325
101325
101325
101325
101325
101325
101325
101325
101325
101325
101325
101325
101325
101325
101325
101325
101325
101325
101325
101325
101325
101325
101325
101325
101325
101325
101325
101325
101325
101325
101325
101325
101325
101325
101325
101325
101325
101325
101325
101325
101325
101325
101325
101325
101325
101325
101325
101325
101325
101325
101325
101325
101325
101325
101325
101325
101325
101325
101325
101325
101325
101325
101325
101325
101325
101325
101325
101325
101325
101325
101325
101325
101325
101325
101325
101325
101325
101325
101325
101325
101325
101325
101325
101325
101325
101325
101325
101325
101325
101325
101325
101325
101325
101325
101325
101325
101325
101325
101325
101325
101325
101325
101325
101325
101325
101325
101325
101325
101325
101325
101325
101325
101325
101325
101325
101325
101325
101325
101325
101325
101325
101325
101325
101325
101325
101325
101325
101325
101325
101325
101325
101325
101325
101325
101325
101325
101325
101325
101325
101325
101325
101325
101325
101325
101325
101325
101325
101325
101325
101325
101325
101325
101325
101325
101325
101325
101325
101325
101325
101325
101325
101325
101325
101325
101325
101325
101325
101325
101325
101325
101325
101325
101325
101325
101325
101325
101325
101325
101325
101325
101325
101325
101325
101325
101325
101325
101325
101325
101325
101325
101325
101325
101325
101325
101325
101325
101325
101325
101325
101325
101325
101325
101325
101325
101325
101325
101325
101325
101325
101325
101325
101325
101325
101325
101325
101325
101325
101325
101325
101325
101325
101325
101325
101325
101325
101325
101325
101325
101325
101325
101325
101325
101325
101325
101325
101325
101325
101325
101325
101325
101325
101325
101325
101325
101325
101325
101325
101325
101325
101325
101325
101325
101325
101325
101325
101325
101325
101325
101325
101325
101325
101325
101325
101325
101325
101325
101325
101325
101325
101325
101325
101325
101325
101325
101325
101325
101325
101325
101325
101325
101325
101325
101325
101325
101325
101325
101325
101325
101325
101325
101325
101325
101325
101325
101325
101325
101325
101325
101325
101325
101325
101325
101325
101325
101325
101325
101325
101325
101325
101325
101325
101325
101325
101325
101325
101325
101325
101325
101325
101325
101325
101325
101325
101325
101325
101325
101325
101325
101325
101325
101325
101325
101325
101325
101325
101325
101325
101325
101325
101325
101325
101325
101325
101325
101325
101325
101325
101325
101325
101325
101325
101325
101325
101325
101325
101325
101325
101325
101325
101325
101325
101325
101325
101325
101325
101325
101325
101325
101325
101325
101325
101325
101325
101325
101325
101325
101325
101325
101325
101325
101325
101325
101325
101325
101325
101325
101325
101325
101325
101325
101325
101325
101325
101325
101325
101325
101325
101325
101325
101325
101325
101325
101325
101325
101325
101325
101325
101325
101325
101325
101325
101325
101325
101325
101325
101325
101325
101325
101325
101325
101325
101325
101325
101325
101325
101325
101325
101325
101325
101325
101325
101325
101325
101325
101325
101325
101325
101325
101325
101325
101325
101325
101325
101325
101325
101325
101325
101325
101325
101325
101325
101325
101325
101325
101325
101325
101325
101325
101325
101325
101325
101325
101325
101325
101325
101325
101325
101325
101325
101325
101325
101325
101325
101325
101325
101325
101325
101325
101325
101325
101325
101325
101325
101325
101325
101325
101325
101325
101325
101325
101325
101325
101325
101325
101325
101325
101325
101325
101325
101325
101325
101325
101325
101325
101325
101325
101325
101325
101325
101325
101325
101325
101325
101325
101325
101325
101325
101325
101325
101325
101325
101325
101325
101325
101325
101325
101325
101325
101325
101325
101325
101325
101325
101325
101325
101325
101325
101325
101325
101325
101325
101325
101325
101325
101325
101325
101325
101325
101325
101325
101325
101325
101325
101325
101325
101325
101325
101325
101325
101325
101325
101325
101325
101325
101325
101325
101325
101325
101325
101325
101325
101325
101325
101325
101325
101325
101325
101325
101325
101325
101325
101325
101325
101325
101325
101325
101325
101325
101325
101325
101325
101325
101325
101325
101325
101325
101325
101325
101325
101325
101325
101325
101325
101325
101325
101325
101325
101325
101325
101325
101325
101325
101325
101325
101325
101325
101325
101325
101325
101325
101325
101325
101325
101325
101325
101325
101325
101325
101325
101325
101325
101325
101325
101325
101325
101325
101325
101325
101325
101325
101325
101325
101325
101325
101325
101325
101325
101325
101325
101325
101325
101325
101325
101325
101325
101325
101325
101325
101325
101325
101325
101325
101325
101325
101325
101325
101325
101325
101325
101325
101325
101325
101325
101325
101325
101325
101325
101325
101325
101325
101325
101325
101325
101325
101325
101325
101325
101325
101325
101325
101325
101325
101325
101325
101325
101325
101325
101325
101325
101325
101325
101325
101325
101325
101325
101325
101325
101325
101325
101325
101325
101325
101325
101325
101325
101325
101325
101325
101325
101325
101325
101325
101325
101325
101325
101325
101325
101325
101325
101325
101325
101325
101325
101325
101325
101325
101325
101325
101325
101325
101325
101325
101325
101325
101325
101325
101325
101325
101325
101325
101325
101325
101325
101325
101325
101325
101325
101325
101325
101325
101325
101325
101325
101325
101325
101325
101325
101325
101325
101325
101325
101325
101325
101325
101325
101325
101325
101325
101325
101325
101325
101325
101325
101325
101325
101325
101325
101325
101325
101325
101325
101325
101325
101325
101325
101325
101325
101325
101325
101325
101325
101325
101325
101325
101325
101325
101325
101325
101325
101325
101325
101325
101325
101325
101325
101325
101325
101325
101325
101325
101325
101325
101325
101325
101325
101325
101325
101325
101325
101325
101325
101325
101325
101325
101325
101325
101325
101325
101325
101325
101325
101325
101325
101325
101325
101325
101325
101325
101325
101325
101325
101325
101325
101325
101325
101325
101325
101325
101325
101325
101325
101325
101325
101325
101325
101325
101325
101325
101325
101325
101325
101325
101325
101325
101325
101325
101325
101325
101325
101325
101325
101325
101325
101325
101325
101325
101325
101325
101325
101325
101325
101325
101325
101325
101325
101325
101325
101325
101325
101325
101325
101325
101325
101325
101325
101325
101325
101325
101325
101325
101325
101325
101325
101325
101325
101325
101325
101325
101325
101325
101325
101325
101325
101325
101325
101325
101325
101325
101325
101325
101325
101325
101325
101325
101325
101325
101325
101325
101325
101325
101325
101325
101325
101325
101325
101325
101325
101325
101325
101325
101325
101325
101325
101325
101325
101325
101325
101325
101325
101325
101325
101325
101325
101325
101325
101325
101325
101325
101325
101325
101325
101325
101325
101325
101325
101325
101325
101325
101325
101325
101325
101325
101325
101325
101325
101325
101325
101325
101325
101325
101325
101325
101325
101325
101325
101325
101325
101325
101325
101325
101325
101325
101325
101325
101325
101325
101325
101325
101325
101325
101325
101325
101325
101325
101325
101325
101325
101325
101325
101325
101325
101325
101325
101325
101325
101325
101325
101325
101325
101325
101325
101325
101325
101325
101325
101325
101325
101325
101325
101325
101325
101325
101325
101325
101325
101325
101325
101325
101325
101325
101325
101325
101325
101325
101325
101325
101325
101325
101325
101325
101325
101325
101325
101325
101325
101325
101325
101325
101325
101325
101325
101325
101325
101325
101325
101325
101325
101325
101325
101325
101325
101325
101325
101325
101325
101325
101325
101325
101325
101325
101325
101325
101325
101325
101325
101325
101325
101325
101325
101325
101325
101325
101325
101325
101325
101325
101325
101325
101325
101325
101325
101325
101325
101325
101325
101325
101325
101325
101325
101325
101325
101325
101325
101325
101325
101325
101325
101325
101325
101325
101325
101325
101325
101325
101325
101325
101325
101325
101325
101325
101325
101325
101325
101325
101325
101325
101325
101325
101325
101325
101325
101325
101325
101325
101325
101325
101325
101325
101325
101325
101325
101325
101325
101325
101325
101325
101325
101325
101325
101325
101325
101325
101325
101325
101325
101325
101325
101325
101325
101325
101325
101325
101325
101325
101325
101325
101325
101325
101325
101325
101325
101325
101325
101325
101325
101325
101325
101325
101325
101325
101325
101325
101325
101325
101325
101325
101325
101325
101325
101325
101325
101325
101325
101325
101325
101325
101325
101325
101325
101325
101325
101325
101325
101325
101325
101325
101325
101325
101325
101325
101325
101325
101325
101325
101325
101325
101325
101325
101325
101325
101325
101325
101325
101325
101325
101325
101325
101325
101325
101325
101325
101324.999
101324.999
101324.999
101324.999
101324.999
101324.999
101324.999
101324.999
101324.999
101324.999
101324.999
101324.999
101324.999
101324.999
101324.999
101324.999
101324.999
101324.998
101324.998
101324.998
101324.998
101324.998
101324.998
101324.998
101324.998
101324.997
101324.997
101324.997
101324.997
101324.997
101324.996
101324.996
101324.996
101324.996
101324.995
101324.995
101324.995
101324.995
101324.994
101324.994
101324.993
101324.993
101324.993
101324.992
101324.992
101324.991
101324.991
101324.99
101324.989
101324.989
101324.988
101324.987
101324.987
101324.986
101324.985
101324.984
101324.983
101324.982
101324.981
101324.98
101324.979
101324.977
101324.976
101324.975
101324.973
101324.972
101324.97
101324.968
101324.966
101324.964
101324.962
101324.96
101324.958
101324.956
101324.953
101324.95
101324.948
101324.945
101324.942
101324.939
101324.935
101324.932
101324.928
101324.924
101324.92
101324.915
101324.911
101324.906
101324.901
101324.896
101324.89
101324.884
101324.878
101324.872
101324.865
101324.858
101324.85
101324.843
101324.834
101324.826
101324.817
101324.808
101324.798
101324.787
101324.777
101324.765
101324.754
101324.741
101324.729
101324.715
101324.701
101324.686
101324.671
101324.655
101324.638
101324.621
101324.603
101324.584
101324.564
101324.543
101324.522
101324.499
101324.476
101324.452
101324.426
101324.4
101324.372
101324.344
101324.314
101324.283
101324.251
101324.217
101324.182
101324.146
101324.108
101324.069
101324.029
101323.987
101323.943
101323.898
101323.851
101323.802
101323.751
101323.699
101323.644
101323.588
101323.53
101323.47
101323.407
101323.342
101323.276
101323.206
101323.135
101323.061
101322.985
101322.906
101322.824
101322.74
101322.653
101322.564
101322.471
101322.376
101322.278
101322.177
101322.072
101321.965
101321.854
101321.741
101321.623
101321.503
101321.379
101321.252
101321.121
101320.986
101320.848
101320.706
101320.561
101320.411
101320.258
101320.101
101319.94
101319.775
101319.606
101319.433
101319.256
101319.074
101318.889
101318.7
101318.506
101318.308
101318.105
101317.899
101317.688
101317.473
101317.254
101317.03
101316.802
101316.57
101316.333
101316.093
101315.848
101315.598
101315.345
101315.088
101314.826
101314.56
101314.291
101314.017
101313.739
101313.458
101313.173
101312.884
101312.591
101312.295
101311.996
101311.693
101311.387
101311.078
101310.766
101310.451
101310.133
101309.812
101309.489
101309.164
101308.837
101308.507
101308.176
101307.842
101307.508
101307.172
101306.834
101306.496
101306.157
101305.817
101305.477
101305.137
101304.796
101304.456
101304.116
101303.777
101303.439
101303.102
101302.766
101302.431
101302.099
101301.768
101301.44
101301.114
101300.79
101300.47
101300.153
101299.839
101299.529
101299.223
101298.921
101298.623
101298.33
101298.042
101297.758
101297.48
101297.208
101296.941
101296.68
101296.425
101296.176
101295.934
101295.699
101295.47
101295.249
101295.034
101294.827
101294.628
101294.436
101294.252
101294.076
101293.908
101293.749
101293.597
101293.454
101293.319
101293.193
101293.076
101292.967
101292.867
101292.775
101292.693
101292.619
101292.554
101292.498
101292.45
101292.411
101292.381
101292.36
101292.347
101292.343
101292.347
101292.359
101292.38
101292.408
101292.445
101292.49
101292.542
101292.602
101292.67
101292.745
101292.827
101292.915
101293.011
101293.113
101293.222
101293.336
101293.457
101293.583
101293.715
101293.853
101293.995
101294.142
101294.294
101294.45
101294.61
101294.774
101294.942
101295.113
101295.287
101295.465
101295.645
101295.827
101296.011
101296.198
101296.386
101296.576
101296.767
101296.959
101297.152
101297.346
101297.54
101297.734
101297.928
101298.122
101298.315
101298.508
101298.701
101298.892
101299.082
101299.271
101299.458
101299.644
101299.828
101300.011
101300.191
101300.37
101300.546
101300.72
101300.892
101301.061
101301.227
101301.391
101301.553
101301.711
101301.867
101302.02
101302.17
101302.317
101302.461
101302.603
101302.741
101302.877
101303.009
101303.138
101303.265
101303.389
101303.509
101303.627
101303.742
101303.854
101303.963
101304.069
101304.173
101304.274
101304.372
101304.468
101304.561
101304.652
101304.74
101304.826
101304.909
101304.99
101305.069
101305.146
101305.221
101305.293
101305.364
101305.433
101305.5
101305.565
101305.629
101305.691
101305.751
101305.81
101305.867
101305.923
101305.977
101306.031
101306.083
101306.134
101306.184
101306.232
101306.28
101306.327
101306.373
101306.419
101306.463
101306.507
101306.55
101306.593
101306.635
101306.676
101306.717
101306.758
101306.799
101306.839
101306.879
101306.918
101306.958
101306.997
101307.036
101307.075
101307.114
101307.154
101307.193
101307.232
101307.271
101307.311
101307.351
101307.391
101307.431
101307.471
101307.512
101307.552
101307.593
101307.635
101307.676
101307.718
101307.761
101307.803
101307.846
101307.889
101307.933
101307.977
101308.021
101308.065
101308.109
101308.154
101308.199
101308.244
101308.29
101308.335
101308.381
101308.426
101308.472
101308.517
101308.563
101308.609
101308.654
101308.699
101308.744
101308.789
101308.834
101308.878
101308.922
101308.965
101309.008
101309.051
101309.093
101309.134
101309.175
101309.215
101309.255
101309.294
101309.332
101309.369
101309.406
101309.441
101309.476
101309.51
101309.543
101309.576
101309.607
101309.637
101309.667
101309.695
101309.723
101309.749
101309.775
101309.799
101309.823
101309.846
101309.867
101309.888
101309.908
101309.927
101309.945
101309.963
101309.979
101309.995
101310.009
101310.023
101310.036
101310.049
101310.061
101310.072
101310.082
101310.092
101310.101
101310.109
101310.117
101310.125
101310.132
101310.138
101310.144
101310.15
101310.155
101310.16
101310.165
101310.169
101310.173
101310.177
101310.181
101310.185
101310.188
101310.192
101310.196
101310.199
101310.203
101310.207
101310.212
101310.216
101310.221
101310.227
101310.233
101310.239
101310.246
101310.254
101310.262
101310.271
101310.282
101310.293
101310.305
101310.318
101310.332
101310.348
101310.364
101310.382
101310.401
101310.422
101310.444
101310.467
101310.492
101310.518
101310.545
101310.574
101310.604
101310.635
101310.668
101310.702
101310.737
101310.773
101310.81
101310.847
101310.886
101310.925
101310.964
101311.004
101311.044
101311.083
101311.123
101311.162
101311.201
101311.239
101311.276
101311.313
101311.348
101311.382
101311.414
101311.446
101311.475
101311.503
101311.529
101311.554
101311.577
101311.598
101311.617
101311.635
101311.651
101311.666
101311.679
101311.691
101311.701
101311.711
101311.72
101311.728
101311.735
101311.742
101311.748
101311.755
101311.761
101311.767
101311.774
101311.781
101311.788
101311.795
101311.803
101311.811
101311.82
101311.828
101311.838
101311.847
101311.857
101311.866
101311.876
101311.886
101311.896
101311.905
101311.915
101311.924
101311.934
101311.943
101311.952
101311.961
101311.97
101311.98
101311.99
101312.001
101312.012
101312.024
101312.038
101312.052
101312.067
101312.083
101312.096
101312.092
101312.07
101312.412
101312.6
101312.569
101311.868
101311.761
101311.742
101311.86
101311.904
101312.001
101312.021
101312.062
101312.063
101312.065
101312.054
101312.044
101312.032
101312.021
101312.011
101312.002
101311.994
101311.987
101311.98
101311.974
101311.968
101311.963
101311.958
101311.953
101311.948
101311.943
101311.939
101311.934
101311.93
101311.925
101311.92
101311.915
101311.91
101311.905
101311.9
101311.894
101311.889
101311.883
101311.877
101311.871
101311.865
101311.859
101311.853
101311.847
101311.841
101311.834
101311.828
101311.822
101311.816
101311.809
101311.803
101311.797
101311.791
101311.785
101311.779
101311.773
101311.767
101311.762
101311.756
101311.751
101311.746
101311.741
101311.736
101311.731
101311.727
101311.722
101311.718
101311.714
101311.71
101311.706
101311.702
101311.698
101311.695
101311.691
101311.688
101311.684
101311.681
101311.677
101311.674
101311.67
101311.667
101311.663
101311.659
101311.655
101311.651
101311.647
101311.642
101311.637
101311.632
101311.627
101311.621
101311.615
101311.609
101311.602
101311.595
101311.587
101311.579
101311.571
101311.562
101311.553
101311.543
101311.533
101311.522
101311.511
101311.499
101311.487
101311.474
101311.461
101311.447
101311.433
101311.418
101311.403
101311.388
101311.372
101311.355
101311.339
101311.322
101311.304
101311.286
101311.268
101311.249
101311.231
101311.211
101311.192
101311.173
101311.153
101311.133
101311.113
101311.092
101311.072
101311.052
101311.031
101311.011
101310.99
101310.969
101310.949
101310.928
101310.908
101310.888
101310.868
101310.847
101310.828
101310.808
101310.788
101310.769
101310.75
101310.731
101310.712
101310.694
101310.676
101310.658
101310.641
101310.624
101310.607
101310.59
101310.574
101310.558
101310.543
101310.528
101310.513
101310.498
101310.484
101310.471
101310.457
101310.445
101310.432
101310.42
101310.408
101310.397
101310.385
101310.375
101310.364
101310.354
101310.345
101310.335
101310.326
101310.317
101310.309
101310.301
101310.293
101310.285
101310.278
101310.271
101310.265
101310.258
101310.252
101310.246
101310.241
101310.235
101310.23
101310.225
101310.22
101310.215
101310.211
101310.207
101310.202
101310.198
101310.195
101310.191
101310.187
101310.184
101310.18
101310.177
101310.174
101310.171
101310.168
101310.165
101310.162
101310.159
101310.156
101310.153
101310.15
101310.148
101310.145
101310.142
101310.139
101310.137
101310.134
101310.131
101310.128
101310.125
101310.122
101310.12
101310.117
101310.114
101310.111
101310.107
101310.104
101310.101
101310.098
101310.094
101310.091
101310.087
101310.083
101310.08
101310.076
101310.072
101310.068
101310.063
101310.059
101310.055
101310.05
101310.046
101310.041
101310.036
101310.031
101310.026
101310.02
101310.015
101310.009
101310.004
101309.998
101309.992
101309.986
101309.979
101309.973
101309.966
101309.959
101309.952
101309.945
101309.938
101309.931
101309.923
101309.915
101309.907
101309.899
101309.891
101309.882
101309.873
101309.864
101309.855
101309.846
101309.836
101309.827
101309.817
101309.807
101309.796
101309.786
101309.775
101309.764
101309.753
101309.741
101309.73
101309.718
101309.706
101309.694
101309.681
101309.669
101309.656
101309.643
101309.629
101309.616
101309.602
101309.588
101309.574
101309.559
101309.544
101309.529
101309.514
101309.499
101309.483
101309.468
101309.452
101309.435
101309.419
101309.402
101309.385
101309.368
101309.351
101309.333
101309.315
101309.298
101309.279
101309.261
101309.242
101309.224
101309.205
101309.185
101309.166
101309.147
101309.127
101309.107
101309.087
101309.067
101309.046
101309.026
101309.005
101308.984
101308.963
101308.942
101308.92
101308.899
101308.877
101308.856
101308.834
101308.812
101308.79
101308.767
101308.745
101308.723
101308.7
101308.677
101308.655
101308.632
101308.609
101308.586
101308.563
101308.54
101308.517
101308.494
101308.47
101308.447
101308.424
101308.4
101308.377
101308.353
101308.33
101308.307
101308.283
101308.26
101308.236
101308.213
101308.189
101308.166
101308.142
101308.119
101308.095
101308.072
101308.048
101308.025
101308.002
101307.978
101307.955
101307.932
101307.909
101307.886
101307.863
101307.84
101307.817
101307.794
101307.771
101307.748
101307.725
101307.703
101307.68
101307.658
101307.635
101307.613
101307.59
101307.568
101307.546
101307.524
101307.502
101307.48
101307.458
101307.436
101307.414
101307.393
101307.371
101307.349
101307.328
101307.306
101307.285
101307.264
101307.242
101307.221
101307.2
101307.179
101307.158
101307.137
101307.116
101307.095
101307.074
101307.053
101307.032
101307.011
101306.991
101306.97
101306.949
101306.929
101306.908
101306.887
101306.867
101306.846
101306.825
101306.805
101306.784
101306.763
101306.742
101306.722
101306.701
101306.68
101306.659
101306.639
101306.618
101306.597
101306.576
101306.555
101306.534
101306.512
101306.491
101306.47
101306.448
101306.427
101306.405
101306.384
101306.362
101306.34
101306.318
101306.296
101306.273
101306.251
101306.228
101306.205
101306.183
101306.16
101306.136
101306.113
101306.089
101306.066
101306.042
101306.018
101305.993
101305.969
101305.944
101305.919
101305.894
101305.868
101305.842
101305.816
101305.79
101305.764
101305.737
101305.71
101305.682
101305.655
101305.627
101305.598
101305.57
101305.541
101305.512
101305.482
101305.452
101305.422
101305.391
101305.36
101305.329
101305.297
101305.265
101305.232
101305.199
101305.166
101305.132
101305.098
101305.063
101305.028
101304.993
101304.957
101304.92
101304.883
101304.844
101304.802
101304.756
101304.706
101304.651
101304.591
101304.526
101304.454
101304.376
101304.29
101304.195
101304.09
101303.975
101303.847
101303.705
101303.547
101303.372
101303.176
101302.956
101302.711
101302.435
101302.124
101301.775
101301.381
101300.938
101300.438
101299.876
101299.247
101298.546
101297.77
101296.92
101296.003
101295.033
101294.035
101293.05
101292.136
101291.371
101290.857
101290.714
101291.073
101292.06
101293.771
101296.25
101299.454
101303.238
101307.356
101311.49
101315.308
101318.54
101321.031
101322.769
101323.861
101324.475
101324.782
101324.919
101324.973
101324.992
101324.998
101325
101325
101325
101325
101325
101325
101325
101325
101325
101325
101325
101325
101325
101325
101325
101325
101325
101325
101325
)
;

boundaryField
{
    closed
    {
        type            zeroGradient;
    }
    open
    {
        type            waveTransmissive;
        gamma           1.25;
        fieldInf        101325;
        lInf            1;
        value           uniform 101325;
    }
    sides
    {
        type            empty;
    }
}


// ************************************************************************* //
