/*--------------------------------*- C++ -*----------------------------------*\
| =========                 |                                                 |
| \\      /  F ield         | OpenFOAM: The Open Source CFD Toolbox           |
|  \\    /   O peration     | Version:  2206                                  |
|   \\  /    A nd           | Website:  www.openfoam.com                      |
|    \\/     M anipulation  |                                                 |
\*---------------------------------------------------------------------------*/
FoamFile
{
    version     2.0;
    format      ascii;
    arch        "LSB;label=32;scalar=64";
    class       surfaceScalarField;
    location    "1.24e-05";
    object      phi;
}
// * * * * * * * * * * * * * * * * * * * * * * * * * * * * * * * * * * * * * //

dimensions      [1 0 -1 0 0 0 0];

oriented        oriented;

internalField   nonuniform List<scalar> 
3182
(
4.42561316e-18
-2.67305931e-18
-7.25718296e-19
-1.6950521e-18
-3.50847073e-21
-2.31218708e-23
-1.66816238e-24
1.00480649e-29
1.91270202e-24
3.78467164e-23
3.41018856e-21
2.73783253e-18
3.53058334e-18
-6.51113258e-19
1.78455609e-18
-8.05142733e-19
-2.73270073e-18
-5.13596893e-18
-3.32560303e-18
4.45757128e-18
5.23511647e-20
6.7158107e-22
4.14718854e-19
1.98249806e-18
3.38066528e-18
1.92032651e-18
3.98570424e-18
2.85313902e-18
2.2930563e-18
6.53001489e-19
-1.97236921e-18
-3.64507539e-18
-5.81385372e-18
-8.24521298e-18
-3.80014339e-18
-3.38773651e-18
-3.0488097e-18
-1.72812303e-18
-8.77644172e-19
-1.57596768e-18
-3.24708617e-18
-4.11859148e-18
-2.93064959e-18
-8.85285772e-19
-3.08651707e-19
1.62400014e-18
2.48711635e-18
2.37746421e-18
2.92618332e-18
3.69759552e-18
5.43250041e-18
6.6508281e-18
8.90159171e-18
1.13930538e-17
1.34583765e-17
1.39075463e-17
1.41114197e-17
1.39009337e-17
1.28123982e-17
1.1504133e-17
1.02112381e-17
8.45087271e-18
6.8985298e-18
5.41128504e-18
2.65700842e-18
1.34656463e-18
-1.85421182e-19
-2.56732219e-18
-3.86814662e-18
-4.79040281e-18
-6.06379902e-18
-7.2321537e-18
-8.15701076e-18
-1.00235211e-17
-1.17598277e-17
-1.35013563e-17
-1.31571683e-17
-1.39767897e-17
-1.60716427e-17
-1.72600732e-17
-1.86133773e-17
-1.96174662e-17
-2.20241656e-17
-2.39021307e-17
-2.34218118e-17
-2.48867785e-17
-2.62738086e-17
-2.80729471e-17
-3.03598368e-17
-3.2622328e-17
-3.30543054e-17
-3.40566362e-17
-3.58849025e-17
-3.42235809e-17
-3.5944291e-17
-3.42276415e-17
-3.30640893e-17
-3.46105716e-17
-3.02941534e-17
-2.821294e-17
-3.11317097e-17
-3.18121229e-17
-3.25157287e-17
-3.48873079e-17
-3.4046173e-17
-3.6426244e-17
-3.64919174e-17
-3.55129335e-17
-3.59057979e-17
-4.01359379e-17
-4.02101593e-17
-3.95117044e-17
-4.27414641e-17
-3.89032509e-17
-3.53466716e-17
-3.58453414e-17
-4.03172427e-17
-3.66002643e-17
-3.75647008e-17
-3.69665573e-17
-3.36184143e-17
-3.34485795e-17
-3.07981271e-17
-3.4304765e-17
-3.3522077e-17
-3.34877277e-17
-3.65404906e-17
-3.93565684e-17
-3.97997708e-17
-3.93304966e-17
-3.94984439e-17
-4.08961606e-17
-4.37556613e-17
-4.40957826e-17
-4.49867126e-17
-4.72716487e-17
-4.95944308e-17
-5.00633728e-17
-5.06431776e-17
-4.93360524e-17
-5.08117137e-17
-4.96007004e-17
-4.6619343e-17
-5.05906229e-17
-4.85486408e-17
-4.76418832e-17
-4.90250961e-17
-5.09466661e-17
-5.08376377e-17
-4.97589065e-17
-5.28880071e-17
-5.22373665e-17
-5.32232414e-17
-5.27969276e-17
-5.52843524e-17
-5.32182921e-17
-5.43818222e-17
-5.53596731e-17
-5.56322378e-17
-5.60398061e-17
-5.68218417e-17
-5.27480534e-17
-5.56968743e-17
-5.5772836e-17
-5.40726791e-17
-5.37781185e-17
-5.46521955e-17
-5.9007553e-17
-5.67491777e-17
-5.57827872e-17
-5.88759581e-17
-5.82333295e-17
-5.72807379e-17
-5.70386519e-17
-5.93184514e-17
-6.13415042e-17
-6.15518564e-17
-6.23422287e-17
-6.28651793e-17
-6.53584816e-17
-6.46491275e-17
-6.43609881e-17
-6.64196671e-17
-6.50839141e-17
-6.94593029e-17
-6.81311662e-17
-6.99852632e-17
-6.73557165e-17
-6.95356673e-17
-6.86911034e-17
-6.88035879e-17
-7.14041883e-17
-7.06101916e-17
-6.94790903e-17
-7.17851699e-17
-7.09525364e-17
-7.28907666e-17
-7.1467324e-17
-7.13267353e-17
-6.9755555e-17
-6.92110525e-17
-6.9196421e-17
-7.41789534e-17
-7.24414591e-17
-7.21182853e-17
-7.15406121e-17
-7.399523e-17
-7.24173882e-17
-7.49795482e-17
-7.55968885e-17
-7.28589154e-17
-7.43386745e-17
-7.45536437e-17
-7.53896077e-17
-7.85265102e-17
-7.88320345e-17
-7.95112317e-17
-7.76055569e-17
-7.7261894e-17
-7.46113957e-17
-7.66830028e-17
-7.35307288e-17
-7.59527171e-17
-7.64183056e-17
-7.98846883e-17
-7.59650014e-17
-7.95442427e-17
-7.94508957e-17
-8.13786226e-17
-8.05663763e-17
-7.98007521e-17
-7.93184882e-17
-8.06829101e-17
-8.04441829e-17
-8.08367474e-17
-8.31706559e-17
-8.23081881e-17
-8.32356008e-17
-8.06145358e-17
-7.9438019e-17
-8.10768428e-17
-8.0972748e-17
-8.05671953e-17
-8.11809649e-17
-8.12889199e-17
-7.98182632e-17
-7.8457545e-17
-7.47523781e-17
-7.65245087e-17
-8.05148173e-17
-8.08126184e-17
-8.30461725e-17
-8.12605515e-17
-8.30296097e-17
-8.23928704e-17
-8.40653957e-17
-8.3922164e-17
-8.27310911e-17
-8.30368341e-17
-7.99044768e-17
-8.11968072e-17
-8.43978198e-17
-8.63023683e-17
-8.53066172e-17
-8.62144687e-17
-8.7746873e-17
-8.40256589e-17
-8.35403727e-17
-8.30145356e-17
-8.3871318e-17
-8.56131636e-17
-8.50139231e-17
-8.96935557e-17
-8.73883261e-17
-8.98863257e-17
-8.74998937e-17
-8.77220096e-17
-8.98718388e-17
-9.42288403e-17
-9.3172308e-17
-9.41501094e-17
-9.73622991e-17
-9.57834082e-17
-9.72843869e-17
-9.66613535e-17
-9.74673354e-17
-9.79794024e-17
-1.00429122e-16
-1.03482079e-16
-1.03925641e-16
-1.03247578e-16
-1.05864737e-16
-1.08034219e-16
-1.06866799e-16
-1.04866062e-16
-1.0568524e-16
-1.02581208e-16
-1.03782986e-16
-1.02756882e-16
-1.03591542e-16
-1.03866553e-16
-1.02186132e-16
-1.00567432e-16
-1.00305745e-16
-1.01580925e-16
-1.03332923e-16
-1.02696608e-16
-1.03234459e-16
-1.01635532e-16
-1.05229914e-16
-1.0314925e-16
-1.04945004e-16
-1.07919529e-16
-1.11256067e-16
-1.13675043e-16
-1.11236995e-16
-1.12700467e-16
-1.14566624e-16
-1.1460798e-16
-1.14975019e-16
-1.12422964e-16
-1.12433637e-16
-1.15352806e-16
-1.13748928e-16
-1.13041302e-16
-1.13794632e-16
-1.12880243e-16
-1.09967501e-16
-1.10752722e-16
-1.06176935e-16
-1.06641041e-16
-1.08348596e-16
-1.05097895e-16
-1.0316479e-16
-1.0406159e-16
-1.02367211e-16
-1.02971286e-16
-1.00472421e-16
-1.00992612e-16
-9.7710437e-17
-9.83996545e-17
-1.01293684e-16
-1.02913562e-16
-1.02058029e-16
-1.04759523e-16
-1.01188823e-16
-1.04180744e-16
-1.01066588e-16
-1.02072134e-16
-9.76191514e-17
-1.02350896e-16
-1.05059613e-16
-1.05670384e-16
-1.05772214e-16
-1.02769421e-16
-1.04150083e-16
-1.04144669e-16
-1.03186571e-16
-1.04045115e-16
-1.02539132e-16
-9.97154676e-17
-9.86462863e-17
-1.02607433e-16
-1.01710875e-16
-1.00483043e-16
-1.02081709e-16
-1.05023654e-16
-1.0323223e-16
-1.0164622e-16
-9.84585431e-17
-1.00762204e-16
-1.00459783e-16
-1.00693644e-16
-1.04729462e-16
-1.06319647e-16
-1.07133361e-16
-1.05183527e-16
-1.04316336e-16
-1.02172613e-16
-1.04478934e-16
-1.04317739e-16
-1.02906463e-16
-1.06012799e-16
-1.07195412e-16
-1.07534565e-16
-1.04323449e-16
-1.06265107e-16
-1.04297653e-16
-1.02366388e-16
-1.03363087e-16
-1.01030785e-16
-9.91836834e-17
-1.02808224e-16
-9.74450983e-17
-1.00392806e-16
-9.94707523e-17
-9.40721271e-17
-9.3451447e-17
-9.40432285e-17
-8.98833243e-17
-9.07325607e-17
-8.61427408e-17
-8.81242904e-17
-8.71896458e-17
-8.73128459e-17
-8.315711e-17
-8.42135497e-17
-8.54559855e-17
-8.26488838e-17
-7.62143562e-17
-7.54721396e-17
-7.99801573e-17
-7.52545366e-17
-7.66978194e-17
-7.59048956e-17
-7.51582349e-17
-7.31976828e-17
-7.4103197e-17
-7.2777606e-17
-7.09847424e-17
-7.23083415e-17
-7.21610518e-17
-6.91534131e-17
-7.09017469e-17
-6.76737771e-17
-7.19997564e-17
-7.14701975e-17
-6.82096579e-17
-6.87864354e-17
-6.78715241e-17
-6.64299442e-17
-6.63465613e-17
-6.41273309e-17
-6.33785074e-17
-6.52256044e-17
-6.3824426e-17
-6.42552766e-17
-6.39730505e-17
-6.09108379e-17
-6.07946733e-17
-6.09220615e-17
-6.11682303e-17
-6.20580879e-17
-6.2373522e-17
-6.00031581e-17
-6.33037851e-17
-6.41411139e-17
-6.21937936e-17
-6.41753373e-17
-6.33534842e-17
-6.16057128e-17
-6.279971e-17
-6.1881945e-17
-5.80551252e-17
-6.0851994e-17
-5.96716261e-17
-6.12466231e-17
-6.13182591e-17
-5.98962314e-17
-5.96885416e-17
-5.97750963e-17
-5.75697727e-17
-5.57058959e-17
-5.84472807e-17
-5.60270725e-17
-5.63987859e-17
-5.37382986e-17
-5.17705274e-17
-5.45386673e-17
-5.48652561e-17
-5.52161718e-17
-5.34275301e-17
-5.50119475e-17
-5.28089322e-17
-5.04977072e-17
-5.28465752e-17
-5.15130825e-17
-5.1653786e-17
-4.81712655e-17
-4.82553451e-17
-4.89417012e-17
-4.90661809e-17
-5.17279535e-17
-5.18662352e-17
-5.08630454e-17
-5.00224226e-17
-5.2877604e-17
-5.43507572e-17
-5.04660184e-17
-5.41791991e-17
-5.48529317e-17
-5.72642879e-17
-5.60235862e-17
-5.82998302e-17
-5.54064565e-17
-5.67011458e-17
-5.11231732e-17
-5.13807087e-17
-4.9266711e-17
-4.60249563e-17
-4.54736164e-17
-4.24186708e-17
-4.28555242e-17
-4.41925057e-17
-3.98572303e-17
-3.76396217e-17
-3.66845764e-17
-3.26001287e-17
-3.40438797e-17
-3.04629631e-17
-3.0838496e-17
-3.25395615e-17
-3.15068654e-17
-3.20540811e-17
-3.29464567e-17
-3.49145947e-17
-3.12467427e-17
-3.17477532e-17
-2.9869005e-17
-3.17083528e-17
-2.59011736e-17
-2.41877869e-17
-2.82732543e-17
-2.60436621e-17
-2.57572728e-17
-2.35955107e-17
-2.1961716e-17
-2.36612404e-17
-2.6571034e-17
-2.51299782e-17
-2.39636798e-17
-2.7162228e-17
-2.74107748e-17
-2.46214107e-17
-2.38525677e-17
-1.92216812e-17
-1.97323594e-17
-1.99788817e-17
-1.73749043e-17
-1.82828283e-17
-1.92476065e-17
-1.54377169e-17
-1.47989044e-17
-1.55092527e-17
-1.33125886e-17
-1.7655206e-17
-1.40309702e-17
-1.744552e-17
-1.40418948e-17
-1.3310084e-17
-1.04637694e-17
-7.56603916e-18
-7.9655799e-18
-6.43259357e-18
-8.54777369e-18
-7.23019207e-18
-6.66768221e-18
-8.34510748e-18
-8.02384444e-18
-9.77203788e-18
-1.04831604e-17
-1.23683364e-17
-8.79119024e-18
-5.92565758e-18
-9.42805118e-18
-8.45131909e-18
-5.59243952e-18
-6.19878592e-18
-5.25851219e-18
-5.50980236e-18
-4.11015489e-18
-2.76854428e-18
-3.64706265e-18
-1.88936378e-18
1.16313602e-18
-3.19921266e-18
-1.51346331e-18
-6.05387861e-19
-1.01326108e-18
-1.20027813e-18
-1.47516015e-18
3.22577534e-18
1.88718528e-18
4.22129481e-18
2.10043012e-19
5.97814649e-18
4.32368249e-18
6.83698514e-18
4.71362962e-18
3.07622647e-18
4.24271089e-18
4.30717604e-18
4.12158781e-18
5.06540313e-18
3.73354488e-18
6.02187104e-18
4.59521799e-18
3.93613954e-18
7.93759546e-18
9.77974775e-18
6.8491405e-18
5.40984039e-18
9.04376673e-18
1.21422927e-17
1.29208744e-17
1.20770635e-17
1.45774768e-17
1.21138592e-17
1.48465663e-17
1.49227209e-17
1.79802424e-17
1.59181595e-17
1.53904119e-17
1.70153991e-17
1.59410771e-17
2.11108532e-17
2.01121322e-17
2.17630875e-17
2.38248588e-17
2.16184433e-17
2.08520806e-17
1.94476288e-17
1.77689997e-17
1.87937861e-17
1.63047424e-17
1.83085417e-17
1.94543836e-17
1.89469738e-17
1.67979391e-17
1.42244249e-17
1.60524279e-17
1.5262666e-17
1.81449573e-17
1.53405958e-17
1.74137819e-17
1.80944769e-17
1.78834404e-17
1.68005369e-17
1.40417642e-17
1.43935624e-17
1.67661878e-17
1.6996902e-17
1.55941949e-17
1.18741788e-17
1.48808843e-17
1.7786847e-17
1.54767397e-17
1.73948978e-17
1.76382477e-17
1.63839919e-17
1.8425122e-17
1.62403154e-17
1.79939773e-17
1.87340061e-17
1.77886287e-17
1.92516901e-17
1.53123436e-17
1.67773144e-17
1.65138506e-17
1.76455006e-17
1.85325718e-17
1.62526338e-17
1.60322504e-17
1.85537876e-17
1.77325971e-17
2.0788947e-17
2.4263194e-17
2.28712534e-17
2.59868617e-17
2.59805436e-17
2.71140699e-17
2.81356502e-17
2.8560367e-17
2.66292701e-17
2.87632956e-17
2.88392288e-17
3.10737951e-17
3.1305038e-17
2.95788927e-17
3.53932819e-17
3.36728658e-17
3.71215766e-17
3.79146016e-17
3.16178316e-17
3.05563596e-17
3.24385856e-17
3.31059269e-17
3.60828004e-17
3.73849745e-17
3.91333676e-17
3.84675497e-17
4.03560625e-17
4.2881461e-17
4.54490669e-17
4.86671121e-17
4.50841839e-17
4.70688271e-17
4.76723003e-17
4.97619046e-17
5.08474033e-17
5.14480978e-17
5.0677892e-17
5.05019317e-17
5.36544098e-17
5.15709155e-17
5.59473352e-17
5.48742409e-17
5.42400787e-17
5.12507532e-17
5.10811471e-17
5.42738934e-17
5.48774318e-17
5.28573863e-17
5.83117646e-17
5.21264447e-17
5.1827057e-17
5.48946117e-17
5.40513902e-17
5.32650007e-17
5.26693497e-17
5.3116889e-17
5.40389842e-17
5.1411433e-17
5.17605311e-17
5.14259128e-17
4.89219074e-17
5.17320816e-17
5.47816114e-17
5.55436004e-17
5.73753761e-17
5.94356824e-17
5.73440142e-17
5.65748624e-17
6.20612517e-17
5.89458107e-17
5.99273841e-17
5.8551762e-17
5.76307261e-17
5.59402252e-17
5.54735424e-17
4.94283205e-17
5.03514662e-17
4.96530811e-17
4.91225631e-17
5.31700666e-17
5.29026952e-17
5.54414439e-17
5.70212846e-17
5.51213291e-17
5.5356967e-17
5.47162406e-17
5.62373666e-17
5.83161428e-17
6.05267575e-17
6.25082697e-17
6.21521047e-17
5.95507106e-17
5.93845679e-17
5.79841673e-17
5.83483574e-17
5.79199743e-17
5.98197968e-17
5.8764396e-17
5.88161683e-17
5.81378353e-17
5.63971018e-17
5.56123531e-17
5.33779817e-17
5.1905933e-17
5.23445065e-17
5.13548012e-17
5.36366544e-17
5.43869049e-17
5.45603396e-17
5.62619568e-17
5.80281969e-17
5.78463228e-17
5.93384619e-17
6.04179161e-17
5.95344358e-17
5.97026211e-17
5.82657694e-17
6.0253778e-17
5.81461439e-17
5.82618607e-17
6.07258164e-17
5.89717925e-17
6.09748598e-17
5.95947442e-17
5.9251446e-17
6.13516401e-17
5.63789267e-17
6.09203959e-17
5.65956236e-17
5.59805799e-17
5.75386836e-17
5.5376429e-17
6.07273401e-17
5.47143007e-17
5.73064149e-17
5.93751071e-17
5.91655945e-17
6.13268385e-17
6.00855168e-17
6.17922193e-17
6.2348402e-17
6.24149087e-17
6.33514643e-17
6.16228149e-17
5.84032799e-17
5.88266906e-17
6.0372049e-17
5.94842206e-17
6.27244478e-17
6.30085897e-17
6.28343903e-17
6.03522962e-17
6.0626662e-17
6.29708762e-17
6.01355317e-17
6.15512437e-17
5.61397774e-17
5.54233675e-17
5.15581447e-17
5.27598829e-17
5.16619894e-17
5.55685627e-17
5.27781325e-17
5.9117395e-17
5.5927697e-17
5.4270092e-17
5.2769095e-17
5.42457924e-17
5.53405375e-17
5.18579935e-17
5.48552267e-17
5.6526958e-17
5.63870079e-17
5.84871825e-17
5.58859805e-17
5.77154963e-17
5.75484548e-17
5.91252265e-17
5.95467311e-17
5.6970282e-17
6.12396974e-17
6.03042367e-17
5.89925918e-17
5.63048896e-17
5.70919529e-17
5.99371955e-17
6.01661822e-17
6.0289542e-17
6.11971607e-17
6.04228635e-17
6.1244997e-17
5.99661295e-17
5.67614155e-17
5.69533896e-17
5.87420579e-17
5.7907414e-17
5.58087164e-17
5.56932966e-17
5.85549973e-17
5.95438513e-17
5.81943789e-17
5.80516354e-17
5.86402776e-17
5.74795844e-17
5.76479909e-17
5.71760976e-17
5.99022079e-17
5.68709053e-17
5.74988937e-17
5.75813969e-17
6.04494513e-17
6.02928352e-17
6.15215241e-17
6.24190221e-17
6.04461768e-17
6.01425056e-17
5.99754742e-17
5.86639651e-17
6.01796842e-17
5.8256356e-17
5.75141013e-17
5.68418406e-17
5.61912128e-17
5.67290621e-17
5.40964518e-17
5.26112202e-17
5.36587889e-17
5.74915569e-17
5.79316894e-17
5.78760879e-17
5.79144762e-17
5.72532078e-17
5.6150335e-17
5.90268594e-17
5.86151367e-17
5.57368084e-17
6.2178428e-17
5.93509007e-17
5.97541723e-17
5.92100859e-17
5.97660406e-17
6.10141529e-17
6.14057832e-17
6.15417323e-17
5.80997737e-17
5.78923704e-17
5.79524215e-17
5.65519733e-17
5.764314e-17
5.65875123e-17
5.49024174e-17
5.54839896e-17
5.67502283e-17
5.71426758e-17
6.0405481e-17
6.10166193e-17
5.83437789e-17
5.81309209e-17
5.94536468e-17
5.54764413e-17
5.75339487e-17
5.81956455e-17
5.6875509e-17
5.29746103e-17
5.27832798e-17
5.29798898e-17
5.50437629e-17
5.33182041e-17
5.43651332e-17
5.54213142e-17
5.45651539e-17
5.09313177e-17
5.23047919e-17
5.0640466e-17
5.1526677e-17
5.02134112e-17
4.89743333e-17
5.14980045e-17
4.67619273e-17
4.60586988e-17
4.82824014e-17
5.08032357e-17
5.00757649e-17
5.0447594e-17
5.09789741e-17
5.23846251e-17
5.25244622e-17
5.06666143e-17
4.9708465e-17
5.11215471e-17
5.20204824e-17
4.79290547e-17
5.18923938e-17
5.47413251e-17
5.31623323e-17
5.52213949e-17
5.05899013e-17
5.11011918e-17
4.91878038e-17
5.26059331e-17
5.23328968e-17
5.2714098e-17
5.12083531e-17
5.49874882e-17
5.42933658e-17
5.70518726e-17
5.53626708e-17
5.58605638e-17
5.35252583e-17
5.22918357e-17
5.22259831e-17
5.15467125e-17
5.04941831e-17
5.08122969e-17
4.78822412e-17
5.04038949e-17
5.00080623e-17
5.40576502e-17
5.35187856e-17
5.39262567e-17
4.88032967e-17
4.90261472e-17
5.13547174e-17
5.10991706e-17
4.92827654e-17
5.07228852e-17
5.06769567e-17
5.34930141e-17
5.18464155e-17
5.10722372e-17
5.14160118e-17
5.10413291e-17
5.18810706e-17
5.11066748e-17
5.19402384e-17
5.11523758e-17
5.15412433e-17
5.0629374e-17
4.93609105e-17
4.82231714e-17
4.68219817e-17
4.57860667e-17
4.95086467e-17
4.87999083e-17
4.57311416e-17
4.37841137e-17
4.2874908e-17
4.30632253e-17
4.29141258e-17
4.03507505e-17
4.21570424e-17
4.28032771e-17
3.95583488e-17
3.69615035e-17
3.79959301e-17
4.16777688e-17
3.97372506e-17
3.7350302e-17
3.64575337e-17
3.76565839e-17
3.27992729e-17
3.0999721e-17
2.70383426e-17
2.57083303e-17
2.91478408e-17
2.68754723e-17
2.73657221e-17
2.94764142e-17
2.47598628e-17
2.20035518e-17
2.62428756e-17
2.45936749e-17
2.54515604e-17
2.64662105e-17
2.33990381e-17
2.45230988e-17
2.63962688e-17
2.67499169e-17
2.57562991e-17
2.72841551e-17
2.67037135e-17
2.87357636e-17
2.72319973e-17
2.82106576e-17
2.86757654e-17
2.43744682e-17
2.56230287e-17
2.44569909e-17
2.57238291e-17
2.32385519e-17
2.25349085e-17
2.18944952e-17
1.9530775e-17
2.26119548e-17
1.76544356e-17
1.50788071e-17
1.44125282e-17
1.9031285e-17
1.85587828e-17
2.0409093e-17
1.9072988e-17
2.25821491e-17
2.26453494e-17
2.16296025e-17
1.99902399e-17
2.51533829e-17
2.04699767e-17
2.03283307e-17
1.99270138e-17
2.33762914e-17
1.88345823e-17
1.62340357e-17
1.83868411e-17
1.77077391e-17
1.6865434e-17
1.91693344e-17
1.64541061e-17
1.63882852e-17
1.63795868e-17
1.54332887e-17
1.88533323e-17
1.46243707e-17
1.24307366e-17
1.17606701e-17
8.04496443e-18
7.48872017e-18
9.34826579e-18
6.30349052e-18
2.89697761e-18
1.50837372e-18
2.44675877e-18
-1.17554011e-18
3.86486619e-19
-3.28995333e-18
-5.93601926e-18
-3.22834939e-18
-4.59043325e-18
-5.30341198e-18
-5.36448561e-18
-3.71292875e-18
-4.44719236e-18
-4.95374822e-18
-7.37199347e-18
-7.03209276e-18
-9.90327306e-18
-6.61557929e-18
-9.15978578e-18
-1.07506919e-17
-9.1146536e-18
-1.20589683e-17
-1.45952881e-17
-1.34403108e-17
-1.98654952e-17
-1.96231099e-17
-2.02470898e-17
-2.31368373e-17
-2.43057798e-17
-2.43942186e-17
-2.16694159e-17
-2.22191211e-17
-1.82118158e-17
-2.10202927e-17
-1.91113609e-17
-1.79792871e-17
-1.82134402e-17
-1.95540392e-17
-1.90588714e-17
-2.06568547e-17
-2.25246104e-17
-2.17125545e-17
-2.42096584e-17
-2.20565058e-17
-2.35391143e-17
-2.32670336e-17
-2.24958632e-17
-2.5688139e-17
-2.33561301e-17
-2.53026673e-17
-2.67919794e-17
-2.79484842e-17
-2.90153258e-17
-2.5893898e-17
-2.45626917e-17
-2.52553534e-17
-2.19923144e-17
-2.51959212e-17
-2.23488618e-17
-2.19310648e-17
-2.19746422e-17
-2.25892531e-17
-2.30583595e-17
-2.07652207e-17
-2.51916645e-17
-2.36346985e-17
-2.4368351e-17
-2.70200367e-17
-2.59906887e-17
-2.60523919e-17
-2.70320744e-17
-2.59898313e-17
-2.66879414e-17
-2.40303042e-17
-2.5084318e-17
-2.43004352e-17
-2.32300868e-17
-2.32478844e-17
-2.74161767e-17
-2.54251813e-17
-2.4159845e-17
-2.37905549e-17
-2.46454586e-17
-2.61630733e-17
-2.3933147e-17
-2.76052457e-17
-2.61725117e-17
-3.22781906e-17
-3.00393333e-17
-3.17499215e-17
-3.1547003e-17
-3.31217509e-17
-3.49549248e-17
-4.04942397e-17
-4.15044272e-17
-4.2030916e-17
-4.14784921e-17
-4.03201978e-17
-4.50815988e-17
-4.30605762e-17
-4.61483844e-17
-4.59590057e-17
-4.84736788e-17
-5.14603706e-17
-5.46136731e-17
-5.58324123e-17
-5.63479305e-17
-5.82389606e-17
-6.01037681e-17
-6.00258988e-17
-6.25008605e-17
-5.78109223e-17
-5.93640831e-17
-5.74776291e-17
-5.70989765e-17
-5.70333223e-17
-5.83881073e-17
-5.95520493e-17
-5.87118503e-17
-5.98239114e-17
-5.95945317e-17
-6.20570082e-17
-5.93450024e-17
-5.95039777e-17
-5.76299896e-17
-5.72407856e-17
-5.50482992e-17
-5.1044306e-17
-5.30100647e-17
-4.95449548e-17
-5.20160869e-17
-5.66972709e-17
-5.38279469e-17
-5.25718117e-17
-5.34100633e-17
-5.37913555e-17
-5.01157373e-17
-5.22848174e-17
-5.33100228e-17
-5.09060517e-17
-5.19462757e-17
-5.22125115e-17
-5.08469529e-17
-5.20165878e-17
-5.2654524e-17
-5.11710679e-17
-5.31559768e-17
-5.1436578e-17
-5.17716293e-17
-5.23993914e-17
-5.10385174e-17
-5.04140938e-17
-5.17218495e-17
-5.01497139e-17
-4.90375885e-17
-5.25510808e-17
-4.97227e-17
-4.6681484e-17
-4.72993784e-17
-4.85234244e-17
-4.96255961e-17
-4.88926104e-17
-5.14305967e-17
-4.97519131e-17
-4.91428398e-17
-4.82263745e-17
-4.87120924e-17
-4.82988072e-17
-5.12193504e-17
-5.14768064e-17
-5.12190736e-17
-5.04164793e-17
-4.77600152e-17
-5.0054083e-17
-5.06344201e-17
-5.02159563e-17
-4.88307517e-17
-5.03013522e-17
-4.89721513e-17
-4.91063757e-17
-5.01344536e-17
-5.10175317e-17
-5.00496214e-17
-5.05618586e-17
-4.95895066e-17
-4.81674781e-17
-5.10589247e-17
-4.7875491e-17
-4.98732633e-17
-4.88303012e-17
-4.82740788e-17
-4.76936858e-17
-4.66861965e-17
-4.68152434e-17
-4.87020814e-17
-5.06465424e-17
-5.09706772e-17
-4.97933096e-17
-4.98983885e-17
-5.06025718e-17
-5.04754093e-17
-5.04828281e-17
-4.90300738e-17
-4.68886339e-17
-4.61912729e-17
-4.84455521e-17
-4.86838224e-17
-5.10500608e-17
-4.98174641e-17
-5.06924791e-17
-4.96737553e-17
-5.26145901e-17
-4.97836971e-17
-5.11775145e-17
-5.01401872e-17
-5.049926e-17
-5.04238633e-17
-4.93690711e-17
-4.74357626e-17
-4.71434947e-17
-4.9882708e-17
-5.17755982e-17
-4.95986718e-17
-5.30310961e-17
-5.23815742e-17
-5.5445219e-17
-5.46622082e-17
-5.33535794e-17
-5.76043531e-17
-5.78975075e-17
-5.70414988e-17
-5.72793506e-17
-5.61101015e-17
-5.88077101e-17
-5.72912831e-17
-5.85351264e-17
-6.06259666e-17
-6.02279518e-17
-6.25073832e-17
-6.37843936e-17
-6.60246934e-17
-6.53538836e-17
-6.45392532e-17
-6.2667063e-17
-6.42036823e-17
-6.22290127e-17
-6.21712352e-17
-6.24917422e-17
-6.27258047e-17
-6.2947242e-17
-6.51870276e-17
-6.52686549e-17
-6.442528e-17
-6.80566339e-17
-6.79093437e-17
-6.9541418e-17
-6.93737366e-17
-7.06616049e-17
-7.1343498e-17
-7.24157751e-17
-6.95248407e-17
-7.06325711e-17
-6.93298147e-17
-7.2600841e-17
-7.03351765e-17
-7.24192885e-17
-7.22647039e-17
-7.39064039e-17
-7.45294204e-17
-7.59985737e-17
-7.91554944e-17
-7.67180163e-17
-8.00699265e-17
-7.76888972e-17
-7.32790968e-17
-7.30780627e-17
-7.52243787e-17
-7.365391e-17
-7.72721821e-17
-7.55441292e-17
-7.61998303e-17
-7.36365056e-17
-7.19294454e-17
-7.40068523e-17
-7.35194175e-17
-7.33103223e-17
-7.5441196e-17
-7.77477853e-17
-7.67882907e-17
-7.95400773e-17
-8.08548439e-17
-7.67875162e-17
-7.89872567e-17
-7.4554167e-17
-7.66930021e-17
-7.57469178e-17
-7.70165281e-17
-7.39534566e-17
-7.22599728e-17
-7.36826425e-17
-7.33084054e-17
-7.2727487e-17
-7.57514634e-17
-7.4135925e-17
-7.16204721e-17
-7.22476368e-17
-7.05727152e-17
-7.07544941e-17
-6.94903388e-17
-6.73331908e-17
-6.56705224e-17
-6.54539735e-17
-6.36106977e-17
-6.34167542e-17
-6.38143312e-17
-6.14135513e-17
-5.8406762e-17
-6.17585507e-17
-6.32459452e-17
-6.5837257e-17
-6.66916111e-17
-6.45452614e-17
-6.5315136e-17
-6.56760624e-17
-6.51056689e-17
-6.42145787e-17
-6.42537441e-17
-6.48896435e-17
-6.5250764e-17
-6.03005288e-17
-5.97300295e-17
-6.08411095e-17
-5.80490321e-17
-6.13451359e-17
-6.17100857e-17
-6.00664031e-17
-5.843301e-17
-5.64771692e-17
-5.8437475e-17
-5.49453373e-17
-5.55140836e-17
-5.53155719e-17
-5.18817417e-17
-5.51107728e-17
-5.34066837e-17
-5.13957995e-17
-5.39665521e-17
-5.20899079e-17
-5.20120179e-17
-5.32940129e-17
-5.17403785e-17
-5.48678874e-17
-5.87730455e-17
-5.22991129e-17
-5.72701174e-17
-5.50082613e-17
-5.41609193e-17
-5.29132737e-17
-5.38395969e-17
-5.10942503e-17
-5.10780025e-17
-5.09137147e-17
-5.01027734e-17
-5.04289153e-17
-5.07082148e-17
-5.09526499e-17
-5.03597473e-17
-5.1702688e-17
-4.94574662e-17
-4.87729877e-17
-4.78705999e-17
-4.7470882e-17
-4.90910056e-17
-4.24801129e-17
-4.54486815e-17
-4.71562473e-17
-4.58401442e-17
-4.19669999e-17
-4.32408217e-17
-4.26980145e-17
-3.95085005e-17
-4.36476157e-17
-4.02980531e-17
-3.99996415e-17
-4.14149179e-17
-3.98413242e-17
-4.33364833e-17
-4.22440126e-17
-4.27818333e-17
-4.36520677e-17
-4.37253984e-17
-4.89640829e-17
-4.87584335e-17
-4.811763e-17
-4.87015109e-17
-4.95984638e-17
-5.30083454e-17
-4.92111388e-17
-5.23107474e-17
-5.43377223e-17
-5.43661097e-17
-5.31954528e-17
-5.58110718e-17
-5.14151061e-17
-4.76876119e-17
-4.78945604e-17
-4.74916403e-17
-5.05833239e-17
-4.86292384e-17
-4.77283099e-17
-4.84934553e-17
-4.57229665e-17
-4.73866853e-17
-4.65762768e-17
-4.64095713e-17
-4.25715639e-17
-4.38514646e-17
-4.30791663e-17
-4.42142523e-17
-4.35071333e-17
-4.11973709e-17
-4.43931013e-17
-4.46145988e-17
-4.50401006e-17
-4.43161141e-17
-4.45709371e-17
-4.53949742e-17
-4.26557135e-17
-4.48521719e-17
-4.62522801e-17
-4.77088145e-17
-4.847907e-17
-4.96140429e-17
-4.64942996e-17
-4.30796247e-17
-4.19781514e-17
-4.10804023e-17
-3.96343325e-17
-4.0637694e-17
-3.77630384e-17
-3.82718901e-17
-3.88634476e-17
-3.96115562e-17
-3.82803488e-17
-3.49530477e-17
-3.47253781e-17
-3.22245667e-17
-3.37173976e-17
-3.33331544e-17
-3.26160855e-17
-3.08069842e-17
-2.98127507e-17
-2.95869238e-17
-2.97282289e-17
-2.9029107e-17
-2.74995468e-17
-2.62488999e-17
-2.5820004e-17
-2.92025828e-17
-2.92852957e-17
-3.15892483e-17
-2.76675784e-17
-3.01663623e-17
-3.04864291e-17
-3.0885057e-17
-2.82503304e-17
-2.83982743e-17
-2.73549682e-17
-2.66986537e-17
-2.20097137e-17
-2.28026709e-17
-2.32063406e-17
-2.07810099e-17
-2.40701468e-17
-2.08581786e-17
-1.84372723e-17
-1.8204579e-17
-1.85378088e-17
-2.08603927e-17
-1.94726114e-17
-2.25514139e-17
-2.08684881e-17
-2.10077124e-17
-2.2123144e-17
-1.72711161e-17
-1.72205231e-17
-1.27061969e-17
-1.40353258e-17
-1.51398593e-17
-1.26220806e-17
-1.34852414e-17
-1.65512078e-17
-1.7203523e-17
-1.58462337e-17
-1.51074648e-17
-1.65984306e-17
-1.74410902e-17
-1.49497443e-17
-7.89287534e-18
-1.01843061e-17
-8.51466758e-18
-9.42461749e-18
-7.38485119e-18
-9.14165636e-18
-4.63166385e-18
-8.88239001e-18
-1.08885952e-17
-1.29519624e-17
-1.24554566e-17
-1.41223117e-17
-1.41469264e-17
-1.27679341e-17
-1.13120181e-17
-1.33594974e-17
-1.07395105e-17
-9.74634548e-18
-1.1947097e-17
-1.37404246e-17
-1.14750565e-17
-8.21758283e-18
-6.77647981e-18
-3.93755337e-18
-4.73696722e-18
-6.89159734e-18
-6.12386859e-18
-7.00196168e-18
-6.66832341e-18
-4.65817726e-18
-7.34015684e-18
-7.266159e-18
-3.49837254e-18
-4.74536721e-18
-4.52015212e-18
-2.57126348e-18
-1.01600347e-18
3.99373572e-18
6.65652267e-18
1.1267802e-17
8.48001866e-18
7.19125304e-18
6.21830579e-18
5.99883542e-18
7.96410656e-18
7.06242321e-18
7.21908299e-18
8.64723971e-18
1.18972204e-17
1.42650083e-17
1.48515822e-17
1.55646286e-17
1.75699344e-17
1.71641286e-17
2.0734256e-17
2.41015917e-17
2.67643606e-17
2.75724564e-17
2.64058044e-17
2.21489594e-17
2.0550315e-17
2.24717499e-17
2.33599394e-17
2.84055862e-17
2.81626853e-17
2.37538163e-17
2.47796755e-17
2.47798124e-17
2.19090011e-17
2.15906549e-17
2.06631494e-17
1.89867983e-17
2.1696343e-17
2.31953076e-17
2.38735583e-17
2.64108234e-17
2.51145076e-17
2.42668782e-17
2.50304418e-17
2.90998116e-17
3.23666915e-17
3.08490811e-17
3.1878908e-17
3.10613027e-17
3.14412115e-17
3.43808805e-17
3.38014851e-17
3.71966472e-17
3.64578338e-17
3.87233454e-17
3.97406767e-17
4.63264668e-17
4.43181865e-17
4.33030892e-17
4.16901362e-17
4.15252287e-17
3.88032187e-17
4.15044921e-17
3.91567299e-17
4.23319099e-17
4.40339368e-17
4.56106903e-17
4.62853992e-17
4.75664217e-17
4.5864539e-17
4.73115219e-17
4.51192304e-17
4.54591442e-17
4.33421347e-17
4.57144357e-17
4.46135249e-17
4.46741164e-17
4.61257782e-17
4.64982611e-17
4.76384219e-17
4.54085358e-17
4.35495237e-17
4.3765447e-17
4.60573073e-17
4.63136793e-17
4.91209149e-17
4.94817547e-17
5.41227891e-17
5.52889868e-17
5.40945923e-17
5.3610161e-17
5.34913817e-17
5.50495866e-17
5.51803031e-17
5.5466721e-17
5.48120884e-17
5.84622585e-17
5.87567462e-17
5.76037145e-17
5.78913798e-17
6.04963966e-17
5.9604436e-17
5.96486279e-17
5.85405654e-17
5.64244574e-17
5.94930405e-17
5.96168522e-17
5.88826156e-17
5.88484621e-17
5.8946414e-17
5.82277219e-17
5.96528645e-17
5.76677743e-17
5.89811036e-17
6.0369608e-17
5.61010598e-17
5.89618557e-17
5.89614935e-17
6.03034836e-17
6.2897547e-17
6.38185244e-17
6.61918951e-17
6.51622166e-17
6.54490633e-17
6.75117499e-17
6.91970587e-17
6.86739903e-17
6.89602337e-17
7.02397795e-17
6.77800641e-17
7.17950576e-17
7.1226867e-17
7.37132534e-17
7.42220784e-17
7.50496345e-17
7.50458005e-17
7.50134622e-17
7.59856148e-17
7.8583762e-17
7.78075302e-17
7.76755802e-17
7.63129122e-17
7.6692038e-17
7.72236407e-17
7.65950702e-17
8.08810113e-17
8.1457543e-17
8.27148746e-17
8.4170522e-17
8.51767314e-17
8.40832314e-17
8.3631486e-17
8.55954523e-17
8.55087268e-17
8.62088568e-17
9.08064713e-17
9.47994777e-17
9.60055744e-17
9.88387331e-17
9.78365232e-17
1.0093649e-16
9.90529995e-17
1.02265647e-16
1.05711059e-16
1.03181042e-16
1.07414393e-16
1.09689894e-16
1.14666701e-16
1.1740289e-16
1.21371176e-16
1.22215668e-16
1.24382613e-16
1.27172894e-16
1.30934245e-16
1.37802384e-16
1.42441075e-16
1.52235828e-16
1.55886595e-16
1.62811405e-16
1.72527466e-16
1.80029834e-16
1.83153253e-16
1.93535084e-16
2.05119437e-16
2.11918225e-16
2.23513478e-16
2.34824658e-16
2.44771708e-16
2.54467042e-16
2.71650437e-16
2.87959593e-16
3.06000247e-16
3.21521383e-16
3.40126582e-16
3.62856572e-16
3.9117413e-16
4.16597353e-16
4.4285518e-16
4.70838857e-16
5.03141513e-16
5.37883494e-16
5.72099799e-16
6.13718769e-16
6.57346271e-16
7.0641812e-16
7.582243e-16
8.1556853e-16
8.77512463e-16
9.40926748e-16
1.01554708e-15
1.09431304e-15
1.17709923e-15
1.2712406e-15
1.37048943e-15
1.47588961e-15
1.59121464e-15
1.71982707e-15
1.85506337e-15
1.99977729e-15
2.15720487e-15
2.33025549e-15
2.51426856e-15
2.71304766e-15
2.93036983e-15
3.16985354e-15
3.42082008e-15
3.69127591e-15
3.99242492e-15
4.30879833e-15
4.65747375e-15
5.03298719e-15
5.43575909e-15
5.87610531e-15
6.34989203e-15
6.86208757e-15
7.41502419e-15
8.00967256e-15
8.6566893e-15
9.35305656e-15
1.01130118e-14
1.09264711e-14
1.18090946e-14
1.27575371e-14
1.37806545e-14
1.48866844e-14
1.60795299e-14
1.73672288e-14
1.87555169e-14
2.02561097e-14
2.18757179e-14
2.36254632e-14
2.55120768e-14
2.75430822e-14