/*--------------------------------*- C++ -*----------------------------------*\
| =========                 |                                                 |
| \\      /  F ield         | OpenFOAM: The Open Source CFD Toolbox           |
|  \\    /   O peration     | Version:  2206                                  |
|   \\  /    A nd           | Website:  www.openfoam.com                      |
|    \\/     M anipulation  |                                                 |
\*---------------------------------------------------------------------------*/
FoamFile
{
    version     2.0;
    format      ascii;
    arch        "LSB;label=32;scalar=64";
    class       volScalarField;
    location    "1.24e-05";
    object      rho;
}
// * * * * * * * * * * * * * * * * * * * * * * * * * * * * * * * * * * * * * //

dimensions      [1 -3 0 0 0 0 0];

internalField   nonuniform List<scalar> 
3183
(
1.03926466
1.03926466
1.03926466
1.03926466
1.03926466
1.03926466
1.03926466
1.03926466
1.03926466
1.03926466
1.03926466
1.03926466
1.03926466
1.03926466
1.03926466
1.03926466
1.03926466
1.03926466
1.03926466
1.03926466
1.03926466
1.03926466
1.03926466
1.03926466
1.03926466
1.03926466
1.03926466
1.03926466
1.03926466
1.03926466
1.03926466
1.03926466
1.03926466
1.03926466
1.03926466
1.03926466
1.03926466
1.03926466
1.03926466
1.03926466
1.03926466
1.03926466
1.03926466
1.03926466
1.03926466
1.03926466
1.03926466
1.03926466
1.03926466
1.03926466
1.03926466
1.03926466
1.03926466
1.03926466
1.03926466
1.03926466
1.03926466
1.03926466
1.03926466
1.03926466
1.03926466
1.03926466
1.03926466
1.03926466
1.03926466
1.03926466
1.03926466
1.03926466
1.03926466
1.03926466
1.03926466
1.03926466
1.03926466
1.03926466
1.03926466
1.03926466
1.03926466
1.03926466
1.03926466
1.03926466
1.03926466
1.03926466
1.03926466
1.03926466
1.03926466
1.03926466
1.03926466
1.03926466
1.03926466
1.03926466
1.03926466
1.03926466
1.03926466
1.03926466
1.03926466
1.03926466
1.03926466
1.03926466
1.03926466
1.03926466
1.03926466
1.03926466
1.03926466
1.03926466
1.03926466
1.03926466
1.03926466
1.03926466
1.03926466
1.03926466
1.03926466
1.03926466
1.03926466
1.03926466
1.03926466
1.03926466
1.03926466
1.03926466
1.03926466
1.03926466
1.03926466
1.03926466
1.03926466
1.03926466
1.03926466
1.03926466
1.03926466
1.03926466
1.03926466
1.03926466
1.03926466
1.03926466
1.03926466
1.03926466
1.03926466
1.03926466
1.03926466
1.03926466
1.03926466
1.03926466
1.03926466
1.03926466
1.03926466
1.03926466
1.03926466
1.03926466
1.03926466
1.03926466
1.03926466
1.03926466
1.03926466
1.03926466
1.03926466
1.03926466
1.03926466
1.03926466
1.03926466
1.03926466
1.03926466
1.03926466
1.03926466
1.03926466
1.03926466
1.03926466
1.03926466
1.03926466
1.03926466
1.03926466
1.03926466
1.03926466
1.03926466
1.03926466
1.03926466
1.03926466
1.03926466
1.03926466
1.03926466
1.03926466
1.03926466
1.03926466
1.03926466
1.03926466
1.03926466
1.03926466
1.03926466
1.03926466
1.03926466
1.03926466
1.03926466
1.03926466
1.03926466
1.03926466
1.03926466
1.03926466
1.03926466
1.03926466
1.03926466
1.03926466
1.03926466
1.03926466
1.03926466
1.03926466
1.03926466
1.03926466
1.03926466
1.03926466
1.03926466
1.03926466
1.03926466
1.03926466
1.03926466
1.03926466
1.03926466
1.03926466
1.03926466
1.03926466
1.03926466
1.03926466
1.03926466
1.03926466
1.03926466
1.03926466
1.03926466
1.03926466
1.03926466
1.03926466
1.03926466
1.03926466
1.03926466
1.03926466
1.03926466
1.03926466
1.03926466
1.03926466
1.03926466
1.03926466
1.03926466
1.03926466
1.03926466
1.03926466
1.03926466
1.03926466
1.03926466
1.03926466
1.03926466
1.03926466
1.03926466
1.03926466
1.03926466
1.03926466
1.03926466
1.03926466
1.03926466
1.03926466
1.03926466
1.03926466
1.03926466
1.03926466
1.03926466
1.03926466
1.03926466
1.03926466
1.03926466
1.03926466
1.03926466
1.03926466
1.03926466
1.03926466
1.03926466
1.03926466
1.03926466
1.03926466
1.03926466
1.03926466
1.03926466
1.03926466
1.03926466
1.03926466
1.03926466
1.03926466
1.03926466
1.03926466
1.03926466
1.03926466
1.03926466
1.03926466
1.03926466
1.03926466
1.03926466
1.03926466
1.03926466
1.03926466
1.03926466
1.03926466
1.03926466
1.03926466
1.03926466
1.03926466
1.03926466
1.03926466
1.03926466
1.03926466
1.03926466
1.03926466
1.03926466
1.03926466
1.03926466
1.03926466
1.03926466
1.03926466
1.03926466
1.03926466
1.03926466
1.03926466
1.03926466
1.03926466
1.03926466
1.03926466
1.03926466
1.03926466
1.03926466
1.03926466
1.03926466
1.03926466
1.03926466
1.03926466
1.03926466
1.03926466
1.03926466
1.03926466
1.03926466
1.03926466
1.03926466
1.03926466
1.03926466
1.03926466
1.03926466
1.03926466
1.03926466
1.03926466
1.03926466
1.03926466
1.03926466
1.03926466
1.03926466
1.03926466
1.03926466
1.03926466
1.03926466
1.03926466
1.03926466
1.03926466
1.03926466
1.03926466
1.03926466
1.03926466
1.03926466
1.03926466
1.03926466
1.03926466
1.03926466
1.03926466
1.03926466
1.03926466
1.03926466
1.03926466
1.03926466
1.03926466
1.03926466
1.03926466
1.03926466
1.03926466
1.03926466
1.03926466
1.03926466
1.03926466
1.03926466
1.03926466
1.03926466
1.03926466
1.03926466
1.03926466
1.03926466
1.03926466
1.03926466
1.03926466
1.03926466
1.03926466
1.03926466
1.03926466
1.03926466
1.03926466
1.03926466
1.03926466
1.03926466
1.03926466
1.03926466
1.03926466
1.03926466
1.03926466
1.03926466
1.03926466
1.03926466
1.03926466
1.03926466
1.03926466
1.03926466
1.03926466
1.03926466
1.03926466
1.03926466
1.03926466
1.03926466
1.03926466
1.03926466
1.03926466
1.03926466
1.03926466
1.03926466
1.03926466
1.03926466
1.03926466
1.03926466
1.03926466
1.03926466
1.03926466
1.03926466
1.03926466
1.03926466
1.03926466
1.03926466
1.03926466
1.03926466
1.03926466
1.03926466
1.03926466
1.03926466
1.03926466
1.03926466
1.03926466
1.03926466
1.03926466
1.03926466
1.03926466
1.03926466
1.03926466
1.03926466
1.03926466
1.03926466
1.03926466
1.03926466
1.03926466
1.03926466
1.03926466
1.03926466
1.03926466
1.03926466
1.03926466
1.03926466
1.03926466
1.03926466
1.03926466
1.03926466
1.03926466
1.03926466
1.03926466
1.03926466
1.03926466
1.03926466
1.03926466
1.03926466
1.03926466
1.03926466
1.03926466
1.03926466
1.03926466
1.03926466
1.03926466
1.03926466
1.03926466
1.03926466
1.03926466
1.03926466
1.03926466
1.03926466
1.03926466
1.03926466
1.03926466
1.03926466
1.03926466
1.03926466
1.03926466
1.03926466
1.03926466
1.03926466
1.03926466
1.03926466
1.03926466
1.03926466
1.03926466
1.03926466
1.03926466
1.03926466
1.03926466
1.03926466
1.03926466
1.03926466
1.03926466
1.03926466
1.03926466
1.03926466
1.03926466
1.03926466
1.03926466
1.03926466
1.03926466
1.03926466
1.03926466
1.03926466
1.03926466
1.03926466
1.03926466
1.03926466
1.03926466
1.03926466
1.03926466
1.03926466
1.03926466
1.03926466
1.03926466
1.03926466
1.03926466
1.03926466
1.03926466
1.03926466
1.03926466
1.03926466
1.03926466
1.03926466
1.03926466
1.03926466
1.03926466
1.03926466
1.03926466
1.03926466
1.03926466
1.03926466
1.03926466
1.03926466
1.03926466
1.03926466
1.03926466
1.03926466
1.03926466
1.03926466
1.03926466
1.03926466
1.03926466
1.03926466
1.03926466
1.03926466
1.03926466
1.03926466
1.03926466
1.03926466
1.03926466
1.03926466
1.03926466
1.03926466
1.03926466
1.03926466
1.03926466
1.03926466
1.03926466
1.03926466
1.03926466
1.03926466
1.03926466
1.03926466
1.03926466
1.03926466
1.03926466
1.03926466
1.03926466
1.03926466
1.03926466
1.03926466
1.03926466
1.03926466
1.03926466
1.03926466
1.03926466
1.03926466
1.03926466
1.03926466
1.03926466
1.03926466
1.03926466
1.03926466
1.03926466
1.03926466
1.03926466
1.03926466
1.03926466
1.03926466
1.03926466
1.03926466
1.03926466
1.03926466
1.03926466
1.03926466
1.03926466
1.03926466
1.03926466
1.03926466
1.03926466
1.03926466
1.03926466
1.03926466
1.03926466
1.03926466
1.03926466
1.03926466
1.03926466
1.03926466
1.03926466
1.03926466
1.03926466
1.03926466
1.03926466
1.03926466
1.03926466
1.03926466
1.03926466
1.03926466
1.03926466
1.03926466
1.03926466
1.03926466
1.03926466
1.03926466
1.03926466
1.03926466
1.03926466
1.03926466
1.03926466
1.03926466
1.03926466
1.03926466
1.03926466
1.03926466
1.03926466
1.03926466
1.03926466
1.03926466
1.03926466
1.03926466
1.03926466
1.03926466
1.03926466
1.03926466
1.03926466
1.03926466
1.03926466
1.03926466
1.03926466
1.03926466
1.03926466
1.03926466
1.03926466
1.03926466
1.03926466
1.03926466
1.03926466
1.03926466
1.03926466
1.03926466
1.03926466
1.03926466
1.03926466
1.03926466
1.03926466
1.03926466
1.03926466
1.03926466
1.03926466
1.03926466
1.03926466
1.03926466
1.03926466
1.03926466
1.03926466
1.03926466
1.03926466
1.03926466
1.03926466
1.03926466
1.03926466
1.03926466
1.03926466
1.03926466
1.03926466
1.03926466
1.03926466
1.03926466
1.03926466
1.03926466
1.03926466
1.03926466
1.03926466
1.03926466
1.03926466
1.03926466
1.03926466
1.03926466
1.03926466
1.03926466
1.03926466
1.03926466
1.03926466
1.03926466
1.03926466
1.03926466
1.03926466
1.03926466
1.03926466
1.03926466
1.03926466
1.03926466
1.03926466
1.03926466
1.03926466
1.03926466
1.03926466
1.03926466
1.03926466
1.03926466
1.03926466
1.03926466
1.03926466
1.03926466
1.03926466
1.03926466
1.03926466
1.03926466
1.03926466
1.03926466
1.03926466
1.03926466
1.03926466
1.03926466
1.03926466
1.03926466
1.03926466
1.03926466
1.03926466
1.03926466
1.03926466
1.03926466
1.03926466
1.03926466
1.03926466
1.03926466
1.03926466
1.03926466
1.03926466
1.03926466
1.03926466
1.03926466
1.03926466
1.03926466
1.03926466
1.03926466
1.03926466
1.03926466
1.03926466
1.03926466
1.03926466
1.03926466
1.03926466
1.03926466
1.03926466
1.03926466
1.03926466
1.03926466
1.03926466
1.03926466
1.03926466
1.03926466
1.03926466
1.03926466
1.03926466
1.03926466
1.03926466
1.03926466
1.03926466
1.03926466
1.03926466
1.03926466
1.03926466
1.03926466
1.03926466
1.03926466
1.03926466
1.03926466
1.03926466
1.03926466
1.03926466
1.03926466
1.03926466
1.03926466
1.03926466
1.03926466
1.03926466
1.03926466
1.03926466
1.03926466
1.03926466
1.03926466
1.03926466
1.03926466
1.03926466
1.03926466
1.03926466
1.03926466
1.03926466
1.03926466
1.03926466
1.03926466
1.03926466
1.03926466
1.03926466
1.03926466
1.03926466
1.03926466
1.03926466
1.03926466
1.03926466
1.03926466
1.03926466
1.03926466
1.03926466
1.03926466
1.03926466
1.03926466
1.03926466
1.03926466
1.03926466
1.03926466
1.03926466
1.03926466
1.03926466
1.03926466
1.03926466
1.03926466
1.03926466
1.03926466
1.03926466
1.03926466
1.03926466
1.03926466
1.03926466
1.03926466
1.03926466
1.03926466
1.03926466
1.03926466
1.03926466
1.03926466
1.03926466
1.03926466
1.03926466
1.03926466
1.03926466
1.03926466
1.03926466
1.03926466
1.03926466
1.03926466
1.03926466
1.03926466
1.03926466
1.03926466
1.03926466
1.03926466
1.03926466
1.03926466
1.03926466
1.03926466
1.03926466
1.03926466
1.03926466
1.03926466
1.03926466
1.03926466
1.03926466
1.03926466
1.03926466
1.03926466
1.03926466
1.03926466
1.03926466
1.03926466
1.03926466
1.03926466
1.03926466
1.03926466
1.03926466
1.03926466
1.03926466
1.03926466
1.03926466
1.03926466
1.03926466
1.03926466
1.03926466
1.03926466
1.03926466
1.03926466
1.03926466
1.03926466
1.03926466
1.03926466
1.03926466
1.03926466
1.03926466
1.03926466
1.03926466
1.03926466
1.03926466
1.03926466
1.03926466
1.03926466
1.03926466
1.03926466
1.03926466
1.03926466
1.03926466
1.03926466
1.03926466
1.03926466
1.03926466
1.03926466
1.03926466
1.03926466
1.03926466
1.03926466
1.03926466
1.03926466
1.03926466
1.03926466
1.03926466
1.03926466
1.03926466
1.03926466
1.03926466
1.03926466
1.03926466
1.03926466
1.03926466
1.03926466
1.03926466
1.03926466
1.03926466
1.03926466
1.03926466
1.03926466
1.03926466
1.03926466
1.03926466
1.03926466
1.03926466
1.03926466
1.03926466
1.03926466
1.03926466
1.03926466
1.03926466
1.03926466
1.03926466
1.03926466
1.03926466
1.03926466
1.03926466
1.03926466
1.03926466
1.03926466
1.03926466
1.03926466
1.03926466
1.03926466
1.03926466
1.03926466
1.03926466
1.03926466
1.03926466
1.03926466
1.03926466
1.03926466
1.03926466
1.03926466
1.03926466
1.03926466
1.03926466
1.03926466
1.03926466
1.03926466
1.03926466
1.03926466
1.03926466
1.03926466
1.03926466
1.03926466
1.03926466
1.03926466
1.03926466
1.03926466
1.03926466
1.03926466
1.03926466
1.03926466
1.03926466
1.03926466
1.03926466
1.03926466
1.03926466
1.03926466
1.03926466
1.03926466
1.03926466
1.03926466
1.03926466
1.03926466
1.03926466
1.03926466
1.03926466
1.03926466
1.03926466
1.03926466
1.03926466
1.03926466
1.03926466
1.03926466
1.03926466
1.03926466
1.03926466
1.03926466
1.03926466
1.03926466
1.03926466
1.03926466
1.03926466
1.03926466
1.03926466
1.03926466
1.03926466
1.03926466
1.03926466
1.03926466
1.03926466
1.03926466
1.03926466
1.03926466
1.03926466
1.03926466
1.03926466
1.03926466
1.03926466
1.03926466
1.03926466
1.03926466
1.03926466
1.03926466
1.03926466
1.03926466
1.03926466
1.03926466
1.03926466
1.03926466
1.03926466
1.03926466
1.03926466
1.03926466
1.03926466
1.03926466
1.03926466
1.03926466
1.03926466
1.03926466
1.03926466
1.03926466
1.03926466
1.03926466
1.03926466
1.03926466
1.03926466
1.03926466
1.03926466
1.03926466
1.03926466
1.03926466
1.03926466
1.03926466
1.03926466
1.03926466
1.03926466
1.03926466
1.03926466
1.03926466
1.03926466
1.03926466
1.03926466
1.03926466
1.03926466
1.03926466
1.03926466
1.03926466
1.03926466
1.03926466
1.03926466
1.03926466
1.03926466
1.03926466
1.03926466
1.03926466
1.03926466
1.03926466
1.03926466
1.03926466
1.03926466
1.03926466
1.03926466
1.03926466
1.03926466
1.03926466
1.03926466
1.03926466
1.03926466
1.03926466
1.03926466
1.03926466
1.03926466
1.03926466
1.03926466
1.03926466
1.03926466
1.03926466
1.03926466
1.03926466
1.03926466
1.03926466
1.03926466
1.03926466
1.03926466
1.03926466
1.03926466
1.03926466
1.03926466
1.03926466
1.03926466
1.03926466
1.03926466
1.03926466
1.03926466
1.03926466
1.03926466
1.03926466
1.03926466
1.03926466
1.03926466
1.03926466
1.03926466
1.03926466
1.03926466
1.03926466
1.03926466
1.03926466
1.03926466
1.03926466
1.03926466
1.03926466
1.03926466
1.03926466
1.03926466
1.03926466
1.03926466
1.03926466
1.03926466
1.03926466
1.03926466
1.03926466
1.03926466
1.03926466
1.03926466
1.03926466
1.03926466
1.03926466
1.03926466
1.03926466
1.03926466
1.03926466
1.03926466
1.03926466
1.03926466
1.03926466
1.03926466
1.03926466
1.03926466
1.03926466
1.03926466
1.03926466
1.03926466
1.03926466
1.03926466
1.03926466
1.03926466
1.03926466
1.03926466
1.03926466
1.03926466
1.03926466
1.03926466
1.03926466
1.03926466
1.03926466
1.03926466
1.03926466
1.03926466
1.03926466
1.03926466
1.03926466
1.03926466
1.03926466
1.03926466
1.03926466
1.03926466
1.03926466
1.03926466
1.03926466
1.03926466
1.03926466
1.03926466
1.03926466
1.03926466
1.03926466
1.03926466
1.03926466
1.03926466
1.03926466
1.03926466
1.03926466
1.03926466
1.03926466
1.03926466
1.03926466
1.03926466
1.03926466
1.03926466
1.03926466
1.03926466
1.03926466
1.03926466
1.03926466
1.03926466
1.03926466
1.03926466
1.03926466
1.03926466
1.03926466
1.03926466
1.03926466
1.03926466
1.03926466
1.03926466
1.03926466
1.03926466
1.03926466
1.03926466
1.03926466
1.03926466
1.03926466
1.03926466
1.03926466
1.03926466
1.03926466
1.03926466
1.03926466
1.03926466
1.03926466
1.03926466
1.03926466
1.03926466
1.03926466
1.03926466
1.03926466
1.03926466
1.03926466
1.03926466
1.03926466
1.03926466
1.03926466
1.03926466
1.03926466
1.03926466
1.03926466
1.03926466
1.03926466
1.03926466
1.03926466
1.03926466
1.03926466
1.03926466
1.03926466
1.03926466
1.03926466
1.03926466
1.03926466
1.03926466
1.03926466
1.03926466
1.03926466
1.03926466
1.03926466
1.03926466
1.03926466
1.03926466
1.03926466
1.03926466
1.03926466
1.03926466
1.03926466
1.03926466
1.03926466
1.03926466
1.03926466
1.03926466
1.03926466
1.03926466
1.03926466
1.03926466
1.03926466
1.03926466
1.03926466
1.03926466
1.03926466
1.03926466
1.03926466
1.03926466
1.03926466
1.03926466
1.03926466
1.03926466
1.03926466
1.03926466
1.03926466
1.03926466
1.03926466
1.03926466
1.03926466
1.03926466
1.03926466
1.03926466
1.03926466
1.03926466
1.03926466
1.03926466
1.03926466
1.03926466
1.03926466
1.03926466
1.03926466
1.03926466
1.03926466
1.03926466
1.03926466
1.03926466
1.03926466
1.03926466
1.03926466
1.03926466
1.03926466
1.03926466
1.03926466
1.03926466
1.03926466
1.03926466
1.03926466
1.03926466
1.03926466
1.03926466
1.03926466
1.03926466
1.03926466
1.03926466
1.03926466
1.03926466
1.03926466
1.03926466
1.03926466
1.03926466
1.03926466
1.03926466
1.03926466
1.03926466
1.03926466
1.03926466
1.03926466
1.03926466
1.03926466
1.03926466
1.03926466
1.03926466
1.03926466
1.03926466
1.03926466
1.03926466
1.03926466
1.03926466
1.03926466
1.03926466
1.03926466
1.03926466
1.03926466
1.03926466
1.03926466
1.03926466
1.03926466
1.03926466
1.03926466
1.03926466
1.03926466
1.03926466
1.03926466
1.03926466
1.03926466
1.03926466
1.03926466
1.03926466
1.03926466
1.03926466
1.03926466
1.03926466
1.03926466
1.03926466
1.03926466
1.03926466
1.03926466
1.03926466
1.03926466
1.03926466
1.03926466
1.03926466
1.03926466
1.03926466
1.03926466
1.03926466
1.03926466
1.03926466
1.03926466
1.03926466
1.03926466
1.03926466
1.03926466
1.03926466
1.03926466
1.03926466
1.03926466
1.03926466
1.03926466
1.03926466
1.03926466
1.03926466
1.03926466
1.03926466
1.03926466
1.03926466
1.03926466
1.03926466
1.03926466
1.03926466
1.03926466
1.03926466
1.03926466
1.03926466
1.03926466
1.03926466
1.03926466
1.03926466
1.03926466
1.03926466
1.03926466
1.03926466
1.03926466
1.03926466
1.03926466
1.03926466
1.03926466
1.03926466
1.03926466
1.03926466
1.03926466
1.03926466
1.03926466
1.03926466
1.03926466
1.03926466
1.03926466
1.03926466
1.03926466
1.03926466
1.03926466
1.03926466
1.03926466
1.03926466
1.03926466
1.03926466
1.03926466
1.03926466
1.03926466
1.03926466
1.03926466
1.03926466
1.03926466
1.03926466
1.03926466
1.03926466
1.03926466
1.03926466
1.03926466
1.03926466
1.03926466
1.03926466
1.03926466
1.03926466
1.03926466
1.03926466
1.03926466
1.03926466
1.03926466
1.03926466
1.03926466
1.03926466
1.03926466
1.03926466
1.03926466
1.03926466
1.03926466
1.03926466
1.03926466
1.03926466
1.03926466
1.03926466
1.03926466
1.03926466
1.03926466
1.03926466
1.03926466
1.03926466
1.03926466
1.03926466
1.03926466
1.03926466
1.03926466
1.03926466
1.03926466
1.03926466
1.03926466
1.03926466
1.03926466
1.03926466
1.03926466
1.03926466
1.03926466
1.03926466
1.03926466
1.03926466
1.03926466
1.03926466
1.03926466
1.03926466
1.03926466
1.03926466
1.03926466
1.03926466
1.03926466
1.03926466
1.03926466
1.03926466
1.03926466
1.03926466
1.03926466
1.03926466
1.03926466
1.03926466
1.03926466
1.03926466
1.03926466
1.03926466
1.03926466
1.03926466
1.03926466
1.03926466
1.03926466
1.03926466
1.03926466
1.03926466
1.03926466
1.03926466
1.03926466
1.03926466
1.03926466
1.03926466
1.03926466
1.03926466
1.03926466
1.03926466
1.03926466
1.03926466
1.03926466
1.03926466
1.03926466
1.03926466
1.03926466
1.03926466
1.03926466
1.03926466
1.03926466
1.03926466
1.03926466
1.03926466
1.03926466
1.03926466
1.03926466
1.03926466
1.03926466
1.03926466
1.03926466
1.03926466
1.03926466
1.03926466
1.03926466
1.03926466
1.03926466
1.03926466
1.03926466
1.03926466
1.03926466
1.03926466
1.03926466
1.03926466
1.03926466
1.03926466
1.03926466
1.03926466
1.03926466
1.03926466
1.03926466
1.03926466
1.03926466
1.03926466
1.03926466
1.03926466
1.03926466
1.03926466
1.03926466
1.03926466
1.03926466
1.03926466
1.03926466
1.03926466
1.03926466
1.03926466
1.03926466
1.03926466
1.03926466
1.03926466
1.03926466
1.03926466
1.03926466
1.03926466
1.03926466
1.03926466
1.03926466
1.03926466
1.03926466
1.03926466
1.03926466
1.03926466
1.03926466
1.03926466
1.03926466
1.03926466
1.03926466
1.03926466
1.03926466
1.03926466
1.03926466
1.03926466
1.03926466
1.03926466
1.03926466
1.03926466
1.03926466
1.03926466
1.03926466
1.03926466
1.03926466
1.03926466
1.03926466
1.03926466
1.03926466
1.03926466
1.03926466
1.03926466
1.03926466
1.03926466
1.03926466
1.03926466
1.03926466
1.03926466
1.03926466
1.03926466
1.03926466
1.03926466
1.03926466
1.03926466
1.03926466
1.03926466
1.03926466
1.03926466
1.03926466
1.03926466
1.03926466
1.03926466
1.03926466
1.03926466
1.03926466
1.03926466
1.03926466
1.03926466
1.03926466
1.03926466
1.03926466
1.03926466
1.03926466
1.03926466
1.03926466
1.03926466
1.03926466
1.03926466
1.03926466
1.03926466
1.03926466
1.03926466
1.03926466
1.03926466
1.03926466
1.03926466
1.03926466
1.03926466
1.03926466
1.03926466
1.03926466
1.03926466
1.03926466
1.03926466
1.03926466
1.03926466
1.03926466
1.03926466
1.03926466
1.03926466
1.03926466
1.03926466
1.03926466
1.03926466
1.03926466
1.03926466
1.03926466
1.03926466
1.03926466
1.03926466
1.03926466
1.03926466
1.03926466
1.03926466
1.03926466
1.03926466
1.03926466
1.03926466
1.03926466
1.03926466
1.03926466
1.03926466
1.03926466
1.03926466
1.03926466
1.03926466
1.03926466
1.03926466
1.03926466
1.03926466
1.03926466
1.03926466
1.03926466
1.03926466
1.03926466
1.03926466
1.03926466
1.03926466
1.03926466
1.03926466
1.03926466
1.03926466
1.03926466
1.03926466
1.03926466
1.03926466
1.03926466
1.03926466
1.03926466
1.03926466
1.03926466
1.03926466
1.03926466
1.03926466
1.03926466
1.03926466
1.03926466
1.03926466
1.03926466
1.03926466
1.03926466
1.03926466
1.03926466
1.03926466
1.03926466
1.03926466
1.03926466
1.03926466
1.03926466
1.03926466
1.03926466
1.03926466
1.03926466
1.03926466
1.03926466
1.03926466
1.03926466
1.03926466
1.03926466
1.03926466
1.03926466
1.03926466
1.03926466
1.03926466
1.03926466
1.03926466
1.03926466
1.03926466
1.03926466
1.03926466
1.03926466
1.03926466
1.03926466
1.03926466
1.03926466
1.03926466
1.03926466
1.03926466
1.03926466
1.03926466
1.03926466
1.03926466
1.03926466
1.03926466
1.03926466
1.03926466
1.03926466
1.03926466
1.03926466
1.03926466
1.03926466
1.03926466
1.03926466
1.03926466
1.03926466
1.03926466
1.03926466
1.03926466
1.03926466
1.03926466
1.03926466
1.03926466
1.03926466
1.03926466
1.03926466
1.03926466
1.03926466
1.03926466
1.03926466
1.03926466
1.03926466
1.03926466
1.03926466
1.03926466
1.03926466
1.03926466
1.03926466
1.03926466
1.03926466
1.03926466
1.03926466
1.03926466
1.03926466
1.03926466
1.03926466
1.03926466
1.03926466
1.03926466
1.03926466
1.03926466
1.03926466
1.03926466
1.03926466
1.03926466
1.03926466
1.03926466
1.03926466
1.03926466
1.03926466
1.03926466
1.03926466
1.03926466
1.03926466
1.03926466
1.03926466
1.03926466
1.03926466
1.03926466
1.03926466
1.03926466
1.03926466
1.03926466
1.03926466
1.03926466
1.03926466
1.03926466
1.03926466
1.03926466
1.03926466
1.03926466
1.03926466
1.03926466
1.03926466
1.03926466
1.03926466
1.03926466
1.03926466
1.03926466
1.03926466
1.03926466
1.03926466
1.03926466
1.03926466
1.03926466
1.03926465
1.03926465
1.03926465
1.03926465
1.03926465
1.03926465
1.03926465
1.03926465
1.03926465
1.03926465
1.03926465
1.03926465
1.03926465
1.03926465
1.03926464
1.03926464
1.03926464
1.03926464
1.03926464
1.03926464
1.03926464
1.03926463
1.03926463
1.03926463
1.03926463
1.03926463
1.03926462
1.03926462
1.03926462
1.03926462
1.03926461
1.03926461
1.03926461
1.0392646
1.0392646
1.03926459
1.03926459
1.03926459
1.03926458
1.03926458
1.03926457
1.03926457
1.03926456
1.03926455
1.03926455
1.03926454
1.03926453
1.03926452
1.03926452
1.03926451
1.0392645
1.03926449
1.03926448
1.03926447
1.03926446
1.03926444
1.03926443
1.03926442
1.0392644
1.03926439
1.03926437
1.03926435
1.03926434
1.03926432
1.0392643
1.03926428
1.03926425
1.03926423
1.03926421
1.03926418
1.03926415
1.03926413
1.0392641
1.03926406
1.03926403
1.039264
1.03926396
1.03926392
1.03926388
1.03926384
1.03926379
1.03926375
1.0392637
1.03926365
1.03926359
1.03926353
1.03926347
1.03926341
1.03926334
1.03926328
1.0392632
1.03926313
1.03926305
1.03926296
1.03926288
1.03926278
1.03926269
1.03926259
1.03926248
1.03926237
1.03926226
1.03926214
1.03926201
1.03926188
1.03926174
1.0392616
1.03926145
1.03926129
1.03926112
1.03926095
1.03926077
1.03926059
1.03926039
1.03926019
1.03925998
1.03925976
1.03925953
1.03925929
1.03925904
1.03925878
1.03925851
1.03925822
1.03925793
1.03925762
1.03925731
1.03925698
1.03925663
1.03925628
1.0392559
1.03925552
1.03925512
1.0392547
1.03925427
1.03925382
1.03925336
1.03925287
1.03925237
1.03925185
1.03925132
1.03925076
1.03925018
1.03924958
1.03924896
1.03924832
1.03924766
1.03924697
1.03924627
1.03924553
1.03924477
1.03924399
1.03924318
1.03924235
1.03924148
1.03924059
1.03923967
1.03923873
1.03923775
1.03923674
1.0392357
1.03923463
1.03923353
1.0392324
1.03923123
1.03923003
1.03922879
1.03922752
1.03922622
1.03922487
1.03922349
1.03922208
1.03922062
1.03921913
1.0392176
1.03921603
1.03921441
1.03921276
1.03921107
1.03920934
1.03920756
1.03920574
1.03920389
1.03920198
1.03920004
1.03919805
1.03919602
1.03919395
1.03919183
1.03918967
1.03918746
1.03918521
1.03918292
1.03918058
1.0391782
1.03917577
1.0391733
1.03917079
1.03916823
1.03916563
1.03916299
1.03916031
1.03915759
1.03915482
1.03915201
1.03914916
1.03914628
1.03914335
1.03914039
1.03913739
1.03913435
1.03913128
1.03912818
1.03912504
1.03912187
1.03911867
1.03911543
1.03911217
1.03910889
1.03910557
1.03910224
1.03909888
1.0390955
1.0390921
1.03908868
1.03908525
1.0390818
1.03907834
1.03907487
1.03907139
1.03906791
1.03906442
1.03906093
1.03905744
1.03905395
1.03905046
1.03904698
1.03904352
1.03904006
1.03903661
1.03903318
1.03902977
1.03902638
1.03902301
1.03901967
1.03901635
1.03901307
1.03900981
1.0390066
1.03900341
1.03900027
1.03899718
1.03899412
1.03899112
1.03898816
1.03898525
1.0389824
1.0389796
1.03897687
1.03897419
1.03897158
1.03896903
1.03896654
1.03896413
1.03896178
1.03895951
1.03895731
1.03895519
1.03895314
1.03895118
1.03894929
1.03894749
1.03894576
1.03894412
1.03894257
1.0389411
1.03893972
1.03893843
1.03893722
1.03893611
1.03893508
1.03893414
1.0389333
1.03893254
1.03893187
1.03893129
1.03893081
1.03893041
1.0389301
1.03892988
1.03892975
1.0389297
1.03892974
1.03892987
1.03893008
1.03893038
1.03893076
1.03893121
1.03893175
1.03893237
1.03893306
1.03893383
1.03893467
1.03893558
1.03893656
1.03893761
1.03893872
1.0389399
1.03894113
1.03894243
1.03894378
1.03894519
1.03894665
1.03894816
1.03894972
1.03895132
1.03895296
1.03895464
1.03895636
1.03895812
1.03895991
1.03896172
1.03896357
1.03896544
1.03896733
1.03896925
1.03897118
1.03897313
1.03897509
1.03897706
1.03897903
1.03898102
1.03898301
1.038985
1.03898699
1.03898898
1.03899097
1.03899294
1.03899492
1.03899688
1.03899883
1.03900076
1.03900269
1.03900459
1.03900648
1.03900836
1.03901021
1.03901204
1.03901384
1.03901563
1.03901739
1.03901912
1.03902083
1.03902251
1.03902417
1.03902579
1.03902739
1.03902896
1.0390305
1.03903201
1.03903349
1.03903494
1.03903636
1.03903775
1.03903911
1.03904043
1.03904173
1.039043
1.03904424
1.03904544
1.03904662
1.03904777
1.03904889
1.03904998
1.03905104
1.03905208
1.03905309
1.03905407
1.03905502
1.03905595
1.03905686
1.03905774
1.03905859
1.03905943
1.03906024
1.03906102
1.03906179
1.03906254
1.03906326
1.03906397
1.03906466
1.03906532
1.03906598
1.03906661
1.03906723
1.03906783
1.03906842
1.03906899
1.03906955
1.0390701
1.03907063
1.03907116
1.03907167
1.03907217
1.03907266
1.03907314
1.03907361
1.03907408
1.03907453
1.03907498
1.03907543
1.03907586
1.03907629
1.03907672
1.03907714
1.03907756
1.03907798
1.03907839
1.03907879
1.0390792
1.03907961
1.03908001
1.03908041
1.03908081
1.03908121
1.03908162
1.03908202
1.03908242
1.03908283
1.03908323
1.03908364
1.03908405
1.03908446
1.03908487
1.03908529
1.03908571
1.03908613
1.03908655
1.03908698
1.03908741
1.03908784
1.03908828
1.03908872
1.03908916
1.03908961
1.03909006
1.03909051
1.03909096
1.03909142
1.03909188
1.03909234
1.0390928
1.03909327
1.03909373
1.0390942
1.03909467
1.03909514
1.0390956
1.03909607
1.03909654
1.039097
1.03909747
1.03909793
1.03909839
1.03909885
1.0390993
1.03909975
1.0391002
1.03910064
1.03910108
1.03910151
1.03910193
1.03910235
1.03910276
1.03910317
1.03910357
1.03910396
1.03910434
1.03910472
1.03910508
1.03910544
1.03910579
1.03910613
1.03910646
1.03910678
1.03910709
1.03910739
1.03910768
1.03910797
1.03910824
1.0391085
1.03910875
1.039109
1.03910923
1.03910945
1.03910967
1.03910987
1.03911006
1.03911025
1.03911043
1.0391106
1.03911075
1.03911091
1.03911105
1.03911118
1.03911131
1.03911143
1.03911155
1.03911165
1.03911175
1.03911185
1.03911193
1.03911201
1.03911209
1.03911216
1.03911223
1.03911229
1.03911235
1.0391124
1.03911245
1.0391125
1.03911254
1.03911259
1.03911263
1.03911267
1.0391127
1.03911274
1.03911278
1.03911282
1.03911286
1.0391129
1.03911294
1.03911298
1.03911303
1.03911308
1.03911314
1.0391132
1.03911326
1.03911333
1.03911341
1.0391135
1.0391136
1.0391137
1.03911381
1.03911394
1.03911407
1.03911422
1.03911438
1.03911455
1.03911473
1.03911493
1.03911514
1.03911536
1.0391156
1.03911585
1.03911612
1.0391164
1.0391167
1.03911701
1.03911733
1.03911766
1.03911801
1.03911837
1.03911874
1.03911912
1.0391195
1.0391199
1.0391203
1.0391207
1.03912111
1.03912152
1.03912192
1.03912233
1.03912273
1.03912313
1.03912352
1.0391239
1.03912427
1.03912464
1.03912498
1.03912532
1.03912564
1.03912594
1.03912623
1.0391265
1.03912675
1.03912698
1.0391272
1.0391274
1.03912758
1.03912775
1.0391279
1.03912803
1.03912815
1.03912826
1.03912836
1.03912845
1.03912853
1.03912861
1.03912868
1.03912874
1.03912881
1.03912887
1.03912894
1.03912901
1.03912908
1.03912915
1.03912922
1.0391293
1.03912939
1.03912947
1.03912957
1.03912966
1.03912976
1.03912985
1.03912995
1.03913005
1.03913016
1.03913026
1.03913035
1.03913045
1.03913055
1.03913064
1.03913074
1.03913083
1.03913092
1.03913102
1.03913112
1.03913122
1.03913133
1.03913145
1.03913164
1.03913178
1.03913471
1.03913483
1.03922925
1.03922948
1.04164446
1.04165102
0.904854514
0.904226829
0.419688155
0.39001759
0.307910511
0.300484295
0.276836989
0.274708154
0.26654583
0.266020998
0.263592371
0.263505836
0.262937166
0.262927144
0.262812802
0.262812139
0.262792105
0.26279208
0.262788958
0.262788938
0.262788484
0.262788467
0.262788395
0.26278838
0.26278836
0.262788347
0.262788333
0.262788321
0.262788309
0.262788297
0.262788285
0.262788273
0.262788261
0.262788248
0.262788236
0.262788223
0.262788209
0.262788195
0.262788181
0.262788167
0.262788152
0.262788137
0.262788122
0.262788107