/*--------------------------------*- C++ -*----------------------------------*\
| =========                 |                                                 |
| \\      /  F ield         | OpenFOAM: The Open Source CFD Toolbox           |
|  \\    /   O peration     | Version:  2206                                  |
|   \\  /    A nd           | Website:  www.openfoam.com                      |
|    \\/     M anipulation  |                                                 |
\*---------------------------------------------------------------------------*/
FoamFile
{
    version     2.0;
    format      ascii;
    arch        "LSB;label=32;scalar=64";
    class       volVectorField;
    location    "1.24e-05";
    object      U;
}
// * * * * * * * * * * * * * * * * * * * * * * * * * * * * * * * * * * * * * //

dimensions      [0 1 -1 0 0 0 0];

internalField   nonuniform List<vector> 
3183
(
(3.52729824e-13 0 0)
(6.48731029e-14 0 0)
(-2.38902677e-13 0 0)
(-2.29451144e-13 0 0)
(-1.32263601e-13 0 0)
(-6.75093582e-18 0 0)
(-5.27025201e-19 0 0)
(-3.9542052e-23 0 0)
(4.05950861e-23 0 0)
(5.74275379e-19 0 0)
(1.08182234e-17 0 0)
(1.76979952e-13 0 0)
(5.33258642e-13 0 0)
(1.56079432e-13 0 0)
(9.08973392e-14 0 0)
(8.09068224e-14 0 0)
(-2.43846959e-13 0 0)
(-5.741111e-13 0 0)
(-7.62254418e-13 0 0)
(-7.67295808e-14 0 0)
(3.60247833e-13 0 0)
(1.36422066e-16 0 0)
(4.20771961e-14 0 0)
(2.70837766e-13 0 0)
(3.48980534e-13 0 0)
(4.71264991e-13 0 0)
(4.9559865e-13 0 0)
(6.16452595e-13 0 0)
(3.42738037e-13 0 0)
(4.12254567e-13 0 0)
(-1.02235912e-13 0 0)
(-3.40909942e-13 0 0)
(-7.51820675e-13 0 0)
(-1.03892847e-12 0 0)
(-8.61514599e-13 0 0)
(-5.40550627e-13 0 0)
(-6.21438608e-13 0 0)
(-4.73109619e-13 0 0)
(-1.78814891e-13 0 0)
(-2.25367852e-13 0 0)
(-4.98575204e-13 0 0)
(-5.10222993e-13 0 0)
(-2.49404118e-13 0 0)
(-5.49484994e-13 0 0)
(-8.10474777e-14 0 0)
(3.04537667e-13 0 0)
(2.13535286e-13 0 0)
(3.56375705e-13 0 0)
(2.58443744e-13 0 0)
(5.6132864e-13 0 0)
(6.34960987e-13 0 0)
(1.26325107e-12 0 0)
(1.02121494e-12 0 0)
(1.68284902e-12 0 0)
(2.08463719e-12 0 0)
(2.12294995e-12 0 0)
(2.22431585e-12 0 0)
(2.21745518e-12 0 0)
(2.03897519e-12 0 0)
(2.00359551e-12 0 0)
(1.71166222e-12 0 0)
(1.19010951e-12 0 0)
(1.20203796e-12 0 0)
(6.49815527e-13 0 0)
(6.22178223e-13 0 0)
(5.04955453e-13 0 0)
(-8.57458316e-14 0 0)
(-5.08804444e-14 0 0)
(-3.65286753e-13 0 0)
(-9.29809303e-13 0 0)
(-6.86976252e-13 0 0)
(-9.07793106e-13 0 0)
(-8.51767122e-13 0 0)
(-1.36534638e-12 0 0)
(-1.80074559e-12 0 0)
(-1.89960018e-12 0 0)
(-1.78997421e-12 0 0)
(-2.20895616e-12 0 0)
(-2.45328835e-12 0 0)
(-2.59447045e-12 0 0)
(-3.0072721e-12 0 0)
(-3.17299374e-12 0 0)
(-2.63257801e-12 0 0)
(-4.42532837e-12 0 0)
(-3.27744566e-12 0 0)
(-3.53265266e-12 0 0)
(-4.09007106e-12 0 0)
(-4.07463784e-12 0 0)
(-4.36528544e-12 0 0)
(-4.43417464e-12 0 0)
(-5.68936335e-12 0 0)
(-5.64032382e-12 0 0)
(-4.74481955e-12 0 0)
(-5.64107236e-12 0 0)
(-5.83080499e-12 0 0)
(-4.92571497e-12 0 0)
(-5.71202152e-12 0 0)
(-4.77827316e-12 0 0)
(-5.17733701e-12 0 0)
(-4.67569738e-12 0 0)
(-3.79188651e-12 0 0)
(-4.8419979e-12 0 0)
(-5.12764042e-12 0 0)
(-5.06194002e-12 0 0)
(-5.21426548e-12 0 0)
(-5.32929693e-12 0 0)
(-5.51626563e-12 0 0)
(-5.21988919e-12 0 0)
(-5.7509953e-12 0 0)
(-6.88738688e-12 0 0)
(-5.10701144e-12 0 0)
(-6.32776339e-12 0 0)
(-5.6113238e-12 0 0)
(-7.15332923e-12 0 0)
(-5.28713072e-12 0 0)
(-5.61975472e-12 0 0)
(-5.74929124e-12 0 0)
(-5.81099698e-12 0 0)
(-5.29618658e-12 0 0)
(-6.67312486e-12 0 0)
(-5.6780418e-12 0 0)
(-4.57789868e-12 0 0)
(-5.44852514e-12 0 0)
(-4.57938419e-12 0 0)
(-4.98405955e-12 0 0)
(-5.55057579e-12 0 0)
(-4.93677494e-12 0 0)
(-6.85697401e-12 0 0)
(-5.42437669e-12 0 0)
(-6.13227186e-12 0 0)
(-5.77030315e-12 0 0)
(-6.14808419e-12 0 0)
(-6.63661871e-12 0 0)
(-6.92708426e-12 0 0)
(-6.46807777e-12 0 0)
(-7.11385976e-12 0 0)
(-7.84126448e-12 0 0)
(-7.56196467e-12 0 0)
(-7.96063401e-12 0 0)
(-7.43063188e-12 0 0)
(-7.44514471e-12 0 0)
(-7.76556438e-12 0 0)
(-7.68424024e-12 0 0)
(-8.53994331e-12 0 0)
(-7.23195128e-12 0 0)
(-7.21809804e-12 0 0)
(-6.93790025e-12 0 0)
(-8.02664838e-12 0 0)
(-7.5123333e-12 0 0)
(-7.86557178e-12 0 0)
(-7.53836002e-12 0 0)
(-8.27493667e-12 0 0)
(-8.12506747e-12 0 0)
(-7.68177223e-12 0 0)
(-9.11727974e-12 0 0)
(-7.6519404e-12 0 0)
(-8.76829526e-12 0 0)
(-8.8763736e-12 0 0)
(-7.86332309e-12 0 0)
(-8.75499911e-12 0 0)
(-9.20802171e-12 0 0)
(-8.40058067e-12 0 0)
(-7.60103399e-12 0 0)
(-8.5439048e-12 0 0)
(-9.1096228e-12 0 0)
(-8.29328138e-12 0 0)
(-8.58121503e-12 0 0)
(-8.14825148e-12 0 0)
(-8.68449743e-12 0 0)
(-8.53526324e-12 0 0)
(-9.24425592e-12 0 0)
(-8.72638425e-12 0 0)
(-8.86664915e-12 0 0)
(-8.20401408e-12 0 0)
(-1.01716397e-11 0 0)
(-8.75062661e-12 0 0)
(-9.88219049e-12 0 0)
(-9.07084474e-12 0 0)
(-9.95474621e-12 0 0)
(-1.02063367e-11 0 0)
(-8.7116907e-12 0 0)
(-1.1141421e-11 0 0)
(-9.120228e-12 0 0)
(-9.59984285e-12 0 0)
(-1.07451049e-11 0 0)
(-1.15361406e-11 0 0)
(-9.95816639e-12 0 0)
(-1.05665339e-11 0 0)
(-1.03585406e-11 0 0)
(-9.75482322e-12 0 0)
(-1.06362799e-11 0 0)
(-1.08555827e-11 0 0)
(-1.10110496e-11 0 0)
(-1.10612872e-11 0 0)
(-1.1554732e-11 0 0)
(-1.01628574e-11 0 0)
(-1.06392146e-11 0 0)
(-1.09282849e-11 0 0)
(-1.11369538e-11 0 0)
(-1.19490488e-11 0 0)
(-1.07669464e-11 0 0)
(-1.07503435e-11 0 0)
(-1.0794906e-11 0 0)
(-1.11928205e-11 0 0)
(-1.1683471e-11 0 0)
(-1.00675176e-11 0 0)
(-1.14400788e-11 0 0)
(-1.09514755e-11 0 0)
(-1.20857183e-11 0 0)
(-1.05464388e-11 0 0)
(-1.1073138e-11 0 0)
(-1.28342816e-11 0 0)
(-1.08660778e-11 0 0)
(-1.22567212e-11 0 0)
(-1.1897683e-11 0 0)
(-1.22986298e-11 0 0)
(-1.17413538e-11 0 0)
(-1.28282194e-11 0 0)
(-1.06248782e-11 0 0)
(-1.21148798e-11 0 0)
(-1.25314217e-11 0 0)
(-1.1691073e-11 0 0)
(-1.23068612e-11 0 0)
(-1.10543875e-11 0 0)
(-1.13657176e-11 0 0)
(-1.23016172e-11 0 0)
(-1.12582762e-11 0 0)
(-1.24688722e-11 0 0)
(-1.31737068e-11 0 0)
(-1.18621027e-11 0 0)
(-1.26517148e-11 0 0)
(-1.19616157e-11 0 0)
(-1.22027408e-11 0 0)
(-1.28211022e-11 0 0)
(-1.25725085e-11 0 0)
(-1.1879252e-11 0 0)
(-1.29264096e-11 0 0)
(-1.18634435e-11 0 0)
(-1.30195822e-11 0 0)
(-1.22872511e-11 0 0)
(-1.22757038e-11 0 0)
(-1.32179673e-11 0 0)
(-1.24515647e-11 0 0)
(-1.21119984e-11 0 0)
(-1.23985582e-11 0 0)
(-1.33274824e-11 0 0)
(-1.18238167e-11 0 0)
(-1.10745812e-11 0 0)
(-1.13062593e-11 0 0)
(-1.22727342e-11 0 0)
(-1.1883762e-11 0 0)
(-1.23893514e-11 0 0)
(-1.29732773e-11 0 0)
(-1.2989182e-11 0 0)
(-1.27411387e-11 0 0)
(-1.30047402e-11 0 0)
(-1.29863888e-11 0 0)
(-1.21522854e-11 0 0)
(-1.26283544e-11 0 0)
(-1.26712019e-11 0 0)
(-1.22179684e-11 0 0)
(-1.28658567e-11 0 0)
(-1.35657895e-11 0 0)
(-1.29707214e-11 0 0)
(-1.34862057e-11 0 0)
(-1.34217898e-11 0 0)
(-1.31380243e-11 0 0)
(-1.3555039e-11 0 0)
(-1.23716662e-11 0 0)
(-1.27583544e-11 0 0)
(-1.31416478e-11 0 0)
(-1.31266556e-11 0 0)
(-1.30309332e-11 0 0)
(-1.37698135e-11 0 0)
(-1.37929731e-11 0 0)
(-1.35005244e-11 0 0)
(-1.31644443e-11 0 0)
(-1.4039646e-11 0 0)
(-1.4030035e-11 0 0)
(-1.39351118e-11 0 0)
(-1.43225738e-11 0 0)
(-1.50292544e-11 0 0)
(-1.50529573e-11 0 0)
(-1.49029069e-11 0 0)
(-1.4576404e-11 0 0)
(-1.58254861e-11 0 0)
(-1.42153934e-11 0 0)
(-1.54982873e-11 0 0)
(-1.59820213e-11 0 0)
(-1.61519329e-11 0 0)
(-1.57282062e-11 0 0)
(-1.59480269e-11 0 0)
(-1.5976085e-11 0 0)
(-1.6974228e-11 0 0)
(-1.55254005e-11 0 0)
(-1.62728964e-11 0 0)
(-1.65375615e-11 0 0)
(-1.58058334e-11 0 0)
(-1.57631051e-11 0 0)
(-1.62614595e-11 0 0)
(-1.58193253e-11 0 0)
(-1.58603489e-11 0 0)
(-1.52454634e-11 0 0)
(-1.54698412e-11 0 0)
(-1.60071849e-11 0 0)
(-1.59703819e-11 0 0)
(-1.50732229e-11 0 0)
(-1.61597337e-11 0 0)
(-1.62033666e-11 0 0)
(-1.60403e-11 0 0)
(-1.61124107e-11 0 0)
(-1.60416104e-11 0 0)
(-1.55357701e-11 0 0)
(-1.63535527e-11 0 0)
(-1.71790508e-11 0 0)
(-1.71962813e-11 0 0)
(-1.79299396e-11 0 0)
(-1.71328071e-11 0 0)
(-1.67137929e-11 0 0)
(-1.89867737e-11 0 0)
(-1.76422839e-11 0 0)
(-1.71071377e-11 0 0)
(-1.74843276e-11 0 0)
(-1.72739159e-11 0 0)
(-1.78511515e-11 0 0)
(-1.6950607e-11 0 0)
(-1.82504094e-11 0 0)
(-1.64746313e-11 0 0)
(-1.74997726e-11 0 0)
(-1.67094264e-11 0 0)
(-1.57597161e-11 0 0)
(-1.72971124e-11 0 0)
(-1.69705315e-11 0 0)
(-1.58727102e-11 0 0)
(-1.51223548e-11 0 0)
(-1.55183039e-11 0 0)
(-1.54245702e-11 0 0)
(-1.6307347e-11 0 0)
(-1.58893394e-11 0 0)
(-1.51649028e-11 0 0)
(-1.48604836e-11 0 0)
(-1.54234758e-11 0 0)
(-1.56817701e-11 0 0)
(-1.50066218e-11 0 0)
(-1.59790881e-11 0 0)
(-1.62769489e-11 0 0)
(-1.64196975e-11 0 0)
(-1.57618272e-11 0 0)
(-1.55668422e-11 0 0)
(-1.55642866e-11 0 0)
(-1.52377571e-11 0 0)
(-1.58470616e-11 0 0)
(-1.69948957e-11 0 0)
(-1.53772054e-11 0 0)
(-1.55313996e-11 0 0)
(-1.57517292e-11 0 0)
(-1.66991557e-11 0 0)
(-1.57110077e-11 0 0)
(-1.59642686e-11 0 0)
(-1.60383947e-11 0 0)
(-1.56763878e-11 0 0)
(-1.55200401e-11 0 0)
(-1.53740405e-11 0 0)
(-1.64564886e-11 0 0)
(-1.50545571e-11 0 0)
(-1.57361804e-11 0 0)
(-1.51577261e-11 0 0)
(-1.66224498e-11 0 0)
(-1.56434296e-11 0 0)
(-1.56426514e-11 0 0)
(-1.51934998e-11 0 0)
(-1.58876653e-11 0 0)
(-1.51646523e-11 0 0)
(-1.58178312e-11 0 0)
(-1.54316212e-11 0 0)
(-1.83015032e-11 0 0)
(-1.57560662e-11 0 0)
(-1.57728987e-11 0 0)
(-1.60318588e-11 0 0)
(-1.56774777e-11 0 0)
(-1.6561465e-11 0 0)
(-1.51027017e-11 0 0)
(-1.70673107e-11 0 0)
(-1.63513028e-11 0 0)
(-1.67892174e-11 0 0)
(-1.63462352e-11 0 0)
(-1.57127308e-11 0 0)
(-1.60843706e-11 0 0)
(-1.65777111e-11 0 0)
(-1.53133789e-11 0 0)
(-1.55466502e-11 0 0)
(-1.58333287e-11 0 0)
(-1.51334991e-11 0 0)
(-1.54293343e-11 0 0)
(-1.62089832e-11 0 0)
(-1.47049682e-11 0 0)
(-1.47328652e-11 0 0)
(-1.49145303e-11 0 0)
(-1.47161084e-11 0 0)
(-1.34634077e-11 0 0)
(-1.32409277e-11 0 0)
(-1.36103569e-11 0 0)
(-1.38016545e-11 0 0)
(-1.41315838e-11 0 0)
(-1.33249805e-11 0 0)
(-1.28415317e-11 0 0)
(-1.23731442e-11 0 0)
(-1.34418848e-11 0 0)
(-1.27401599e-11 0 0)
(-1.2959844e-11 0 0)
(-1.13765329e-11 0 0)
(-1.14599075e-11 0 0)
(-1.2125649e-11 0 0)
(-1.19183534e-11 0 0)
(-1.21299832e-11 0 0)
(-1.1621275e-11 0 0)
(-1.09288901e-11 0 0)
(-1.15436032e-11 0 0)
(-1.15943631e-11 0 0)
(-1.12938968e-11 0 0)
(-1.01227631e-11 0 0)
(-1.0614738e-11 0 0)
(-1.09264323e-11 0 0)
(-1.05170874e-11 0 0)
(-1.09914702e-11 0 0)
(-1.13484666e-11 0 0)
(-1.09733985e-11 0 0)
(-1.0423697e-11 0 0)
(-1.05081528e-11 0 0)
(-1.01497427e-11 0 0)
(-1.04863068e-11 0 0)
(-1.05809599e-11 0 0)
(-9.83668345e-12 0 0)
(-9.57074942e-12 0 0)
(-9.79326984e-12 0 0)
(-9.95607352e-12 0 0)
(-1.02744641e-11 0 0)
(-1.04557461e-11 0 0)
(-8.92266218e-12 0 0)
(-8.70966687e-12 0 0)
(-9.70436848e-12 0 0)
(-9.91864767e-12 0 0)
(-8.84369423e-12 0 0)
(-9.34379885e-12 0 0)
(-9.7106117e-12 0 0)
(-9.48129637e-12 0 0)
(-1.02076534e-11 0 0)
(-9.61875041e-12 0 0)
(-1.02974394e-11 0 0)
(-9.75935817e-12 0 0)
(-9.29276117e-12 0 0)
(-9.24153327e-12 0 0)
(-9.90245244e-12 0 0)
(-9.05490225e-12 0 0)
(-9.37045266e-12 0 0)
(-9.31112305e-12 0 0)
(-8.96978324e-12 0 0)
(-1.00273229e-11 0 0)
(-9.13077101e-12 0 0)
(-7.56061921e-12 0 0)
(-9.08150881e-12 0 0)
(-1.02311999e-11 0 0)
(-8.85163379e-12 0 0)
(-8.12456739e-12 0 0)
(-9.4225736e-12 0 0)
(-9.01088035e-12 0 0)
(-7.42461974e-12 0 0)
(-8.21907684e-12 0 0)
(-7.67478343e-12 0 0)
(-8.45009442e-12 0 0)
(-8.32426418e-12 0 0)
(-8.54863098e-12 0 0)
(-8.13359511e-12 0 0)
(-8.36777547e-12 0 0)
(-7.66561893e-12 0 0)
(-8.51804959e-12 0 0)
(-8.22334396e-12 0 0)
(-7.89829224e-12 0 0)
(-7.5395788e-12 0 0)
(-7.77183818e-12 0 0)
(-6.92689305e-12 0 0)
(-7.9052267e-12 0 0)
(-7.77168161e-12 0 0)
(-7.58609499e-12 0 0)
(-8.15580574e-12 0 0)
(-8.41770294e-12 0 0)
(-7.74446657e-12 0 0)
(-9.34314082e-12 0 0)
(-8.06991637e-12 0 0)
(-7.42395387e-12 0 0)
(-8.48583758e-12 0 0)
(-8.2974752e-12 0 0)
(-9.41665677e-12 0 0)
(-8.59993388e-12 0 0)
(-9.16982305e-12 0 0)
(-8.49267378e-12 0 0)
(-7.6367482e-12 0 0)
(-8.50070505e-12 0 0)
(-6.98540362e-12 0 0)
(-7.80009953e-12 0 0)
(-7.709716e-12 0 0)
(-6.68492656e-12 0 0)
(-6.07269499e-12 0 0)
(-6.17000779e-12 0 0)
(-5.88982584e-12 0 0)
(-6.60011166e-12 0 0)
(-6.04547935e-12 0 0)
(-4.7046831e-12 0 0)
(-5.67729854e-12 0 0)
(-4.8865144e-12 0 0)
(-4.61905458e-12 0 0)
(-5.25279965e-12 0 0)
(-4.64972133e-12 0 0)
(-4.78505266e-12 0 0)
(-5.25234798e-12 0 0)
(-4.8011246e-12 0 0)
(-5.51046203e-12 0 0)
(-4.05586459e-12 0 0)
(-5.00395567e-12 0 0)
(-5.06212312e-12 0 0)
(-4.67250987e-12 0 0)
(-4.34379522e-12 0 0)
(-3.32836015e-12 0 0)
(-4.05649217e-12 0 0)
(-4.22225194e-12 0 0)
(-3.829622e-12 0 0)
(-3.73729615e-12 0 0)
(-4.06760778e-12 0 0)
(-4.09675723e-12 0 0)
(-3.6836655e-12 0 0)
(-3.81993944e-12 0 0)
(-3.46640498e-12 0 0)
(-4.59050313e-12 0 0)
(-4.30988744e-12 0 0)
(-3.56701811e-12 0 0)
(-3.09361188e-12 0 0)
(-3.51452756e-12 0 0)
(-2.3493549e-12 0 0)
(-3.09509146e-12 0 0)
(-2.42024827e-12 0 0)
(-3.05847449e-12 0 0)
(-2.29384557e-12 0 0)
(-3.37211755e-12 0 0)
(-1.85360597e-12 0 0)
(-1.48652167e-12 0 0)
(-2.89528047e-12 0 0)
(-2.49849224e-12 0 0)
(-2.11100656e-12 0 0)
(-2.44214721e-12 0 0)
(-2.83808891e-12 0 0)
(-1.85258918e-12 0 0)
(-1.37611045e-12 0 0)
(-5.56264414e-13 0 0)
(-1.68957319e-12 0 0)
(-1.48218028e-12 0 0)
(-5.36165287e-13 0 0)
(-9.44950258e-13 0 0)
(-9.28371013e-13 0 0)
(-1.38700363e-12 0 0)
(-1.6923924e-12 0 0)
(-1.0358085e-12 0 0)
(-2.14480818e-12 0 0)
(-9.70822571e-13 0 0)
(-1.25492368e-12 0 0)
(-1.39632503e-12 0 0)
(-1.25374655e-12 0 0)
(-1.21332868e-12 0 0)
(-1.00034678e-12 0 0)
(8.73819514e-14 0 0)
(-1.05156728e-12 0 0)
(-1.06651553e-12 0 0)
(-1.1498418e-12 0 0)
(-1.26344195e-13 0 0)
(-2.30393159e-13 0 0)
(6.82915061e-13 0 0)
(-6.83945614e-13 0 0)
(-1.08181639e-12 0 0)
(9.90141475e-14 0 0)
(1.35924598e-13 0 0)
(-3.36671354e-13 0 0)
(-7.46332729e-13 0 0)
(3.23037869e-13 0 0)
(9.90791054e-13 0 0)
(9.2234817e-13 0 0)
(-1.23181256e-14 0 0)
(3.28620324e-13 0 0)
(7.83044064e-13 0 0)
(1.40830425e-12 0 0)
(6.15456703e-13 0 0)
(-2.15366686e-13 0 0)
(9.43314045e-13 0 0)
(1.44398717e-12 0 0)
(-1.99529473e-13 0 0)
(1.23627518e-12 0 0)
(2.72594709e-13 0 0)
(6.97535369e-13 0 0)
(1.38305653e-12 0 0)
(5.29308969e-13 0 0)
(9.62360172e-13 0 0)
(1.76918799e-12 0 0)
(1.21462698e-12 0 0)
(2.47348309e-13 0 0)
(1.51085452e-12 0 0)
(1.39617093e-12 0 0)
(2.21953254e-12 0 0)
(1.32623092e-12 0 0)
(2.45482898e-12 0 0)
(2.37681945e-12 0 0)
(2.46192325e-12 0 0)
(1.69132861e-12 0 0)
(3.0779826e-12 0 0)
(2.89678807e-12 0 0)
(2.35220868e-12 0 0)
(1.80040756e-12 0 0)
(2.72272738e-12 0 0)
(2.69273755e-12 0 0)
(3.23765829e-12 0 0)
(3.61401023e-12 0 0)
(3.71910352e-12 0 0)
(4.01138807e-12 0 0)
(2.91239121e-12 0 0)
(2.59139809e-12 0 0)
(2.77279584e-12 0 0)
(2.81420106e-12 0 0)
(2.6247589e-12 0 0)
(2.95040389e-12 0 0)
(2.67815721e-12 0 0)
(2.42817684e-12 0 0)
(3.08687606e-12 0 0)
(2.85716876e-12 0 0)
(2.50669734e-12 0 0)
(2.52616998e-12 0 0)
(1.85904889e-12 0 0)
(2.66395641e-12 0 0)
(2.91706848e-12 0 0)
(2.32594554e-12 0 0)
(2.68613675e-12 0 0)
(3.05730197e-12 0 0)
(1.87653499e-12 0 0)
(2.46564446e-12 0 0)
(1.88319043e-12 0 0)
(2.40607801e-12 0 0)
(3.14189584e-12 0 0)
(2.18598527e-12 0 0)
(1.94368885e-12 0 0)
(2.88737168e-12 0 0)
(2.52908569e-12 0 0)
(3.05523136e-12 0 0)
(2.43014627e-12 0 0)
(2.67414254e-12 0 0)
(2.93637252e-12 0 0)
(2.74319114e-12 0 0)
(1.70116591e-12 0 0)
(3.33777672e-12 0 0)
(2.90980552e-12 0 0)
(3.15024956e-12 0 0)
(2.43757055e-12 0 0)
(3.13435489e-12 0 0)
(2.39313948e-12 0 0)
(1.8446032e-12 0 0)
(3.14991694e-12 0 0)
(3.07587483e-12 0 0)
(2.59136753e-12 0 0)
(2.40158943e-12 0 0)
(3.36644568e-12 0 0)
(2.43896881e-12 0 0)
(3.88390618e-12 0 0)
(3.82014444e-12 0 0)
(3.97349745e-12 0 0)
(3.94998415e-12 0 0)
(4.64830016e-12 0 0)
(3.60673076e-12 0 0)
(4.5435552e-12 0 0)
(4.03807367e-12 0 0)
(4.18903622e-12 0 0)
(4.38483545e-12 0 0)
(5.30270451e-12 0 0)
(4.57431098e-12 0 0)
(4.42227562e-12 0 0)
(5.7572508e-12 0 0)
(5.14439768e-12 0 0)
(6.16783717e-12 0 0)
(5.31171991e-12 0 0)
(5.16031684e-12 0 0)
(4.50913293e-12 0 0)
(4.942589e-12 0 0)
(4.54639229e-12 0 0)
(5.51683757e-12 0 0)
(5.82870416e-12 0 0)
(6.14392172e-12 0 0)
(6.24681925e-12 0 0)
(6.04307155e-12 0 0)
(6.57142182e-12 0 0)
(7.36541523e-12 0 0)
(7.48258864e-12 0 0)
(6.9499583e-12 0 0)
(7.24773998e-12 0 0)
(6.88470476e-12 0 0)
(7.04522969e-12 0 0)
(7.8900725e-12 0 0)
(8.68297112e-12 0 0)
(6.9952511e-12 0 0)
(8.29211311e-12 0 0)
(8.03524421e-12 0 0)
(8.13444182e-12 0 0)
(8.62318809e-12 0 0)
(9.40730021e-12 0 0)
(7.86582464e-12 0 0)
(7.6839867e-12 0 0)
(7.9093606e-12 0 0)
(8.58179884e-12 0 0)
(8.45227169e-12 0 0)
(8.35476423e-12 0 0)
(9.06273315e-12 0 0)
(8.51018451e-12 0 0)
(7.54522644e-12 0 0)
(8.21006048e-12 0 0)
(8.28564328e-12 0 0)
(8.73611336e-12 0 0)
(8.11330375e-12 0 0)
(7.63250353e-12 0 0)
(8.53495876e-12 0 0)
(7.72787874e-12 0 0)
(8.2756281e-12 0 0)
(8.21811051e-12 0 0)
(7.27746775e-12 0 0)
(7.07638946e-12 0 0)
(7.97623972e-12 0 0)
(9.34233783e-12 0 0)
(8.62365812e-12 0 0)
(9.40727739e-12 0 0)
(8.36874387e-12 0 0)
(9.17910106e-12 0 0)
(9.35780477e-12 0 0)
(8.678209e-12 0 0)
(9.58027275e-12 0 0)
(9.27768322e-12 0 0)
(8.23634111e-12 0 0)
(8.19960506e-12 0 0)
(9.01647276e-12 0 0)
(8.38183157e-12 0 0)
(6.93943721e-12 0 0)
(8.18391433e-12 0 0)
(7.92055283e-12 0 0)
(7.97937834e-12 0 0)
(8.00698483e-12 0 0)
(8.30897534e-12 0 0)
(9.02535175e-12 0 0)
(8.85888528e-12 0 0)
(8.40146749e-12 0 0)
(8.48188778e-12 0 0)
(8.63693308e-12 0 0)
(8.27780102e-12 0 0)
(9.53309263e-12 0 0)
(9.31852592e-12 0 0)
(9.03803092e-12 0 0)
(1.06829918e-11 0 0)
(9.11309607e-12 0 0)
(8.97498385e-12 0 0)
(8.94501116e-12 0 0)
(8.95187708e-12 0 0)
(9.32959504e-12 0 0)
(9.0956421e-12 0 0)
(8.69539912e-12 0 0)
(9.25721117e-12 0 0)
(8.44860884e-12 0 0)
(8.27737097e-12 0 0)
(8.65103466e-12 0 0)
(7.91196534e-12 0 0)
(7.85207113e-12 0 0)
(9.20893697e-12 0 0)
(7.87986851e-12 0 0)
(7.80341508e-12 0 0)
(8.62254179e-12 0 0)
(9.02915947e-12 0 0)
(8.69059443e-12 0 0)
(9.00827152e-12 0 0)
(9.12679185e-12 0 0)
(9.32901747e-12 0 0)
(9.13779495e-12 0 0)
(9.10469182e-12 0 0)
(9.20249203e-12 0 0)
(8.84054042e-12 0 0)
(9.41126399e-12 0 0)
(9.0207667e-12 0 0)
(9.42402919e-12 0 0)
(8.73527095e-12 0 0)
(9.41205505e-12 0 0)
(8.84446563e-12 0 0)
(8.58837239e-12 0 0)
(9.53624289e-12 0 0)
(9.36935805e-12 0 0)
(9.71464586e-12 0 0)
(8.3475416e-12 0 0)
(8.39945615e-12 0 0)
(8.44166197e-12 0 0)
(9.2293965e-12 0 0)
(8.62437215e-12 0 0)
(9.52977081e-12 0 0)
(8.37888534e-12 0 0)
(9.25590595e-12 0 0)
(9.55385881e-12 0 0)
(9.52966826e-12 0 0)
(8.79826572e-12 0 0)
(9.01239732e-12 0 0)
(9.28646228e-12 0 0)
(9.56276741e-12 0 0)
(1.01830905e-11 0 0)
(9.54014052e-12 0 0)
(8.21079717e-12 0 0)
(1.05325885e-11 0 0)
(8.75885913e-12 0 0)
(9.23676883e-12 0 0)
(8.65812115e-12 0 0)
(1.00298089e-11 0 0)
(9.52162657e-12 0 0)
(9.41038831e-12 0 0)
(1.01917785e-11 0 0)
(9.4259373e-12 0 0)
(9.52276346e-12 0 0)
(9.31074832e-12 0 0)
(8.78132419e-12 0 0)
(8.86414928e-12 0 0)
(7.64536755e-12 0 0)
(8.38220284e-12 0 0)
(7.51014665e-12 0 0)
(7.29354129e-12 0 0)
(9.51759426e-12 0 0)
(9.63736974e-12 0 0)
(8.50703261e-12 0 0)
(7.54006975e-12 0 0)
(8.63744473e-12 0 0)
(8.02925111e-12 0 0)
(8.2349009e-12 0 0)
(8.28475697e-12 0 0)
(8.48415163e-12 0 0)
(7.75283298e-12 0 0)
(8.75768983e-12 0 0)
(8.63948978e-12 0 0)
(8.87795058e-12 0 0)
(8.65012307e-12 0 0)
(8.90488585e-12 0 0)
(9.10315223e-12 0 0)
(8.85968264e-12 0 0)
(8.29651545e-12 0 0)
(9.520693e-12 0 0)
(9.55535469e-12 0 0)
(9.12944683e-12 0 0)
(8.49556164e-12 0 0)
(8.80388324e-12 0 0)
(9.29445983e-12 0 0)
(9.14347007e-12 0 0)
(9.24988365e-12 0 0)
(9.85941947e-12 0 0)
(9.56043653e-12 0 0)
(8.64140084e-12 0 0)
(8.55834831e-12 0 0)
(1.01015696e-11 0 0)
(8.74811605e-12 0 0)
(9.21745015e-12 0 0)
(8.83563607e-12 0 0)
(8.33268963e-12 0 0)
(8.35463623e-12 0 0)
(9.61699693e-12 0 0)
(8.02931172e-12 0 0)
(8.87105534e-12 0 0)
(1.0032848e-11 0 0)
(9.23209824e-12 0 0)
(8.81757761e-12 0 0)
(8.98381651e-12 0 0)
(8.04001724e-12 0 0)
(9.30838992e-12 0 0)
(9.14078275e-12 0 0)
(9.04027049e-12 0 0)
(9.30773468e-12 0 0)
(8.43136101e-12 0 0)
(8.96027017e-12 0 0)
(9.72293358e-12 0 0)
(9.8376969e-12 0 0)
(8.98932711e-12 0 0)
(9.52449003e-12 0 0)
(9.15990492e-12 0 0)
(8.5810569e-12 0 0)
(9.53499759e-12 0 0)
(9.06269226e-12 0 0)
(8.64247181e-12 0 0)
(8.48670438e-12 0 0)
(8.38575319e-12 0 0)
(9.05548928e-12 0 0)
(8.66361557e-12 0 0)
(8.47698017e-12 0 0)
(7.79558525e-12 0 0)
(8.25641413e-12 0 0)
(8.66096519e-12 0 0)
(9.38329274e-12 0 0)
(9.13396196e-12 0 0)
(8.88882602e-12 0 0)
(8.95285446e-12 0 0)
(9.22409416e-12 0 0)
(8.53684675e-12 0 0)
(8.66359848e-12 0 0)
(9.38142771e-12 0 0)
(9.65175706e-12 0 0)
(8.27455029e-12 0 0)
(9.55959089e-12 0 0)
(1.00357372e-11 0 0)
(8.51794736e-12 0 0)
(9.56812372e-12 0 0)
(9.91312564e-12 0 0)
(8.83755458e-12 0 0)
(8.46590336e-12 0 0)
(8.70832491e-12 0 0)
(9.6822797e-12 0 0)
(8.67076811e-12 0 0)
(7.63609603e-12 0 0)
(9.02814973e-12 0 0)
(9.36419873e-12 0 0)
(8.33472706e-12 0 0)
(9.10105994e-12 0 0)
(8.35544011e-12 0 0)
(1.01165719e-11 0 0)
(8.83284898e-12 0 0)
(8.77680678e-12 0 0)
(9.84702531e-12 0 0)
(8.95539835e-12 0 0)
(8.45416105e-12 0 0)
(9.16686193e-12 0 0)
(8.50761825e-12 0 0)
(8.8660079e-12 0 0)
(7.37206089e-12 0 0)
(8.5541807e-12 0 0)
(7.73326991e-12 0 0)
(8.43473605e-12 0 0)
(7.98394869e-12 0 0)
(8.56563103e-12 0 0)
(9.00219244e-12 0 0)
(8.52218056e-12 0 0)
(7.95038629e-12 0 0)
(6.95589591e-12 0 0)
(7.58192557e-12 0 0)
(8.17691358e-12 0 0)
(6.91686195e-12 0 0)
(8.38554122e-12 0 0)
(7.81110256e-12 0 0)
(6.73381796e-12 0 0)
(7.49614116e-12 0 0)
(7.07222181e-12 0 0)
(7.29580507e-12 0 0)
(7.97405972e-12 0 0)
(8.48415001e-12 0 0)
(7.3394639e-12 0 0)
(7.67278818e-12 0 0)
(8.2956062e-12 0 0)
(7.884265e-12 0 0)
(7.6410152e-12 0 0)
(8.27592184e-12 0 0)
(7.83565585e-12 0 0)
(7.37122998e-12 0 0)
(8.00606919e-12 0 0)
(8.15537941e-12 0 0)
(7.42687936e-12 0 0)
(8.72483609e-12 0 0)
(8.42383745e-12 0 0)
(7.15696344e-12 0 0)
(8.43972389e-12 0 0)
(6.94117768e-12 0 0)
(8.62149696e-12 0 0)
(8.06265347e-12 0 0)
(8.35326916e-12 0 0)
(8.04961148e-12 0 0)
(8.89516058e-12 0 0)
(8.69605122e-12 0 0)
(9.41404233e-12 0 0)
(8.54691184e-12 0 0)
(7.8435751e-12 0 0)
(7.96415787e-12 0 0)
(7.99145791e-12 0 0)
(7.35624328e-12 0 0)
(7.3971889e-12 0 0)
(7.79599826e-12 0 0)
(7.72348191e-12 0 0)
(7.30012813e-12 0 0)
(8.01289065e-12 0 0)
(8.49260423e-12 0 0)
(7.94319511e-12 0 0)
(8.16163562e-12 0 0)
(7.24487964e-12 0 0)
(8.19199591e-12 0 0)
(8.58363973e-12 0 0)
(6.88827734e-12 0 0)
(7.57958314e-12 0 0)
(8.55443382e-12 0 0)
(7.46047982e-12 0 0)
(8.22511192e-12 0 0)
(7.64544543e-12 0 0)
(8.28663945e-12 0 0)
(7.87203419e-12 0 0)
(8.21865751e-12 0 0)
(7.72232123e-12 0 0)
(7.83821471e-12 0 0)
(8.37762436e-12 0 0)
(7.13358456e-12 0 0)
(8.01168965e-12 0 0)
(8.0910371e-12 0 0)
(7.81594775e-12 0 0)
(7.12985841e-12 0 0)
(6.58955661e-12 0 0)
(7.52072664e-12 0 0)
(7.06002216e-12 0 0)
(7.84485493e-12 0 0)
(6.72774382e-12 0 0)
(6.96566073e-12 0 0)
(6.83441087e-12 0 0)
(5.8161088e-12 0 0)
(6.84237326e-12 0 0)
(5.32893765e-12 0 0)
(7.22876009e-12 0 0)
(6.53007273e-12 0 0)
(5.91973495e-12 0 0)
(5.69360763e-12 0 0)
(6.48388276e-12 0 0)
(6.68895454e-12 0 0)
(5.70005474e-12 0 0)
(4.90341844e-12 0 0)
(6.46546975e-12 0 0)
(4.75388845e-12 0 0)
(5.17984637e-12 0 0)
(5.03021298e-12 0 0)
(3.83815762e-12 0 0)
(4.47064061e-12 0 0)
(3.69645832e-12 0 0)
(4.59723952e-12 0 0)
(3.78766748e-12 0 0)
(4.78292049e-12 0 0)
(3.60695042e-12 0 0)
(3.61317452e-12 0 0)
(4.13779672e-12 0 0)
(4.08188162e-12 0 0)
(3.27256008e-12 0 0)
(4.11375025e-12 0 0)
(3.21169539e-12 0 0)
(4.38943774e-12 0 0)
(3.73172564e-12 0 0)
(4.17585038e-12 0 0)
(4.15843382e-12 0 0)
(3.74012411e-12 0 0)
(4.56998647e-12 0 0)
(4.46752182e-12 0 0)
(4.12833462e-12 0 0)
(4.10989949e-12 0 0)
(4.4036666e-12 0 0)
(3.92967143e-12 0 0)
(3.36253143e-12 0 0)
(4.12998451e-12 0 0)
(3.53113772e-12 0 0)
(2.92019923e-12 0 0)
(3.74363261e-12 0 0)
(3.61619279e-12 0 0)
(3.18744599e-12 0 0)
(3.6597306e-12 0 0)
(2.61118966e-12 0 0)
(1.83116064e-12 0 0)
(2.58742904e-12 0 0)
(3.03565842e-12 0 0)
(2.91074059e-12 0 0)
(2.71934396e-12 0 0)
(3.58098777e-12 0 0)
(3.25041034e-12 0 0)
(3.45301847e-12 0 0)
(2.5230437e-12 0 0)
(4.11413757e-12 0 0)
(3.77215953e-12 0 0)
(3.03963873e-12 0 0)
(3.09951789e-12 0 0)
(3.42312167e-12 0 0)
(3.21615515e-12 0 0)
(2.42212538e-12 0 0)
(2.95608388e-12 0 0)
(3.29988824e-12 0 0)
(2.46312115e-12 0 0)
(2.03253559e-12 0 0)
(3.18228034e-12 0 0)
(2.19215414e-12 0 0)
(2.26465743e-12 0 0)
(2.3407296e-12 0 0)
(2.81875096e-12 0 0)
(3.24879191e-12 0 0)
(1.06118424e-12 0 0)
(2.70198502e-12 0 0)
(1.36697319e-12 0 0)
(1.32143588e-12 0 0)
(1.22184668e-12 0 0)
(7.04155731e-13 0 0)
(4.28188003e-13 0 0)
(9.51319478e-13 0 0)
(-2.55348796e-13 0 0)
(7.33190404e-14 0 0)
(2.70963434e-13 0 0)
(9.6348297e-14 0 0)
(-1.094023e-12 0 0)
(1.45527217e-13 0 0)
(-9.55111621e-13 0 0)
(-1.13699803e-12 0 0)
(-3.12859885e-13 0 0)
(-9.11881674e-13 0 0)
(-7.06451868e-13 0 0)
(-4.42542352e-13 0 0)
(-9.38901885e-13 0 0)
(-1.02407346e-12 0 0)
(-1.02813118e-12 0 0)
(-7.86710081e-13 0 0)
(-1.58209448e-12 0 0)
(-1.29248275e-12 0 0)
(-1.83110741e-12 0 0)
(-2.14818673e-12 0 0)
(-2.02734066e-12 0 0)
(-1.76956219e-12 0 0)
(-2.39960867e-12 0 0)
(-3.06374782e-12 0 0)
(-3.18725712e-12 0 0)
(-4.15186379e-12 0 0)
(-3.15281443e-12 0 0)
(-3.55943148e-12 0 0)
(-4.06254056e-12 0 0)
(-3.19054216e-12 0 0)
(-2.99728413e-12 0 0)
(-2.80939526e-12 0 0)
(-3.41294266e-12 0 0)
(-2.95911567e-12 0 0)
(-2.62678373e-12 0 0)
(-2.4650977e-12 0 0)
(-3.3411758e-12 0 0)
(-3.47686997e-12 0 0)
(-3.57050129e-12 0 0)
(-3.4003898e-12 0 0)
(-3.14227369e-12 0 0)
(-2.76876309e-12 0 0)
(-4.34131725e-12 0 0)
(-2.85309708e-12 0 0)
(-4.44037788e-12 0 0)
(-3.07675483e-12 0 0)
(-4.1600364e-12 0 0)
(-3.73176219e-12 0 0)
(-3.99281313e-12 0 0)
(-3.87858527e-12 0 0)
(-4.05186782e-12 0 0)
(-4.08822879e-12 0 0)
(-4.56752551e-12 0 0)
(-3.08194032e-12 0 0)
(-3.45353761e-12 0 0)
(-3.5957638e-12 0 0)
(-4.00438135e-12 0 0)
(-3.26159268e-12 0 0)
(-4.08102756e-12 0 0)
(-3.61126985e-12 0 0)
(-3.79136206e-12 0 0)
(-3.03312858e-12 0 0)
(-3.72747265e-12 0 0)
(-3.19226256e-12 0 0)
(-3.95866699e-12 0 0)
(-3.72962123e-12 0 0)
(-3.32237245e-12 0 0)
(-4.51586222e-12 0 0)
(-4.18128815e-12 0 0)
(-4.14625647e-12 0 0)
(-3.87541348e-12 0 0)
(-4.67545838e-12 0 0)
(-3.11791937e-12 0 0)
(-3.59614198e-12 0 0)
(-3.96171685e-12 0 0)
(-3.46542995e-12 0 0)
(-3.90098004e-12 0 0)
(-4.04164789e-12 0 0)
(-3.71051765e-12 0 0)
(-3.36515396e-12 0 0)
(-3.67461941e-12 0 0)
(-3.20925051e-12 0 0)
(-4.21585718e-12 0 0)
(-4.06651714e-12 0 0)
(-4.11271114e-12 0 0)
(-4.20735204e-12 0 0)
(-4.76238236e-12 0 0)
(-4.70848251e-12 0 0)
(-5.36992245e-12 0 0)
(-4.4268914e-12 0 0)
(-4.62408535e-12 0 0)
(-6.19420636e-12 0 0)
(-6.72698745e-12 0 0)
(-5.88635549e-12 0 0)
(-6.1768707e-12 0 0)
(-6.92278433e-12 0 0)
(-6.39080916e-12 0 0)
(-7.70451713e-12 0 0)
(-6.49748922e-12 0 0)
(-5.07963128e-12 0 0)
(-6.80342297e-12 0 0)
(-7.84814712e-12 0 0)
(-8.27533883e-12 0 0)
(-7.69358254e-12 0 0)
(-9.70869045e-12 0 0)
(-8.33443979e-12 0 0)
(-8.57201577e-12 0 0)
(-8.7786042e-12 0 0)
(-1.04114042e-11 0 0)
(-8.9893721e-12 0 0)
(-8.90493224e-12 0 0)
(-8.4152862e-12 0 0)
(-9.39219101e-12 0 0)
(-8.84304236e-12 0 0)
(-9.03270633e-12 0 0)
(-8.4481024e-12 0 0)
(-9.86070626e-12 0 0)
(-8.09025316e-12 0 0)
(-9.59858091e-12 0 0)
(-9.77382722e-12 0 0)
(-9.13536042e-12 0 0)
(-9.35168283e-12 0 0)
(-8.89693454e-12 0 0)
(-9.37996476e-12 0 0)
(-8.19627609e-12 0 0)
(-7.86566145e-12 0 0)
(-7.49726991e-12 0 0)
(-8.15199932e-12 0 0)
(-7.66667881e-12 0 0)
(-8.50657445e-12 0 0)
(-8.3565783e-12 0 0)
(-8.42771195e-12 0 0)
(-7.96877999e-12 0 0)
(-8.54909277e-12 0 0)
(-7.76402792e-12 0 0)
(-7.93262704e-12 0 0)
(-7.28717166e-12 0 0)
(-8.56787714e-12 0 0)
(-7.94386617e-12 0 0)
(-8.15837456e-12 0 0)
(-7.87236283e-12 0 0)
(-8.62706771e-12 0 0)
(-8.09557943e-12 0 0)
(-7.96922158e-12 0 0)
(-8.13547416e-12 0 0)
(-7.74918201e-12 0 0)
(-8.4766954e-12 0 0)
(-7.5295085e-12 0 0)
(-8.87843029e-12 0 0)
(-6.98754373e-12 0 0)
(-8.32369665e-12 0 0)
(-7.41499598e-12 0 0)
(-7.49546658e-12 0 0)
(-8.46423114e-12 0 0)
(-8.02698228e-12 0 0)
(-6.8729645e-12 0 0)
(-6.72783237e-12 0 0)
(-7.30443433e-12 0 0)
(-7.63350126e-12 0 0)
(-8.0482332e-12 0 0)
(-7.02874918e-12 0 0)
(-8.16742031e-12 0 0)
(-8.54059348e-12 0 0)
(-6.69301715e-12 0 0)
(-7.40566266e-12 0 0)
(-7.23469988e-12 0 0)
(-7.78261756e-12 0 0)
(-7.98273741e-12 0 0)
(-7.99729417e-12 0 0)
(-7.75960633e-12 0 0)
(-8.35063945e-12 0 0)
(-7.22540706e-12 0 0)
(-7.59600512e-12 0 0)
(-7.62316155e-12 0 0)
(-7.41031713e-12 0 0)
(-7.90471011e-12 0 0)
(-7.96245239e-12 0 0)
(-7.56789108e-12 0 0)
(-7.6836916e-12 0 0)
(-7.62097938e-12 0 0)
(-7.132664e-12 0 0)
(-8.26366935e-12 0 0)
(-7.53213252e-12 0 0)
(-7.90726086e-12 0 0)
(-7.09701047e-12 0 0)
(-7.69545523e-12 0 0)
(-6.98950594e-12 0 0)
(-8.10009801e-12 0 0)
(-7.59390692e-12 0 0)
(-7.60724371e-12 0 0)
(-7.32161141e-12 0 0)
(-7.66485627e-12 0 0)
(-7.22383918e-12 0 0)
(-7.44862219e-12 0 0)
(-7.5802344e-12 0 0)
(-7.70382693e-12 0 0)
(-8.07768616e-12 0 0)
(-7.45576315e-12 0 0)
(-7.49540978e-12 0 0)
(-7.88314954e-12 0 0)
(-7.62256225e-12 0 0)
(-8.04297039e-12 0 0)
(-7.24425787e-12 0 0)
(-7.4037621e-12 0 0)
(-7.23145491e-12 0 0)
(-7.53469348e-12 0 0)
(-7.96789873e-12 0 0)
(-7.48219284e-12 0 0)
(-7.58981796e-12 0 0)
(-8.72438219e-12 0 0)
(-7.3215978e-12 0 0)
(-7.68136731e-12 0 0)
(-8.32053668e-12 0 0)
(-7.25585379e-12 0 0)
(-8.18009169e-12 0 0)
(-7.76668288e-12 0 0)
(-8.19731927e-12 0 0)
(-6.6621153e-12 0 0)
(-7.47796633e-12 0 0)
(-7.60404874e-12 0 0)
(-8.00014698e-12 0 0)
(-8.0219849e-12 0 0)
(-7.70987456e-12 0 0)
(-8.03406466e-12 0 0)
(-8.13711406e-12 0 0)
(-8.24432832e-12 0 0)
(-8.80546358e-12 0 0)
(-9.3541681e-12 0 0)
(-9.0715538e-12 0 0)
(-9.13246732e-12 0 0)
(-8.35366548e-12 0 0)
(-8.59860115e-12 0 0)
(-9.62500166e-12 0 0)
(-8.57127915e-12 0 0)
(-8.36965716e-12 0 0)
(-9.65044272e-12 0 0)
(-9.155785e-12 0 0)
(-9.52722853e-12 0 0)
(-1.05524682e-11 0 0)
(-1.01957903e-11 0 0)
(-9.62870725e-12 0 0)
(-9.68209522e-12 0 0)
(-1.03394093e-11 0 0)
(-9.41873274e-12 0 0)
(-9.63409933e-12 0 0)
(-8.78892036e-12 0 0)
(-1.00411157e-11 0 0)
(-9.72785463e-12 0 0)
(-1.08027882e-11 0 0)
(-9.44522885e-12 0 0)
(-1.02007466e-11 0 0)
(-9.5413143e-12 0 0)
(-1.10203831e-11 0 0)
(-1.13714889e-11 0 0)
(-1.06788151e-11 0 0)
(-9.87105058e-12 0 0)
(-1.08496676e-11 0 0)
(-1.23046406e-11 0 0)
(-1.05015408e-11 0 0)