/*--------------------------------*- C++ -*----------------------------------*\
| =========                 |                                                 |
| \\      /  F ield         | OpenFOAM: The Open Source CFD Toolbox           |
|  \\    /   O peration     | Version:  2206                                  |
|   \\  /    A nd           | Website:  www.openfoam.com                      |
|    \\/     M anipulation  |                                                 |
\*---------------------------------------------------------------------------*/
FoamFile
{
    version     2.0;
    format      ascii;
    arch        "LSB;label=32;scalar=64";
    class       surfaceScalarField;
    location    "1.22e-05";
    object      phi;
}
// * * * * * * * * * * * * * * * * * * * * * * * * * * * * * * * * * * * * * //

dimensions      [1 0 -1 0 0 0 0];

oriented        oriented;

internalField   nonuniform List<scalar> 
3182
(
4.35367437e-18
-2.70461185e-18
-6.30146992e-19
-1.66824032e-18
-3.339703e-21
-2.23519329e-23
-1.61472259e-24
5.1507955e-30
1.78746516e-24
3.57827146e-23
3.08276136e-21
2.64310107e-18
3.53248613e-18
-7.6184006e-19
1.81327578e-18
-7.78101278e-19
-2.59717782e-18
-5.05526768e-18
-3.3532372e-18
4.46983079e-18
5.11574369e-20
6.36838646e-22
3.60084772e-19
1.95539409e-18
3.32697772e-18
1.89182773e-18
3.76896209e-18
2.79886981e-18
2.40149392e-18
5.44449595e-19
-2.0269941e-18
-3.31974335e-18
-6.2476691e-18
-8.30423145e-18
-3.36560808e-18
-3.22497354e-18
-2.72317275e-18
-1.61951967e-18
-7.68889764e-19
-1.30392135e-18
-3.35564096e-18
-4.12153559e-18
-2.93084975e-18
-1.20947986e-18
-6.35259287e-19
1.62407567e-18
2.27073575e-18
2.05236975e-18
2.16701862e-18
3.26353336e-18
4.56396355e-18
5.99905386e-18
8.35889648e-18
1.09585241e-17
1.32415984e-17
1.36904417e-17
1.4328378e-17
1.43349544e-17
1.36802947e-17
1.28063481e-17
1.17315286e-17
9.53721501e-18
8.20315218e-18
6.28135405e-18
4.82839896e-18
2.4315664e-18
1.98628616e-18
-3.9715143e-19
-2.13192644e-18
-3.48712073e-18
-4.7620489e-18
-5.49574786e-18
-7.28734693e-18
-9.58920818e-18
-1.00207988e-17
-1.17639045e-17
-1.14117402e-17
-1.13541042e-17
-1.47570347e-17
-1.41963005e-17
-1.59924437e-17
-1.78555572e-17
-1.85336971e-17
-2.12924522e-17
-2.16634542e-17
-2.48976963e-17
-2.45256073e-17
-2.63392864e-17
-2.68606745e-17
-2.73612388e-17
-2.86744655e-17
-3.05277622e-17
-3.4144905e-17
-3.33455944e-17
-3.32449045e-17
-3.41661108e-17
-3.65534104e-17
-3.4563317e-17
-3.19500313e-17
-3.33896294e-17
-3.09573299e-17
-3.1718806e-17
-3.23324604e-17
-3.10491771e-17
-3.39647388e-17
-3.45883202e-17
-3.64406897e-17
-3.53806712e-17
-3.77320414e-17
-3.4776109e-17
-3.68307612e-17
-3.60556358e-17
-3.39073705e-17
-3.54279515e-17
-3.1565638e-17
-3.22982928e-17
-3.15753674e-17
-3.30365367e-17
-3.22216572e-17
-3.15765459e-17
-3.14981727e-17
-3.32885713e-17
-3.22895507e-17
-3.58591424e-17
-3.51119315e-17
-3.48373527e-17
-3.8146536e-17
-4.11896278e-17
-3.97178738e-17
-4.11944477e-17
-4.31434541e-17
-4.27662233e-17
-4.39266416e-17
-4.23272491e-17
-4.68360934e-17
-4.92422205e-17
-5.15983352e-17
-5.20805297e-17
-5.27826592e-17
-5.32174392e-17
-5.10255441e-17
-4.95702279e-17
-5.1964972e-17
-5.06228158e-17
-5.03170186e-17
-5.13067979e-17
-5.27693532e-17
-5.10694181e-17
-5.08788495e-17
-5.15143964e-17
-5.29096675e-17
-5.40561208e-17
-5.49587699e-17
-5.64481648e-17
-5.34731177e-17
-5.67460894e-17
-5.25955629e-17
-5.34970767e-17
-5.36918595e-17
-5.41599417e-17
-5.48890191e-17
-5.61310184e-17
-5.3744616e-17
-5.58791349e-17
-5.40817165e-17
-5.38404258e-17
-5.3073864e-17
-5.20460531e-17
-5.32864659e-17
-5.21294764e-17
-5.34459786e-17
-5.4553522e-17
-5.52065973e-17
-5.48861575e-17
-5.90565559e-17
-5.92796804e-17
-6.13762729e-17
-6.39765128e-17
-6.09970587e-17
-6.34423616e-17
-6.0924848e-17
-6.26436438e-17
-6.64378203e-17
-6.87603813e-17
-6.97078286e-17
-6.81070891e-17
-6.82315239e-17
-7.11102358e-17
-6.76965156e-17
-6.48924381e-17
-6.68138785e-17
-6.7624843e-17
-6.6821746e-17
-6.57252669e-17
-6.64688912e-17
-6.56094849e-17
-6.76875527e-17
-6.40585814e-17
-6.75182344e-17
-6.75556646e-17
-6.70066835e-17
-6.52049184e-17
-6.48960796e-17
-6.69413565e-17
-6.8441036e-17
-6.9684709e-17
-6.67365806e-17
-7.06444359e-17
-6.96051068e-17
-6.82020278e-17
-7.28161627e-17
-7.04311722e-17
-7.42848629e-17
-7.52509606e-17
-8.04054601e-17
-7.88393459e-17
-7.78795133e-17
-7.76118339e-17
-7.53220492e-17
-7.26259788e-17
-7.08938379e-17
-7.14370641e-17
-7.60294112e-17
-7.45685137e-17
-7.6580492e-17
-7.59334015e-17
-7.76059392e-17
-7.94084774e-17
-8.13246556e-17
-8.04531693e-17
-8.16369811e-17
-8.29448324e-17
-7.7059208e-17
-7.69367901e-17
-7.73170675e-17
-7.43435939e-17
-7.5320149e-17
-7.79751503e-17
-7.70242317e-17
-7.92918595e-17
-7.72496519e-17
-7.72049451e-17
-7.85851435e-17
-7.92254769e-17
-7.95040256e-17
-7.9864151e-17
-7.83763107e-17
-7.6351844e-17
-7.82914524e-17
-8.2490367e-17
-8.08620267e-17
-7.95338693e-17
-8.12105812e-17
-7.91959582e-17
-8.03217842e-17
-8.40105413e-17
-8.3876134e-17
-8.0796212e-17
-8.3099227e-17
-8.34143319e-17
-8.10298742e-17
-8.63829547e-17
-8.28043374e-17
-8.36860488e-17
-8.2866821e-17
-8.62982279e-17
-8.2339756e-17
-8.17584857e-17
-8.28832253e-17
-8.3825433e-17
-8.74811652e-17
-9.03932892e-17
-8.79824457e-17
-9.10153541e-17
-8.9896414e-17
-9.10331591e-17
-9.1264407e-17
-8.79948254e-17
-9.07210704e-17
-9.32417146e-17
-9.42081084e-17
-9.76194925e-17
-9.77140927e-17
-9.56184538e-17
-9.87551656e-17
-9.94172483e-17
-9.98362053e-17
-1.0047664e-16
-1.01723244e-16
-1.02136894e-16
-1.03292041e-16
-1.04176014e-16
-1.02820181e-16
-1.05289385e-16
-1.06711332e-16
-1.05805299e-16
-1.04317006e-16
-1.01820696e-16
-1.02668834e-16
-9.98383888e-17
-1.01988929e-16
-9.83257147e-17
-9.83081916e-17
-9.80060993e-17
-9.75051423e-17
-9.9308318e-17
-9.67250312e-17
-1.01055371e-16
-1.03023975e-16
-1.03156269e-16
-1.0669986e-16
-1.04960209e-16
-1.0627799e-16
-1.09812518e-16
-1.12217759e-16
-1.11411221e-16
-1.12973459e-16
-1.11053492e-16
-1.14866083e-16
-1.0962661e-16
-1.12370446e-16
-1.12534858e-16
-1.11973041e-16
-1.12052232e-16
-1.0934995e-16
-1.10223585e-16
-1.10973644e-16
-1.1161673e-16
-1.1079439e-16
-1.05740424e-16
-1.06350158e-16
-1.04592141e-16
-1.04933441e-16
-1.0105087e-16
-1.0030908e-16
-1.02184372e-16
-1.02670023e-16
-1.0194384e-16
-9.87934499e-17
-1.00946371e-16
-1.01912757e-16
-1.01385078e-16
-1.01342422e-16
-1.0043893e-16
-1.01483052e-16
-9.9445054e-17
-1.02594293e-16
-1.01128926e-16
-1.00301444e-16
-1.01082789e-16
-1.02307187e-16
-1.01535312e-16
-1.05917795e-16
-1.05900488e-16
-1.04461671e-16
-1.04090764e-16
-1.02108881e-16
-1.02956926e-16
-1.02228248e-16
-1.02494361e-16
-1.01334833e-16
-9.64198098e-17
-1.00741278e-16
-9.9621807e-17
-1.00232385e-16
-1.02014591e-16
-1.03269964e-16
-1.01507697e-16
-1.01648788e-16
-1.0192462e-16
-1.00760062e-16
-1.00415511e-16
-1.04477019e-16
-1.04937734e-16
-1.0293597e-16
-1.01998933e-16
-1.01580883e-16
-1.00837201e-16
-9.84711158e-17
-1.00912659e-16
-1.02424115e-16
-1.00840992e-16
-1.04169532e-16
-1.01586818e-16
-1.02114138e-16
-1.00586178e-16
-1.06439305e-16
-1.00723764e-16
-1.0056332e-16
-1.01572438e-16
-9.73894642e-17
-9.71698614e-17
-9.53376867e-17
-9.3659746e-17
-9.30628777e-17
-9.02666214e-17
-9.03890893e-17
-8.60867545e-17
-8.49367784e-17
-8.43797157e-17
-8.54675293e-17
-8.40741283e-17
-8.07291963e-17
-8.36408292e-17
-8.20198342e-17
-8.138787e-17
-8.07379111e-17
-8.39064736e-17
-7.89441456e-17
-7.41658846e-17
-7.52775443e-17
-7.82493924e-17
-8.06611479e-17
-7.65805621e-17
-7.76011154e-17
-7.69005775e-17
-7.11266587e-17
-7.57740086e-17
-7.25637323e-17
-7.44762774e-17
-7.2289229e-17
-7.2253454e-17
-7.0920885e-17
-6.90392024e-17
-7.11947193e-17
-7.2229618e-17
-7.17785989e-17
-7.02358001e-17
-6.71157174e-17
-6.79239741e-17
-6.8222087e-17
-6.82000339e-17
-6.59102727e-17
-6.33763788e-17
-6.72638083e-17
-6.76532149e-17
-6.44546607e-17
-6.24189661e-17
-6.10366691e-17
-6.27791122e-17
-6.10563521e-17
-5.9336975e-17
-5.84140807e-17
-5.69099412e-17
-5.80855953e-17
-5.97635834e-17
-5.87538981e-17
-6.03266215e-17
-6.05730636e-17
-6.15545511e-17
-5.95858473e-17
-5.72322094e-17
-5.7992915e-17
-5.75400167e-17
-6.25603847e-17
-5.73727655e-17
-5.55120734e-17
-5.768644e-17
-5.79263705e-17
-5.96565027e-17
-5.97822375e-17
-5.55209609e-17
-5.90179291e-17
-5.65019561e-17
-5.59601588e-17
-5.81369342e-17
-5.91175282e-17
-5.88521449e-17
-5.80144414e-17
-5.4557868e-17
-5.12571414e-17
-5.12430233e-17
-5.12025321e-17
-4.89024531e-17
-5.0102193e-17
-4.72661533e-17
-4.58763904e-17
-4.7952479e-17
-4.81496288e-17
-5.00699782e-17
-4.89542801e-17
-4.92264897e-17
-4.64020532e-17
-4.84374457e-17
-4.92428527e-17
-4.81519199e-17
-4.9328857e-17
-5.27986143e-17
-5.03818505e-17
-5.25027468e-17
-5.49402992e-17
-5.55877176e-17
-5.41344456e-17
-5.27891607e-17
-5.54849988e-17
-5.31187707e-17
-4.74636322e-17
-4.59446656e-17
-4.56109904e-17
-4.43566262e-17
-4.19827324e-17
-4.26260786e-17
-4.32953702e-17
-4.09170355e-17
-3.99783771e-17
-3.77202208e-17
-3.8470153e-17
-3.41742094e-17
-3.57474476e-17
-3.36660745e-17
-3.23196509e-17
-3.23863305e-17
-3.12691283e-17
-2.82502432e-17
-3.10665775e-17
-2.76592301e-17
-2.75614183e-17
-2.98915031e-17
-3.16911536e-17
-3.35331747e-17
-2.92586899e-17
-2.93564305e-17
-3.19447845e-17
-2.97291527e-17
-2.7459368e-17
-2.33097334e-17
-2.53214673e-17
-2.34359515e-17
-2.29729968e-17
-2.34105528e-17
-2.21242135e-17
-2.18394359e-17
-2.58958164e-17
-2.10446677e-17
-2.03663078e-17
-1.93646979e-17
-2.18317914e-17
-2.03037784e-17
-1.93921148e-17
-1.84769515e-17
-1.75533592e-17
-1.35504867e-17
-1.2985541e-17
-1.93011781e-17
-1.33574866e-17
-1.4329877e-17
-1.59134721e-17
-1.39569906e-17
-1.2285227e-17
-1.33703963e-17
-1.41102519e-17
-1.29962363e-17
-1.15571837e-17
-1.18936207e-17
-6.67156516e-18
-9.02529205e-18
-8.48466909e-18
-1.19776919e-17
-1.15851496e-17
-9.6451532e-18
-8.59736462e-18
-1.06472398e-17
-1.23460118e-17
-9.44726745e-18
-9.53513452e-18
-4.86902888e-18
-5.73216356e-18
-2.68343311e-18
-1.59138857e-18
1.9355415e-18
1.58767993e-18
2.98153419e-18
3.6400744e-18
5.49725263e-18
5.03151568e-18
2.1305123e-18
2.19891665e-18
1.29757954e-18
8.37518736e-19
2.44968664e-18
2.06109316e-18
1.44185411e-18
1.81234846e-18
5.21050233e-19
3.64533138e-18
6.05392825e-18
6.1225949e-18
5.0912922e-18
4.62867332e-18
6.58270579e-18
6.02599947e-18
6.1356452e-18
6.0465044e-18
5.43839074e-18
3.94326418e-18
4.47934071e-18
4.69559132e-18
5.69317448e-18
6.2940387e-18
6.38260635e-18
8.71278864e-18
9.1408729e-18
7.40437143e-18
8.74545064e-18
7.7300437e-18
1.04173186e-17
9.23187335e-18
1.40329883e-17
1.13184437e-17
1.32001869e-17
1.27586817e-17
1.23905623e-17
1.73280579e-17
1.53231409e-17
1.78427315e-17
2.13164242e-17
2.01978797e-17
2.18223265e-17
2.41216641e-17
2.17740402e-17
2.28022285e-17
2.32822449e-17
2.32552785e-17
2.60938527e-17
2.53646529e-17
2.37873373e-17
2.30647865e-17
2.2586096e-17
2.02489828e-17
1.55879291e-17
1.76612563e-17
1.68601075e-17
1.80934411e-17
1.69499677e-17
1.91494709e-17
1.79571536e-17
1.78706547e-17
1.86265728e-17
1.94234007e-17
1.6107375e-17
1.85682279e-17
1.87468319e-17
1.71479681e-17
1.50344554e-17
1.64672139e-17
1.40104909e-17
1.35332117e-17
1.56442469e-17
1.96546915e-17
1.6567217e-17
1.87241846e-17
1.81085316e-17
1.80430679e-17
1.87738226e-17
1.95162434e-17
1.73693721e-17
1.69803635e-17
1.67636417e-17
1.64129009e-17
1.7642879e-17
2.03471678e-17
2.15626223e-17
1.94635637e-17
2.0367998e-17
1.76069204e-17
2.26823645e-17
2.2705703e-17
2.29513773e-17
2.25447596e-17
2.44322144e-17
2.35562301e-17
2.64155946e-17
2.8698523e-17
2.64965788e-17
2.87143966e-17
2.87951877e-17
2.91939269e-17
3.1132713e-17
3.48517305e-17
3.53086048e-17
3.5225386e-17
3.89487711e-17
3.78791814e-17
4.04896211e-17
3.93971587e-17
3.38536347e-17
3.64475561e-17
3.58429983e-17
4.09032907e-17
4.09707773e-17
4.20757137e-17
4.22375289e-17
4.11474245e-17
4.2026184e-17
4.17570758e-17
4.34218808e-17
4.36928492e-17
4.60179227e-17
4.61328969e-17
5.28268215e-17
5.31779139e-17
5.60124606e-17
5.58630062e-17
5.53492982e-17
5.48834112e-17
5.78583813e-17
5.49130666e-17
5.61414869e-17
5.30297543e-17
5.28606057e-17
5.43334505e-17
5.11288977e-17
5.27581395e-17
5.29971221e-17
5.00835072e-17
5.17523671e-17
5.32633474e-17
5.4262581e-17
5.16315791e-17
5.0961673e-17
5.14035784e-17
5.0447092e-17
4.94855098e-17
4.81028903e-17
4.7783858e-17
4.70497375e-17
4.99529202e-17
5.12311733e-17
5.18513852e-17
5.56657386e-17
5.41069466e-17
5.74180305e-17
5.4859957e-17
5.3053517e-17
5.34810899e-17
5.27587341e-17
5.30563822e-17
5.02463329e-17
5.21445285e-17
5.35680068e-17
5.25975487e-17
5.17637496e-17
5.11168089e-17
5.2367535e-17
5.48527515e-17
5.44756122e-17
5.53720659e-17
5.69754204e-17
5.30031191e-17
5.15021588e-17
5.2739082e-17
5.06322939e-17
5.48307789e-17
5.53794388e-17
5.55018992e-17
5.89493428e-17
5.80479913e-17
5.78691605e-17
5.83942497e-17
5.49524298e-17
5.82335552e-17
5.66236469e-17
5.34829563e-17
5.55571076e-17
5.48585261e-17
5.47669034e-17
5.21042551e-17
5.51729609e-17
5.70991469e-17
5.75362749e-17
5.64019955e-17
5.69100121e-17
5.59611238e-17
5.43150614e-17
5.04665078e-17
5.05184152e-17
5.39876959e-17
5.18165173e-17
5.30382993e-17
5.76241709e-17
5.4160079e-17
5.24746241e-17
5.642217e-17
5.7824984e-17
5.97333509e-17
6.05145018e-17
6.24003666e-17
5.71521703e-17
5.56633365e-17
6.08994138e-17
5.56117055e-17
5.78580102e-17
5.90383821e-17
5.83113437e-17
5.39833086e-17
5.37427753e-17
5.312934e-17
5.51341899e-17
5.23712583e-17
5.51428472e-17
5.36810845e-17
5.71242676e-17
5.95970491e-17
5.64315215e-17
5.83265762e-17
5.70615356e-17
6.26579444e-17
5.81035439e-17
5.79394211e-17
5.4557651e-17
5.32050427e-17
5.47744943e-17
5.57661105e-17
5.55799207e-17
5.77657529e-17
5.93086999e-17
5.48588918e-17
5.70003391e-17
5.57502475e-17
5.64330137e-17
5.97543403e-17
5.5920632e-17
5.68329244e-17
5.64590027e-17
5.78770513e-17
6.02141083e-17
5.51478237e-17
5.59415866e-17
5.91500366e-17
5.58406486e-17
5.62120452e-17
5.64617831e-17
5.80682381e-17
5.74932501e-17
5.57242994e-17
5.52795147e-17
5.33777722e-17
5.32312545e-17
5.52792736e-17
5.80619434e-17
5.61119091e-17
5.95884009e-17
5.75780966e-17
5.78748075e-17
5.69801367e-17
6.15467464e-17
6.05444376e-17
6.09148899e-17
6.1651192e-17
6.06536268e-17
5.9799672e-17
5.44344879e-17
5.65059674e-17
5.38097912e-17
5.30518585e-17
5.56620258e-17
5.61377957e-17
6.01132326e-17
5.84174402e-17
6.06293687e-17
5.79529029e-17
5.76216527e-17
5.760445e-17
6.05819888e-17
5.97756161e-17
5.84050851e-17
5.63551731e-17
5.70356943e-17
5.41252988e-17
5.24645215e-17
5.18376791e-17
5.28017321e-17
5.48981136e-17
5.55597565e-17
5.74277944e-17
5.48594175e-17
5.66037259e-17
5.78623719e-17
5.8776683e-17
5.86706979e-17
6.03036788e-17
5.81417337e-17
5.87269538e-17
5.6585875e-17
5.63275681e-17
5.7489538e-17
5.66981671e-17
5.5926367e-17
5.64361903e-17
5.92042408e-17
5.76833929e-17
5.87906391e-17
5.5390431e-17
5.95851563e-17
5.94416685e-17
5.9499285e-17
5.89263378e-17
5.78530286e-17
5.72275103e-17
5.86840327e-17
5.5597962e-17
5.69945831e-17
5.95589746e-17
6.18180047e-17
6.32614776e-17
6.37646245e-17
6.31445794e-17
5.99763832e-17
5.81965091e-17
5.81863136e-17
5.60859948e-17
5.61250064e-17
6.02688292e-17
5.75240793e-17
6.01840966e-17
5.65473105e-17
5.88547538e-17
5.85394128e-17
5.70149301e-17
5.86887639e-17
5.57310515e-17
5.64587569e-17
5.63426451e-17
5.78242276e-17
5.90746912e-17
5.76355972e-17
5.65204815e-17
5.70219381e-17
5.47126441e-17
5.46037141e-17
5.11335999e-17
5.70011421e-17
5.87983386e-17
5.98281075e-17
5.90551223e-17
5.62695869e-17
5.62846193e-17
5.59749013e-17
5.42617929e-17
5.5274119e-17
5.3772989e-17
5.05491846e-17
5.13826272e-17
4.81366173e-17
4.75039497e-17
4.99298698e-17
4.88568665e-17
4.61297139e-17
4.65783507e-17
4.90482747e-17
4.87208052e-17
4.9081835e-17
4.71476654e-17
4.78423223e-17
4.93939596e-17
4.86571925e-17
4.97721406e-17
4.84781959e-17
4.97885247e-17
4.97081698e-17
4.99385648e-17
5.05447537e-17
4.90630444e-17
5.09014155e-17
5.08808686e-17
5.05459589e-17
5.29338554e-17
5.30786472e-17
5.3314024e-17
5.25000063e-17
5.71896335e-17
5.71455809e-17
5.39439544e-17
5.52543477e-17
5.40235184e-17
5.03390461e-17
4.97800646e-17
5.05525119e-17
4.71857416e-17
4.59346665e-17
5.22675616e-17
4.99226831e-17
5.24466043e-17
5.54121206e-17
5.40721747e-17
5.41478235e-17
5.04791123e-17
5.13774637e-17
5.11343074e-17
5.46577905e-17
5.25932167e-17
5.24898188e-17
5.5365443e-17
5.35797068e-17
5.45854219e-17
5.49243093e-17
5.64377884e-17
5.36096382e-17
5.28536738e-17
5.38979484e-17
5.30642696e-17
5.17275018e-17
4.89689004e-17
4.76171933e-17
4.64098518e-17
4.68367305e-17
4.7672571e-17
4.79308445e-17
4.91391838e-17
4.58213161e-17
4.55924188e-17
4.47920394e-17
3.9299422e-17
3.92604257e-17
3.83692919e-17
3.64546457e-17
4.09709062e-17
3.75182401e-17
3.66489269e-17
3.41355977e-17
3.4569177e-17
3.44176808e-17
3.56000351e-17
3.66408989e-17
3.78454006e-17
3.43648557e-17
3.06197662e-17
3.00240785e-17
2.87730933e-17
2.51721156e-17
2.47692124e-17
2.35355279e-17
2.95717973e-17
2.83648232e-17
2.53719864e-17
2.62817041e-17
2.4726134e-17
2.37435828e-17
2.489476e-17
2.72880951e-17
2.46648332e-17
2.47575438e-17
2.50479646e-17
2.58154595e-17
2.54320426e-17
2.85067657e-17
2.88492546e-17
2.90356224e-17
3.01056096e-17
2.89431053e-17
2.81531655e-17
2.95538134e-17
2.47733007e-17
2.24198498e-17
2.15481094e-17
2.07860742e-17
2.00382327e-17
1.92365566e-17
2.07222373e-17
1.92921597e-17
1.83775767e-17
1.58347513e-17
1.71170718e-17
1.82877371e-17
1.83543799e-17
1.87621848e-17
2.06555032e-17
1.89474698e-17
1.96296214e-17
2.16667113e-17
1.97921297e-17
1.84825423e-17
1.84350612e-17
1.99805861e-17
1.82142773e-17
1.90108071e-17
1.81644528e-17
1.49835508e-17
1.43381009e-17
1.52318726e-17
1.21465781e-17
1.11336842e-17
1.47686506e-17
1.47797315e-17
1.37784858e-17
1.56700002e-17
1.28800293e-17
1.2453457e-17
8.13538205e-18
9.72008527e-18
7.48718174e-18
5.86078373e-18
4.50507531e-18
2.90568715e-18
3.25012328e-18
2.33365351e-18
-1.41318885e-18
-3.44981163e-18
-1.89287498e-18
1.0727062e-18
-1.4514091e-18
-2.96377465e-18
-3.5192322e-18
-1.540863e-18
-3.56795868e-18
-6.14452134e-18
-4.78518313e-18
-5.64522753e-18
-7.17657788e-18
-1.02088618e-17
-8.54925792e-18
-1.11882857e-17
-1.26894651e-17
-1.27169773e-17
-1.38922156e-17
-1.27604125e-17
-1.88673063e-17
-1.63138513e-17
-1.76879619e-17
-1.83693789e-17
-1.96768439e-17
-2.0852529e-17
-1.92140475e-17
-2.36867659e-17
-2.04391418e-17
-1.98490921e-17
-1.72354694e-17
-2.08731026e-17
-1.96370888e-17
-2.17393424e-17
-2.31271514e-17
-2.05625755e-17
-2.41346522e-17
-2.42427458e-17
-2.34608275e-17
-2.24101679e-17
-2.39126222e-17
-2.54563176e-17
-2.32465619e-17
-2.62556953e-17
-2.58965143e-17
-2.53372591e-17
-2.73989827e-17
-3.08744439e-17
-3.0132602e-17
-3.30178787e-17
-2.77437307e-17
-3.1822406e-17
-3.07602158e-17
-2.54248588e-17
-2.52690987e-17
-2.03311007e-17
-1.99600523e-17
-2.00382922e-17
-2.2552858e-17
-2.30131482e-17
-2.05820948e-17
-2.16330546e-17
-2.17596436e-17
-2.44828841e-17
-2.71510985e-17
-2.5951416e-17
-3.14598886e-17
-3.05687233e-17
-2.94664111e-17
-2.85284342e-17
-2.76923291e-17
-2.3237511e-17
-2.62889783e-17
-2.50260497e-17
-2.50334675e-17
-2.39479437e-17
-2.18072424e-17
-2.42038724e-17
-2.37964855e-17
-2.27919554e-17
-2.43393478e-17
-2.37893515e-17
-2.76563425e-17
-2.61230396e-17
-3.26394429e-17
-3.19374093e-17
-3.0001993e-17
-3.15096925e-17
-3.29774071e-17
-3.30056683e-17
-3.87930706e-17
-3.97497293e-17
-3.83607755e-17
-3.58199471e-17
-4.37251317e-17
-4.31647482e-17
-4.11706234e-17
-4.62531767e-17
-4.97798737e-17
-5.05513209e-17
-5.35504266e-17
-5.49103136e-17
-5.24855315e-17
-5.48850262e-17
-5.85541049e-17
-5.65945036e-17
-5.64859156e-17
-5.52901399e-17
-5.96101568e-17
-5.57470759e-17
-5.37771223e-17
-5.52292319e-17
-5.69590258e-17
-5.47457571e-17
-5.42006523e-17
-5.33335259e-17
-5.074799e-17
-5.24966893e-17
-5.31237541e-17
-5.58102793e-17
-5.40645412e-17
-5.38855462e-17
-5.36436661e-17
-5.13095783e-17
-5.0838148e-17
-5.11321859e-17
-4.91644495e-17
-4.80641174e-17
-5.11926282e-17
-4.99031075e-17
-5.24072296e-17
-4.7728174e-17
-5.19137302e-17
-4.99948285e-17
-4.85191091e-17
-4.96275678e-17
-5.24974607e-17
-5.35262025e-17
-5.00402188e-17
-5.40657117e-17
-5.17766321e-17
-5.07198223e-17
-4.74519188e-17
-4.21911119e-17
-4.60090167e-17
-4.44352189e-17
-4.69833543e-17
-4.92058017e-17
-5.03846935e-17
-4.81627773e-17
-4.81406392e-17
-4.69556303e-17
-4.70634423e-17
-4.77829387e-17
-4.64501883e-17
-4.72467577e-17
-4.85934925e-17
-4.98110779e-17
-4.9048825e-17
-4.61171834e-17
-4.43710799e-17
-4.73388993e-17
-4.82114116e-17
-4.88265841e-17
-4.83647613e-17
-4.77767641e-17
-4.81207048e-17
-4.77684847e-17
-5.06046715e-17
-5.15368202e-17
-5.20768115e-17
-5.08554466e-17
-5.21512561e-17
-5.05533925e-17
-5.01391911e-17
-5.05086542e-17
-5.25368146e-17
-5.17783281e-17
-5.26955652e-17
-5.35561024e-17
-5.21665152e-17
-4.9293156e-17
-4.97311209e-17
-5.27835021e-17
-5.31476701e-17
-5.15178803e-17
-5.41357967e-17
-5.17771046e-17
-4.92614618e-17
-4.83984907e-17
-4.86613577e-17
-4.69719492e-17
-5.10845739e-17
-4.94439316e-17
-5.19267266e-17
-4.83444856e-17
-5.08795136e-17
-4.89261029e-17
-5.24214306e-17
-5.06880182e-17
-5.21147379e-17
-5.13818092e-17
-5.20776099e-17
-5.61875923e-17
-5.51612423e-17
-5.00378532e-17
-5.09611312e-17
-4.81906786e-17
-4.75751269e-17
-4.82593465e-17
-4.80083275e-17
-5.23096718e-17
-5.06206709e-17
-5.2251742e-17
-4.90709893e-17
-5.25577331e-17
-5.22330317e-17
-5.32840563e-17
-5.53369363e-17
-5.30268061e-17
-5.48915973e-17
-5.23992921e-17
-5.57395226e-17
-5.28735169e-17
-5.31591634e-17
-5.57286361e-17
-5.78254664e-17
-5.68582045e-17
-5.90285418e-17
-5.76332325e-17
-6.0468692e-17
-5.88349182e-17
-6.1800343e-17
-6.03638217e-17
-6.35576912e-17
-6.21151547e-17
-6.17300621e-17
-5.85702382e-17
-5.79559819e-17
-5.70878709e-17
-5.69864239e-17
-5.68411628e-17
-5.84424833e-17
-5.83580954e-17
-5.69363681e-17
-5.5156249e-17
-5.90862991e-17
-5.96419881e-17
-5.9697207e-17
-5.69291234e-17
-5.87935673e-17
-5.86650697e-17
-6.41075279e-17
-6.57604084e-17
-6.52280517e-17
-6.41095678e-17
-6.88880633e-17
-6.93537268e-17
-7.24850637e-17
-7.28469666e-17
-7.43321116e-17
-7.19418121e-17
-7.22856294e-17
-7.22179681e-17
-7.40963069e-17
-7.47771482e-17
-7.82872186e-17
-7.77656643e-17
-7.87652248e-17
-7.67308729e-17
-7.78885243e-17
-7.68270158e-17
-7.28348603e-17
-7.33295804e-17
-7.35099593e-17
-6.99581183e-17
-7.18867326e-17
-7.26535714e-17
-7.00059316e-17
-7.38548125e-17
-7.42202556e-17
-7.55872496e-17
-7.70353114e-17
-7.36028329e-17
-7.78377e-17
-7.3089384e-17
-7.4249729e-17
-7.37374695e-17
-7.31633196e-17
-7.17188605e-17
-7.2472948e-17
-7.29012479e-17
-7.37631886e-17
-7.14677049e-17
-7.190389e-17
-7.19589449e-17
-7.15863028e-17
-6.93277471e-17
-6.88158855e-17
-6.83743863e-17
-6.85949173e-17
-6.76797351e-17
-6.48089544e-17
-6.66673871e-17
-6.86781294e-17
-6.9443453e-17
-6.70149318e-17
-6.90814154e-17
-6.72281911e-17
-6.90557786e-17
-6.89665476e-17
-6.38179432e-17
-6.31063221e-17
-6.36078078e-17
-6.34070752e-17
-6.32545861e-17
-6.41932559e-17
-6.52262642e-17
-6.47540245e-17
-6.37547391e-17
-6.42131615e-17
-6.3441859e-17
-6.62879601e-17
-6.43204882e-17
-6.13291729e-17
-5.79200342e-17
-5.81153578e-17
-5.77753779e-17
-5.68557838e-17
-5.38230996e-17
-5.76051763e-17
-5.79126517e-17
-5.81603795e-17
-5.66573756e-17
-5.64925451e-17
-5.49089736e-17
-5.49749881e-17
-5.56858238e-17
-5.53492947e-17
-5.35703844e-17
-5.32494011e-17
-5.31493741e-17
-5.29106194e-17
-5.1919443e-17
-5.19680566e-17
-5.01367944e-17
-5.16186671e-17
-5.18895973e-17
-5.51783844e-17
-5.18815673e-17
-5.0430574e-17
-5.38430377e-17
-5.32236803e-17
-5.03424892e-17
-5.27196121e-17
-5.3769528e-17
-5.08742308e-17
-5.27399299e-17
-5.44471271e-17
-5.3590055e-17
-5.20723517e-17
-5.06214201e-17
-4.72690927e-17
-4.47810593e-17
-4.83006611e-17
-4.9631007e-17
-5.07472427e-17
-4.99019111e-17
-4.94854486e-17
-4.9386625e-17
-4.59826774e-17
-4.7363019e-17
-4.73166683e-17
-4.77650044e-17
-4.55578845e-17
-4.51077538e-17
-4.64436856e-17
-4.47789934e-17
-4.74662139e-17
-4.76033898e-17
-4.91157345e-17
-4.50509183e-17
-4.50216721e-17
-4.50976192e-17
-4.57588844e-17
-4.4462512e-17
-4.55780825e-17
-4.56543613e-17
-4.73430358e-17
-4.88975997e-17
-4.98487086e-17
-4.84454605e-17
-4.94224099e-17
-4.74610312e-17
-4.70571658e-17
-4.84763115e-17
-4.87680719e-17
-4.88349439e-17
-4.75701685e-17
-5.06100089e-17
-5.16344858e-17
-4.93619265e-17
-4.79157239e-17
-4.73851012e-17
-5.05980856e-17
-5.23426645e-17
-5.32536125e-17
-5.21771214e-17
-4.73037911e-17
-4.9105961e-17
-4.63060888e-17
-4.61335456e-17
-4.41129641e-17
-4.37279264e-17
-4.48989262e-17
-4.43479706e-17
-4.34375067e-17
-4.46674225e-17
-4.61168767e-17
-4.45370167e-17
-4.32540465e-17
-4.4346825e-17
-4.46751286e-17
-4.7418036e-17
-4.44386355e-17
-4.29670428e-17
-4.45811006e-17
-4.61632066e-17
-4.32783951e-17
-4.27055117e-17
-4.12144571e-17
-4.1315824e-17
-4.38564269e-17
-4.11445659e-17
-3.97637027e-17
-3.71550015e-17
-3.78613912e-17
-3.47553951e-17
-3.34016046e-17
-3.42470721e-17
-3.2737854e-17
-3.11325192e-17
-3.1064305e-17
-3.21710192e-17
-3.01842721e-17
-2.97252627e-17
-3.08510545e-17
-3.26747868e-17
-2.78973323e-17
-2.9596073e-17
-3.17378908e-17
-3.10150882e-17
-3.1253255e-17
-2.81081323e-17
-2.94921417e-17
-2.92484521e-17
-2.92551299e-17
-3.1599636e-17
-3.09504295e-17
-3.19433466e-17
-3.05057117e-17
-2.72530566e-17
-3.01865755e-17
-3.04095361e-17
-2.93747379e-17
-2.50396426e-17
-2.19029027e-17
-2.46369756e-17
-2.32006596e-17
-2.07711056e-17
-1.88179618e-17
-1.91877859e-17
-1.84264409e-17
-1.81911045e-17
-2.03410228e-17
-2.09550894e-17
-2.13993872e-17
-2.0900197e-17
-1.90615352e-17
-2.1308835e-17
-1.89096357e-17
-1.92271599e-17
-1.75878612e-17
-1.82528702e-17
-1.39643518e-17
-1.15549693e-17
-1.06353913e-17
-7.79988015e-18
-1.11983245e-17
-1.37591277e-17
-1.41397797e-17
-1.15130847e-17
-1.14413598e-17
-1.43476436e-17
-1.35439231e-17
-9.70591598e-18
-1.39764994e-17
-1.3815574e-17
-1.30155895e-17
-1.27717835e-17
-1.07723755e-17
-7.92089488e-18
-6.99632687e-18
-7.33362893e-18
-7.5299368e-18
-8.80521403e-18
-1.23744373e-17
-1.22406425e-17
-1.2689073e-17
-1.11432343e-17
-9.55004366e-18
-1.40862882e-17
-1.12343644e-17
-1.17500874e-17
-1.55738985e-17
-1.13624123e-17
-1.35704442e-17
-1.03485537e-17
-7.40113134e-18
-6.44731891e-18
-8.7212754e-18
-9.74104913e-18
-8.78824579e-18
-1.21542247e-17
-8.28299923e-18
-7.5691898e-18
-1.90379542e-18
1.03774998e-19
4.53098796e-19
2.65098495e-18
9.61420698e-19
6.34019244e-18
4.1480296e-18
7.0542402e-18
2.61886394e-18
5.10041747e-18
5.62092974e-18
6.3505329e-18
4.13992612e-18
4.42165616e-18
7.04598483e-18
1.0733216e-17
1.02973234e-17
9.93857352e-18
1.41936832e-17
1.47639915e-17
1.54985035e-17
1.55739406e-17
1.69277827e-17
1.89023321e-17
2.42201592e-17
2.33127574e-17
2.4115899e-17
2.26727943e-17
2.00691689e-17
1.84262222e-17
1.67808726e-17
2.15743217e-17
2.14360402e-17
2.30300007e-17
2.20070869e-17
2.13336215e-17
1.94709914e-17
2.00884116e-17
1.77375462e-17
2.05428892e-17
1.69201948e-17
1.98254409e-17
1.6029804e-17
1.83897891e-17
2.11013602e-17
2.15156872e-17
2.22702498e-17
2.68478448e-17
2.55321939e-17
2.70818522e-17
2.7140688e-17
2.63962521e-17
3.26996175e-17
3.2834474e-17
3.60835213e-17
3.33313755e-17
3.51663089e-17
3.44369579e-17
3.85775519e-17
3.40013152e-17
3.91971304e-17
3.8800996e-17
3.96026697e-17
3.97364093e-17
3.76586126e-17
3.8497795e-17
4.13270986e-17
4.07501758e-17
4.05015726e-17
4.41082465e-17
4.37212683e-17
4.44489095e-17
4.57507406e-17
4.57602112e-17
4.56669728e-17
4.90401882e-17
4.37170226e-17
4.51032001e-17
4.57218129e-17
4.43357597e-17
4.62998627e-17
4.61312702e-17
4.83823166e-17
4.78333817e-17
4.54401599e-17
4.51598618e-17
4.34567271e-17
4.39370705e-17
4.61059243e-17
4.51420227e-17
4.7460233e-17
4.70123819e-17
4.81352586e-17
4.6994779e-17
5.20892188e-17
5.17531215e-17
5.15943414e-17
5.54268916e-17
5.56511148e-17
5.50384224e-17
5.5171029e-17
5.54572084e-17
5.59971928e-17
5.61033434e-17
5.88331814e-17
6.16009088e-17
5.79379771e-17
5.88335376e-17
5.84511541e-17
5.79696357e-17
5.98297582e-17
5.89360568e-17
5.70868982e-17
5.90847536e-17
5.82272087e-17
5.60809186e-17
5.76654811e-17
5.71466472e-17
5.86681598e-17
5.96182729e-17
6.07273143e-17
6.23604718e-17
6.1921531e-17
6.45261714e-17
6.17221564e-17
6.23274677e-17
6.48293111e-17
6.5119659e-17
6.54708645e-17
6.72754172e-17
6.48131229e-17
6.69877653e-17
6.6384032e-17
6.92687737e-17
7.16735117e-17
6.72974298e-17
7.00079999e-17
7.24182641e-17
7.51057529e-17
7.51376901e-17
7.49766999e-17
7.58983981e-17
7.12905148e-17
7.40792524e-17
7.75779349e-17
7.44089108e-17
7.28970832e-17
7.34816446e-17
7.47076278e-17
7.72826827e-17
7.96627463e-17
7.90548642e-17
8.06079548e-17
7.96200702e-17
7.8243633e-17
8.13698587e-17
8.32220891e-17
8.31186804e-17
8.20572806e-17
8.50222512e-17
8.74413643e-17
8.85504956e-17
8.59374912e-17
8.85986361e-17
8.61595331e-17
8.79634221e-17
9.30351881e-17
9.47579156e-17
9.4031159e-17
9.81838659e-17
9.50720747e-17
9.6361476e-17
9.8840558e-17
1.03040131e-16
1.03724961e-16
1.04013748e-16
1.08583689e-16
1.08507947e-16
1.11442505e-16
1.17942992e-16
1.1849278e-16
1.25629791e-16
1.27124343e-16
1.31362803e-16
1.35397631e-16
1.38173542e-16
1.41359996e-16
1.45778437e-16
1.48578912e-16
1.5486082e-16
1.58742547e-16
1.64746695e-16
1.72303757e-16
1.7660824e-16
1.85431461e-16
1.96184569e-16
2.05932115e-16
2.13067427e-16
2.26590382e-16
2.36496093e-16
2.52592206e-16
2.65810037e-16
2.80708106e-16
2.94529426e-16
3.106644e-16
3.29650782e-16
3.52631393e-16
3.71955766e-16
3.96908275e-16
4.22554412e-16
4.50209218e-16
4.8238592e-16
5.15499949e-16
5.51278333e-16
5.92927821e-16
6.32890856e-16
6.80754362e-16
7.29948851e-16
7.86786e-16
8.42299892e-16
9.02238181e-16
9.74052022e-16
1.04775723e-15
1.13080414e-15
1.21633786e-15
1.30875758e-15
1.40883604e-15
1.52145316e-15
1.64207063e-15
1.7699018e-15
1.91142892e-15
2.06212091e-15
2.22356474e-15
2.40299485e-15
2.59594353e-15
2.80102714e-15
3.02537498e-15
3.26793069e-15
3.53056109e-15
3.81863628e-15
4.12785447e-15
4.46011574e-15
4.82823362e-15
5.21793591e-15
5.63999056e-15
6.09982374e-15
6.59336708e-15
7.12996879e-15
7.70679007e-15
8.32940376e-15
9.00775089e-15
9.73631888e-15
1.0525032e-14
1.13785979e-14
1.22992381e-14
1.32896559e-14
1.43644407e-14
1.55228579e-14
1.67725981e-14
1.8123479e-14