/*--------------------------------*- C++ -*----------------------------------*\
| =========                 |                                                 |
| \\      /  F ield         | OpenFOAM: The Open Source CFD Toolbox           |
|  \\    /   O peration     | Version:  2206                                  |
|   \\  /    A nd           | Website:  www.openfoam.com                      |
|    \\/     M anipulation  |                                                 |
\*---------------------------------------------------------------------------*/
FoamFile
{
    version     2.0;
    format      ascii;
    arch        "LSB;label=32;scalar=64";
    class       volScalarField;
    location    "1.22e-05";
    object      PVsourcePV;
}
// * * * * * * * * * * * * * * * * * * * * * * * * * * * * * * * * * * * * * //

dimensions      [1 -3 -1 0 0 0 0];

internalField   nonuniform List<scalar> 
3183
(
0
0
0
0
0
0
0
0
0
0
0
0
0
0
0
0
0
0
0
0
0
0
0
0
0
0
0
0
0
0
0
0
0
0
0
0
0
0
0
0
0
0
0
0
0
0
0
0
0
0
0
0
0
0
0
0
0
0
0
0
0
0
0
0
0
0
0
0
0
0
0
0
0
0
0
0
0
0
0
0
0
0
0
0
0
0
0
0
0
0
0
0
0
0
0
0
0
0
0
0
0
0
0
0
0
0
0
0
0
0
0
0
0
0
0
0
0
0
0
0
0
0
0
0
0
0
0
0
0
0
0
0
0
0
0
0
0
0
0
0
0
0
0
0
0
0
0
0
0
0
0
0
0
0
0
0
0
0
0
0
0
0
0
0
0
0
0
0
0
0
0
0
0
0
0
0
0
0
0
0
0
0
0
0
0
0
0
0
0
0
0
0
0
0
0
0
0
0
0
0
0
0
0
0
0
0
0
0
0
0
0
0
0
0
0
0
0
0
0
0
0
0
0
0
0
0
0
0
0
0
0
0
0
0
0
0
0
0
0
0
0
0
0
0
0
0
0
0
0
0
0
0
0
0
0
0
0
0
0
0
0
0
0
0
0
0
0
0
0
0
0
0
0
0
0
0
0
0
0
0
0
0
0
0
0
0
0
0
0
0
0
0
0
0
0
0
0
0
0
0
0
0
0
0
0
0
0
0
0
0
0
0
0
0
0
0
0
0
0
0
0
0
0
0
0
0
0
0
0
0
0
0
0
0
0
0
0
0
0
0
0
0
0
0
0
0
0
0
0
0
0
0
0
0
0
0
0
0
0
0
0
0
0
0
0
0
0
0
0
0
0
0
0
0
0
0
0
0
0
0
0
0
0
0
0
0
0
0
0
0
0
0
0
0
0
0
0
0
0
0
0
0
0
0
0
0
0
0
0
0
0
0
0
0
0
0
0
0
0
0
0
0
0
0
0
0
0
0
0
0
0
0
0
0
0
0
0
0
0
0
0
0
0
0
0
0
0
0
0
0
0
0
0
0
0
0
0
0
0
0
0
0
0
0
0
0
0
0
0
0
0
0
0
0
0
0
0
0
0
0
0
0
0
0
0
0
0
0
0
0
0
0
0
0
0
0
0
0
0
0
0
0
0
0
0
0
0
0
0
0
0
0
0
0
0
0
0
0
0
0
0
0
0
0
0
0
0
0
0
0
0
0
0
0
0
0
0
0
0
0
0
0
0
0
0
0
0
0
0
0
0
0
0
0
0
0
0
0
0
0
0
0
0
0
0
0
0
0
0
0
0
0
0
0
0
0
0
0
0
0
0
0
0
0
0
0
0
0
0
0
0
0
0
0
0
0
0
0
0
0
0
0
0
0
0
0
0
0
0
0
0
0
0
0
0
0
0
0
0
0
0
0
0
0
0
0
0
0
0
0
0
0
0
0
0
0
0
0
0
0
0
0
0
0
0
0
0
0
0
0
0
0
0
0
0
0
0
0
0
0
0
0
0
0
0
0
0
0
0
0
0
0
0
0
0
0
0
0
0
0
0
0
0
0
0
0
0
0
0
0
0
0
0
0
0
0
0
0
0
0
0
0
0
0
0
0
0
0
0
0
0
0
0
0
0
0
0
0
0
0
0
0
0
0
0
0
0
0
0
0
0
0
0
0
0
0
0
0
0
0
0
0
0
0
0
0
0
0
0
0
0
0
0
0
0
0
0
0
0
0
0
0
0
0
0
0
0
0
0
0
0
0
0
0
0
0
0
0
0
0
0
0
0
0
0
0
0
0
0
0
0
0
0
0
0
0
0
0
0
0
0
0
0
0
0
0
0
0
0
0
0
0
0
0
0
0
0
0
0
0
0
0
0
0
0
0
0
0
0
0
0
0
0
0
0
0
0
0
0
0
0
0
0
0
0
0
0
0
0
0
0
0
0
0
0
0
0
0
0
0
0
0
0
0
0
0
0
0
0
0
0
0
0
0
0
0
0
0
0
0
0
0
0
0
0
0
0
0
0
0
0
0
0
0
0
0
0
0
0
0
0
0
0
0
0
0
0
0
0
0
0
0
0
0
0
0
0
0
0
0
0
0
0
0
0
0
0
0
0
0
0
0
0
0
0
0
0
0
0
0
0
0
0
0
0
0
0
0
0
0
0
0
0
0
0
0
0
0
0
0
0
0
0
0
0
0
0
0
0
0
0
0
0
0
0
0
0
0
0
0
0
0
0
0
0
0
0
0
0
0
0
0
0
0
0
0
0
0
0
0
0
0
0
0
0
0
0
0
0
0
0
0
0
0
0
0
0
0
0
0
0
0
0
0
0
0
0
0
0
0
0
0
0
0
0
0
0
0
0
0
0
0
0
0
0
0
0
0
0
0
0
0
0
0
0
0
0
0
0
0
0
0
0
0
0
0
0
0
0
0
0
0
0
0
0
0
0
0
0
0
0
0
0
0
0
0
0
0
0
0
0
0
0
0
0
0
0
0
0
0
0
0
0
0
0
0
0
0
0
0
0
0
0
0
0
0
0
0
0
0
0
0
0
0
0
0
0
0
0
0
0
0
0
0
0
0
0
0
0
0
0
0
0
0
0
0
0
0
0
0
0
0
0
0
0
0
0
0
0
0
0
0
0
0
0
0
0
0
0
0
0
0
0
0
0
0
0
0
0
0
0
0
0
0
0
0
0
0
0
0
0
0
0
0
0
0
0
0
0
0
0
0
0
0
0
0
0
0
0
0
0
0
0
0
0
0
0
0
0
0
0
0
0
0
0
0
0
0
0
0
0
0
0
0
0
0
0
0
0
0
0
0
0
0
0
0
0
0
0
0
0
0
0
0
0
0
0
0
0
0
0
0
0
0
0
0
0
0
0
0
0
0
0
0
0
0
0
0
0
0
0
0
0
0
0
0
0
0
0
0
0
0
0
0
0
0
0
0
0
0
0
0
0
0
0
0
0
0
0
0
0
0
0
0
0
0
0
0
0
0
0
0
0
0
0
0
0
0
0
0
0
0
0
0
0
0
0
0
0
0
0
0
0
0
0
0
0
0
0
0
0
0
0
0
0
0
0
0
0
0
0
0
0
0
0
0
0
0
0
0
0
0
0
0
0
0
0
0
0
0
0
0
0
0
0
0
0
0
0
0
0
0
0
0
0
0
0
0
0
0
0
0
0
0
0
0
0
0
0
0
0
0
0
0
0
0
0
0
0
0
0
0
0
0
0
0
0
0
0
0
0
0
0
0
0
0
0
0
0
0
0
0
0
0
0
0
0
0
0
0
0
0
0
0
0
0
0
0
0
0
0
0
0
0
0
0
0
0
0
0
0
0
0
0
0
0
0
0
0
0
0
0
0
0
0
0
0
0
0
0
0
0
0
0
0
0
0
0
0
0
0
0
0
0
0
0
0
0
0
0
0
0
0
0
0
0
0
0
0
0
0
0
0
0
0
0
0
0
0
0
0
0
0
0
0
0
0
0
0
0
0
0
0
0
0
0
0
0
0
0
0
0
0
0
0
0
0
0
0
0
0
0
0
0
0
0
0
0
0
0
0
0
0
0
0
0
0
0
0
0
0
0
0
0
0
0
0
0
0
0
0
0
0
0
0
0
0
0
0
0
0
0
0
0
0
0
0
0
0
0
0
0
0
0
0
0
0
0
0
0
0
0
0
0
0
0
0
0
0
0
0
0
0
0
0
0
0
0
0
0
0
0
0
0
0
0
0
0
0
0
0
0
0
0
0
0
0
0
0
0
0
0
0
0
0
0
0
0
0
0
0
0
0
0
0
0
0
0
0
0
0
0
0
0
0
0
0
0
0
0
0
0
0
0
0
0
0
0
0
0
0
0
0
0
0
0
0
0
0
0
0
0
0
0
0
0
0
0
0
0
0
0
0
0
0
0
0
0
0
0
0
0
0
0
0
0
0
0
0
0
0
0
0
0
0
0
0
0
0
0
0
0
0
0
0
0
0
0
0
0
0
0
0
0
0
0
0
0
0
0
0
0
0
0
0
0
0
0
0
0
0
0
0
0
0
0
0
0
0
0
0
0
0
0
0
0
0
0
0
0
0
0
0
0
0
0
0
0
0
0
0
0
0
0
0
0
0
0
0
0
0
0
0
0
0
0
0
0
0
0
0
0
0
0
0
0
0
0
0
0
0
0
0
0
0
0
0
0
0
0
0
0
0
0
0
0
0
0
0
0
0
0
0
0
0
0
0
0
0
0
0
0
0
0
0
0
0
0
0
0
0
0
0
0
0
0
0
0
0
0
0
0
0
0
0
0
0
0
0
0
0
0
0
0
0
0
0
0
0
0
0
0
0
0
0
0
0
0
0
0
0
0
0
0
0
0
0
0
0
0
0
0
0
0
0
0
0
0
0
0
0
0
0
0
0
0
0
0
0
0
0
0
0
0
0
0
0
0
0
0
0
0
0
0
0
0
0
0
0
0
0
0
0
0
0
0
0
0
0
0
0
0
0
0
0
0
0
0
0
0
0
0
0
0
0
0
0
0
0
0
0
0
0
0
0
0
0
0
0
0
0
0
0
0
0
0
0
0
0
0
0
0
0
0
0
0
0
0
0
0
0
0
0
0
0
0
0
0
0
0
0
0
0
0
0
0
0
0
0
0
0
0
0
0
0
0
0
0
0
0
0
0
0
0
0
0
0
0
0
0
0
0
0
0
0
0
0
0
0
0
0
0
0
0
0
0
0
0
0
0
0
0
0
0
0
0
0
0
0
0
0
0
0
0
0
0
0
0
0
0
0
0
0
0
0
0
0
0
0
0
0
0
0
0
0
0
0
0
0
0
0
0
0
0
0
0
0
0
0
0
0
0
0
0
0
0
0
0
0
0
0
0
0
0
0
0
0
0
0
0
0
0
0
0
0
0
0
0
0
0
0
0
0
0
0
0
0
0
0
0
0
0
0
0
0
0
0
0
0
0
0
0
0
0
0
0
0
0
0
0
0
0
0
0
0
0
0
0
0
0
0
0
0
0
0
0
0
0
0
0
0
0
0
0
0
0
0
0
0
0
0
0
0
0
0
0
0
0
0
0
0
0
0
0
0
0
0
0
0
0
0
0
0
0
0
0
0
0
0
0
0
0
0
0
0
0
0
0
0
0
0
0
0
0
0
0
0
0
0
0
0
0
0
0
0
0
0
0
0
0
0
0
0
0
0
0
0
0
0
0
0
0
0
0
0
0
0
0
0
0
0
0
0
0
0
0
0
0
0
0
0
0
0
0
0
0
0
0
0
0
0
0
0
0
0
0
0
0
0
0
0
0
0
0
0
0
0
0
0
0
0
0
0
0
0
0
0
0
0
0
0
0
0
0
0
0
0
0
0
0
0
1.22146872e-300
0
9.49640973e-298
1.89485157e-298
7.27919054e-295
1.52967662e-295
5.50172232e-292
1.21266851e-292
4.10061637e-289
9.45390236e-290
3.01422117e-286
7.24885168e-287
2.1853194e-283
5.46250733e-284
1.56280456e-280
4.05758549e-281
1.10249934e-277
2.96631066e-278
7.67304599e-275
2.13800269e-275
5.26869319e-272
1.51532762e-272
3.569534e-269
1.0581467e-269
2.38626992e-266
7.28132426e-267
1.57416796e-263
4.93827539e-264
1.02477424e-260
3.30147685e-261
6.58371933e-258
2.17605532e-258
4.174447e-255
1.41421327e-255
2.61232932e-252
9.06342249e-253
1.61351605e-249
5.72856582e-250
9.83667653e-247
3.57121003e-247
5.91922544e-244
2.19601803e-244
3.51586942e-241
1.3321059e-241
2.0613905e-238
7.97171251e-239
1.19303762e-235
4.70650815e-236
6.81583968e-233
2.74158298e-233
3.84378716e-230
1.57571411e-230
2.13981283e-227
8.93597756e-228
1.17589583e-224
5.00043463e-225
6.378771e-222
2.76111343e-222
3.41567958e-219
1.50445353e-219
1.80544558e-216
8.08902341e-217
9.42003275e-214
4.29179075e-214
4.8514668e-211
2.24701575e-211
2.46624712e-208
1.16090457e-208
1.23746108e-205
5.91841182e-206
6.12836724e-203
2.97731846e-203
2.99544545e-200
1.47790943e-200
1.44498994e-197
7.23871604e-198
6.87917895e-195
3.49826757e-195
3.23188998e-192
1.66804071e-192
1.49831342e-189
7.84701664e-190
6.85410901e-187
3.6418895e-187
3.09368266e-184
1.66744278e-184
1.37768258e-181
7.53099861e-182
6.05259274e-179
3.35509505e-179
2.62313592e-176
1.47427529e-176
1.12138119e-173
6.38913915e-174
4.72827545e-171
2.73062593e-171
1.96621485e-168
1.15080521e-168
8.06301077e-166
4.78214022e-166
3.26030741e-163
1.95921557e-163
1.29977872e-160
7.91293274e-161
5.10836372e-158
3.15022252e-158
1.97899651e-155
1.23607226e-155
7.55623787e-153
4.77961381e-153
2.84319912e-150
1.82109465e-150
1.05412153e-147
6.83603555e-148
3.85028984e-145
2.52782067e-145
1.38531905e-142
9.20646827e-143
4.90897411e-140
3.301991e-140
1.71294557e-137
1.16606358e-137
5.88480205e-135
4.05373867e-135
1.99010175e-132
1.38706256e-132
6.62352756e-130
4.67044779e-130
2.16912815e-127
1.54722723e-127
6.98826601e-125
5.04183972e-125
2.21433694e-122
1.61571457e-122
6.89929336e-120
5.09069422e-120
2.11321301e-117
1.57658257e-117
6.36128806e-115
4.79809114e-115
1.88143493e-112
1.434534e-112
5.46573293e-110
4.21226513e-110
1.55915193e-107
1.21436136e-107
4.36583817e-105
3.43609338e-105
1.19959984e-102
9.53929193e-103
3.23323028e-100
2.59742065e-100
8.54478475e-98
6.93385919e-98
2.21336398e-95
1.81399488e-95
5.61699676e-93
4.64875326e-93
1.39590585e-90
1.1664764e-90
3.39545017e-88
2.86445267e-88
8.07984748e-86
6.88029966e-86
1.87989805e-83
1.61559407e-83
4.27401184e-81
3.70646279e-81
9.48932083e-79
8.30262671e-79
2.05608633e-76
1.81470851e-76
4.34452676e-74
3.86740776e-74
8.94548424e-72
8.030048e-72
1.79335255e-69
1.62307854e-69
3.49735982e-67
3.19076154e-67
6.62840836e-65
6.09483226e-65
1.21960598e-62
1.13002061e-62
2.1761043e-60
2.03130008e-60
3.76058123e-58
3.53579717e-58
6.28581711e-56
5.95167877e-56
1.01475456e-53
9.67360019e-54
1.57961288e-51
1.51574913e-51
2.36677102e-49
2.28548288e-49
3.40658993e-47
3.30960459e-47
4.69988044e-45
4.59259497e-45
6.19996484e-43
6.09174286e-43
7.79876597e-41
7.70191947e-41
9.32474808e-39
9.25171666e-39
1.05602221e-36
1.05189891e-36
1.12811779e-34
1.11938579e-34
1.13147057e-32
1.13201569e-32
1.05934731e-30
1.05907434e-30
9.19948673e-29
9.17018108e-29
7.3509426e-27
7.29579941e-27
5.3525578e-25
5.29310251e-25
3.50877085e-23
3.44742168e-23
2.03906906e-21
2.03667659e-21
1.02882327e-19
1.026164e-19
4.385751e-18
4.38663922e-18
1.51607486e-16
1.51601692e-16
3.98657227e-15
4.00052931e-15
3.94708587e-11
4.02739217e-11
0.0101122856
0.0429366815
0.662983048
0.737864622
0.515462705
0.439128697
0.101268341
0.0833295005
0.0156738879
0.0140072951
0.00285632057
0.00266988719
0.000460106594
0.000449008926
6.80104143e-05
6.79980142e-05
9.87730323e-06
9.86813434e-06
1.81869794e-06
1.82413704e-06
8.05286377e-07
8.05812537e-07
6.86829983e-07
6.86820315e-07
6.73866734e-07
6.73869803e-07
6.7255097e-07
6.72551607e-07
6.72423964e-07
6.72426477e-07
6.72412752e-07
6.7241459e-07
6.7241184e-07
6.72414682e-07
6.72410477e-07
6.72413713e-07
6.72411784e-07
6.72411899e-07
6.72411984e-07
6.72411349e-07
6.72412806e-07
6.72411661e-07
6.7241415e-07
6.7241139e-07
6.72412842e-07
6.72412103e-07
6.7241347e-07
6.72411941e-07
6.72413365e-07
6.72412129e-07
6.72413287e-07
6.72412209e-07
6.72412268e-07
6.72412803e-07
6.72412758e-07
6.72412306e-07
6.72412278e-07
6.72413006e-07
6.72412143e-07
6.72412562e-07
6.72412964e-07
6.72412743e-07
6.72412257e-07
6.72412666e-07
6.72412274e-07
6.72411937e-07
6.7241312e-07
6.7241181e-07
6.72412821e-07
6.72411077e-07
6.72412538e-07
6.724123e-07
6.72411571e-07
6.72412999e-07
6.72411254e-07
6.72413121e-07
6.72412578e-07
6.72413417e-07
6.72412083e-07
6.72413355e-07
6.7241157e-07
6.72413426e-07
6.72411987e-07
6.72412649e-07
6.72412611e-07
6.72411104e-07
6.72413713e-07
6.72411274e-07
6.72413313e-07
6.72411166e-07
6.72413113e-07
6.72411766e-07
6.72413337e-07
6.72412692e-07
6.72412603e-07
6.72412825e-07
6.72412581e-07
6.72412362e-07
6.7241364e-07
6.72412763e-07
6.72412164e-07
6.72412914e-07
6.72412354e-07
6.72413048e-07
6.72412821e-07
6.72412579e-07
6.7241219e-07
6.72413125e-07
6.72412338e-07
6.72413009e-07
6.72412025e-07
6.72412551e-07
6.72412454e-07
6.72412424e-07
6.72412042e-07
6.72412251e-07
6.72411839e-07
6.72413567e-07
6.72411809e-07
6.72413453e-07
6.72412235e-07
6.72413294e-07
6.7241198e-07
6.72412396e-07
6.72412496e-07
6.72412967e-07
6.72412255e-07
6.7241358e-07
6.72411841e-07
6.72414035e-07
6.72412455e-07
6.72412712e-07
6.72413759e-07
6.72413158e-07
6.7241315e-07
6.72413066e-07
6.72413522e-07
6.72412826e-07
6.72412786e-07
6.72412744e-07
6.72411382e-07
6.72413367e-07
6.72411858e-07
6.7241232e-07
6.72411975e-07
6.72413052e-07
6.72411515e-07
6.7241268e-07
6.7241299e-07
6.72412017e-07
6.72413189e-07
6.72411722e-07
6.72413743e-07
6.7241217e-07
6.72413294e-07
6.72412547e-07
6.72413011e-07
6.72412768e-07
6.72413005e-07
6.72412889e-07
6.72414483e-07
6.72411883e-07
6.72414243e-07
6.7241268e-07
6.72414103e-07
6.72411749e-07
6.72413881e-07
6.72412013e-07
6.72412432e-07
6.7241209e-07
6.72412601e-07
6.72412767e-07
6.72412005e-07
6.72412523e-07
6.72412309e-07
6.72413154e-07
6.72413176e-07
6.72413538e-07
6.72413006e-07
6.72413883e-07
6.72413679e-07
6.72413824e-07
6.72414383e-07
6.72413304e-07
6.72413398e-07
6.72412197e-07
6.72413686e-07
6.72411895e-07
6.72413915e-07
6.72412756e-07
6.72413612e-07
6.72412276e-07
6.72414383e-07
6.72412355e-07
6.72414362e-07
6.72412683e-07
6.72412519e-07
6.72412397e-07
6.72413346e-07
6.72411974e-07
6.72413869e-07
6.72412537e-07
6.72414199e-07
6.72412309e-07
6.72413327e-07
6.72412905e-07
6.72413206e-07
6.72412988e-07
6.72414567e-07
6.72413309e-07
6.72414034e-07
6.72412841e-07
6.72413694e-07
6.72413074e-07
6.7241394e-07
6.72413111e-07
6.72412897e-07
6.72413527e-07
6.72412948e-07
6.72413094e-07
6.72413721e-07
6.72413261e-07
6.72412659e-07
6.72413121e-07
6.72413582e-07
6.72413092e-07
6.72413546e-07
6.72412969e-07
6.72413784e-07
6.72413725e-07
6.72413176e-07
6.72413366e-07
6.72413604e-07
6.72413508e-07
6.72413313e-07
6.72413034e-07
6.72413518e-07
6.72413882e-07
6.72413522e-07
6.72413887e-07
6.72413068e-07
6.7241453e-07
6.72412668e-07
6.72414998e-07
6.72411867e-07
6.72414819e-07
6.72412405e-07
6.72413277e-07
6.7241324e-07
6.72412985e-07
6.72413702e-07
6.72413636e-07
6.72413549e-07
6.72413499e-07
6.72412829e-07
6.72414102e-07
6.72412775e-07
6.72413928e-07
6.72413365e-07
6.72413508e-07
6.72413939e-07
6.72412973e-07
6.7241506e-07
6.72412268e-07
6.72414764e-07
6.72412608e-07
6.7241369e-07
6.72413206e-07
6.72413129e-07
6.72412684e-07
6.72414398e-07
6.72412535e-07
6.72413385e-07
6.72413564e-07
6.72412478e-07
6.72414385e-07
6.7241299e-07
6.72414374e-07
6.72413635e-07
6.72412814e-07
6.72414128e-07
6.72412857e-07
6.72413862e-07
6.72413981e-07
6.72413294e-07
6.72413159e-07
6.72413149e-07
6.72413129e-07
6.72413551e-07
6.72414315e-07
6.72413196e-07
6.72413819e-07
6.72413896e-07
6.72412904e-07
6.72413327e-07
6.72413254e-07
6.72413746e-07
6.72413888e-07
6.72414093e-07
6.72413617e-07
6.72413375e-07
6.72414246e-07
6.72414168e-07
6.72413298e-07
6.72414338e-07
6.7241334e-07
6.72413079e-07
6.72413907e-07
6.7241311e-07
6.72414138e-07
6.72413338e-07
6.72414375e-07
6.72412749e-07
6.72414581e-07
6.72412814e-07
6.7241363e-07
6.72413602e-07
6.72413168e-07
6.7241413e-07
6.72413159e-07
6.72414284e-07
6.72413012e-07
6.72414545e-07
6.72413044e-07
6.72414172e-07
6.72413285e-07
6.72413686e-07
6.72414126e-07
6.7241317e-07
6.72414864e-07
6.72413164e-07
6.72414321e-07
6.72413594e-07
6.72413475e-07
6.72413432e-07
6.72413794e-07
6.72413772e-07
6.72413958e-07
6.72412938e-07
6.72413699e-07
6.72414059e-07
6.72414388e-07
6.72413629e-07
6.72414061e-07
6.72413935e-07
6.72414159e-07
6.72413603e-07
6.7241317e-07
6.7241454e-07
6.7241289e-07
6.7241398e-07
6.72414624e-07
6.72412884e-07
6.7241375e-07
6.72413956e-07
6.7241351e-07
6.72414353e-07
6.72413933e-07
6.72413996e-07
6.7241425e-07
6.72414435e-07
6.72412923e-07
6.72413797e-07
6.72414305e-07
6.72414437e-07
6.72414251e-07
6.72413811e-07
6.72414442e-07
6.72414769e-07
6.72414625e-07
6.72414621e-07
6.72414488e-07
6.72414198e-07
6.72414381e-07
6.72414201e-07
6.72414019e-07
6.72413145e-07
6.72414135e-07
6.72413893e-07
6.72414988e-07
6.72414263e-07
6.72413892e-07
6.72414475e-07
6.72414243e-07
6.72414255e-07
6.72413331e-07
6.72414002e-07
6.72414392e-07
6.72412975e-07
6.72414377e-07
6.72413249e-07
6.72414364e-07
6.72413145e-07
6.72414391e-07
6.72414697e-07
6.72413997e-07
6.72414755e-07
6.72414273e-07
6.72414577e-07
6.7241398e-07
6.72413794e-07
6.72413822e-07
6.72413907e-07
6.72415089e-07
6.72412627e-07
6.72415101e-07
6.72413258e-07
6.72414533e-07
6.72414383e-07
6.72414307e-07
6.72414363e-07
6.72414493e-07
6.72414557e-07
6.72414493e-07
6.72414866e-07
6.72414137e-07
6.7241483e-07
6.72413795e-07
6.72414306e-07
6.72414002e-07
6.72414241e-07
6.72414733e-07
6.72413764e-07
6.72415262e-07
6.72414631e-07
6.7241487e-07
6.72414235e-07
6.72415076e-07
6.72413811e-07
6.72415548e-07
6.7241407e-07
6.72414726e-07
6.72414727e-07
6.72415079e-07
6.72414623e-07
6.72414683e-07
6.72414191e-07
6.72414624e-07
6.72414457e-07
6.72415381e-07
6.7241411e-07
6.72414709e-07
6.72414156e-07
6.72414395e-07
6.72413979e-07
6.72415044e-07
6.72414267e-07
6.72415361e-07
6.72413997e-07
6.72414575e-07
6.7241508e-07
6.72414033e-07
6.72415118e-07
6.72414073e-07
6.72414867e-07
6.72415129e-07
6.72413578e-07
6.72415019e-07
6.72414653e-07
6.72413633e-07
6.72415134e-07
6.72414885e-07
6.72413575e-07
6.72415576e-07
6.72413477e-07
6.72415769e-07
6.7241456e-07
6.72415e-07
6.72414325e-07
6.7241497e-07
6.7241487e-07
6.72414235e-07
6.72414578e-07
6.72414702e-07
6.724138e-07
6.72415489e-07
6.72414054e-07
6.72415146e-07
6.72413985e-07
6.72414776e-07
6.72413184e-07
6.72414907e-07
6.72413908e-07
6.72414647e-07
6.72414187e-07
6.72414308e-07
6.72414215e-07
6.72414156e-07
6.72416013e-07
6.72413666e-07
6.72415012e-07
6.7241408e-07
6.72415691e-07
6.72414649e-07
6.72415969e-07
6.72413136e-07
6.72416281e-07
6.72413202e-07
6.72415841e-07
6.72413651e-07
6.72415508e-07
6.72414552e-07
6.7241461e-07
6.72415048e-07
6.72415365e-07
6.72414533e-07
6.72415272e-07
6.7241441e-07
6.7241475e-07
6.72414715e-07
6.72415065e-07
6.7241447e-07
6.72415036e-07
6.72414952e-07
6.7241515e-07
6.72415154e-07
6.72414829e-07
6.72415165e-07
6.72414911e-07
6.72414816e-07
6.72415151e-07
6.72415131e-07
6.72415144e-07
6.72415134e-07
6.72415154e-07
6.72415163e-07
6.72415271e-07
6.72415316e-07
6.72415338e-07
6.72415435e-07
6.72415475e-07
6.72415606e-07
6.72415704e-07
6.72415724e-07
6.72415884e-07
6.72416001e-07
6.72416062e-07
6.72416209e-07
6.72416367e-07
6.72416553e-07
6.72416678e-07
6.72416824e-07
6.72417015e-07
6.72417132e-07
6.7241729e-07
6.72417429e-07
6.72417545e-07
6.72417582e-07
6.72417696e-07
6.7241773e-07
6.72417753e-07
6.72417778e-07
6.72417788e-07
6.72417793e-07
6.72417806e-07
6.72417802e-07
6.72417801e-07
6.72417778e-07
6.72417771e-07
6.72417806e-07
6.72417789e-07
6.72417794e-07
6.72417796e-07
6.72417799e-07
6.72417807e-07
6.72417805e-07
6.72417796e-07
6.72417814e-07
6.72417791e-07
6.72417801e-07
6.7241779e-07
6.724178e-07
6.724178e-07
6.72417796e-07
6.72417797e-07
6.72417788e-07
6.7241778e-07
6.72417817e-07
)
;

boundaryField
{
    closed
    {
        type            calculated;
        value           uniform 0;
    }
    open
    {
        type            calculated;
        value           uniform 0;
    }
    sides
    {
        type            empty;
    }
}


// ************************************************************************* //
