/*--------------------------------*- C++ -*----------------------------------*\
| =========                 |                                                 |
| \\      /  F ield         | OpenFOAM: The Open Source CFD Toolbox           |
|  \\    /   O peration     | Version:  2206                                  |
|   \\  /    A nd           | Website:  www.openfoam.com                      |
|    \\/     M anipulation  |                                                 |
\*---------------------------------------------------------------------------*/
FoamFile
{
    version     2.0;
    format      ascii;
    arch        "LSB;label=32;scalar=64";
    class       volVectorField;
    location    "1.22e-05";
    object      U;
}
// * * * * * * * * * * * * * * * * * * * * * * * * * * * * * * * * * * * * * //

dimensions      [0 1 -1 0 0 0 0];

internalField   nonuniform List<vector> 
3183
(
(3.458812e-13 0 0)
(5.7665405e-14 0 0)
(-2.33214708e-13 0 0)
(-2.19475172e-13 0 0)
(-1.30164152e-13 0 0)
(-6.52543404e-18 0 0)
(-5.10142471e-19 0 0)
(-3.77153676e-23 0 0)
(3.73886623e-23 0 0)
(5.3667441e-19 0 0)
(1.0234213e-17 0 0)
(1.70981211e-13 0 0)
(5.23793557e-13 0 0)
(1.49436757e-13 0 0)
(8.39083557e-14 0 0)
(8.45854332e-14 0 0)
(-2.36108372e-13 0 0)
(-5.57826565e-13 0 0)
(-7.57976102e-13 0 0)
(-7.22197638e-14 0 0)
(3.60254221e-13 0 0)
(1.33177892e-16 0 0)
(3.68224616e-14 0 0)
(2.65312063e-13 0 0)
(3.43164143e-13 0 0)
(4.59026207e-13 0 0)
(4.8271803e-13 0 0)
(5.89353031e-13 0 0)
(3.49863806e-13 0 0)
(4.04762566e-13 0 0)
(-1.10135824e-13 0 0)
(-3.15981563e-13 0 0)
(-7.69308893e-13 0 0)
(-1.07574026e-12 0 0)
(-8.2279987e-13 0 0)
(-4.89606931e-13 0 0)
(-5.89293128e-13 0 0)
(-4.39280327e-13 0 0)
(-1.66929817e-13 0 0)
(-2.00377199e-13 0 0)
(-4.85450622e-13 0 0)
(-5.10240744e-13 0 0)
(-2.4936754e-13 0 0)
(-5.6485736e-13 0 0)
(-1.45489539e-13 0 0)
(2.87633565e-13 0 0)
(2.13513954e-13 0 0)
(3.00087291e-13 0 0)
(1.79375908e-13 0 0)
(4.78214463e-13 0 0)
(5.25517086e-13 0 0)
(1.1483182e-12 0 0)
(9.48386674e-13 0 0)
(1.6064429e-12 0 0)
(2.03111402e-12 0 0)
(2.06649553e-12 0 0)
(2.25405243e-12 0 0)
(2.27999764e-12 0 0)
(2.13755009e-12 0 0)
(2.14207977e-12 0 0)
(1.93019313e-12 0 0)
(1.41969883e-12 0 0)
(1.40389401e-12 0 0)
(8.19207304e-13 0 0)
(8.45396952e-13 0 0)
(7.40171364e-13 0 0)
(1.6077426e-13 0 0)
(3.13416757e-13 0 0)
(-3.67617734e-14 0 0)
(-7.00529635e-13 0 0)
(-5.04749524e-13 0 0)
(-6.53035179e-13 0 0)
(-7.16671839e-13 0 0)
(-1.22403912e-12 0 0)
(-1.57849552e-12 0 0)
(-1.66552185e-12 0 0)
(-1.54171367e-12 0 0)
(-1.86312058e-12 0 0)
(-2.18012899e-12 0 0)
(-2.20966208e-12 0 0)
(-2.50378626e-12 0 0)
(-2.85710731e-12 0 0)
(-2.17685725e-12 0 0)
(-3.96961419e-12 0 0)
(-2.90085966e-12 0 0)
(-3.40171993e-12 0 0)
(-3.95670098e-12 0 0)
(-3.78670219e-12 0 0)
(-4.06662687e-12 0 0)
(-3.79040397e-12 0 0)
(-4.86707295e-12 0 0)
(-5.13070204e-12 0 0)
(-4.16924302e-12 0 0)
(-5.25955382e-12 0 0)
(-5.8500555e-12 0 0)
(-4.67494321e-12 0 0)
(-5.9569297e-12 0 0)
(-4.98117341e-12 0 0)
(-5.4246267e-12 0 0)
(-5.18807994e-12 0 0)
(-3.99333156e-12 0 0)
(-4.81622294e-12 0 0)
(-5.13436321e-12 0 0)
(-4.68681231e-12 0 0)
(-4.84947775e-12 0 0)
(-5.33058627e-12 0 0)
(-5.15326982e-12 0 0)
(-5.18614693e-12 0 0)
(-6.08896482e-12 0 0)
(-6.31459272e-12 0 0)
(-4.69747682e-12 0 0)
(-5.74590245e-12 0 0)
(-4.8909468e-12 0 0)
(-5.94055431e-12 0 0)
(-4.9010835e-12 0 0)
(-4.96445566e-12 0 0)
(-4.77403026e-12 0 0)
(-4.84739692e-12 0 0)
(-4.58624902e-12 0 0)
(-5.77876998e-12 0 0)
(-4.99804297e-12 0 0)
(-4.48752865e-12 0 0)
(-5.46935081e-12 0 0)
(-4.82667281e-12 0 0)
(-5.24952717e-12 0 0)
(-5.5587819e-12 0 0)
(-5.1255751e-12 0 0)
(-7.65808754e-12 0 0)
(-5.31027355e-12 0 0)
(-6.16818599e-12 0 0)
(-6.06096542e-12 0 0)
(-6.49730302e-12 0 0)
(-6.98801179e-12 0 0)
(-6.63503519e-12 0 0)
(-6.43367599e-12 0 0)
(-7.46558602e-12 0 0)
(-8.58026051e-12 0 0)
(-7.90303939e-12 0 0)
(-8.01704016e-12 0 0)
(-7.78606045e-12 0 0)
(-7.79677073e-12 0 0)
(-7.78968957e-12 0 0)
(-8.00646264e-12 0 0)
(-8.96750157e-12 0 0)
(-7.17136521e-12 0 0)
(-7.89642955e-12 0 0)
(-7.57078544e-12 0 0)
(-8.41575741e-12 0 0)
(-7.49211592e-12 0 0)
(-7.87799731e-12 0 0)
(-7.49848281e-12 0 0)
(-8.28610712e-12 0 0)
(-8.46562371e-12 0 0)
(-8.28510756e-12 0 0)
(-9.21508054e-12 0 0)
(-7.89430531e-12 0 0)
(-8.80803579e-12 0 0)
(-8.933346e-12 0 0)
(-7.44182748e-12 0 0)
(-8.08618462e-12 0 0)
(-8.89799567e-12 0 0)
(-8.69854146e-12 0 0)
(-7.8625649e-12 0 0)
(-8.18008638e-12 0 0)
(-9.19966472e-12 0 0)
(-8.26331255e-12 0 0)
(-8.31167683e-12 0 0)
(-7.81406003e-12 0 0)
(-7.70223883e-12 0 0)
(-8.21118926e-12 0 0)
(-8.26751647e-12 0 0)
(-8.37227072e-12 0 0)
(-8.18386509e-12 0 0)
(-8.09460936e-12 0 0)
(-9.91315031e-12 0 0)
(-8.63526731e-12 0 0)
(-9.57546597e-12 0 0)
(-9.32354953e-12 0 0)
(-9.61769428e-12 0 0)
(-9.91854023e-12 0 0)
(-8.54898536e-12 0 0)
(-1.06169461e-11 0 0)
(-9.03853933e-12 0 0)
(-9.89490685e-12 0 0)
(-1.11414319e-11 0 0)
(-1.16289523e-11 0 0)
(-9.89673181e-12 0 0)
(-1.05853e-11 0 0)
(-1.07035319e-11 0 0)
(-9.31963842e-12 0 0)
(-1.03086633e-11 0 0)
(-1.01407637e-11 0 0)
(-1.0674505e-11 0 0)
(-1.03773823e-11 0 0)
(-1.06116103e-11 0 0)
(-9.7933009e-12 0 0)
(-9.6376977e-12 0 0)
(-9.92731121e-12 0 0)
(-1.04464115e-11 0 0)
(-1.13315721e-11 0 0)
(-1.03479604e-11 0 0)
(-1.03953927e-11 0 0)
(-9.71761495e-12 0 0)
(-1.01647525e-11 0 0)
(-1.07289897e-11 0 0)
(-9.97704846e-12 0 0)
(-1.04655698e-11 0 0)
(-1.02463164e-11 0 0)
(-1.15051154e-11 0 0)
(-9.79134777e-12 0 0)
(-1.0353357e-11 0 0)
(-1.19396906e-11 0 0)
(-1.0741078e-11 0 0)
(-1.23113074e-11 0 0)
(-1.18725497e-11 0 0)
(-1.23293237e-11 0 0)
(-1.16956164e-11 0 0)
(-1.29526031e-11 0 0)
(-1.04692904e-11 0 0)
(-1.18251864e-11 0 0)
(-1.18857712e-11 0 0)
(-1.0954676e-11 0 0)
(-1.23933114e-11 0 0)
(-1.06474315e-11 0 0)
(-1.10061513e-11 0 0)
(-1.20376476e-11 0 0)
(-1.11830243e-11 0 0)
(-1.21215794e-11 0 0)
(-1.32551463e-11 0 0)
(-1.17624686e-11 0 0)
(-1.30368212e-11 0 0)
(-1.22554236e-11 0 0)
(-1.21982208e-11 0 0)
(-1.21873599e-11 0 0)
(-1.19519238e-11 0 0)
(-1.08180702e-11 0 0)
(-1.16839216e-11 0 0)
(-1.11554464e-11 0 0)
(-1.20619364e-11 0 0)
(-1.22973118e-11 0 0)
(-1.18861993e-11 0 0)
(-1.2590403e-11 0 0)
(-1.20966836e-11 0 0)
(-1.20701651e-11 0 0)
(-1.20338539e-11 0 0)
(-1.30845322e-11 0 0)
(-1.17814148e-11 0 0)
(-1.09940312e-11 0 0)
(-1.19420182e-11 0 0)
(-1.22926586e-11 0 0)
(-1.18474805e-11 0 0)
(-1.23948132e-11 0 0)
(-1.26768893e-11 0 0)
(-1.26558742e-11 0 0)
(-1.202747e-11 0 0)
(-1.29981869e-11 0 0)
(-1.29839073e-11 0 0)
(-1.20874043e-11 0 0)
(-1.22773049e-11 0 0)
(-1.30215308e-11 0 0)
(-1.25063049e-11 0 0)
(-1.32176706e-11 0 0)
(-1.32844923e-11 0 0)
(-1.26357203e-11 0 0)
(-1.32258173e-11 0 0)
(-1.27998132e-11 0 0)
(-1.2825422e-11 0 0)
(-1.33001536e-11 0 0)
(-1.23249224e-11 0 0)
(-1.27324072e-11 0 0)
(-1.31590013e-11 0 0)
(-1.37880443e-11 0 0)
(-1.3671524e-11 0 0)
(-1.37998891e-11 0 0)
(-1.37805179e-11 0 0)
(-1.38297951e-11 0 0)
(-1.41235077e-11 0 0)
(-1.40644507e-11 0 0)
(-1.36891885e-11 0 0)
(-1.35805718e-11 0 0)
(-1.43230875e-11 0 0)
(-1.50736083e-11 0 0)
(-1.54378368e-11 0 0)
(-1.45731443e-11 0 0)
(-1.45895676e-11 0 0)
(-1.62730342e-11 0 0)
(-1.44808587e-11 0 0)
(-1.58811145e-11 0 0)
(-1.56557569e-11 0 0)
(-1.58462177e-11 0 0)
(-1.57058781e-11 0 0)
(-1.59755848e-11 0 0)
(-1.52667809e-11 0 0)
(-1.67497999e-11 0 0)
(-1.54657142e-11 0 0)
(-1.62878434e-11 0 0)
(-1.65795535e-11 0 0)
(-1.57807351e-11 0 0)
(-1.57290092e-11 0 0)
(-1.595483e-11 0 0)
(-1.54480498e-11 0 0)
(-1.51773313e-11 0 0)
(-1.51764975e-11 0 0)
(-1.50562631e-11 0 0)
(-1.53039717e-11 0 0)
(-1.52500365e-11 0 0)
(-1.46172043e-11 0 0)
(-1.54432013e-11 0 0)
(-1.61815897e-11 0 0)
(-1.59864771e-11 0 0)
(-1.60830965e-11 0 0)
(-1.63878221e-11 0 0)
(-1.54814888e-11 0 0)
(-1.60312416e-11 0 0)
(-1.68910554e-11 0 0)
(-1.72205212e-11 0 0)
(-1.80261431e-11 0 0)
(-1.68053102e-11 0 0)
(-1.63142578e-11 0 0)
(-1.84694341e-11 0 0)
(-1.73092119e-11 0 0)
(-1.70918503e-11 0 0)
(-1.75287271e-11 0 0)
(-1.69378924e-11 0 0)
(-1.72195554e-11 0 0)
(-1.6566383e-11 0 0)
(-1.8011131e-11 0 0)
(-1.63560936e-11 0 0)
(-1.75605938e-11 0 0)
(-1.66693471e-11 0 0)
(-1.56488024e-11 0 0)
(-1.69927902e-11 0 0)
(-1.66537211e-11 0 0)
(-1.54905033e-11 0 0)
(-1.4684168e-11 0 0)
(-1.55016324e-11 0 0)
(-1.53414815e-11 0 0)
(-1.62995855e-11 0 0)
(-1.58710879e-11 0 0)
(-1.50770476e-11 0 0)
(-1.54764973e-11 0 0)
(-1.57669829e-11 0 0)
(-1.53602111e-11 0 0)
(-1.50004483e-11 0 0)
(-1.5343145e-11 0 0)
(-1.60251385e-11 0 0)
(-1.57995843e-11 0 0)
(-1.57906525e-11 0 0)
(-1.55727107e-11 0 0)
(-1.55648629e-11 0 0)
(-1.55534625e-11 0 0)
(-1.54857217e-11 0 0)
(-1.67731004e-11 0 0)
(-1.53204453e-11 0 0)
(-1.54964866e-11 0 0)
(-1.60486487e-11 0 0)
(-1.67555149e-11 0 0)
(-1.52855042e-11 0 0)
(-1.59695181e-11 0 0)
(-1.60454024e-11 0 0)
(-1.56660763e-11 0 0)
(-1.54918108e-11 0 0)
(-1.53319917e-11 0 0)
(-1.58309755e-11 0 0)
(-1.49406529e-11 0 0)
(-1.57618992e-11 0 0)
(-1.50708834e-11 0 0)
(-1.60165438e-11 0 0)
(-1.56436265e-11 0 0)
(-1.5984548e-11 0 0)
(-1.54940539e-11 0 0)
(-1.59328461e-11 0 0)
(-1.54571272e-11 0 0)
(-1.62250312e-11 0 0)
(-1.50119629e-11 0 0)
(-1.75337521e-11 0 0)
(-1.53806461e-11 0 0)
(-1.50952823e-11 0 0)
(-1.53934084e-11 0 0)
(-1.53160364e-11 0 0)
(-1.5951072e-11 0 0)
(-1.49851143e-11 0 0)
(-1.64745482e-11 0 0)
(-1.59816477e-11 0 0)
(-1.61382576e-11 0 0)
(-1.56829797e-11 0 0)
(-1.5341706e-11 0 0)
(-1.57493165e-11 0 0)
(-1.59750984e-11 0 0)
(-1.52779269e-11 0 0)
(-1.51893927e-11 0 0)
(-1.55539468e-11 0 0)
(-1.40297333e-11 0 0)
(-1.47356881e-11 0 0)
(-1.56432367e-11 0 0)
(-1.29142181e-11 0 0)
(-1.40739924e-11 0 0)
(-1.4269389e-11 0 0)
(-1.30587399e-11 0 0)
(-1.23901184e-11 0 0)
(-1.28994599e-11 0 0)
(-1.29447409e-11 0 0)
(-1.27594265e-11 0 0)
(-1.35457319e-11 0 0)
(-1.26426767e-11 0 0)
(-1.21934377e-11 0 0)
(-1.19933295e-11 0 0)
(-1.32063588e-11 0 0)
(-1.23784223e-11 0 0)
(-1.23208686e-11 0 0)
(-1.13402055e-11 0 0)
(-1.14062497e-11 0 0)
(-1.21424393e-11 0 0)
(-1.25940111e-11 0 0)
(-1.21376326e-11 0 0)
(-1.15903342e-11 0 0)
(-1.1219153e-11 0 0)
(-1.11849136e-11 0 0)
(-1.19175691e-11 0 0)
(-1.16280735e-11 0 0)
(-1.07092046e-11 0 0)
(-1.05913168e-11 0 0)
(-1.09269629e-11 0 0)
(-1.08403313e-11 0 0)
(-1.09872066e-11 0 0)
(-1.14010997e-11 0 0)
(-1.10028041e-11 0 0)
(-1.07861087e-11 0 0)
(-1.05326732e-11 0 0)
(-9.80363188e-12 0 0)
(-1.04862932e-11 0 0)
(-1.12899254e-11 0 0)
(-1.01504206e-11 0 0)
(-9.54865e-12 0 0)
(-9.8035673e-12 0 0)
(-1.03163019e-11 0 0)
(-1.06727154e-11 0 0)
(-1.01913969e-11 0 0)
(-8.91648765e-12 0 0)
(-9.0117826e-12 0 0)
(-9.7584581e-12 0 0)
(-9.62853059e-12 0 0)
(-8.79621549e-12 0 0)
(-8.66379871e-12 0 0)
(-9.04992222e-12 0 0)
(-9.15217996e-12 0 0)
(-9.24041029e-12 0 0)
(-9.28599331e-12 0 0)
(-9.65966895e-12 0 0)
(-9.43139658e-12 0 0)
(-8.92195481e-12 0 0)
(-8.84711282e-12 0 0)
(-8.92108359e-12 0 0)
(-8.61062829e-12 0 0)
(-9.6975088e-12 0 0)
(-9.27430477e-12 0 0)
(-8.18145592e-12 0 0)
(-9.41344062e-12 0 0)
(-8.76837919e-12 0 0)
(-7.41105199e-12 0 0)
(-9.08305053e-12 0 0)
(-9.95779783e-12 0 0)
(-9.17984926e-12 0 0)
(-7.99539281e-12 0 0)
(-9.49314632e-12 0 0)
(-9.01141384e-12 0 0)
(-8.34234589e-12 0 0)
(-8.87775721e-12 0 0)
(-8.60789104e-12 0 0)
(-8.75819543e-12 0 0)
(-7.91272051e-12 0 0)
(-8.19497866e-12 0 0)
(-7.37923344e-12 0 0)
(-8.03781722e-12 0 0)
(-7.23917479e-12 0 0)
(-8.18558865e-12 0 0)
(-7.5708741e-12 0 0)
(-6.84523991e-12 0 0)
(-7.19634059e-12 0 0)
(-7.80179533e-12 0 0)
(-7.21199857e-12 0 0)
(-7.94844288e-12 0 0)
(-7.47793671e-12 0 0)
(-6.89258353e-12 0 0)
(-7.89786468e-12 0 0)
(-7.79232821e-12 0 0)
(-7.39781297e-12 0 0)
(-8.7803548e-12 0 0)
(-8.09531487e-12 0 0)
(-7.36932196e-12 0 0)
(-8.19796919e-12 0 0)
(-8.26194475e-12 0 0)
(-9.17374797e-12 0 0)
(-7.86557367e-12 0 0)
(-8.88928022e-12 0 0)
(-8.15788079e-12 0 0)
(-7.23103177e-12 0 0)
(-7.58804674e-12 0 0)
(-6.21005224e-12 0 0)
(-7.54246562e-12 0 0)
(-7.10263079e-12 0 0)
(-6.36796983e-12 0 0)
(-6.08800716e-12 0 0)
(-6.21694653e-12 0 0)
(-5.52331345e-12 0 0)
(-6.67799563e-12 0 0)
(-6.07392444e-12 0 0)
(-4.95245743e-12 0 0)
(-5.70802684e-12 0 0)
(-5.49679919e-12 0 0)
(-5.22541324e-12 0 0)
(-5.24132412e-12 0 0)
(-4.60540274e-12 0 0)
(-4.39352441e-12 0 0)
(-4.94918849e-12 0 0)
(-4.06558855e-12 0 0)
(-4.22182375e-12 0 0)
(-3.98472999e-12 0 0)
(-4.68159733e-12 0 0)
(-5.43638086e-12 0 0)
(-4.96842502e-12 0 0)
(-5.38451393e-12 0 0)
(-3.54297884e-12 0 0)
(-5.09169779e-12 0 0)
(-4.56243398e-12 0 0)
(-3.79089961e-12 0 0)
(-4.05341166e-12 0 0)
(-4.40090478e-12 0 0)
(-3.76140014e-12 0 0)
(-3.34467841e-12 0 0)
(-3.50152805e-12 0 0)
(-3.10113858e-12 0 0)
(-3.98917881e-12 0 0)
(-4.02629003e-12 0 0)
(-2.89270336e-12 0 0)
(-2.76420594e-12 0 0)
(-3.59721367e-12 0 0)
(-2.66541631e-12 0 0)
(-3.16848067e-12 0 0)
(-2.74863225e-12 0 0)
(-2.77872145e-12 0 0)
(-2.24079937e-12 0 0)
(-2.80306441e-12 0 0)
(-2.14776203e-12 0 0)
(-1.7787461e-12 0 0)
(-2.6379158e-12 0 0)
(-2.53548972e-12 0 0)
(-1.75852296e-12 0 0)
(-2.12282585e-12 0 0)
(-2.57902086e-12 0 0)
(-2.17498301e-12 0 0)
(-1.71339228e-12 0 0)
(-1.50732759e-12 0 0)
(-2.04998023e-12 0 0)
(-1.85457501e-12 0 0)
(-7.9923427e-13 0 0)
(-1.28879005e-12 0 0)
(-1.24117016e-12 0 0)
(-2.05247356e-12 0 0)
(-2.04795831e-12 0 0)
(-9.62435935e-13 0 0)
(-1.52359894e-12 0 0)
(-1.24190177e-12 0 0)
(-1.92070894e-12 0 0)
(-1.75632312e-12 0 0)
(-9.07929718e-13 0 0)
(-9.09478886e-13 0 0)
(-6.99512694e-13 0 0)
(4.80249937e-13 0 0)
(-4.37090239e-14 0 0)
(-5.65652732e-14 0 0)
(-1.45537787e-13 0 0)
(5.97352239e-13 0 0)
(7.62044058e-13 0 0)
(1.80101668e-12 0 0)
(-7.45789137e-14 0 0)
(-1.20442923e-13 0 0)
(4.63200284e-13 0 0)
(4.99996296e-13 0 0)
(-1.21607983e-14 0 0)
(-1.22975829e-13 0 0)
(3.27252016e-13 0 0)
(1.03687337e-12 0 0)
(6.12953059e-13 0 0)
(-6.55763286e-14 0 0)
(6.52374717e-13 0 0)
(1.11280797e-12 0 0)
(1.46561187e-12 0 0)
(2.46199969e-13 0 0)
(4.64662924e-14 0 0)
(1.28055237e-12 0 0)
(1.85076551e-12 0 0)
(4.03353125e-13 0 0)
(1.31936457e-12 0 0)
(3.00614466e-13 0 0)
(3.7814921e-13 0 0)
(1.47629239e-12 0 0)
(8.47812631e-13 0 0)
(9.73925231e-13 0 0)
(1.16239461e-12 0 0)
(8.94514726e-13 0 0)
(8.59590056e-13 0 0)
(1.93311993e-12 0 0)
(7.09992853e-13 0 0)
(1.28660175e-12 0 0)
(1.32369934e-12 0 0)
(1.84050429e-12 0 0)
(1.72459597e-12 0 0)
(2.52936755e-12 0 0)
(1.65507892e-12 0 0)
(2.14419368e-12 0 0)
(2.26643597e-12 0 0)
(2.38707898e-12 0 0)
(1.74117929e-12 0 0)
(2.78156267e-12 0 0)
(2.68331196e-12 0 0)
(3.26738505e-12 0 0)
(3.66062323e-12 0 0)
(3.73856416e-12 0 0)
(4.11283197e-12 0 0)
(2.87872322e-12 0 0)
(3.26622414e-12 0 0)
(3.45302884e-12 0 0)
(3.82106009e-12 0 0)
(3.59675158e-12 0 0)
(4.3351268e-12 0 0)
(3.31122122e-12 0 0)
(3.06101763e-12 0 0)
(3.42938334e-12 0 0)
(3.51439192e-12 0 0)
(2.80106766e-12 0 0)
(2.50225779e-12 0 0)
(2.11926315e-12 0 0)
(2.64962362e-12 0 0)
(2.91691056e-12 0 0)
(2.61993587e-12 0 0)
(2.65046364e-12 0 0)
(3.10662659e-12 0 0)
(2.48222505e-12 0 0)
(2.82250437e-12 0 0)
(2.15831346e-12 0 0)
(2.72995049e-12 0 0)
(3.49092952e-12 0 0)
(2.80952923e-12 0 0)
(2.20734432e-12 0 0)
(2.55681424e-12 0 0)
(2.15589659e-12 0 0)
(2.78158409e-12 0 0)
(2.40614846e-12 0 0)
(2.71900112e-12 0 0)
(2.99061248e-12 0 0)
(2.78149667e-12 0 0)
(1.96362864e-12 0 0)
(3.39536057e-12 0 0)
(3.24383204e-12 0 0)
(2.81760939e-12 0 0)
(2.73914737e-12 0 0)
(3.17930006e-12 0 0)
(2.3709917e-12 0 0)
(1.77087533e-12 0 0)
(3.18994592e-12 0 0)
(3.40154812e-12 0 0)
(3.59716246e-12 0 0)
(2.67747782e-12 0 0)
(3.07905025e-12 0 0)
(2.37115609e-12 0 0)
(3.95428193e-12 0 0)
(3.86279271e-12 0 0)
(3.66947528e-12 0 0)
(3.30951744e-12 0 0)
(4.40382278e-12 0 0)
(3.21220541e-12 0 0)
(4.60197868e-12 0 0)
(4.00644502e-12 0 0)
(4.18184198e-12 0 0)
(4.35594899e-12 0 0)
(5.03630107e-12 0 0)
(4.51703435e-12 0 0)
(5.06305416e-12 0 0)
(5.78243668e-12 0 0)
(5.43563524e-12 0 0)
(6.19434067e-12 0 0)
(5.96191549e-12 0 0)
(5.43634887e-12 0 0)
(6.14199332e-12 0 0)
(5.56082505e-12 0 0)
(5.12152956e-12 0 0)
(5.83974456e-12 0 0)
(5.79218009e-12 0 0)
(6.83467693e-12 0 0)
(6.60117472e-12 0 0)
(6.36943084e-12 0 0)
(6.60673438e-12 0 0)
(6.74101849e-12 0 0)
(6.89643781e-12 0 0)
(6.29414276e-12 0 0)
(6.62016324e-12 0 0)
(6.56721345e-12 0 0)
(6.68540322e-12 0 0)
(7.90937634e-12 0 0)
(8.7675898e-12 0 0)
(7.1993076e-12 0 0)
(9.35332918e-12 0 0)
(8.67315448e-12 0 0)
(8.44489604e-12 0 0)
(8.9348892e-12 0 0)
(9.8562899e-12 0 0)
(7.80000152e-12 0 0)
(8.01266857e-12 0 0)
(7.88266253e-12 0 0)
(8.98195873e-12 0 0)
(8.09448453e-12 0 0)
(8.35806667e-12 0 0)
(8.42987027e-12 0 0)
(7.83116227e-12 0 0)
(7.48517562e-12 0 0)
(8.23209162e-12 0 0)
(8.30485981e-12 0 0)
(8.46787553e-12 0 0)
(7.80155155e-12 0 0)
(7.61508792e-12 0 0)
(7.90037799e-12 0 0)
(7.3497237e-12 0 0)
(7.96313434e-12 0 0)
(7.56787819e-12 0 0)
(6.55959302e-12 0 0)
(7.05299574e-12 0 0)
(7.6174479e-12 0 0)
(8.76321191e-12 0 0)
(8.25377132e-12 0 0)
(8.82525017e-12 0 0)
(7.96597128e-12 0 0)
(8.91099557e-12 0 0)
(8.72930742e-12 0 0)
(7.61176578e-12 0 0)
(8.64075966e-12 0 0)
(8.28327359e-12 0 0)
(7.16736556e-12 0 0)
(7.48076407e-12 0 0)
(8.34504274e-12 0 0)
(8.72229998e-12 0 0)
(7.11894152e-12 0 0)
(8.86359486e-12 0 0)
(7.86481055e-12 0 0)
(8.62857709e-12 0 0)
(8.29987213e-12 0 0)
(8.27076356e-12 0 0)
(9.06176612e-12 0 0)
(8.49047408e-12 0 0)
(8.0285286e-12 0 0)
(8.11924165e-12 0 0)
(7.9583769e-12 0 0)
(7.55360975e-12 0 0)
(8.95226128e-12 0 0)
(8.34110404e-12 0 0)
(8.37642206e-12 0 0)
(1.01810148e-11 0 0)
(8.81107347e-12 0 0)
(9.02741804e-12 0 0)
(9.02370894e-12 0 0)
(8.62891033e-12 0 0)
(9.0981062e-12 0 0)
(8.46459967e-12 0 0)
(8.03056942e-12 0 0)
(8.68577014e-12 0 0)
(8.11705558e-12 0 0)
(7.94773701e-12 0 0)
(8.69206281e-12 0 0)
(8.20147368e-12 0 0)
(8.79195965e-12 0 0)
(9.92924921e-12 0 0)
(8.45788401e-12 0 0)
(8.3916265e-12 0 0)
(8.60575948e-12 0 0)
(8.34938649e-12 0 0)
(7.62625828e-12 0 0)
(7.99010665e-12 0 0)
(8.41784053e-12 0 0)
(8.32139117e-12 0 0)
(8.10537275e-12 0 0)
(8.40179995e-12 0 0)
(8.54601084e-12 0 0)
(8.07461341e-12 0 0)
(9.43832993e-12 0 0)
(8.93455342e-12 0 0)
(9.42707815e-12 0 0)
(8.96931e-12 0 0)
(9.42608429e-12 0 0)
(8.42035877e-12 0 0)
(8.5393875e-12 0 0)
(8.82094383e-12 0 0)
(9.35805488e-12 0 0)
(9.39540042e-12 0 0)
(8.60948262e-12 0 0)
(8.3816457e-12 0 0)
(7.7041913e-12 0 0)
(8.91583021e-12 0 0)
(8.19630108e-12 0 0)
(8.89017329e-12 0 0)
(7.92414842e-12 0 0)
(8.59080568e-12 0 0)
(8.85959896e-12 0 0)
(9.20737487e-12 0 0)
(8.7782755e-12 0 0)
(8.31935703e-12 0 0)
(8.29083627e-12 0 0)
(9.59968522e-12 0 0)
(9.57597506e-12 0 0)
(8.90088683e-12 0 0)
(7.39811308e-12 0 0)
(9.65454419e-12 0 0)
(8.00813873e-12 0 0)
(8.57272561e-12 0 0)
(7.92429567e-12 0 0)
(9.10189177e-12 0 0)
(8.85706973e-12 0 0)
(8.7367627e-12 0 0)
(8.91935699e-12 0 0)
(8.74706853e-12 0 0)
(8.53008172e-12 0 0)
(8.96594611e-12 0 0)
(8.73974226e-12 0 0)
(9.20810863e-12 0 0)
(7.80429406e-12 0 0)
(9.39079334e-12 0 0)
(8.38241482e-12 0 0)
(7.79919589e-12 0 0)
(9.54456129e-12 0 0)
(1.00093813e-11 0 0)
(8.48287321e-12 0 0)
(7.79057814e-12 0 0)
(9.39798072e-12 0 0)
(8.31567073e-12 0 0)
(8.97109583e-12 0 0)
(8.62543082e-12 0 0)
(8.93027506e-12 0 0)
(7.38789376e-12 0 0)
(8.206245e-12 0 0)
(8.00096173e-12 0 0)
(8.9556198e-12 0 0)
(8.69246155e-12 0 0)
(8.92660949e-12 0 0)
(9.1571615e-12 0 0)
(8.5429838e-12 0 0)
(8.24010722e-12 0 0)
(9.60061354e-12 0 0)
(9.58626674e-12 0 0)
(9.5235611e-12 0 0)
(8.42028059e-12 0 0)
(9.82652593e-12 0 0)
(9.62919082e-12 0 0)
(8.42287491e-12 0 0)
(8.54862417e-12 0 0)
(8.87309801e-12 0 0)
(8.55890253e-12 0 0)
(7.58584856e-12 0 0)
(7.77419315e-12 0 0)
(1.01856452e-11 0 0)
(9.33696347e-12 0 0)
(9.22225186e-12 0 0)
(8.83498388e-12 0 0)
(8.2972338e-12 0 0)
(9.0217005e-12 0 0)
(9.7122045e-12 0 0)
(8.29736984e-12 0 0)
(8.90660758e-12 0 0)
(9.79418009e-12 0 0)
(8.94593818e-12 0 0)
(8.49879316e-12 0 0)
(8.39858922e-12 0 0)
(7.32790815e-12 0 0)
(8.0256472e-12 0 0)
(8.47994228e-12 0 0)
(8.69080684e-12 0 0)
(9.3414288e-12 0 0)
(7.66594866e-12 0 0)
(8.60810304e-12 0 0)
(9.06916074e-12 0 0)
(9.18992924e-12 0 0)
(8.60761498e-12 0 0)
(9.58383453e-12 0 0)
(8.82042717e-12 0 0)
(8.53319249e-12 0 0)
(9.26403376e-12 0 0)
(8.69588678e-12 0 0)
(8.62979643e-12 0 0)
(8.44807558e-12 0 0)
(8.33253995e-12 0 0)
(9.03744904e-12 0 0)
(9.29644932e-12 0 0)
(9.09988923e-12 0 0)
(8.7291016e-12 0 0)
(8.16970308e-12 0 0)
(8.9583313e-12 0 0)
(9.72090952e-12 0 0)
(9.09885239e-12 0 0)
(9.19440211e-12 0 0)
(9.28879456e-12 0 0)
(8.90467074e-12 0 0)
(8.50319449e-12 0 0)
(8.653723e-12 0 0)
(9.07261776e-12 0 0)
(9.39503833e-12 0 0)
(8.56934784e-12 0 0)
(9.62520909e-12 0 0)
(1.08577724e-11 0 0)
(9.15940348e-12 0 0)
(9.29679308e-12 0 0)
(9.67683013e-12 0 0)
(8.49238772e-12 0 0)
(8.44996749e-12 0 0)
(8.35107211e-12 0 0)
(9.75048101e-12 0 0)
(9.01132278e-12 0 0)
(7.83449104e-12 0 0)
(9.75765854e-12 0 0)
(9.3697017e-12 0 0)
(8.94939363e-12 0 0)
(9.14489187e-12 0 0)
(8.26206087e-12 0 0)
(9.56144404e-12 0 0)
(8.12578911e-12 0 0)
(8.42303906e-12 0 0)
(9.59432846e-12 0 0)
(9.31986992e-12 0 0)
(8.75869072e-12 0 0)
(8.88668512e-12 0 0)
(8.48552604e-12 0 0)
(9.26496005e-12 0 0)
(7.61326594e-12 0 0)
(8.2736097e-12 0 0)
(8.01771762e-12 0 0)
(8.80447227e-12 0 0)
(8.94876189e-12 0 0)
(9.25812439e-12 0 0)
(9.34492992e-12 0 0)
(8.87011433e-12 0 0)
(8.61441713e-12 0 0)
(7.55121675e-12 0 0)
(8.24244381e-12 0 0)
(8.54117296e-12 0 0)
(7.49976079e-12 0 0)
(8.41464711e-12 0 0)
(7.77181618e-12 0 0)
(7.31772714e-12 0 0)
(7.47121986e-12 0 0)
(7.0067307e-12 0 0)
(6.89591718e-12 0 0)
(7.26908283e-12 0 0)
(8.19056745e-12 0 0)
(6.937483e-12 0 0)
(6.98213708e-12 0 0)
(7.68988869e-12 0 0)
(7.57175922e-12 0 0)
(7.28469433e-12 0 0)
(8.00286209e-12 0 0)
(7.88736483e-12 0 0)
(7.00421419e-12 0 0)
(7.39798341e-12 0 0)
(7.53963361e-12 0 0)
(7.04079452e-12 0 0)
(8.11608922e-12 0 0)
(8.10977608e-12 0 0)
(7.40601751e-12 0 0)
(8.17806586e-12 0 0)
(6.84191924e-12 0 0)
(8.36117974e-12 0 0)
(8.42459432e-12 0 0)
(8.04149694e-12 0 0)
(8.03847626e-12 0 0)
(8.94616923e-12 0 0)
(8.68925023e-12 0 0)
(9.47549795e-12 0 0)
(8.53045887e-12 0 0)
(8.15398961e-12 0 0)
(7.58965369e-12 0 0)
(8.00726617e-12 0 0)
(7.33134576e-12 0 0)
(7.03549301e-12 0 0)
(7.12853597e-12 0 0)
(7.73944754e-12 0 0)
(7.58831766e-12 0 0)
(8.03422276e-12 0 0)
(8.53886589e-12 0 0)
(7.90223611e-12 0 0)
(8.89463973e-12 0 0)
(7.49067536e-12 0 0)
(8.18719816e-12 0 0)
(8.66940534e-12 0 0)
(7.4783084e-12 0 0)
(7.89175028e-12 0 0)
(8.62485617e-12 0 0)
(8.0897213e-12 0 0)
(8.22350971e-12 0 0)
(8.2842652e-12 0 0)
(8.62364259e-12 0 0)
(8.8610342e-12 0 0)
(8.56619648e-12 0 0)
(8.01494514e-12 0 0)
(8.5230589e-12 0 0)
(8.42268518e-12 0 0)
(7.42746453e-12 0 0)
(7.7201146e-12 0 0)
(7.79922608e-12 0 0)
(7.51374466e-12 0 0)
(7.11269138e-12 0 0)
(6.90142974e-12 0 0)
(7.21633181e-12 0 0)
(7.06068119e-12 0 0)
(7.93972617e-12 0 0)
(7.04090341e-12 0 0)
(7.33556745e-12 0 0)
(6.52540239e-12 0 0)
(5.04173119e-12 0 0)
(6.91390154e-12 0 0)
(4.51789874e-12 0 0)
(6.60548939e-12 0 0)
(6.17949617e-12 0 0)
(5.89422715e-12 0 0)
(5.2980517e-12 0 0)
(5.50539635e-12 0 0)
(5.74691633e-12 0 0)
(5.36881668e-12 0 0)
(4.85971389e-12 0 0)
(6.57621662e-12 0 0)
(4.67322666e-12 0 0)
(5.15532683e-12 0 0)
(5.33190126e-12 0 0)
(4.37521755e-12 0 0)
(4.44312678e-12 0 0)
(2.90297442e-12 0 0)
(4.29072049e-12 0 0)
(3.71844137e-12 0 0)
(4.84350291e-12 0 0)
(4.2500307e-12 0 0)
(3.91922094e-12 0 0)
(4.16138537e-12 0 0)
(3.80508916e-12 0 0)
(2.87643284e-12 0 0)
(4.54317837e-12 0 0)
(3.52530005e-12 0 0)
(4.1231681e-12 0 0)
(3.72457008e-12 0 0)
(3.86624966e-12 0 0)
(4.17403944e-12 0 0)
(3.69069726e-12 0 0)
(4.60698137e-12 0 0)
(4.47950213e-12 0 0)
(4.79791076e-12 0 0)
(4.1008687e-12 0 0)
(4.81368302e-12 0 0)
(4.2815371e-12 0 0)
(3.71035419e-12 0 0)
(3.87676121e-12 0 0)
(3.21104952e-12 0 0)
(2.89873286e-12 0 0)
(3.43790984e-12 0 0)
(3.28631101e-12 0 0)
(3.14365019e-12 0 0)
(3.68717381e-12 0 0)
(2.91920786e-12 0 0)
(2.05973576e-12 0 0)
(2.56368843e-12 0 0)
(3.02626723e-12 0 0)
(2.5118138e-12 0 0)
(2.66838715e-12 0 0)
(3.22580493e-12 0 0)
(2.89285777e-12 0 0)
(3.11524322e-12 0 0)
(2.42550086e-12 0 0)
(3.84756514e-12 0 0)
(3.09502449e-12 0 0)
(3.03238398e-12 0 0)
(2.74650891e-12 0 0)
(3.13708122e-12 0 0)
(2.90866517e-12 0 0)
(2.77196541e-12 0 0)
(2.65507466e-12 0 0)
(2.71954838e-12 0 0)
(2.15046091e-12 0 0)
(1.33417539e-12 0 0)
(2.25178736e-12 0 0)
(1.86110771e-12 0 0)
(1.94162162e-12 0 0)
(2.02756096e-12 0 0)
(2.54224252e-12 0 0)
(2.68598622e-12 0 0)
(9.62030567e-13 0 0)
(2.46102e-12 0 0)
(1.33468017e-12 0 0)
(1.31130608e-12 0 0)
(9.07046616e-13 0 0)
(3.37189903e-13 0 0)
(4.12247998e-13 0 0)
(1.00659205e-12 0 0)
(-3.30998683e-13 0 0)
(4.22365968e-14 0 0)
(2.82551706e-13 0 0)
(-2.69725385e-13 0 0)
(-5.28272472e-13 0 0)
(8.76444454e-13 0 0)
(-3.28073695e-13 0 0)
(-1.20382179e-12 0 0)
(8.52870482e-14 0 0)
(-5.64315899e-13 0 0)
(-1.04507475e-12 0 0)
(-3.78199197e-13 0 0)
(-9.4071164e-13 0 0)
(-6.99500911e-13 0 0)
(-1.04635674e-12 0 0)
(-1.11074304e-12 0 0)
(-1.64637796e-12 0 0)
(-1.62520073e-12 0 0)
(-2.19201516e-12 0 0)
(-2.52159994e-12 0 0)
(-2.02107908e-12 0 0)
(-2.4175596e-12 0 0)
(-2.38539934e-12 0 0)
(-2.74126513e-12 0 0)
(-2.81887402e-12 0 0)
(-3.57262735e-12 0 0)
(-2.80134607e-12 0 0)
(-2.91049424e-12 0 0)
(-3.82111116e-12 0 0)
(-3.1803026e-12 0 0)
(-2.98476861e-12 0 0)
(-2.7669142e-12 0 0)
(-3.0774136e-12 0 0)
(-3.29953314e-12 0 0)
(-2.91094235e-12 0 0)
(-3.1061804e-12 0 0)
(-3.66305807e-12 0 0)
(-3.8021214e-12 0 0)
(-3.90378269e-12 0 0)
(-3.70917797e-12 0 0)
(-3.47168789e-12 0 0)
(-2.68546815e-12 0 0)
(-4.4460137e-12 0 0)
(-3.10306383e-12 0 0)
(-4.53617863e-12 0 0)
(-3.71910351e-12 0 0)
(-4.21618409e-12 0 0)
(-4.10637622e-12 0 0)
(-4.36918821e-12 0 0)
(-4.26616843e-12 0 0)
(-4.7392595e-12 0 0)
(-4.79451135e-12 0 0)
(-4.93760669e-12 0 0)
(-4.36873036e-12 0 0)
(-4.09867534e-12 0 0)
(-3.90691131e-12 0 0)
(-4.04612362e-12 0 0)
(-2.51668488e-12 0 0)
(-4.15280487e-12 0 0)
(-3.24749698e-12 0 0)
(-3.83494348e-12 0 0)
(-2.95514516e-12 0 0)
(-3.77647001e-12 0 0)
(-2.79089776e-12 0 0)
(-3.66283993e-12 0 0)
(-3.73237334e-12 0 0)
(-3.26107287e-12 0 0)
(-4.89493321e-12 0 0)
(-4.82236703e-12 0 0)
(-4.81536056e-12 0 0)
(-4.15705927e-12 0 0)
(-5.09604551e-12 0 0)
(-3.39087409e-12 0 0)
(-3.59555227e-12 0 0)
(-4.34859407e-12 0 0)
(-3.42021466e-12 0 0)
(-3.93755368e-12 0 0)
(-3.36348734e-12 0 0)
(-3.39016749e-12 0 0)
(-3.32884859e-12 0 0)
(-3.69150338e-12 0 0)
(-2.80055362e-12 0 0)
(-4.24758131e-12 0 0)
(-4.06056633e-12 0 0)
(-4.11049427e-12 0 0)
(-4.21375222e-12 0 0)
(-4.79270487e-12 0 0)
(-4.70516516e-12 0 0)
(-5.43308684e-12 0 0)
(-4.35836533e-12 0 0)
(-4.55917982e-12 0 0)
(-5.89471321e-12 0 0)
(-6.42594087e-12 0 0)
(-5.5242774e-12 0 0)
(-5.46340366e-12 0 0)
(-6.61586409e-12 0 0)
(-6.66531499e-12 0 0)
(-7.08764765e-12 0 0)
(-6.4937908e-12 0 0)
(-5.24489019e-12 0 0)
(-7.15886729e-12 0 0)
(-8.22260478e-12 0 0)
(-8.67574069e-12 0 0)
(-7.66322747e-12 0 0)
(-9.18839665e-12 0 0)
(-8.34599346e-12 0 0)
(-8.23394712e-12 0 0)
(-8.06855629e-12 0 0)
(-9.86349236e-12 0 0)
(-8.25807875e-12 0 0)
(-8.93595771e-12 0 0)
(-8.00486915e-12 0 0)
(-8.79249222e-12 0 0)
(-8.80569906e-12 0 0)
(-8.72840333e-12 0 0)
(-8.05732565e-12 0 0)
(-8.6124088e-12 0 0)
(-7.34138902e-12 0 0)
(-8.31473037e-12 0 0)
(-8.50702768e-12 0 0)
(-8.11081302e-12 0 0)
(-9.08280829e-12 0 0)
(-7.83837853e-12 0 0)
(-8.76199692e-12 0 0)
(-7.82418777e-12 0 0)
(-7.48362108e-12 0 0)
(-7.44638825e-12 0 0)
(-7.80601538e-12 0 0)
(-7.25310532e-12 0 0)
(-8.17899754e-12 0 0)
(-7.29792597e-12 0 0)
(-8.07252831e-12 0 0)
(-7.94673491e-12 0 0)
(-7.52321075e-12 0 0)
(-7.73961333e-12 0 0)
(-7.59743119e-12 0 0)
(-6.86059857e-12 0 0)
(-8.62445487e-12 0 0)
(-7.86572367e-12 0 0)
(-8.49936138e-12 0 0)
(-7.77663048e-12 0 0)
(-8.62891554e-12 0 0)
(-8.07343509e-12 0 0)
(-7.61627986e-12 0 0)
(-6.80611373e-12 0 0)
(-6.37219493e-12 0 0)
(-7.53776471e-12 0 0)
(-6.79964421e-12 0 0)
(-7.97172354e-12 0 0)
(-6.88850721e-12 0 0)
(-8.05529239e-12 0 0)
(-7.03696812e-12 0 0)
(-7.10410073e-12 0 0)
(-7.48364493e-12 0 0)
(-7.69465779e-12 0 0)
(-6.80926554e-12 0 0)
(-6.66146896e-12 0 0)
(-7.31457919e-12 0 0)
(-7.64471736e-12 0 0)
(-8.1241587e-12 0 0)
(-7.00257296e-12 0 0)
(-7.20502543e-12 0 0)
(-7.96585745e-12 0 0)
(-6.6094106e-12 0 0)
(-7.42757132e-12 0 0)
(-7.22128054e-12 0 0)
(-7.48507224e-12 0 0)
(-7.34100256e-12 0 0)
(-7.73648043e-12 0 0)
(-7.42049327e-12 0 0)
(-8.79195265e-12 0 0)
(-7.5485918e-12 0 0)
(-7.61850661e-12 0 0)
(-7.64095826e-12 0 0)
(-7.72402976e-12 0 0)
(-8.25282107e-12 0 0)
(-7.93579265e-12 0 0)
(-8.21223739e-12 0 0)
(-7.9841441e-12 0 0)
(-7.5850885e-12 0 0)
(-7.7229503e-12 0 0)
(-8.97288675e-12 0 0)
(-7.44444359e-12 0 0)
(-7.91629568e-12 0 0)
(-7.00834208e-12 0 0)
(-8.35492038e-12 0 0)
(-7.93852625e-12 0 0)
(-8.09020502e-12 0 0)
(-8.59131573e-12 0 0)
(-7.93498292e-12 0 0)
(-7.26299815e-12 0 0)
(-8.06463406e-12 0 0)
(-7.19602145e-12 0 0)
(-7.49347177e-12 0 0)
(-7.28411148e-12 0 0)
(-7.73108711e-12 0 0)
(-8.50903413e-12 0 0)
(-7.13346268e-12 0 0)
(-7.51170747e-12 0 0)
(-7.95163688e-12 0 0)
(-7.57367771e-12 0 0)
(-8.75605844e-12 0 0)
(-8.19447633e-12 0 0)
(-8.07285336e-12 0 0)
(-7.88078174e-12 0 0)
(-8.59327208e-12 0 0)
(-8.38008439e-12 0 0)
(-7.48850209e-12 0 0)
(-7.62582897e-12 0 0)
(-8.19911763e-12 0 0)
(-6.63649837e-12 0 0)
(-7.41896637e-12 0 0)
(-8.08957955e-12 0 0)
(-7.59103849e-12 0 0)
(-8.21597959e-12 0 0)
(-8.09316008e-12 0 0)
(-8.18106261e-12 0 0)
(-7.9214845e-12 0 0)
(-7.74689347e-12 0 0)
(-8.24044566e-12 0 0)
(-8.65621573e-12 0 0)
(-8.35685888e-12 0 0)
(-8.01358528e-12 0 0)
(-8.04940974e-12 0 0)
(-8.48693863e-12 0 0)
(-7.88411345e-12 0 0)
(-8.80989923e-12 0 0)
(-9.03610889e-12 0 0)
(-9.06976362e-12 0 0)
(-9.12625269e-12 0 0)
(-8.99778316e-12 0 0)
(-8.85191789e-12 0 0)
(-1.00021818e-11 0 0)
(-8.47910256e-12 0 0)
(-8.57103958e-12 0 0)
(-1.00045611e-11 0 0)
(-9.38305842e-12 0 0)
(-9.4794745e-12 0 0)
(-9.54771427e-12 0 0)
(-9.17961459e-12 0 0)
(-8.58726259e-12 0 0)
(-8.62978844e-12 0 0)
(-9.36531292e-12 0 0)
(-8.71009368e-12 0 0)
(-8.94779641e-12 0 0)
(-8.02449201e-12 0 0)
(-9.07492735e-12 0 0)
(-8.64052561e-12 0 0)
(-9.88142907e-12 0 0)
(-9.02561693e-12 0 0)
(-8.88180893e-12 0 0)
(-8.10271536e-12 0 0)
(-9.70947241e-12 0 0)
(-1.00857165e-11 0 0)
(-1.00074783e-11 0 0)
(-9.48969199e-12 0 0)
(-9.83273075e-12 0 0)
(-1.14305206e-11 0 0)
(-1.01063241e-11 0 0)