/*--------------------------------*- C++ -*----------------------------------*\
| =========                 |                                                 |
| \\      /  F ield         | OpenFOAM: The Open Source CFD Toolbox           |
|  \\    /   O peration     | Version:  2206                                  |
|   \\  /    A nd           | Website:  www.openfoam.com                      |
|    \\/     M anipulation  |                                                 |
\*---------------------------------------------------------------------------*/
FoamFile
{
    version     2.0;
    format      ascii;
    arch        "LSB;label=32;scalar=64";
    class       volScalarField;
    location    "6.8e-06";
    object      p;
}
// * * * * * * * * * * * * * * * * * * * * * * * * * * * * * * * * * * * * * //

dimensions      [1 -1 -2 0 0 0 0];

internalField   nonuniform List<scalar> 
3183
(
101325
101325
101325
101325
101325
101325
101325
101325
101325
101325
101325
101325
101325
101325
101325
101325
101325
101325
101325
101325
101325
101325
101325
101325
101325
101325
101325
101325
101325
101325
101325
101325
101325
101325
101325
101325
101325
101325
101325
101325
101325
101325
101325
101325
101325
101325
101325
101325
101325
101325
101325
101325
101325
101325
101325
101325
101325
101325
101325
101325
101325
101325
101325
101325
101325
101325
101325
101325
101325
101325
101325
101325
101325
101325
101325
101325
101325
101325
101325
101325
101325
101325
101325
101325
101325
101325
101325
101325
101325
101325
101325
101325
101325
101325
101325
101325
101325
101325
101325
101325
101325
101325
101325
101325
101325
101325
101325
101325
101325
101325
101325
101325
101325
101325
101325
101325
101325
101325
101325
101325
101325
101325
101325
101325
101325
101325
101325
101325
101325
101325
101325
101325
101325
101325
101325
101325
101325
101325
101325
101325
101325
101325
101325
101325
101325
101325
101325
101325
101325
101325
101325
101325
101325
101325
101325
101325
101325
101325
101325
101325
101325
101325
101325
101325
101325
101325
101325
101325
101325
101325
101325
101325
101325
101325
101325
101325
101325
101325
101325
101325
101325
101325
101325
101325
101325
101325
101325
101325
101325
101325
101325
101325
101325
101325
101325
101325
101325
101325
101325
101325
101325
101325
101325
101325
101325
101325
101325
101325
101325
101325
101325
101325
101325
101325
101325
101325
101325
101325
101325
101325
101325
101325
101325
101325
101325
101325
101325
101325
101325
101325
101325
101325
101325
101325
101325
101325
101325
101325
101325
101325
101325
101325
101325
101325
101325
101325
101325
101325
101325
101325
101325
101325
101325
101325
101325
101325
101325
101325
101325
101325
101325
101325
101325
101325
101325
101325
101325
101325
101325
101325
101325
101325
101325
101325
101325
101325
101325
101325
101325
101325
101325
101325
101325
101325
101325
101325
101325
101325
101325
101325
101325
101325
101325
101325
101325
101325
101325
101325
101325
101325
101325
101325
101325
101325
101325
101325
101325
101325
101325
101325
101325
101325
101325
101325
101325
101325
101325
101325
101325
101325
101325
101325
101325
101325
101325
101325
101325
101325
101325
101325
101325
101325
101325
101325
101325
101325
101325
101325
101325
101325
101325
101325
101325
101325
101325
101325
101325
101325
101325
101325
101325
101325
101325
101325
101325
101325
101325
101325
101325
101325
101325
101325
101325
101325
101325
101325
101325
101325
101325
101325
101325
101325
101325
101325
101325
101325
101325
101325
101325
101325
101325
101325
101325
101325
101325
101325
101325
101325
101325
101325
101325
101325
101325
101325
101325
101325
101325
101325
101325
101325
101325
101325
101325
101325
101325
101325
101325
101325
101325
101325
101325
101325
101325
101325
101325
101325
101325
101325
101325
101325
101325
101325
101325
101325
101325
101325
101325
101325
101325
101325
101325
101325
101325
101325
101325
101325
101325
101325
101325
101325
101325
101325
101325
101325
101325
101325
101325
101325
101325
101325
101325
101325
101325
101325
101325
101325
101325
101325
101325
101325
101325
101325
101325
101325
101325
101325
101325
101325
101325
101325
101325
101325
101325
101325
101325
101325
101325
101325
101325
101325
101325
101325
101325
101325
101325
101325
101325
101325
101325
101325
101325
101325
101325
101325
101325
101325
101325
101325
101325
101325
101325
101325
101325
101325
101325
101325
101325
101325
101325
101325
101325
101325
101325
101325
101325
101325
101325
101325
101325
101325
101325
101325
101325
101325
101325
101325
101325
101325
101325
101325
101325
101325
101325
101325
101325
101325
101325
101325
101325
101325
101325
101325
101325
101325
101325
101325
101325
101325
101325
101325
101325
101325
101325
101325
101325
101325
101325
101325
101325
101325
101325
101325
101325
101325
101325
101325
101325
101325
101325
101325
101325
101325
101325
101325
101325
101325
101325
101325
101325
101325
101325
101325
101325
101325
101325
101325
101325
101325
101325
101325
101325
101325
101325
101325
101325
101325
101325
101325
101325
101325
101325
101325
101325
101325
101325
101325
101325
101325
101325
101325
101325
101325
101325
101325
101325
101325
101325
101325
101325
101325
101325
101325
101325
101325
101325
101325
101325
101325
101325
101325
101325
101325
101325
101325
101325
101325
101325
101325
101325
101325
101325
101325
101325
101325
101325
101325
101325
101325
101325
101325
101325
101325
101325
101325
101325
101325
101325
101325
101325
101325
101325
101325
101325
101325
101325
101325
101325
101325
101325
101325
101325
101325
101325
101325
101325
101325
101325
101325
101325
101325
101325
101325
101325
101325
101325
101325
101325
101325
101325
101325
101325
101325
101325
101325
101325
101325
101325
101325
101325
101325
101325
101325
101325
101325
101325
101325
101325
101325
101325
101325
101325
101325
101325
101325
101325
101325
101325
101325
101325
101325
101325
101325
101325
101325
101325
101325
101325
101325
101325
101325
101325
101325
101325
101325
101325
101325
101325
101325
101325
101325
101325
101325
101325
101325
101325
101325
101325
101325
101325
101325
101325
101325
101325
101325
101325
101325
101325
101325
101325
101325
101325
101325
101325
101325
101325
101325
101325
101325
101325
101325
101325
101325
101325
101325
101325
101325
101325
101325
101325
101325
101325
101325
101325
101325
101325
101325
101325
101325
101325
101325
101325
101325
101325
101325
101325
101325
101325
101325
101325
101325
101325
101325
101325
101325
101325
101325
101325
101325
101325
101325
101325
101325
101325
101325
101325
101325
101325
101325
101325
101325
101325
101325
101325
101325
101325
101325
101325
101325
101325
101325
101325
101325
101325
101325
101325
101325
101325
101325
101325
101325
101325
101325
101325
101325
101325
101325
101325
101325
101325
101325
101325
101325
101325
101325
101325
101325
101325
101325
101325
101325
101325
101325
101325
101325
101325
101325
101325
101325
101325
101325
101325
101325
101325
101325
101325
101325
101325
101325
101325
101325
101325
101325
101325
101325
101325
101325
101325
101325
101325
101325
101325
101325
101325
101325
101325
101325
101325
101325
101325
101325
101325
101325
101325
101325
101325
101325
101325
101325
101325
101325
101325
101325
101325
101325
101325
101325
101325
101325
101325
101325
101325
101325
101325
101325
101325
101325
101325
101325
101325
101325
101325
101325
101325
101325
101325
101325
101325
101325
101325
101325
101325
101325
101325
101325
101325
101325
101325
101325
101325
101325
101325
101325
101325
101325
101325
101325
101325
101325
101325
101325
101325
101325
101325
101325
101325
101325
101325
101325
101325
101325
101325
101325
101325
101325
101325
101325
101325
101325
101325
101325
101325
101325
101325
101325
101325
101325
101325
101325
101325
101325
101325
101325
101325
101325
101325
101325
101325
101325
101325
101325
101325
101325
101325
101325
101325
101325
101325
101325
101325
101325
101325
101325
101325
101325
101325
101325
101325
101325
101325
101325
101325
101325
101325
101325
101325
101325
101325
101325
101325
101325
101325
101325
101325
101325
101325
101325
101325
101325
101325
101325
101325
101325
101325
101325
101325
101325
101325
101325
101325
101325
101325
101325
101325
101325
101325
101325
101325
101325
101325
101325
101325
101325
101325
101325
101325
101325
101325
101325
101325
101325
101325
101325
101325
101325
101325
101325
101325
101325
101325
101325
101325
101325
101325
101325
101325
101325
101325
101325
101325
101325
101325
101325
101325
101325
101325
101325
101325
101325
101325
101325
101325
101325
101325
101325
101325
101325
101325
101325
101325
101325
101325
101325
101325
101325
101325
101325
101325
101325
101325
101325
101325
101325
101325
101325
101325
101325
101325
101325
101325
101325
101325
101325
101325
101325
101325
101325
101325
101325
101325
101325
101325
101325
101325
101325
101325
101325
101325
101325
101325
101325
101325
101325
101325
101325
101325
101325
101325
101325
101325
101325
101325
101325
101325
101325
101325
101325
101325
101325
101325
101325
101325
101325
101325
101325
101325
101325
101325
101325
101325
101325
101325
101325
101325
101325
101325
101325
101325
101325
101325
101325
101325
101325
101325
101325
101325
101325
101325
101325
101325
101325
101325
101325
101325
101325
101325
101325
101325
101325
101325
101325
101325
101325
101325
101325
101325
101325
101325
101325
101325
101325
101325
101325
101325
101325
101325
101325
101325
101325
101325
101325
101325
101325
101325
101325
101325
101325
101325
101325
101325
101325
101325
101325
101325
101325
101325
101325
101325
101325
101325
101325
101325
101325
101325
101325
101325
101325
101325
101325
101325
101325
101325
101325
101325
101325
101325
101325
101325
101325
101325
101325
101325
101325
101325
101325
101325
101325
101325
101325
101325
101325
101325
101325
101325
101325
101325
101325
101325
101325
101325
101325
101325
101325
101325
101325
101325
101325
101325
101325
101325
101325
101325
101325
101325
101325
101325
101325
101325
101325
101325
101325
101325
101325
101325
101325
101325
101325
101325
101325
101325
101325
101325
101325
101325
101325
101325
101325
101325
101325
101325
101325
101325
101325
101325
101325
101325
101325
101325
101325
101325
101325
101325
101325
101325
101325
101325
101325
101325
101325
101325
101325
101325
101325
101325
101325
101325
101325
101325
101325
101325
101325
101325
101325
101325
101325
101325
101325
101325
101325
101325
101325
101325
101325
101325
101325
101325
101325
101325
101325
101325
101325
101325
101325
101325
101325
101325
101325
101325
101325
101325
101325
101325
101325
101325
101325
101325
101325
101325
101325
101325
101325
101325
101325
101325
101325
101325
101325
101325
101325
101325
101325
101325
101325
101325
101325
101325
101325
101325
101325
101325
101325
101325
101325
101325
101325
101325
101325
101325
101325
101325
101325
101325
101325
101325
101325
101325
101325
101325
101325
101325
101325
101325
101325
101325
101325
101325
101325
101325
101325
101325
101325
101325
101325
101325
101325
101325
101325
101325
101325
101325
101325
101325
101325
101325
101325
101325
101325
101325
101325
101325
101325
101325
101325
101325
101325
101325
101325
101325
101325
101325
101325
101325
101325
101325
101325
101325
101325
101325
101325
101325
101325
101325
101325
101325
101325
101325
101325
101325
101325
101325
101325
101325
101325
101325
101325
101325
101325
101325
101325
101325
101325
101325
101325
101325
101325
101325
101325
101325
101325
101325
101325
101325
101325
101325
101325
101325
101325
101325
101325
101325
101325
101325
101325
101325
101325
101325
101325
101325
101325
101325
101325
101325
101325
101325
101325
101325
101325
101325
101325
101325
101325
101325
101325
101325
101325
101325
101325
101325
101325
101325
101325
101325
101325
101325
101325
101325
101325
101325
101325
101325
101325
101325
101325
101325
101325
101325
101325
101325
101325
101325
101325
101325
101325
101325
101325
101325
101325
101325
101325
101325
101325
101325
101325
101325
101325
101325
101325
101325
101325
101325
101325
101325
101325
101325
101325
101325
101325
101325
101325
101325
101325
101325
101325
101325
101325
101325
101325
101325
101325
101325
101325
101325
101325
101325
101325
101325
101325
101325
101325
101325
101325
101325
101325
101325
101325
101325
101325
101325
101325
101325
101325
101325
101325
101325
101325
101325
101325
101325
101325
101325
101325
101325
101325
101325
101325
101325
101325
101325
101325
101325
101325
101325
101325
101325
101325
101325
101325
101325
101325
101325
101325
101325
101325
101325
101325
101325
101325
101325
101325
101325
101325
101325
101325
101325
101325
101325
101325
101325
101325
101325
101325
101325
101325
101325
101325
101325
101325
101325
101325
101325
101325
101325
101325
101325
101325
101325
101325
101325
101325
101325
101325
101325
101325
101325
101325
101325
101325
101325
101325
101325
101325
101325
101325
101325
101325
101325
101325
101325
101325
101325
101325
101325
101325
101325
101325
101325
101325
101325
101325
101325
101325
101325
101325
101325
101325
101325
101325
101325
101325
101325
101325
101325
101325
101325
101325
101325
101325
101325
101325
101325
101325
101325
101325
101325
101325
101325
101325
101325
101325
101325
101325
101325
101325
101325
101325
101325
101325
101325
101325
101325
101325
101325
101325
101325
101325
101325
101325
101325
101325
101325
101325
101325
101325
101325
101325
101325
101325
101325
101325
101325
101325
101325
101325
101325
101325
101325
101325
101325
101325
101325
101325
101325
101325
101325
101325
101325
101325
101325
101325
101325
101325
101325
101325
101325
101325
101325
101325
101325
101325
101325
101325
101325
101325
101325
101325
101325
101325
101325
101325
101325
101325
101325
101325
101325
101325
101325
101325
101325
101325
101325
101325
101325
101325
101325
101325
101325
101325
101325
101325
101325
101325
101325
101325
101325
101325
101325
101325
101325
101325
101325
101325
101325
101325
101325
101325
101325
101325
101325
101325
101325
101325
101325
101325
101325
101325
101325
101325
101325
101325
101325
101325
101325
101325
101325
101325
101325
101325
101325
101325
101325
101325
101325
101325
101325
101325
101325
101325
101325
101325
101325
101325
101325
101325
101325
101325
101325
101325
101325
101325
101325
101325
101325
101325
101325
101325
101325
101325
101325
101325
101325
101325
101325
101325
101325
101325
101325
101325
101325
101325
101325
101325
101325
101325
101325
101325
101325
101325
101325
101325
101325
101325
101325
101325
101325
101325
101325
101325
101325
101325
101325
101325
101325
101325
101325
101325
101325
101325
101325
101325
101325
101325
101325
101325
101325
101325
101325
101325
101325
101325
101325
101325
101325
101325
101325
101325
101325
101325
101325
101325
101325
101325
101325
101325
101325
101325
101325
101325
101325
101325
101325
101325
101325
101325
101325
101325
101325
101325
101325
101325
101325
101325
101325
101325
101325
101325
101325
101325
101325
101325
101325
101325
101325
101325
101325
101325
101325
101325
101325
101325
101325
101325
101325
101325
101325
101325
101325
101325
101325
101325
101325
101325
101325
101325
101325
101325
101325
101325
101325
101325
101325
101325
101325
101325
101325
101325
101325
101325
101325
101325
101325
101325
101325
101325
101325
101325
101325
101325
101325
101325
101325
101325
101325
101325
101325
101325
101325
101325
101325
101325
101325
101325
101325
101325
101325
101325
101325
101325
101325
101325
101325
101325
101325
101325
101325
101325
101325
101325
101325
101325
101325
101325
101325
101325
101325
101325
101325
101325
101325
101325
101325
101325
101325
101325
101325
101325
101325
101325
101325
101325
101325
101325
101325
101325
101325
101325
101325
101325
101325
101325
101325
101325
101325
101325
101325
101325
101325
101325
101325
101325
101325
101325
101325
101325
101325
101325
101325
101325
101325
101325
101325
101325
101325
101325
101325
101325
101325
101325
101325
101325
101325
101325
101325
101325
101325
101325
101325
101325
101325
101325
101325
101325
101325
101325
101325
101325
101325
101325
101325
101325
101325
101325
101325
101325
101325
101325
101325
101325
101325
101325
101325
101325
101325
101324.999
101324.999
101324.999
101324.999
101324.999
101324.999
101324.999
101324.999
101324.999
101324.999
101324.999
101324.999
101324.999
101324.999
101324.998
101324.998
101324.998
101324.998
101324.998
101324.998
101324.997
101324.997
101324.997
101324.997
101324.997
101324.996
101324.996
101324.996
101324.995
101324.995
101324.994
101324.994
101324.994
101324.993
101324.993
101324.992
101324.991
101324.991
101324.99
101324.989
101324.988
101324.987
101324.987
101324.986
101324.984
101324.983
101324.982
101324.981
101324.979
101324.978
101324.976
101324.974
101324.972
101324.97
101324.968
101324.966
101324.963
101324.961
101324.958
101324.955
101324.952
101324.948
101324.944
101324.941
101324.936
101324.932
101324.927
101324.922
101324.917
101324.911
101324.905
101324.898
101324.891
101324.884
101324.876
101324.868
101324.859
101324.849
101324.839
101324.829
101324.817
101324.805
101324.793
101324.779
101324.765
101324.75
101324.734
101324.717
101324.699
101324.68
101324.659
101324.638
101324.615
101324.592
101324.566
101324.54
101324.512
101324.482
101324.451
101324.418
101324.383
101324.346
101324.308
101324.267
101324.224
101324.179
101324.131
101324.082
101324.029
101323.974
101323.916
101323.855
101323.792
101323.725
101323.654
101323.581
101323.504
101323.423
101323.338
101323.25
101323.157
101323.06
101322.959
101322.854
101322.743
101322.628
101322.508
101322.382
101322.252
101322.116
101321.974
101321.826
101321.672
101321.513
101321.347
101321.174
101320.995
101320.809
101320.616
101320.416
101320.209
101319.994
101319.772
101319.542
101319.304
101319.058
101318.804
101318.542
101318.271
101317.992
101317.704
101317.408
101317.103
101316.789
101316.466
101316.134
101315.793
101315.443
101315.084
101314.716
101314.339
101313.953
101313.559
101313.155
101312.742
101312.321
101311.891
101311.453
101311.007
101310.552
101310.089
101309.619
101309.141
101308.656
101308.165
101307.666
101307.162
101306.651
101306.135
101305.613
101305.087
101304.557
101304.022
101303.485
101302.944
101302.401
101301.857
101301.311
101300.764
101300.218
101299.672
101299.127
101298.584
101298.043
101297.505
101296.972
101296.443
101295.919
101295.401
101294.889
101294.385
101293.889
101293.402
101292.924
101292.457
101292
101291.555
101291.122
101290.702
101290.295
101289.903
101289.525
101289.163
101288.816
101288.486
101288.173
101287.877
101287.6
101287.34
101287.1
101286.878
101286.676
101286.493
101286.33
101286.188
101286.065
101285.963
101285.881
101285.82
101285.779
101285.758
101285.757
101285.777
101285.816
101285.875
101285.953
101286.051
101286.166
101286.3
101286.452
101286.621
101286.807
101287.009
101287.227
101287.46
101287.707
101287.967
101288.241
101288.527
101288.824
101289.133
101289.451
101289.778
101290.114
101290.458
101290.808
101291.164
101291.526
101291.892
101292.262
101292.635
101293.009
101293.385
101293.762
101294.139
101294.514
101294.888
101295.26
101295.629
101295.994
101296.356
101296.712
101297.063
101297.409
101297.748
101298.081
101298.407
101298.725
101299.035
101299.337
101299.63
101299.915
101300.191
101300.458
101300.716
101300.964
101301.202
101301.432
101301.651
101301.861
101302.062
101302.253
101302.435
101302.608
101302.772
101302.928
101303.075
101303.213
101303.344
101303.467
101303.583
101303.693
101303.795
101303.892
101303.983
101304.068
101304.149
101304.225
101304.298
101304.367
101304.433
101304.497
101304.559
101304.619
101304.678
101304.737
101304.795
101304.853
101304.912
101304.971
101305.032
101305.094
101305.158
101305.223
101305.291
101305.36
101305.432
101305.506
101305.583
101305.661
101305.742
101305.824
101305.908
101305.993
101306.079
101306.166
101306.253
101306.339
101306.425
101306.51
101306.593
101306.673
101306.75
101306.824
101306.894
101306.959
101307.018
101307.072
101307.119
101307.159
101307.191
101307.216
101307.232
101307.239
101307.238
101307.227
101307.207
101307.178
101307.14
101307.092
101307.036
101306.971
101306.899
101306.819
101306.732
101306.639
101306.541
101306.439
101306.334
101306.227
101306.119
101306.012
101305.908
101305.807
101305.712
101305.624
101305.545
101305.476
101305.421
101305.379
101305.354
101305.346
101305.359
101305.392
101305.449
101305.531
101305.638
101305.773
101305.935
101306.126
101306.346
101306.595
101306.872
101307.176
101307.506
101307.858
101308.231
101308.62
101309.019
101309.423
101309.824
101310.213
101310.578
101310.907
101311.186
101311.399
101311.531
101311.566
101311.493
101311.306
101310.998
101310.588
101310.507
101310.505
101310.735
101309.784
101310.06
101310.491
101311.045
101311.338
101311.703
101311.926
101312.092
101312.18
101312.217
101312.2
101312.138
101312.034
101311.894
101311.722
101311.523
101311.302
101311.064
101310.813
101310.553
101310.286
101310.016
101309.746
101309.477
101309.211
101308.95
101308.694
101308.445
101308.204
101307.971
101307.746
101307.53
101307.324
101307.127
101306.939
101306.762
101306.593
101306.435
101306.286
101306.147
101306.017
101305.896
101305.785
101305.683
101305.589
101305.504
101305.428
101305.359
101305.299
101305.246
101305.201
101305.163
101305.131
101305.107
101305.088
101305.076
101305.069
101305.068
101305.072
101305.081
101305.095
101305.113
101305.135
101305.16
101305.19
101305.222
101305.258
101305.296
101305.337
101305.379
101305.424
101305.471
101305.519
101305.569
101305.62
101305.671
101305.724
101305.777
101305.83
101305.883
101305.937
101305.99
101306.043
101306.095
101306.147
101306.198
101306.248
101306.297
101306.344
101306.391
101306.436
101306.48
101306.522
101306.562
101306.601
101306.637
101306.672
101306.705
101306.736
101306.764
101306.791
101306.815
101306.837
101306.857
101306.874
101306.89
101306.903
101306.913
101306.921
101306.927
101306.931
101306.932
101306.931
101306.928
101306.922
101306.915
101306.905
101306.893
101306.879
101306.863
101306.845
101306.825
101306.803
101306.779
101306.754
101306.727
101306.698
101306.668
101306.636
101306.603
101306.569
101306.533
101306.497
101306.459
101306.42
101306.38
101306.34
101306.298
101306.256
101306.213
101306.17
101306.126
101306.082
101306.037
101305.993
101305.947
101305.902
101305.857
101305.812
101305.766
101305.721
101305.676
101305.631
101305.587
101305.542
101305.499
101305.455
101305.412
101305.369
101305.327
101305.285
101305.244
101305.203
101305.163
101305.123
101305.084
101305.046
101305.008
101304.971
101304.934
101304.898
101304.862
101304.828
101304.793
101304.76
101304.726
101304.693
101304.661
101304.629
101304.597
101304.566
101304.535
101304.505
101304.475
101304.445
101304.415
101304.386
101304.357
101304.328
101304.299
101304.269
101304.24
101304.211
101304.181
101304.152
101304.122
101304.091
101304.061
101304.03
101303.998
101303.966
101303.933
101303.9
101303.866
101303.831
101303.795
101303.759
101303.721
101303.683
101303.643
101303.602
101303.561
101303.518
101303.474
101303.428
101303.381
101303.333
101303.283
101303.232
101303.179
101303.124
101303.068
101303.011
101302.951
101302.89
101302.826
101302.761
101302.694
101302.625
101302.555
101302.482
101302.407
101302.33
101302.25
101302.169
101302.085
101302
101301.912
101301.821
101301.729
101301.634
101301.537
101301.437
101301.336
101301.231
101301.125
101301.016
101300.904
101300.791
101300.674
101300.556
101300.435
101300.311
101300.185
101300.057
101299.926
101299.793
101299.658
101299.52
101299.379
101299.237
101299.092
101298.945
101298.795
101298.643
101298.489
101298.333
101298.175
101298.014
101297.852
101297.687
101297.52
101297.351
101297.18
101297.008
101296.833
101296.657
101296.479
101296.299
101296.118
101295.935
101295.75
101295.564
101295.377
101295.188
101294.998
101294.806
101294.614
101294.42
101294.226
101294.031
101293.834
101293.637
101293.44
101293.242
101293.043
101292.844
101292.644
101292.445
101292.245
101292.045
101291.845
101291.645
101291.446
101291.247
101291.048
101290.85
101290.653
101290.456
101290.26
101290.065
101289.872
101289.679
101289.488
101289.298
101289.109
101288.922
101288.737
101288.553
101288.372
101288.192
101288.015
101287.84
101287.667
101287.497
101287.329
101287.164
101287.001
101286.842
101286.685
101286.532
101286.381
101286.234
101286.09
101285.95
101285.813
101285.68
101285.551
101285.425
101285.304
101285.186
101285.073
101284.963
101284.858
101284.757
101284.661
101284.569
101284.482
101284.399
101284.321
101284.248
101284.179
101284.116
101284.057
101284.004
101283.955
101283.911
101283.873
101283.84
101283.812
101283.789
101283.772
101283.759
101283.753
101283.751
101283.755
101283.764
101283.779
101283.8
101283.825
101283.856
101283.893
101283.935
101283.983
101284.036
101284.094
101284.158
101284.227
101284.302
101284.382
101284.468
101284.558
101284.654
101284.756
101284.862
101284.974
101285.091
101285.213
101285.341
101285.473
101285.61
101285.752
101285.899
101286.051
101286.208
101286.369
101286.535
101286.706
101286.881
101287.06
101287.244
101287.432
101287.624
101287.821
101288.021
101288.226
101288.434
101288.646
101288.862
101289.082
101289.305
101289.532
101289.762
101289.995
101290.231
101290.471
101290.714
101290.959
101291.208
101291.459
101291.713
101291.969
101292.228
101292.489
101292.752
101293.018
101293.285
101293.555
101293.826
101294.1
101294.375
101294.651
101294.929
101295.209
101295.489
101295.771
101296.055
101296.339
101296.624
101296.91
101297.196
101297.484
101297.771
101298.06
101298.349
101298.638
101298.927
101299.216
101299.506
101299.795
101300.085
101300.374
101300.663
101300.952
101301.24
101301.527
101301.815
101302.101
101302.387
101302.672
101302.956
101303.239
101303.521
101303.803
101304.083
101304.362
101304.64
101304.916
101305.191
101305.465
101305.737
101306.008
101306.277
101306.545
101306.811
101307.075
101307.338
101307.598
101307.857
101308.114
101308.37
101308.623
101308.874
101309.124
101309.371
101309.616
101309.86
101310.101
101310.34
101310.577
101310.811
101311.044
101311.274
101311.503
101311.729
101311.952
101312.174
101312.393
101312.611
101312.825
101313.046
101313.278
101313.524
101313.784
101314.057
101314.345
101314.648
101314.965
101315.298
101315.646
101316.009
101316.387
101316.779
101317.184
101317.601
101318.029
101318.467
101318.912
101319.363
101319.816
101320.268
101320.717
101321.159
101321.589
101322.005
101322.402
101322.777
101323.126
101323.446
101323.734
101323.99
101324.211
101324.399
101324.554
101324.678
101324.776
101324.849
101324.902
101324.94
101324.964
101324.98
101324.989
101324.995
101324.998
101324.999
101325
101325
101325
101325
101325
101325
101325
101325
101325
101325
101325
101325
101325
101325
101325
101325
101325
101325
101325
101325
101325
101325
101325
101325
101325
101325
101325
101325
101325
101325
101325
101325
)
;

boundaryField
{
    closed
    {
        type            zeroGradient;
    }
    open
    {
        type            waveTransmissive;
        gamma           1.25;
        fieldInf        101325;
        lInf            1;
        value           uniform 101325;
    }
    sides
    {
        type            empty;
    }
}


// ************************************************************************* //
