/*--------------------------------*- C++ -*----------------------------------*\
| =========                 |                                                 |
| \\      /  F ield         | OpenFOAM: The Open Source CFD Toolbox           |
|  \\    /   O peration     | Version:  2206                                  |
|   \\  /    A nd           | Website:  www.openfoam.com                      |
|    \\/     M anipulation  |                                                 |
\*---------------------------------------------------------------------------*/
FoamFile
{
    version     2.0;
    format      ascii;
    arch        "LSB;label=32;scalar=64";
    class       volScalarField;
    location    "6.8e-06";
    object      sourcePV;
}
// * * * * * * * * * * * * * * * * * * * * * * * * * * * * * * * * * * * * * //

dimensions      [1 -3 -1 0 0 0 0];

internalField   nonuniform List<scalar> 
3183
(
0
0
0
0
0
0
0
0
0
0
0
0
0
0
0
0
0
0
0
0
0
0
0
0
0
0
0
0
0
0
0
0
0
0
0
0
0
0
0
0
0
0
0
0
0
0
0
0
0
0
0
0
0
0
0
0
0
0
0
0
0
0
0
0
0
0
0
0
0
0
0
0
0
0
0
0
0
0
0
0
0
0
0
0
0
0
0
0
0
0
0
0
0
0
0
0
0
0
0
0
0
0
0
0
0
0
0
0
0
0
0
0
0
0
0
0
0
0
0
0
0
0
0
0
0
0
0
0
0
0
0
0
0
0
0
0
0
0
0
0
0
0
0
0
0
0
0
0
0
0
0
0
0
0
0
0
0
0
0
0
0
0
0
0
0
0
0
0
0
0
0
0
0
0
0
0
0
0
0
0
0
0
0
0
0
0
0
0
0
0
0
0
0
0
0
0
0
0
0
0
0
0
0
0
0
0
0
0
0
0
0
0
0
0
0
0
0
0
0
0
0
0
0
0
0
0
0
0
0
0
0
0
0
0
0
0
0
0
0
0
0
0
0
0
0
0
0
0
0
0
0
0
0
0
0
0
0
0
0
0
0
0
0
0
0
0
0
0
0
0
0
0
0
0
0
0
0
0
0
0
0
0
0
0
0
0
0
0
0
0
0
0
0
0
0
0
0
0
0
0
0
0
0
0
0
0
0
0
0
0
0
0
0
0
0
0
0
0
0
0
0
0
0
0
0
0
0
0
0
0
0
0
0
0
0
0
0
0
0
0
0
0
0
0
0
0
0
0
0
0
0
0
0
0
0
0
0
0
0
0
0
0
0
0
0
0
0
0
0
0
0
0
0
0
0
0
0
0
0
0
0
0
0
0
0
0
0
0
0
0
0
0
0
0
0
0
0
0
0
0
0
0
0
0
0
0
0
0
0
0
0
0
0
0
0
0
0
0
0
0
0
0
0
0
0
0
0
0
0
0
0
0
0
0
0
0
0
0
0
0
0
0
0
0
0
0
0
0
0
0
0
0
0
0
0
0
0
0
0
0
0
0
0
0
0
0
0
0
0
0
0
0
0
0
0
0
0
0
0
0
0
0
0
0
0
0
0
0
0
0
0
0
0
0
0
0
0
0
0
0
0
0
0
0
0
0
0
0
0
0
0
0
0
0
0
0
0
0
0
0
0
0
0
0
0
0
0
0
0
0
0
0
0
0
0
0
0
0
0
0
0
0
0
0
0
0
0
0
0
0
0
0
0
0
0
0
0
0
0
0
0
0
0
0
0
0
0
0
0
0
0
0
0
0
0
0
0
0
0
0
0
0
0
0
0
0
0
0
0
0
0
0
0
0
0
0
0
0
0
0
0
0
0
0
0
0
0
0
0
0
0
0
0
0
0
0
0
0
0
0
0
0
0
0
0
0
0
0
0
0
0
0
0
0
0
0
0
0
0
0
0
0
0
0
0
0
0
0
0
0
0
0
0
0
0
0
0
0
0
0
0
0
0
0
0
0
0
0
0
0
0
0
0
0
0
0
0
0
0
0
0
0
0
0
0
0
0
0
0
0
0
0
0
0
0
0
0
0
0
0
0
0
0
0
0
0
0
0
0
0
0
0
0
0
0
0
0
0
0
0
0
0
0
0
0
0
0
0
0
0
0
0
0
0
0
0
0
0
0
0
0
0
0
0
0
0
0
0
0
0
0
0
0
0
0
0
0
0
0
0
0
0
0
0
0
0
0
0
0
0
0
0
0
0
0
0
0
0
0
0
0
0
0
0
0
0
0
0
0
0
0
0
0
0
0
0
0
0
0
0
0
0
0
0
0
0
0
0
0
0
0
0
0
0
0
0
0
0
0
0
0
0
0
0
0
0
0
0
0
0
0
0
0
0
0
0
0
0
0
0
0
0
0
0
0
0
0
0
0
0
0
0
0
0
0
0
0
0
0
0
0
0
0
0
0
0
0
0
0
0
0
0
0
0
0
0
0
0
0
0
0
0
0
0
0
0
0
0
0
0
0
0
0
0
0
0
0
0
0
0
0
0
0
0
0
0
0
0
0
0
0
0
0
0
0
0
0
0
0
0
0
0
0
0
0
0
0
0
0
0
0
0
0
0
0
0
0
0
0
0
0
0
0
0
0
0
0
0
0
0
0
0
0
0
0
0
0
0
0
0
0
0
0
0
0
0
0
0
0
0
0
0
0
0
0
0
0
0
0
0
0
0
0
0
0
0
0
0
0
0
0
0
0
0
0
0
0
0
0
0
0
0
0
0
0
0
0
0
0
0
0
0
0
0
0
0
0
0
0
0
0
0
0
0
0
0
0
0
0
0
0
0
0
0
0
0
0
0
0
0
0
0
0
0
0
0
0
0
0
0
0
0
0
0
0
0
0
0
0
0
0
0
0
0
0
0
0
0
0
0
0
0
0
0
0
0
0
0
0
0
0
0
0
0
0
0
0
0
0
0
0
0
0
0
0
0
0
0
0
0
0
0
0
0
0
0
0
0
0
0
0
0
0
0
0
0
0
0
0
0
0
0
0
0
0
0
0
0
0
0
0
0
0
0
0
0
0
0
0
0
0
0
0
0
0
0
0
0
0
0
0
0
0
0
0
0
0
0
0
0
0
0
0
0
0
0
0
0
0
0
0
0
0
0
0
0
0
0
0
0
0
0
0
0
0
0
0
0
0
0
0
0
0
0
0
0
0
0
0
0
0
0
0
0
0
0
0
0
0
0
0
0
0
0
0
0
0
0
0
0
0
0
0
0
0
0
0
0
0
0
0
0
0
0
0
0
0
0
0
0
0
0
0
0
0
0
0
0
0
0
0
0
0
0
0
0
0
0
0
0
0
0
0
0
0
0
0
0
0
0
0
0
0
0
0
0
0
0
0
0
0
0
0
0
0
0
0
0
0
0
0
0
0
0
0
0
0
0
0
0
0
0
0
0
0
0
0
0
0
0
0
0
0
0
0
0
0
0
0
0
0
0
0
0
0
0
0
0
0
0
0
0
0
0
0
0
0
0
0
0
0
0
0
0
0
0
0
0
0
0
0
0
0
0
0
0
0
0
0
0
0
0
0
0
0
0
0
0
0
0
0
0
0
0
0
0
0
0
0
0
0
0
0
0
0
0
0
0
0
0
0
0
0
0
0
0
0
0
0
0
0
0
0
0
0
0
0
0
0
0
0
0
0
0
0
0
0
0
0
0
0
0
0
0
0
0
0
0
0
0
0
0
0
0
0
0
0
0
0
0
0
0
0
0
0
0
0
0
0
0
0
0
0
0
0
0
0
0
0
0
0
0
0
0
0
0
0
0
0
0
0
0
0
0
0
0
0
0
0
0
0
0
0
0
0
0
0
0
0
0
0
0
0
0
0
0
0
0
0
0
0
0
0
0
0
0
0
0
0
0
0
0
0
0
0
0
0
0
0
0
0
0
0
0
0
0
0
0
0
0
0
0
0
0
0
0
0
0
0
0
0
0
0
0
0
0
0
0
0
0
0
0
0
0
0
0
0
0
0
0
0
0
0
0
0
0
0
0
0
0
0
0
0
0
0
0
0
0
0
0
0
0
0
0
0
0
0
0
0
0
0
0
0
0
0
0
0
0
0
0
0
0
0
0
0
0
0
0
0
0
0
0
0
0
0
0
0
0
0
0
0
0
0
0
0
0
0
0
0
0
0
0
0
0
0
0
0
0
0
0
0
0
0
0
0
0
0
0
0
0
0
0
0
0
0
0
0
0
0
0
0
0
0
0
0
0
0
0
0
0
0
0
0
0
0
0
0
0
0
0
0
0
0
0
0
0
0
0
0
0
0
0
0
0
0
0
0
0
0
0
0
0
0
0
0
0
0
0
0
0
0
0
0
0
0
0
0
0
0
0
0
0
0
0
0
0
0
0
0
0
0
0
0
0
0
0
0
0
0
0
0
0
0
0
0
0
0
0
0
0
0
0
0
0
0
0
0
0
0
0
0
0
0
0
0
0
0
0
0
0
0
0
0
0
0
0
0
0
0
0
0
0
0
0
0
0
0
0
0
0
0
0
0
0
0
0
0
0
0
0
0
0
0
0
0
0
0
0
0
0
0
0
0
0
0
0
0
0
0
0
0
0
0
0
0
0
0
0
0
0
0
0
0
0
0
0
0
0
0
0
0
0
0
0
0
0
0
0
0
0
0
0
0
0
0
0
0
0
0
0
0
0
0
0
0
0
0
0
0
0
0
0
0
0
0
0
0
0
0
0
0
0
0
0
0
0
0
0
0
0
0
0
0
0
0
0
0
0
0
0
0
0
0
0
0
0
0
0
0
0
0
0
0
0
0
0
0
0
0
0
0
0
0
0
0
0
0
0
0
0
0
0
0
0
0
0
0
0
0
0
0
0
0
0
0
0
0
0
0
0
0
0
0
0
0
0
0
0
0
0
0
0
0
0
0
0
0
0
0
0
0
0
0
0
0
0
0
0
0
0
0
0
0
0
0
0
0
0
0
0
0
0
0
0
0
0
0
0
0
0
0
0
0
0
0
0
0
0
0
0
0
0
0
0
0
0
0
0
0
0
0
0
0
0
0
0
0
0
0
0
0
0
0
0
0
0
0
0
0
0
0
0
0
0
0
0
0
0
0
0
0
0
0
0
0
0
0
0
0
0
0
0
0
0
0
0
0
0
0
0
0
0
0
0
0
0
0
0
0
0
0
0
0
0
0
0
0
0
0
0
0
0
0
0
0
0
0
0
0
0
0
0
0
0
0
0
0
0
0
0
0
0
0
0
0
0
0
0
0
0
0
0
0
0
0
0
0
0
0
0
0
0
0
0
0
0
0
0
0
0
0
0
0
0
0
0
0
0
0
0
0
0
0
0
0
0
0
0
0
0
0
0
0
0
0
0
0
0
0
0
0
0
0
0
0
0
0
0
0
0
0
0
0
0
0
0
0
0
0
0
0
0
0
0
0
0
0
0
0
0
0
0
0
0
0
0
0
0
0
0
0
0
0
0
0
0
0
0
0
0
0
0
0
0
0
0
0
0
0
0
0
0
0
0
0
0
0
0
0
0
0
0
0
0
0
0
0
0
0
0
0
0
0
0
0
0
0
0
0
0
0
0
0
0
0
0
0
0
0
0
0
0
0
0
0
0
0
0
0
0
0
0
0
0
0
0
0
0
0
0
0
0
0
0
0
0
0
0
0
0
0
0
0
0
0
0
0
0
0
0
0
0
0
0
0
0
0
0
0
0
0
0
0
0
0
0
0
0
0
0
0
0
0
0
0
0
0
0
0
0
0
0
0
0
0
0
0
0
0
0
0
0
0
0
0
0
0
0
0
0
0
0
0
0
0
0
0
0
0
0
0
0
0
0
0
0
0
0
0
0
0
0
0
0
0
0
0
0
0
0
0
0
0
0
0
0
0
0
0
4.11765978e-295
0
1.44125205e-289
0
2.61561602e-285
0
2.4882565e-281
0
1.63193412e-277
0
8.268527e-274
0
3.44383447e-270
0
1.22578277e-266
0
3.82838405e-263
0
1.06933317e-259
0
2.70965722e-256
0
6.29846545e-253
0
1.35489287e-249
0
2.71666232e-246
0
5.1073551e-243
0
9.04770672e-240
0
1.51665966e-236
0
2.41439674e-233
0
3.66143948e-230
0
5.30390398e-227
0
7.35653509e-224
0
9.79031792e-221
0
1.25249288e-217
0
1.54287259e-214
0
1.83276555e-211
0
2.10225787e-208
0
2.33125758e-205
0
2.50202993e-202
0
2.60148389e-199
0
2.62280067e-196
0
2.56613175e-193
0
2.43828637e-190
0
2.2515253e-187
0
2.02173382e-184
0
1.76632878e-181
4.06108258e-183
1.50225521e-178
7.14742361e-180
1.24435769e-175
8.81194556e-177
1.00429876e-172
9.32483653e-174
7.90072763e-170
8.99195596e-171
6.06055862e-167
8.11036216e-168
4.53461308e-164
6.93742263e-165
3.3103737e-161
5.67425905e-162
2.35850925e-158
4.46163606e-159
1.64030478e-155
3.38492712e-156
1.11385642e-152
2.48440631e-153
7.38638665e-150
1.76753574e-150
4.78413159e-147
1.22078298e-147
3.02693104e-144
8.19486281e-145
1.87102958e-141
5.35155069e-142
1.12999997e-138
3.40230313e-139
6.6684907e-136
2.10707033e-136
3.84548036e-133
1.27175711e-133
2.16701116e-130
7.48364617e-131
1.19333895e-127
4.29473365e-128
6.42176259e-125
2.40421554e-125
3.3769067e-122
1.31310409e-122
1.73514501e-119
6.99785649e-120
8.71109258e-117
3.6391667e-117
4.27256237e-114
1.84680887e-114
2.04706766e-111
9.14575391e-112
9.57950466e-109
4.41949345e-109
4.37773717e-106
2.08373667e-106
1.95330476e-103
9.58466574e-104
8.50767098e-101
4.30037236e-101
3.61631755e-98
1.88168106e-98
1.49975402e-95
8.02781455e-96
6.06653017e-93
3.33844944e-93
2.39267018e-90
1.35287295e-90
9.1978829e-88
5.3405464e-88
3.44492671e-85
2.05288628e-85
1.25651184e-82
7.68086238e-83
4.46104548e-80
2.79586661e-80
1.5408459e-77
9.89597201e-78
5.1746569e-75
3.40398163e-75
1.68860198e-72
1.13717935e-72
5.35049493e-70
3.68708209e-70
1.64494122e-67
1.15935906e-67
4.90268055e-65
3.53240699e-65
1.41528914e-62
1.04193563e-62
3.95318394e-60
2.97226418e-60
1.06722597e-57
8.19074652e-58
2.78124943e-55
2.17776304e-55
6.98725766e-53
5.57893828e-53
1.68966223e-50
1.37493389e-50
3.92632465e-48
3.25431439e-48
8.75072336e-46
7.38334041e-46
1.86658427e-43
1.60223101e-43
3.80144682e-41
3.3175338e-41
7.37145632e-39
6.53604297e-39
1.35671813e-36
1.22134147e-36
2.36141062e-34
2.15664359e-34
3.87031617e-32
3.58316787e-32
5.94330574e-30
5.5730869e-30
8.49970693e-28
8.06543955e-28
1.12384609e-25
1.0781266e-25
1.36153844e-23
1.31912007e-23
1.49434927e-21
1.46055761e-21
1.46424151e-19
1.4420431e-19
1.25607797e-17
1.24486385e-17
9.17955098e-16
9.14261703e-16
5.48931474e-14
5.4795712e-14
2.51681853e-12
2.52133713e-12
1.24707882e-09
1.36793669e-09
1.27895879
3.4105559
9.55610995
8.58197395
1.83351788
1.4816058
0.179186408
0.162730159
0.0227052637
0.0218971653
0.00255901592
0.00254711928
0.000267567443
0.000268346574
3.18734154e-05
3.19992808e-05
1.0035724e-05
1.00330314e-05
8.17324209e-06
8.17403676e-06
8.02953385e-06
8.02956589e-06
8.01914244e-06
8.0191522e-06
8.01845416e-06
8.01845513e-06
8.01840737e-06
8.01841325e-06
8.01839132e-06
8.01841556e-06
8.01839304e-06
8.01840912e-06
8.01839513e-06
8.01841574e-06
8.01838647e-06
8.01841456e-06
8.01839423e-06
8.01839067e-06
8.01840589e-06
8.01839581e-06
8.01840595e-06
8.01839798e-06
8.018412e-06
8.018395e-06
8.01840351e-06
8.01839868e-06
8.01841185e-06
8.01840271e-06
8.01841091e-06
8.01839384e-06
8.01840303e-06
8.01840078e-06
8.01840515e-06
8.01840462e-06
8.01840318e-06
8.01840032e-06
8.01839976e-06
8.01840156e-06
8.01840937e-06
8.01839856e-06
8.01839871e-06
8.01840571e-06
8.01840503e-06
8.01840053e-06
8.01840723e-06
8.01839319e-06
8.01841476e-06
8.01839271e-06
8.01840752e-06
8.01838656e-06
8.01840804e-06
8.01839014e-06
8.0184023e-06
8.01840074e-06
8.01839044e-06
8.01842035e-06
8.01839789e-06
8.01840793e-06
8.0184102e-06
8.01840848e-06
8.01840347e-06
8.01840861e-06
8.01840395e-06
8.01840881e-06
8.0184056e-06
8.01840461e-06
8.01840165e-06
8.01840096e-06
8.01840484e-06
8.01839876e-06
8.0184086e-06
8.01840605e-06
8.01840149e-06
8.01841337e-06
8.01840719e-06
8.01840826e-06
8.01839712e-06
8.01841276e-06
8.01840419e-06
8.01840564e-06
8.01840631e-06
8.01841243e-06
8.01841295e-06
8.01840918e-06
8.01840434e-06
8.01839861e-06
8.01841025e-06
8.0184152e-06
8.01839677e-06
8.01840152e-06
8.01841233e-06
8.01838776e-06
8.0184107e-06
8.01839668e-06
8.01840214e-06
8.01840028e-06
8.01840978e-06
8.01840573e-06
8.01839995e-06
8.01841039e-06
8.01839891e-06
8.01841202e-06
8.01839595e-06
8.01841754e-06
8.01840547e-06
8.01840121e-06
8.01840208e-06
8.01840733e-06
8.01840941e-06
8.01840844e-06
8.0184018e-06
8.01840207e-06
8.01841525e-06
8.01842218e-06
8.01840846e-06
8.01841465e-06
8.01841095e-06
8.01840175e-06
8.01841058e-06
8.01840195e-06
8.01841103e-06
8.01840225e-06
8.01840394e-06
8.01840516e-06
8.01840887e-06
8.01841086e-06
8.01839957e-06
8.01841277e-06
8.01840434e-06
8.01841539e-06
8.01840607e-06
8.01840039e-06
8.01841251e-06
8.01840905e-06
8.01840711e-06
8.01841893e-06
8.01840594e-06
8.01841108e-06
8.01840245e-06
8.01841288e-06
8.01841685e-06
8.01840153e-06
8.01841867e-06
8.01840318e-06
8.0184243e-06
8.01841057e-06
8.01841419e-06
8.01840579e-06
8.01841143e-06
8.01840931e-06
8.01841201e-06
8.01840029e-06
8.01841055e-06
8.01840585e-06
8.01840405e-06
8.01841418e-06
8.01841379e-06
8.01841369e-06
8.01840816e-06
8.01842641e-06
8.0184193e-06
8.01842242e-06
8.01841025e-06
8.01841579e-06
8.01840627e-06
8.01841507e-06
8.01841263e-06
8.01841187e-06
8.01841491e-06
8.01841273e-06
8.01841571e-06
8.01841411e-06
8.01841515e-06
8.01841935e-06
8.0184196e-06
8.01840826e-06
8.01842049e-06
8.01840864e-06
8.01842171e-06
8.01841034e-06
8.01841851e-06
8.01840892e-06
8.01841755e-06
8.01840603e-06
8.01841064e-06
8.01841431e-06
8.01841684e-06
8.01841436e-06
8.0184231e-06
8.01840842e-06
8.0184241e-06
8.01840808e-06
8.01842603e-06
8.0184144e-06
8.01841319e-06
8.01841466e-06
8.01841487e-06
8.01841886e-06
8.01840818e-06
8.01842124e-06
8.01841071e-06
8.01843029e-06
8.01840681e-06
8.01841353e-06
8.01841574e-06
8.01841031e-06
8.01841431e-06
8.01841939e-06
8.01841498e-06
8.0184201e-06
8.01841886e-06
8.01841639e-06
8.01842262e-06
8.01842497e-06
8.01841753e-06
8.0184132e-06
8.01841797e-06
8.01842458e-06
8.01841046e-06
8.01842685e-06
8.01841697e-06
8.01841898e-06
8.01841809e-06
8.01841393e-06
8.01842012e-06
8.01842353e-06
8.0184131e-06
8.01841719e-06
8.01841389e-06
8.01840906e-06
8.01842062e-06
8.01842724e-06
8.01841486e-06
8.01842008e-06
8.0184141e-06
8.01842132e-06
8.01842098e-06
8.01841685e-06
8.01842686e-06
8.01841303e-06
8.01842843e-06
8.01842513e-06
8.01843239e-06
8.01841309e-06
8.01843588e-06
8.01841201e-06
8.0184243e-06
8.01840794e-06
8.01841882e-06
8.01841589e-06
8.01842112e-06
8.0184235e-06
8.01841884e-06
8.0184272e-06
8.01841449e-06
8.0184288e-06
8.01841787e-06
8.01842175e-06
8.01842234e-06
8.01841833e-06
8.01842919e-06
8.01840939e-06
8.01842776e-06
8.01842164e-06
8.01842878e-06
8.01841618e-06
8.01841957e-06
8.01841374e-06
8.01841959e-06
8.01842547e-06
8.01841752e-06
8.01841984e-06
8.01841632e-06
8.0184193e-06
8.01842135e-06
8.01841143e-06
8.01842092e-06
8.01842879e-06
8.01843224e-06
8.01842028e-06
8.01842408e-06
8.01842429e-06
8.01841892e-06
8.01842621e-06
8.01842207e-06
8.0184283e-06
8.01843135e-06
8.01841438e-06
8.01843479e-06
8.01843075e-06
8.01842657e-06
8.01842826e-06
8.01842222e-06
8.01843164e-06
8.01841568e-06
8.0184342e-06
8.01844113e-06
8.01840795e-06
8.018434e-06
8.01841875e-06
8.01843685e-06
8.01842544e-06
8.01843088e-06
8.01842065e-06
8.0184208e-06
8.01842968e-06
8.01842956e-06
8.01842395e-06
8.01842742e-06
8.01842963e-06
8.01842771e-06
8.01843146e-06
8.01842195e-06
8.01842363e-06
8.01842711e-06
8.01842185e-06
8.01843135e-06
8.01842034e-06
8.01843039e-06
8.01842678e-06
8.01842837e-06
8.01843497e-06
8.0184212e-06
8.01843933e-06
8.0184263e-06
8.01843501e-06
8.01842998e-06
8.01843564e-06
8.01843258e-06
8.01843044e-06
8.01843617e-06
8.01843698e-06
8.01842748e-06
8.01842979e-06
8.01843826e-06
8.01842338e-06
8.01843861e-06
8.01843281e-06
8.01843437e-06
8.01843414e-06
8.01843044e-06
8.01842802e-06
8.018443e-06
8.01842725e-06
8.01843028e-06
8.01844171e-06
8.01843506e-06
8.01844784e-06
8.01843236e-06
8.01844321e-06
8.01843867e-06
8.01844374e-06
8.01843026e-06
8.01844525e-06
8.01842736e-06
8.01844441e-06
8.01843191e-06
8.01843156e-06
8.01844063e-06
8.0184302e-06
8.01844194e-06
8.01843139e-06
8.01843844e-06
8.01843747e-06
8.01843278e-06
8.01842436e-06
8.01843879e-06
8.01843333e-06
8.01842715e-06
8.01844071e-06
8.01843666e-06
8.01843553e-06
8.01843365e-06
8.01843799e-06
8.01843316e-06
8.01844449e-06
8.01843831e-06
8.01844188e-06
8.01843846e-06
8.01843381e-06
8.0184353e-06
8.01844265e-06
8.01843782e-06
8.01844949e-06
8.01843092e-06
8.01844622e-06
8.01842689e-06
8.01844882e-06
8.01844062e-06
8.01843964e-06
8.01844197e-06
8.0184437e-06
8.0184412e-06
8.01843422e-06
8.01844596e-06
8.01843323e-06
8.01844803e-06
8.01843392e-06
8.01843858e-06
8.01844791e-06
8.01843938e-06
8.01843998e-06
8.01843715e-06
8.01844143e-06
8.01844981e-06
8.01844156e-06
8.01843815e-06
8.01844719e-06
8.01843566e-06
8.01845224e-06
8.01844457e-06
8.01844867e-06
8.01844234e-06
8.01845006e-06
8.01845101e-06
8.01844874e-06
8.01844566e-06
8.01845922e-06
8.01844038e-06
8.01845069e-06
8.01844048e-06
8.01843947e-06
8.01844539e-06
8.01843648e-06
8.01845506e-06
8.01844144e-06
8.01844328e-06
8.01844758e-06
8.01844227e-06
8.01845154e-06
8.0184396e-06
8.01844564e-06
8.01844318e-06
8.01843684e-06
8.01844855e-06
8.01844385e-06
8.01844457e-06
8.01843993e-06
8.01844802e-06
8.01843814e-06
8.01844194e-06
8.01844619e-06
8.01844215e-06
8.01844532e-06
8.01843807e-06
8.0184505e-06
8.01845558e-06
8.01844132e-06
8.01844801e-06
8.01844905e-06
8.018449e-06
8.01844405e-06
8.01844163e-06
8.01845439e-06
8.01843153e-06
8.0184565e-06
8.01844171e-06
8.01844759e-06
8.01844029e-06
8.01844195e-06
8.01843902e-06
8.01844997e-06
8.01844038e-06
8.0184427e-06
8.01844297e-06
8.01844051e-06
8.01845531e-06
8.01843957e-06
8.01845357e-06
8.0184456e-06
8.01844374e-06
8.01845706e-06
8.01843999e-06
8.01844584e-06
8.01845745e-06
8.01844e-06
8.01845063e-06
8.01843649e-06
8.01845672e-06
8.01843349e-06
8.01845816e-06
8.01842872e-06
8.01845384e-06
8.01844291e-06
8.01844535e-06
8.01845313e-06
8.01844645e-06
8.01844887e-06
8.01844562e-06
8.01844386e-06
8.01844993e-06
8.01844342e-06
8.0184494e-06
8.01844676e-06
8.01844991e-06
8.01844915e-06
8.01844586e-06
8.01844734e-06
8.0184467e-06
8.01844618e-06
8.01844732e-06
8.01844816e-06
8.01844802e-06
8.01844725e-06
8.01844709e-06
8.01844668e-06
8.01844761e-06
8.01844751e-06
8.01844745e-06
8.01844787e-06
8.01844733e-06
8.01844786e-06
8.01844784e-06
8.01844757e-06
8.01844804e-06
8.01844788e-06
8.0184474e-06
8.01844753e-06
8.01844781e-06
8.01844787e-06
8.0184478e-06
8.01844781e-06
8.01844787e-06
8.01844779e-06
8.01844779e-06
8.01844775e-06
8.01844785e-06
8.01844754e-06
8.01844789e-06
8.01844765e-06
8.0184477e-06
8.01844777e-06
8.01844775e-06
8.01844773e-06
8.01844787e-06
8.01844772e-06
8.01844777e-06
8.01844761e-06
8.01844759e-06
8.01844785e-06
8.01844772e-06
8.0184478e-06
8.01844778e-06
8.01844762e-06
8.0184478e-06
8.01844777e-06
8.01844779e-06
8.01844785e-06
8.01844772e-06
8.01844793e-06
8.01844768e-06
8.01844786e-06
8.01844772e-06
8.01844767e-06
8.01844786e-06
8.01844769e-06
8.01844765e-06
8.01844786e-06
)
;

boundaryField
{
    closed
    {
        type            calculated;
        value           uniform 0;
    }
    open
    {
        type            calculated;
        value           uniform 0;
    }
    sides
    {
        type            empty;
    }
}


// ************************************************************************* //
