/*--------------------------------*- C++ -*----------------------------------*\
| =========                 |                                                 |
| \\      /  F ield         | OpenFOAM: The Open Source CFD Toolbox           |
|  \\    /   O peration     | Version:  2206                                  |
|   \\  /    A nd           | Website:  www.openfoam.com                      |
|    \\/     M anipulation  |                                                 |
\*---------------------------------------------------------------------------*/
FoamFile
{
    version     2.0;
    format      ascii;
    arch        "LSB;label=32;scalar=64";
    class       volVectorField;
    location    "6.8e-06";
    object      U;
}
// * * * * * * * * * * * * * * * * * * * * * * * * * * * * * * * * * * * * * //

dimensions      [0 1 -1 0 0 0 0];

internalField   nonuniform List<vector> 
3183
(
(1.60961351e-13 0 0)
(-1.44144021e-14 0 0)
(-9.85968778e-14 0 0)
(-6.7837731e-14 0 0)
(-7.13813134e-14 0 0)
(-2.0077589e-18 0 0)
(-1.58592905e-19 0 0)
(-6.85990004e-24 0 0)
(2.34154245e-24 0 0)
(2.61566517e-21 0 0)
(1.17624817e-18 0 0)
(9.01188216e-15 0 0)
(2.68223035e-13 0 0)
(1.4610285e-13 0 0)
(-1.04806838e-13 0 0)
(-1.10277198e-13 0 0)
(7.73233248e-14 0 0)
(-1.18105737e-13 0 0)
(-6.08213257e-13 0 0)
(2.70140906e-14 0 0)
(3.46183645e-13 0 0)
(5.48906619e-17 0 0)
(6.87174283e-18 0 0)
(5.54420183e-15 0 0)
(1.74501663e-13 0 0)
(2.99921269e-13 0 0)
(4.44137993e-13 0 0)
(2.91320576e-13 0 0)
(-2.35062457e-13 0 0)
(-1.20162994e-13 0 0)
(-3.23482029e-13 0 0)
(-2.90918478e-13 0 0)
(-2.44973403e-13 0 0)
(-2.66499604e-13 0 0)
(-9.68173858e-14 0 0)
(9.13447554e-14 0 0)
(-9.62738954e-14 0 0)
(-1.91436745e-13 0 0)
(-4.92022653e-16 0 0)
(-8.76079023e-14 0 0)
(-3.54387653e-13 0 0)
(-4.69402374e-13 0 0)
(2.83321166e-14 0 0)
(-1.98682991e-13 0 0)
(-4.86643125e-14 0 0)
(6.80200066e-14 0 0)
(2.48868036e-13 0 0)
(1.87758698e-14 0 0)
(-1.57382897e-13 0 0)
(-2.07497705e-13 0 0)
(-1.53669011e-13 0 0)
(-1.15069468e-13 0 0)
(-9.57627466e-14 0 0)
(5.15540577e-14 0 0)
(5.0628179e-13 0 0)
(2.00563342e-13 0 0)
(4.14416542e-13 0 0)
(4.68971479e-13 0 0)
(5.25541055e-13 0 0)
(7.59864839e-13 0 0)
(6.93755426e-13 0 0)
(6.51169997e-13 0 0)
(6.83999881e-13 0 0)
(4.274954e-13 0 0)
(7.5856937e-13 0 0)
(7.96127122e-13 0 0)
(6.92945024e-13 0 0)
(7.83306121e-13 0 0)
(1.18753999e-12 0 0)
(6.5465232e-13 0 0)
(1.08276571e-12 0 0)
(1.45453045e-12 0 0)
(1.29618255e-12 0 0)
(1.45668626e-12 0 0)
(1.63658969e-12 0 0)
(1.42894845e-12 0 0)
(1.67023781e-12 0 0)
(2.55666981e-12 0 0)
(2.84042761e-12 0 0)
(2.67092652e-12 0 0)
(2.72747955e-12 0 0)
(3.0563442e-12 0 0)
(3.0352992e-12 0 0)
(2.6070606e-12 0 0)
(3.31602496e-12 0 0)
(2.82394285e-12 0 0)
(3.28185211e-12 0 0)
(2.72721019e-12 0 0)
(3.53547674e-12 0 0)
(3.20682124e-12 0 0)
(2.48406444e-12 0 0)
(1.79143859e-12 0 0)
(2.51827091e-12 0 0)
(1.86910439e-12 0 0)
(2.07903961e-12 0 0)
(2.73006383e-12 0 0)
(5.72020845e-13 0 0)
(1.64990916e-12 0 0)
(1.18515585e-12 0 0)
(9.67392474e-13 0 0)
(2.01074619e-12 0 0)
(1.61442281e-12 0 0)
(2.4374563e-12 0 0)
(6.28552895e-13 0 0)
(1.76374399e-12 0 0)
(2.4214478e-12 0 0)
(2.22538243e-12 0 0)
(1.73567753e-12 0 0)
(1.93494155e-12 0 0)
(1.96773436e-12 0 0)
(2.09288056e-12 0 0)
(1.75541982e-12 0 0)
(1.31159032e-12 0 0)
(1.71385843e-12 0 0)
(1.15194931e-12 0 0)
(1.98807407e-12 0 0)
(1.37611138e-12 0 0)
(1.3881468e-12 0 0)
(1.19092075e-12 0 0)
(2.62138701e-13 0 0)
(1.23356028e-12 0 0)
(6.83063166e-13 0 0)
(1.04428717e-12 0 0)
(1.1382107e-12 0 0)
(-1.67213621e-13 0 0)
(-2.23976372e-13 0 0)
(1.41260445e-12 0 0)
(-4.7387431e-13 0 0)
(2.24361856e-13 0 0)
(-4.79936751e-13 0 0)
(-2.20279662e-13 0 0)
(2.59839353e-13 0 0)
(-7.44929421e-13 0 0)
(-3.66231546e-13 0 0)
(-1.86267852e-13 0 0)
(-9.49277139e-13 0 0)
(-1.06615235e-12 0 0)
(-1.02305082e-12 0 0)
(-1.59898565e-12 0 0)
(-1.5811849e-12 0 0)
(-8.53088729e-13 0 0)
(-8.24618785e-13 0 0)
(-5.95920118e-13 0 0)
(-1.27532531e-12 0 0)
(1.02621317e-14 0 0)
(-1.0378911e-12 0 0)
(-5.57948502e-13 0 0)
(-9.44728805e-13 0 0)
(-1.86824334e-13 0 0)
(-1.12267729e-12 0 0)
(-9.68523897e-13 0 0)
(-1.07773748e-12 0 0)
(-1.49273757e-13 0 0)
(-8.48835075e-13 0 0)
(-1.04346735e-12 0 0)
(-1.0241853e-12 0 0)
(-1.04254172e-12 0 0)
(-1.68327405e-12 0 0)
(-1.02568068e-12 0 0)
(-2.06967578e-12 0 0)
(-2.18324959e-12 0 0)
(-1.38500291e-12 0 0)
(-1.72843021e-12 0 0)
(-2.18734769e-12 0 0)
(-1.59606408e-12 0 0)
(-1.40305043e-12 0 0)
(-2.12318509e-12 0 0)
(-2.05517025e-12 0 0)
(-1.9627622e-12 0 0)
(-2.74481505e-12 0 0)
(-3.06320091e-12 0 0)
(-1.88587281e-12 0 0)
(-3.56286091e-12 0 0)
(-2.20289486e-12 0 0)
(-2.83221677e-12 0 0)
(-1.94970409e-12 0 0)
(-3.0213178e-12 0 0)
(-2.99143907e-12 0 0)
(-2.97829239e-12 0 0)
(-3.25555332e-12 0 0)
(-2.47607669e-12 0 0)
(-4.60645917e-12 0 0)
(-2.71279107e-12 0 0)
(-3.10109288e-12 0 0)
(-4.35335666e-12 0 0)
(-3.48991383e-12 0 0)
(-3.64212996e-12 0 0)
(-3.0897043e-12 0 0)
(-4.83596116e-12 0 0)
(-3.52947865e-12 0 0)
(-3.50830377e-12 0 0)
(-4.32813331e-12 0 0)
(-4.01273342e-12 0 0)
(-3.38616355e-12 0 0)
(-4.44244369e-12 0 0)
(-2.92011313e-12 0 0)
(-3.49345069e-12 0 0)
(-2.85787487e-12 0 0)
(-2.67425347e-12 0 0)
(-2.98686473e-12 0 0)
(-3.52110603e-12 0 0)
(-2.93657723e-12 0 0)
(-2.85309018e-12 0 0)
(-3.09029152e-12 0 0)
(-4.06893195e-12 0 0)
(-3.67958799e-12 0 0)
(-3.69719317e-12 0 0)
(-3.71807007e-12 0 0)
(-4.11083669e-12 0 0)
(-3.40326303e-12 0 0)
(-3.89702816e-12 0 0)
(-4.12147069e-12 0 0)
(-3.90933711e-12 0 0)
(-3.91861019e-12 0 0)
(-4.18113041e-12 0 0)
(-4.01253198e-12 0 0)
(-4.67312787e-12 0 0)
(-5.19852199e-12 0 0)
(-3.82612673e-12 0 0)
(-4.54093552e-12 0 0)
(-5.67936836e-12 0 0)
(-5.20975549e-12 0 0)
(-5.83610237e-12 0 0)
(-3.9177557e-12 0 0)
(-5.116106e-12 0 0)
(-4.96058104e-12 0 0)
(-5.25406473e-12 0 0)
(-5.62706527e-12 0 0)
(-6.75392562e-12 0 0)
(-5.11865621e-12 0 0)
(-5.15773471e-12 0 0)
(-5.24745881e-12 0 0)
(-5.20070032e-12 0 0)
(-6.06003934e-12 0 0)
(-5.48044322e-12 0 0)
(-6.05216302e-12 0 0)
(-6.34462961e-12 0 0)
(-6.50734331e-12 0 0)
(-6.28233719e-12 0 0)
(-6.47350899e-12 0 0)
(-8.15976519e-12 0 0)
(-6.36937908e-12 0 0)
(-6.68664549e-12 0 0)
(-6.15650504e-12 0 0)
(-6.6237144e-12 0 0)
(-8.09243925e-12 0 0)
(-7.7167984e-12 0 0)
(-6.23733591e-12 0 0)
(-7.79157744e-12 0 0)
(-7.66046067e-12 0 0)
(-6.86796139e-12 0 0)
(-7.12270353e-12 0 0)
(-7.86272911e-12 0 0)
(-8.51213998e-12 0 0)
(-8.43968376e-12 0 0)
(-7.39479493e-12 0 0)
(-8.03486615e-12 0 0)
(-7.13373866e-12 0 0)
(-7.5000154e-12 0 0)
(-7.78889928e-12 0 0)
(-7.00747516e-12 0 0)
(-8.53268384e-12 0 0)
(-8.42117992e-12 0 0)
(-6.75583114e-12 0 0)
(-8.84924054e-12 0 0)
(-7.4616463e-12 0 0)
(-8.7084322e-12 0 0)
(-7.50901395e-12 0 0)
(-8.59333452e-12 0 0)
(-8.07514691e-12 0 0)
(-6.11680656e-12 0 0)
(-8.40283481e-12 0 0)
(-8.43969227e-12 0 0)
(-7.6696659e-12 0 0)
(-8.77101544e-12 0 0)
(-7.23853423e-12 0 0)
(-9.56119791e-12 0 0)
(-9.18630849e-12 0 0)
(-8.5538681e-12 0 0)
(-7.48595545e-12 0 0)
(-9.57771308e-12 0 0)
(-9.50591829e-12 0 0)
(-9.02931173e-12 0 0)
(-9.11480832e-12 0 0)
(-8.36749891e-12 0 0)
(-1.0765085e-11 0 0)
(-9.16135404e-12 0 0)
(-1.03106665e-11 0 0)
(-1.0266437e-11 0 0)
(-9.31809696e-12 0 0)
(-8.81979462e-12 0 0)
(-8.5906062e-12 0 0)
(-8.87179088e-12 0 0)
(-9.23152206e-12 0 0)
(-8.3343479e-12 0 0)
(-8.37308765e-12 0 0)
(-8.77819688e-12 0 0)
(-9.2821035e-12 0 0)
(-8.39183102e-12 0 0)
(-9.46886694e-12 0 0)
(-8.58237719e-12 0 0)
(-8.64611921e-12 0 0)
(-9.01548857e-12 0 0)
(-9.32130162e-12 0 0)
(-1.06936842e-11 0 0)
(-1.10751136e-11 0 0)
(-9.42904645e-12 0 0)
(-1.04632651e-11 0 0)
(-1.10515376e-11 0 0)
(-9.60745143e-12 0 0)
(-1.07114921e-11 0 0)
(-1.03702271e-11 0 0)
(-9.86055262e-12 0 0)
(-1.01410055e-11 0 0)
(-1.03192254e-11 0 0)
(-1.10294528e-11 0 0)
(-1.21135643e-11 0 0)
(-1.09937945e-11 0 0)
(-1.0150483e-11 0 0)
(-1.19720839e-11 0 0)
(-1.1333476e-11 0 0)
(-1.16943375e-11 0 0)
(-1.16070973e-11 0 0)
(-1.01433628e-11 0 0)
(-1.16091857e-11 0 0)
(-1.0252941e-11 0 0)
(-1.07991991e-11 0 0)
(-1.04599445e-11 0 0)
(-1.09941297e-11 0 0)
(-1.02534536e-11 0 0)
(-9.7069664e-12 0 0)
(-1.05998101e-11 0 0)
(-1.09492089e-11 0 0)
(-9.2957031e-12 0 0)
(-8.3417546e-12 0 0)
(-9.78091937e-12 0 0)
(-9.67378158e-12 0 0)
(-1.13431581e-11 0 0)
(-1.02252655e-11 0 0)
(-9.42695794e-12 0 0)
(-1.0125915e-11 0 0)
(-1.07732617e-11 0 0)
(-9.80631308e-12 0 0)
(-9.78963124e-12 0 0)
(-9.7704039e-12 0 0)
(-1.00725186e-11 0 0)
(-1.07186996e-11 0 0)
(-9.6468035e-12 0 0)
(-1.01713734e-11 0 0)
(-1.01769565e-11 0 0)
(-1.00846904e-11 0 0)
(-1.04277557e-11 0 0)
(-1.10651734e-11 0 0)
(-1.01199577e-11 0 0)
(-8.64826067e-12 0 0)
(-9.30863752e-12 0 0)
(-1.07798937e-11 0 0)
(-9.59642538e-12 0 0)
(-1.02090376e-11 0 0)
(-8.82269556e-12 0 0)
(-8.87614742e-12 0 0)
(-9.27307752e-12 0 0)
(-9.66735859e-12 0 0)
(-9.58715349e-12 0 0)
(-9.15616383e-12 0 0)
(-9.0615464e-12 0 0)
(-9.40016703e-12 0 0)
(-9.49594116e-12 0 0)
(-8.7714793e-12 0 0)
(-9.52915568e-12 0 0)
(-8.66870236e-12 0 0)
(-9.86197964e-12 0 0)
(-8.4081977e-12 0 0)
(-9.29245938e-12 0 0)
(-8.9343677e-12 0 0)
(-9.22599778e-12 0 0)
(-9.55019804e-12 0 0)
(-8.43847337e-12 0 0)
(-9.17580483e-12 0 0)
(-9.46618679e-12 0 0)
(-9.53126267e-12 0 0)
(-8.33317789e-12 0 0)
(-9.14254076e-12 0 0)
(-9.78857955e-12 0 0)
(-7.71665967e-12 0 0)
(-9.51166484e-12 0 0)
(-8.82013348e-12 0 0)
(-8.00654198e-12 0 0)
(-8.55649364e-12 0 0)
(-7.08946449e-12 0 0)
(-7.63399934e-12 0 0)
(-8.82550417e-12 0 0)
(-7.94429438e-12 0 0)
(-7.37092941e-12 0 0)
(-7.23662046e-12 0 0)
(-6.67144616e-12 0 0)
(-6.78039681e-12 0 0)
(-6.91643797e-12 0 0)
(-6.83272517e-12 0 0)
(-5.31031164e-12 0 0)
(-5.61084458e-12 0 0)
(-6.92938458e-12 0 0)
(-7.44571773e-12 0 0)
(-7.54404368e-12 0 0)
(-6.94403399e-12 0 0)
(-6.68124935e-12 0 0)
(-6.10247786e-12 0 0)
(-7.02704947e-12 0 0)
(-6.43772428e-12 0 0)
(-6.30765797e-12 0 0)
(-7.07092459e-12 0 0)
(-6.04071391e-12 0 0)
(-5.65793177e-12 0 0)
(-6.40583129e-12 0 0)
(-6.75030331e-12 0 0)
(-5.53659274e-12 0 0)
(-5.99577794e-12 0 0)
(-6.05000288e-12 0 0)
(-6.0235899e-12 0 0)
(-5.69395313e-12 0 0)
(-5.44970959e-12 0 0)
(-3.8773217e-12 0 0)
(-5.40040362e-12 0 0)
(-4.18943193e-12 0 0)
(-5.79424784e-12 0 0)
(-5.03226585e-12 0 0)
(-4.12458415e-12 0 0)
(-5.63921921e-12 0 0)
(-4.68758445e-12 0 0)
(-3.9679128e-12 0 0)
(-4.11236435e-12 0 0)
(-5.16944985e-12 0 0)
(-4.65605963e-12 0 0)
(-4.29030698e-12 0 0)
(-3.84308036e-12 0 0)
(-4.09631936e-12 0 0)
(-4.73824121e-12 0 0)
(-4.5945673e-12 0 0)
(-3.52789309e-12 0 0)
(-3.95851808e-12 0 0)
(-3.31662107e-12 0 0)
(-5.13395553e-12 0 0)
(-4.19111638e-12 0 0)
(-3.02157335e-12 0 0)
(-4.60309463e-12 0 0)
(-3.52845057e-12 0 0)
(-4.25469449e-12 0 0)
(-3.5158893e-12 0 0)
(-3.70507378e-12 0 0)
(-2.9949972e-12 0 0)
(-3.2875689e-12 0 0)
(-2.66726269e-12 0 0)
(-3.39437042e-12 0 0)
(-3.90289404e-12 0 0)
(-3.42598856e-12 0 0)
(-2.00991977e-12 0 0)
(-3.32639267e-12 0 0)
(-3.16479054e-12 0 0)
(-3.66455805e-12 0 0)
(-2.43260697e-12 0 0)
(-3.15739384e-12 0 0)
(-2.67346766e-12 0 0)
(-2.56051627e-12 0 0)
(-2.37520837e-12 0 0)
(-2.66580022e-12 0 0)
(-2.65121544e-12 0 0)
(-2.98044815e-12 0 0)
(-2.2199283e-12 0 0)
(-2.62508972e-12 0 0)
(-2.877205e-12 0 0)
(-1.90614305e-12 0 0)
(-1.39933591e-12 0 0)
(-2.35342229e-12 0 0)
(-2.52850427e-12 0 0)
(-1.46670939e-12 0 0)
(-1.69761044e-12 0 0)
(-1.31351619e-12 0 0)
(-1.1651941e-12 0 0)
(-2.06912211e-12 0 0)
(-2.20835193e-12 0 0)
(-1.3035362e-12 0 0)
(-1.97793616e-12 0 0)
(-2.14501554e-12 0 0)
(-2.06581218e-12 0 0)
(-2.19453476e-12 0 0)
(-1.97748725e-12 0 0)
(-2.27232437e-12 0 0)
(-1.83039557e-12 0 0)
(-1.7943384e-12 0 0)
(-1.98582654e-12 0 0)
(-2.05183379e-12 0 0)
(-1.32158426e-12 0 0)
(-3.20045802e-12 0 0)
(-1.61969951e-12 0 0)
(-2.02988798e-12 0 0)
(-2.16265884e-12 0 0)
(-2.01282555e-12 0 0)
(-1.59588651e-12 0 0)
(-1.94596157e-12 0 0)
(-2.38714841e-12 0 0)
(-1.66014223e-12 0 0)
(2.33021643e-14 0 0)
(-1.35953597e-12 0 0)
(-1.55244621e-12 0 0)
(-1.20971808e-12 0 0)
(-1.6823183e-12 0 0)
(-5.26051827e-13 0 0)
(-1.51311056e-12 0 0)
(-1.78209749e-12 0 0)
(-2.0893721e-12 0 0)
(-1.45019574e-12 0 0)
(-1.34350651e-12 0 0)
(-6.90875763e-13 0 0)
(-4.42901835e-13 0 0)
(-9.82660601e-13 0 0)
(-6.06169494e-13 0 0)
(-9.01494588e-13 0 0)
(-2.25395429e-13 0 0)
(-8.68361118e-13 0 0)
(-8.29933142e-15 0 0)
(-7.49922748e-14 0 0)
(3.77599869e-13 0 0)
(1.77379892e-13 0 0)
(-4.91283966e-13 0 0)
(5.67850736e-13 0 0)
(9.52941532e-13 0 0)
(5.98487424e-14 0 0)
(1.85743571e-12 0 0)
(1.8926099e-12 0 0)
(6.3356504e-13 0 0)
(1.54562115e-12 0 0)
(9.19929827e-13 0 0)
(1.71371111e-12 0 0)
(1.62007843e-12 0 0)
(9.14322715e-13 0 0)
(1.89365052e-12 0 0)
(1.60530117e-12 0 0)
(2.6841401e-12 0 0)
(1.85425862e-12 0 0)
(2.49322106e-12 0 0)
(1.754653e-12 0 0)
(1.640038e-12 0 0)
(2.24013444e-12 0 0)
(2.27901096e-12 0 0)
(2.49350389e-12 0 0)
(2.78721817e-12 0 0)
(1.39993083e-12 0 0)
(1.60759168e-12 0 0)
(2.84723702e-12 0 0)
(2.37033587e-12 0 0)
(2.58503171e-12 0 0)
(2.43919693e-12 0 0)
(2.04229691e-12 0 0)
(3.07909266e-12 0 0)
(2.26816296e-12 0 0)
(2.60903498e-12 0 0)
(3.01667384e-12 0 0)
(2.27779896e-12 0 0)
(1.67237266e-12 0 0)
(1.42463127e-12 0 0)
(1.48393351e-12 0 0)
(6.41300466e-13 0 0)
(1.58410488e-12 0 0)
(1.54092279e-12 0 0)
(1.30706869e-12 0 0)
(1.39591777e-12 0 0)
(1.10381073e-12 0 0)
(2.53692985e-12 0 0)
(1.80838368e-12 0 0)
(2.31475435e-12 0 0)
(1.10388691e-12 0 0)
(1.99561113e-12 0 0)
(1.74124259e-12 0 0)
(2.70349682e-12 0 0)
(2.8304981e-12 0 0)
(2.04033368e-12 0 0)
(2.94968609e-12 0 0)
(2.35154141e-12 0 0)
(3.53678601e-12 0 0)
(2.97505301e-12 0 0)
(2.4017373e-12 0 0)
(2.17740915e-12 0 0)
(4.41473253e-12 0 0)
(2.59582944e-12 0 0)
(3.83039679e-12 0 0)
(2.69490179e-12 0 0)
(3.50273347e-12 0 0)
(4.04206439e-12 0 0)
(2.48847263e-12 0 0)
(4.03725146e-12 0 0)
(3.60706451e-12 0 0)
(3.90135869e-12 0 0)
(4.09578261e-12 0 0)
(4.37481392e-12 0 0)
(4.02118531e-12 0 0)
(4.32896929e-12 0 0)
(3.47795989e-12 0 0)
(3.88068871e-12 0 0)
(4.40284767e-12 0 0)
(3.20233208e-12 0 0)
(3.00220399e-12 0 0)
(4.45211371e-12 0 0)
(3.06157086e-12 0 0)
(3.66839364e-12 0 0)
(3.79824537e-12 0 0)
(3.34618028e-12 0 0)
(4.19337575e-12 0 0)
(4.71379395e-12 0 0)
(3.53288704e-12 0 0)
(4.29681989e-12 0 0)
(3.54718899e-12 0 0)
(3.36655596e-12 0 0)
(4.32315452e-12 0 0)
(3.20192648e-12 0 0)
(4.25294246e-12 0 0)
(3.80751325e-12 0 0)
(3.96004654e-12 0 0)
(3.3937899e-12 0 0)
(2.87117491e-12 0 0)
(3.87231711e-12 0 0)
(5.077719e-12 0 0)
(3.29066012e-12 0 0)
(3.38410893e-12 0 0)
(3.01208104e-12 0 0)
(3.20029615e-12 0 0)
(3.74004723e-12 0 0)
(3.75589009e-12 0 0)
(3.46443959e-12 0 0)
(3.28718752e-12 0 0)
(3.52317203e-12 0 0)
(3.3979607e-12 0 0)
(3.7666066e-12 0 0)
(3.49350204e-12 0 0)
(3.44518961e-12 0 0)
(3.64742275e-12 0 0)
(3.09700769e-12 0 0)
(2.2590985e-12 0 0)
(3.24137895e-12 0 0)
(2.92735058e-12 0 0)
(2.79817426e-12 0 0)
(1.93519003e-12 0 0)
(2.85852958e-12 0 0)
(3.43865505e-12 0 0)
(1.89415457e-12 0 0)
(2.35696928e-12 0 0)
(1.52636303e-12 0 0)
(1.93596655e-12 0 0)
(1.25269753e-12 0 0)
(1.91879337e-12 0 0)
(1.80885928e-12 0 0)
(2.22339085e-12 0 0)
(1.15348797e-12 0 0)
(1.46034839e-12 0 0)
(1.60619712e-12 0 0)
(1.04948434e-12 0 0)
(1.52386242e-12 0 0)
(1.05771211e-12 0 0)
(9.64503224e-13 0 0)
(2.29838548e-13 0 0)
(5.0695124e-13 0 0)
(7.24922047e-13 0 0)
(1.64869662e-12 0 0)
(2.18717624e-12 0 0)
(2.07722897e-12 0 0)
(7.69781035e-13 0 0)
(1.38736104e-12 0 0)
(2.32408411e-12 0 0)
(1.7404586e-12 0 0)
(2.27437748e-12 0 0)
(1.97911475e-12 0 0)
(1.49345878e-12 0 0)
(1.3764462e-12 0 0)
(1.89455444e-12 0 0)
(1.92698341e-12 0 0)
(1.49023866e-12 0 0)
(6.99020631e-13 0 0)
(1.43907584e-12 0 0)
(1.22041447e-12 0 0)
(1.67501335e-12 0 0)
(1.23507034e-12 0 0)
(8.36736568e-13 0 0)
(6.64069964e-13 0 0)
(-3.11868194e-14 0 0)
(1.22623149e-12 0 0)
(2.18482921e-12 0 0)
(1.58388748e-12 0 0)
(1.86525527e-12 0 0)
(7.67967998e-13 0 0)
(1.20204527e-12 0 0)
(1.26179809e-12 0 0)
(1.47796466e-12 0 0)
(1.36761216e-12 0 0)
(1.70287785e-12 0 0)
(1.13393089e-12 0 0)
(2.43791235e-12 0 0)
(2.30330227e-12 0 0)
(1.48118947e-12 0 0)
(2.21093579e-12 0 0)
(1.28469431e-12 0 0)
(1.83748589e-12 0 0)
(1.71047608e-12 0 0)
(2.45378867e-12 0 0)
(2.2671936e-12 0 0)
(2.5258677e-12 0 0)
(2.96005367e-12 0 0)
(2.96314134e-12 0 0)
(2.74479695e-12 0 0)
(3.43281755e-12 0 0)
(2.89641017e-12 0 0)
(2.84930652e-12 0 0)
(2.40213875e-12 0 0)
(3.78715864e-12 0 0)
(4.20359165e-12 0 0)
(3.04230726e-12 0 0)
(3.29624565e-12 0 0)
(5.06874918e-12 0 0)
(3.17961316e-12 0 0)
(4.6921201e-12 0 0)
(3.8025302e-12 0 0)
(4.22220743e-12 0 0)
(2.83077225e-12 0 0)
(4.20451264e-12 0 0)
(4.62187822e-12 0 0)
(2.87753314e-12 0 0)
(2.45526737e-12 0 0)
(3.34364909e-12 0 0)
(3.80195203e-12 0 0)
(2.87751819e-12 0 0)
(4.37874093e-12 0 0)
(3.82487113e-12 0 0)
(3.01143929e-12 0 0)
(4.32969906e-12 0 0)
(3.27004543e-12 0 0)
(3.92924075e-12 0 0)
(4.55872844e-12 0 0)
(3.97349146e-12 0 0)
(4.20870447e-12 0 0)
(4.32899841e-12 0 0)
(3.72194729e-12 0 0)
(3.9076848e-12 0 0)
(4.38997585e-12 0 0)
(3.68530723e-12 0 0)
(4.19255141e-12 0 0)
(3.90472446e-12 0 0)
(4.86293176e-12 0 0)
(4.11391456e-12 0 0)
(4.48724068e-12 0 0)
(3.55761089e-12 0 0)
(3.8863964e-12 0 0)
(3.64432861e-12 0 0)
(2.56406892e-12 0 0)
(3.47939411e-12 0 0)
(3.17396172e-12 0 0)
(2.73284631e-12 0 0)
(2.82259355e-12 0 0)
(2.75980739e-12 0 0)
(3.63122948e-12 0 0)
(2.87122465e-12 0 0)
(1.97748627e-12 0 0)
(2.24853013e-12 0 0)
(2.9443743e-12 0 0)
(3.58730397e-12 0 0)
(2.89068799e-12 0 0)
(2.67202973e-12 0 0)
(2.66522269e-12 0 0)
(2.91326525e-12 0 0)
(3.39724178e-12 0 0)
(2.73589704e-12 0 0)
(3.08548668e-12 0 0)
(2.72804678e-12 0 0)
(3.08994391e-12 0 0)
(3.24733612e-12 0 0)
(3.64882634e-12 0 0)
(3.64156618e-12 0 0)
(3.58114769e-12 0 0)
(3.05512982e-12 0 0)
(3.05018322e-12 0 0)
(2.83721516e-12 0 0)
(3.78423066e-12 0 0)
(3.67897624e-12 0 0)
(3.0612067e-12 0 0)
(3.28750577e-12 0 0)
(3.14392269e-12 0 0)
(4.14958115e-12 0 0)
(3.91056519e-12 0 0)
(3.42789295e-12 0 0)
(2.89598563e-12 0 0)
(3.6234548e-12 0 0)
(3.27186971e-12 0 0)
(2.94966387e-12 0 0)
(1.95000343e-12 0 0)
(2.0978294e-12 0 0)
(3.15301472e-12 0 0)
(1.86461981e-12 0 0)
(2.06430904e-12 0 0)
(2.412625e-12 0 0)
(2.92671898e-12 0 0)
(3.01255062e-12 0 0)
(2.62332413e-12 0 0)
(3.0174441e-12 0 0)
(1.42885257e-12 0 0)
(2.7177511e-12 0 0)
(1.97754574e-12 0 0)
(1.59010532e-12 0 0)
(2.66521832e-12 0 0)
(2.4563197e-12 0 0)
(3.26195795e-12 0 0)
(2.62676666e-12 0 0)
(2.65644686e-12 0 0)
(2.59664634e-12 0 0)
(2.27458316e-12 0 0)
(2.30680482e-12 0 0)
(1.66427086e-12 0 0)
(1.30708958e-12 0 0)
(1.98542051e-12 0 0)
(1.9238986e-12 0 0)
(1.15877738e-12 0 0)
(1.8998189e-12 0 0)
(1.79186012e-12 0 0)
(1.83431693e-12 0 0)
(1.59712267e-12 0 0)
(2.07946415e-12 0 0)
(1.93085498e-12 0 0)
(1.26899808e-12 0 0)
(1.33421563e-12 0 0)
(1.60170764e-12 0 0)
(9.21116134e-13 0 0)
(1.58019726e-12 0 0)
(1.4925276e-12 0 0)
(1.32169487e-12 0 0)
(2.64442965e-12 0 0)
(2.46752022e-12 0 0)
(1.28550354e-12 0 0)
(3.10271163e-12 0 0)
(2.74974967e-12 0 0)
(2.39521394e-12 0 0)
(2.40403267e-12 0 0)
(3.72962703e-12 0 0)
(2.17552694e-12 0 0)
(2.99981371e-12 0 0)
(2.38063133e-12 0 0)
(2.3476713e-12 0 0)
(2.57461767e-12 0 0)
(2.54774423e-12 0 0)
(2.59810318e-12 0 0)
(3.12848849e-12 0 0)
(2.57761298e-12 0 0)
(2.79336428e-12 0 0)
(1.7639947e-12 0 0)
(2.94872643e-12 0 0)
(3.50027191e-12 0 0)
(2.49166099e-12 0 0)
(2.56878137e-12 0 0)
(3.29982145e-12 0 0)
(3.00704928e-12 0 0)
(2.72712706e-12 0 0)
(2.00435142e-12 0 0)
(2.87051495e-12 0 0)
(3.0498914e-12 0 0)
(2.74455059e-12 0 0)
(3.37455199e-12 0 0)
(3.53587164e-12 0 0)
(2.8389653e-12 0 0)
(2.3919559e-12 0 0)
(2.90304202e-12 0 0)
(2.26803185e-12 0 0)
(3.54322541e-12 0 0)
(2.12190234e-12 0 0)
(2.30081343e-12 0 0)
(1.94910399e-12 0 0)
(2.67709781e-12 0 0)
(3.08211517e-12 0 0)
(2.49768702e-12 0 0)
(3.59964838e-12 0 0)
(2.7190903e-12 0 0)
(3.78981592e-12 0 0)
(4.13846039e-12 0 0)
(3.37945197e-12 0 0)
(3.71999701e-12 0 0)
(5.54633718e-12 0 0)
(3.09515304e-12 0 0)
(4.29335411e-12 0 0)
(3.75965805e-12 0 0)
(5.42199515e-12 0 0)
(4.61622987e-12 0 0)
(4.89499206e-12 0 0)
(3.69054112e-12 0 0)
(3.94200085e-12 0 0)
(4.8112361e-12 0 0)
(4.6050822e-12 0 0)
(4.99518146e-12 0 0)
(4.53775582e-12 0 0)
(4.16974178e-12 0 0)
(5.78945838e-12 0 0)
(4.78328013e-12 0 0)
(5.32576124e-12 0 0)
(4.93599271e-12 0 0)
(5.21940903e-12 0 0)
(5.06341309e-12 0 0)
(4.83909562e-12 0 0)
(5.55970828e-12 0 0)
(4.91707346e-12 0 0)
(5.18534724e-12 0 0)
(3.95202989e-12 0 0)
(4.72513832e-12 0 0)
(4.30504524e-12 0 0)
(4.9406673e-12 0 0)
(4.47147656e-12 0 0)
(4.95590349e-12 0 0)
(4.6961805e-12 0 0)
(3.69828478e-12 0 0)
(4.81348231e-12 0 0)
(4.07491028e-12 0 0)
(4.40713567e-12 0 0)
(3.4407129e-12 0 0)
(4.62021793e-12 0 0)
(4.37471026e-12 0 0)
(4.06838195e-12 0 0)
(4.70498948e-12 0 0)
(4.75617396e-12 0 0)
(5.07467174e-12 0 0)
(5.19864377e-12 0 0)
(5.73575703e-12 0 0)
(5.14345206e-12 0 0)
(5.5799911e-12 0 0)
(6.34454846e-12 0 0)
(6.02772473e-12 0 0)
(5.37351507e-12 0 0)
(5.76818945e-12 0 0)
(4.89007782e-12 0 0)
(5.20733605e-12 0 0)
(5.26328814e-12 0 0)
(5.425097e-12 0 0)
(5.24983567e-12 0 0)
(4.95728752e-12 0 0)
(4.99166154e-12 0 0)
(5.85624618e-12 0 0)
(5.07679723e-12 0 0)
(5.08867097e-12 0 0)
(4.54971138e-12 0 0)
(5.37371236e-12 0 0)
(4.76291532e-12 0 0)
(5.12067248e-12 0 0)
(4.09315016e-12 0 0)
(4.42159009e-12 0 0)
(3.90678201e-12 0 0)
(4.63721082e-12 0 0)
(4.97035591e-12 0 0)
(4.72071517e-12 0 0)
(5.2790864e-12 0 0)
(4.7185292e-12 0 0)
(5.43464471e-12 0 0)
(4.87016176e-12 0 0)
(4.41931508e-12 0 0)
(5.0420455e-12 0 0)
(3.97866649e-12 0 0)
(5.07181754e-12 0 0)
(5.22414138e-12 0 0)
(4.75215173e-12 0 0)
(4.3394862e-12 0 0)
(5.10187449e-12 0 0)
(5.75805896e-12 0 0)
(5.35240401e-12 0 0)
(4.38382693e-12 0 0)
(4.07306551e-12 0 0)
(4.03852134e-12 0 0)
(4.16819561e-12 0 0)
(3.88621966e-12 0 0)
(4.596286e-12 0 0)
(4.34430236e-12 0 0)
(4.33628318e-12 0 0)
(4.56381857e-12 0 0)
(5.29889138e-12 0 0)
(4.69030082e-12 0 0)
(4.91497643e-12 0 0)
(5.87342862e-12 0 0)
(5.13005226e-12 0 0)
(5.96563131e-12 0 0)
(5.2242953e-12 0 0)
(6.10444875e-12 0 0)
(5.21421535e-12 0 0)
(4.9795436e-12 0 0)
(5.6021051e-12 0 0)
(5.91942643e-12 0 0)
(4.72110414e-12 0 0)
(4.20253313e-12 0 0)
(4.25428069e-12 0 0)
(5.01771948e-12 0 0)
(4.93972318e-12 0 0)
(4.26475594e-12 0 0)
(5.07688361e-12 0 0)
(4.57895717e-12 0 0)
(5.54029785e-12 0 0)
(4.40401866e-12 0 0)
(4.62952519e-12 0 0)
(5.06327966e-12 0 0)
(4.49205916e-12 0 0)
(4.80899482e-12 0 0)
(3.84150984e-12 0 0)
(5.6272032e-12 0 0)
(5.40908108e-12 0 0)
(4.51955722e-12 0 0)
(5.28183169e-12 0 0)
(5.45443814e-12 0 0)
(5.16888425e-12 0 0)
(5.22651452e-12 0 0)
(5.26674962e-12 0 0)
(5.08705102e-12 0 0)
(4.48857583e-12 0 0)
(4.84532361e-12 0 0)
(4.79655579e-12 0 0)
(4.54957281e-12 0 0)
(4.32587323e-12 0 0)
(4.09432044e-12 0 0)
(4.31482316e-12 0 0)
(3.2604789e-12 0 0)
(4.62055639e-12 0 0)
(3.78007327e-12 0 0)
(4.1956987e-12 0 0)
(5.09145527e-12 0 0)
(3.77698359e-12 0 0)
(4.46185116e-12 0 0)
(4.84675042e-12 0 0)
(4.88919518e-12 0 0)
(5.25322515e-12 0 0)
(4.17385037e-12 0 0)
(4.47164523e-12 0 0)
(4.14471464e-12 0 0)
(3.25108164e-12 0 0)
(4.07551831e-12 0 0)
(4.30678927e-12 0 0)
(3.5063748e-12 0 0)
(4.27392694e-12 0 0)
(3.97255108e-12 0 0)
(4.9142485e-12 0 0)
(4.6873791e-12 0 0)
(4.25343217e-12 0 0)
(3.96016381e-12 0 0)
(4.39481963e-12 0 0)
(3.62745775e-12 0 0)
(4.31056411e-12 0 0)
(4.34179126e-12 0 0)
(4.2507075e-12 0 0)
(5.04081927e-12 0 0)
(4.5768063e-12 0 0)
(5.92849232e-12 0 0)
(4.8987666e-12 0 0)
(4.75542779e-12 0 0)
(4.8844168e-12 0 0)
(3.91434972e-12 0 0)
(4.85823695e-12 0 0)
(5.62760272e-12 0 0)
(4.38352871e-12 0 0)
(4.80845339e-12 0 0)
(4.14731571e-12 0 0)
(3.94259584e-12 0 0)
(4.71298021e-12 0 0)
(4.17314823e-12 0 0)
(3.9088352e-12 0 0)
(3.40058476e-12 0 0)
(3.4769354e-12 0 0)
(3.47802378e-12 0 0)
(3.3422608e-12 0 0)
(3.67152414e-12 0 0)
(2.96494218e-12 0 0)
(3.43698643e-12 0 0)
(2.72118561e-12 0 0)
(2.96503643e-12 0 0)
(2.70260344e-12 0 0)
(2.33797352e-12 0 0)
(2.97001549e-12 0 0)
(2.79967856e-12 0 0)
(2.56315846e-12 0 0)
(3.32728005e-12 0 0)
(3.77148848e-12 0 0)
(2.77908446e-12 0 0)
(2.95159421e-12 0 0)
(3.24527548e-12 0 0)
(2.21353317e-12 0 0)
(3.20321399e-12 0 0)
(2.39239801e-12 0 0)
(1.65137056e-12 0 0)
(2.26250481e-12 0 0)
(1.99740072e-12 0 0)
(1.64260507e-12 0 0)
(2.59625531e-12 0 0)
(1.93055871e-12 0 0)
(1.14317612e-12 0 0)
(1.08808874e-12 0 0)
(3.7944139e-13 0 0)
(9.41383236e-13 0 0)
(1.12806399e-12 0 0)
(-1.37933724e-13 0 0)
(4.23966293e-13 0 0)
(6.03539068e-13 0 0)
(-7.57465729e-13 0 0)
(1.70250811e-13 0 0)
(-8.72205909e-14 0 0)
(2.2561121e-13 0 0)
(-2.38100576e-13 0 0)
(2.33472149e-13 0 0)
(-1.94981813e-13 0 0)
(2.41288816e-13 0 0)
(-8.24191769e-13 0 0)
(-1.22994411e-12 0 0)
(-5.17153194e-13 0 0)
(-8.14325571e-13 0 0)
(-2.8496462e-13 0 0)
(-1.29288569e-13 0 0)
(-7.93114256e-13 0 0)
(-8.78243858e-14 0 0)
(-8.73624626e-13 0 0)
(-8.84110692e-13 0 0)
(-1.54782026e-12 0 0)
(-1.67328199e-12 0 0)
(-2.2762168e-12 0 0)
(-2.27692333e-12 0 0)
(-1.56989699e-12 0 0)
(-2.14666795e-12 0 0)
(-2.38025873e-12 0 0)
(-2.15005511e-12 0 0)
(-2.5683891e-12 0 0)
(-3.88667662e-12 0 0)
(-2.66581962e-12 0 0)
(-2.97528785e-12 0 0)
(-3.28128237e-12 0 0)
(-3.00280632e-12 0 0)
(-1.92594425e-12 0 0)
(-3.86307212e-12 0 0)
(-3.76317662e-12 0 0)
(-2.21828577e-12 0 0)
(-3.21497946e-12 0 0)
(-2.60088374e-12 0 0)
(-3.48774874e-12 0 0)
(-2.73175718e-12 0 0)
(-3.07575033e-12 0 0)
(-2.40945129e-12 0 0)
(-2.54882992e-12 0 0)
(-2.97140829e-12 0 0)
(-3.22319693e-12 0 0)
(-3.62632648e-12 0 0)
(-2.92863467e-12 0 0)
(-3.10743874e-12 0 0)
(-3.06851114e-12 0 0)
(-3.21282562e-12 0 0)
(-3.58835939e-12 0 0)
(-4.11098576e-12 0 0)
(-4.31247833e-12 0 0)
(-3.07871594e-12 0 0)
(-2.02377708e-12 0 0)
(-2.34795633e-12 0 0)
(-4.14108675e-12 0 0)
(-2.54178334e-12 0 0)
(-2.64310374e-12 0 0)
(-3.46008723e-12 0 0)
(-2.05940946e-12 0 0)
(-2.05056547e-12 0 0)
(-2.74625932e-12 0 0)
(-2.08811494e-12 0 0)
(-2.22037674e-12 0 0)
(-3.25690718e-12 0 0)
(-2.70160869e-12 0 0)
(-2.77535367e-12 0 0)
(-4.85641582e-12 0 0)
(-3.59165148e-12 0 0)
(-3.24345831e-12 0 0)
(-3.60151705e-12 0 0)
(-2.9599874e-12 0 0)
(-4.300056e-12 0 0)
(-3.03156203e-12 0 0)
(-3.02364617e-12 0 0)
(-3.26821993e-12 0 0)
(-3.47027827e-12 0 0)
(-2.64741755e-12 0 0)
(-3.58246141e-12 0 0)
(-3.61397731e-12 0 0)
(-4.77447767e-12 0 0)
(-4.67827423e-12 0 0)
(-3.76369419e-12 0 0)
(-4.44609441e-12 0 0)
(-5.76748933e-12 0 0)
(-4.92936923e-12 0 0)
(-5.23107562e-12 0 0)
(-5.26023759e-12 0 0)
(-6.05885776e-12 0 0)
(-6.40968552e-12 0 0)
(-5.28667441e-12 0 0)
(-5.53559843e-12 0 0)
(-6.75536988e-12 0 0)
(-6.64801606e-12 0 0)
(-5.6870813e-12 0 0)
(-6.47482021e-12 0 0)
(-7.79551733e-12 0 0)
(-6.31958177e-12 0 0)
(-5.07840551e-12 0 0)
(-6.17231207e-12 0 0)
(-6.80570324e-12 0 0)
(-6.14213029e-12 0 0)
(-7.02979279e-12 0 0)
(-7.73467675e-12 0 0)
(-6.25065834e-12 0 0)
(-6.93865456e-12 0 0)
(-6.96390032e-12 0 0)
(-6.77439776e-12 0 0)
(-7.04701844e-12 0 0)
(-7.86713431e-12 0 0)
(-6.28680781e-12 0 0)
(-7.94945244e-12 0 0)
(-6.96093358e-12 0 0)
(-6.25527314e-12 0 0)
(-6.99480539e-12 0 0)
(-8.38423025e-12 0 0)
(-6.70749433e-12 0 0)
(-6.96738215e-12 0 0)
(-5.97879362e-12 0 0)
(-6.03337367e-12 0 0)
(-5.75916388e-12 0 0)
(-6.62190727e-12 0 0)
(-7.49869814e-12 0 0)
(-6.35476528e-12 0 0)
(-6.06733741e-12 0 0)
(-6.01175593e-12 0 0)
(-7.23873011e-12 0 0)
(-6.4344931e-12 0 0)
(-5.91852269e-12 0 0)
(-6.6152647e-12 0 0)
(-7.0411842e-12 0 0)
(-6.03632265e-12 0 0)
(-7.19311283e-12 0 0)
(-5.62716412e-12 0 0)
(-6.76193784e-12 0 0)
(-5.90005786e-12 0 0)
(-6.19821241e-12 0 0)
(-6.25271628e-12 0 0)
(-6.88445199e-12 0 0)
(-6.23548201e-12 0 0)
(-7.04817976e-12 0 0)
(-6.38927498e-12 0 0)
(-5.67111843e-12 0 0)
(-6.0367442e-12 0 0)
(-6.09511535e-12 0 0)
(-7.07776107e-12 0 0)
(-4.64970344e-12 0 0)
(-6.08683598e-12 0 0)
(-5.04829011e-12 0 0)
(-5.14446573e-12 0 0)
(-4.69256987e-12 0 0)
(-5.31954458e-12 0 0)
(-4.46781516e-12 0 0)
(-5.12698957e-12 0 0)
(-3.6677728e-12 0 0)
(-4.58760935e-12 0 0)
(-3.94176366e-12 0 0)
(-4.29909091e-12 0 0)
(-4.44431471e-12 0 0)
(-3.17971715e-12 0 0)
(-3.26087181e-12 0 0)
(-4.59241234e-12 0 0)
(-4.53962705e-12 0 0)
(-4.06435587e-12 0 0)
(-3.98655294e-12 0 0)
(-4.06780334e-12 0 0)
(-3.94293541e-12 0 0)
(-3.33949444e-12 0 0)
(-3.31631368e-12 0 0)
(-3.84576585e-12 0 0)
(-3.08988908e-12 0 0)
(-3.91147903e-12 0 0)
(-2.69859178e-12 0 0)
(-3.8627619e-12 0 0)
(-4.99075692e-12 0 0)
(-4.84389989e-12 0 0)
(-3.97391527e-12 0 0)
(-4.35699447e-12 0 0)
(-3.95468113e-12 0 0)
(-3.89690253e-12 0 0)
(-4.92073588e-12 0 0)
(-3.90023407e-12 0 0)
(-3.11615943e-12 0 0)
(-3.51453871e-12 0 0)
(-4.38904876e-12 0 0)
(-3.97125469e-12 0 0)
(-2.97918573e-12 0 0)
(-4.14736809e-12 0 0)
(-3.77479636e-12 0 0)
(-3.51576843e-12 0 0)
(-3.55149215e-12 0 0)
(-3.84071186e-12 0 0)
(-3.67646282e-12 0 0)
(-3.18401909e-12 0 0)
(-2.74712684e-12 0 0)
(-2.39543945e-12 0 0)
(-2.54407927e-12 0 0)
(-2.58996649e-12 0 0)
(-2.89819445e-12 0 0)
(-3.04256551e-12 0 0)
(-2.66037799e-12 0 0)
(-2.20391671e-12 0 0)
(-2.75752667e-12 0 0)
(-2.65660555e-12 0 0)
(-2.97914653e-12 0 0)
(-2.71288811e-12 0 0)
(-3.70443796e-12 0 0)
(-3.39836573e-12 0 0)
(-3.38029559e-12 0 0)
(-2.44868127e-12 0 0)
(-2.77524034e-12 0 0)
(-3.23673499e-12 0 0)
(-2.59341041e-12 0 0)
(-2.09485496e-12 0 0)
(-1.42362569e-12 0 0)
(-2.79786427e-12 0 0)
(-1.0541083e-12 0 0)
(-2.0688955e-12 0 0)
(-2.38404519e-12 0 0)
(-2.78154393e-12 0 0)
(-2.07930094e-12 0 0)
(-2.44450118e-12 0 0)
(-1.61629526e-12 0 0)
(-2.00829053e-12 0 0)
(-2.52908603e-12 0 0)
(-2.78118655e-12 0 0)
(-2.78378541e-12 0 0)
(-1.84126072e-12 0 0)
(-2.64259899e-12 0 0)
(-2.45982031e-12 0 0)
(-1.91045964e-12 0 0)
(-2.77130727e-12 0 0)
(-2.29245767e-12 0 0)
(-2.37891121e-12 0 0)
(-2.18088346e-12 0 0)
(-3.28012135e-12 0 0)
(-2.94950894e-12 0 0)
(-3.19511099e-12 0 0)
(-2.71983642e-12 0 0)
(-2.45136864e-12 0 0)
(-3.77905091e-12 0 0)
(-2.88804033e-12 0 0)
(-3.9566701e-12 0 0)
(-3.68605328e-12 0 0)
(-3.5934978e-12 0 0)
(-2.69504893e-12 0 0)
(-4.57526192e-12 0 0)
(-5.02574991e-12 0 0)
(-3.10150456e-12 0 0)
(-2.65841132e-12 0 0)
(-3.16375889e-12 0 0)
(-3.61911166e-12 0 0)
(-3.2554121e-12 0 0)
(-3.45943853e-12 0 0)
(-1.84622226e-12 0 0)
(-2.62171873e-12 0 0)
(-2.31744863e-12 0 0)
(-2.60097232e-12 0 0)
(-2.231883e-12 0 0)
(-3.2355401e-12 0 0)
(-2.39649313e-12 0 0)
(-2.07595733e-12 0 0)
(-1.65798188e-12 0 0)
(-1.11526263e-12 0 0)