/*--------------------------------*- C++ -*----------------------------------*\
| =========                 |                                                 |
| \\      /  F ield         | OpenFOAM: The Open Source CFD Toolbox           |
|  \\    /   O peration     | Version:  2206                                  |
|   \\  /    A nd           | Website:  www.openfoam.com                      |
|    \\/     M anipulation  |                                                 |
\*---------------------------------------------------------------------------*/
FoamFile
{
    version     2.0;
    format      ascii;
    arch        "LSB;label=32;scalar=64";
    class       volScalarField;
    location    "1.12e-05";
    object      PVsourcePV;
}
// * * * * * * * * * * * * * * * * * * * * * * * * * * * * * * * * * * * * * //

dimensions      [1 -3 -1 0 0 0 0];

internalField   nonuniform List<scalar> 
3183
(
0
0
0
0
0
0
0
0
0
0
0
0
0
0
0
0
0
0
0
0
0
0
0
0
0
0
0
0
0
0
0
0
0
0
0
0
0
0
0
0
0
0
0
0
0
0
0
0
0
0
0
0
0
0
0
0
0
0
0
0
0
0
0
0
0
0
0
0
0
0
0
0
0
0
0
0
0
0
0
0
0
0
0
0
0
0
0
0
0
0
0
0
0
0
0
0
0
0
0
0
0
0
0
0
0
0
0
0
0
0
0
0
0
0
0
0
0
0
0
0
0
0
0
0
0
0
0
0
0
0
0
0
0
0
0
0
0
0
0
0
0
0
0
0
0
0
0
0
0
0
0
0
0
0
0
0
0
0
0
0
0
0
0
0
0
0
0
0
0
0
0
0
0
0
0
0
0
0
0
0
0
0
0
0
0
0
0
0
0
0
0
0
0
0
0
0
0
0
0
0
0
0
0
0
0
0
0
0
0
0
0
0
0
0
0
0
0
0
0
0
0
0
0
0
0
0
0
0
0
0
0
0
0
0
0
0
0
0
0
0
0
0
0
0
0
0
0
0
0
0
0
0
0
0
0
0
0
0
0
0
0
0
0
0
0
0
0
0
0
0
0
0
0
0
0
0
0
0
0
0
0
0
0
0
0
0
0
0
0
0
0
0
0
0
0
0
0
0
0
0
0
0
0
0
0
0
0
0
0
0
0
0
0
0
0
0
0
0
0
0
0
0
0
0
0
0
0
0
0
0
0
0
0
0
0
0
0
0
0
0
0
0
0
0
0
0
0
0
0
0
0
0
0
0
0
0
0
0
0
0
0
0
0
0
0
0
0
0
0
0
0
0
0
0
0
0
0
0
0
0
0
0
0
0
0
0
0
0
0
0
0
0
0
0
0
0
0
0
0
0
0
0
0
0
0
0
0
0
0
0
0
0
0
0
0
0
0
0
0
0
0
0
0
0
0
0
0
0
0
0
0
0
0
0
0
0
0
0
0
0
0
0
0
0
0
0
0
0
0
0
0
0
0
0
0
0
0
0
0
0
0
0
0
0
0
0
0
0
0
0
0
0
0
0
0
0
0
0
0
0
0
0
0
0
0
0
0
0
0
0
0
0
0
0
0
0
0
0
0
0
0
0
0
0
0
0
0
0
0
0
0
0
0
0
0
0
0
0
0
0
0
0
0
0
0
0
0
0
0
0
0
0
0
0
0
0
0
0
0
0
0
0
0
0
0
0
0
0
0
0
0
0
0
0
0
0
0
0
0
0
0
0
0
0
0
0
0
0
0
0
0
0
0
0
0
0
0
0
0
0
0
0
0
0
0
0
0
0
0
0
0
0
0
0
0
0
0
0
0
0
0
0
0
0
0
0
0
0
0
0
0
0
0
0
0
0
0
0
0
0
0
0
0
0
0
0
0
0
0
0
0
0
0
0
0
0
0
0
0
0
0
0
0
0
0
0
0
0
0
0
0
0
0
0
0
0
0
0
0
0
0
0
0
0
0
0
0
0
0
0
0
0
0
0
0
0
0
0
0
0
0
0
0
0
0
0
0
0
0
0
0
0
0
0
0
0
0
0
0
0
0
0
0
0
0
0
0
0
0
0
0
0
0
0
0
0
0
0
0
0
0
0
0
0
0
0
0
0
0
0
0
0
0
0
0
0
0
0
0
0
0
0
0
0
0
0
0
0
0
0
0
0
0
0
0
0
0
0
0
0
0
0
0
0
0
0
0
0
0
0
0
0
0
0
0
0
0
0
0
0
0
0
0
0
0
0
0
0
0
0
0
0
0
0
0
0
0
0
0
0
0
0
0
0
0
0
0
0
0
0
0
0
0
0
0
0
0
0
0
0
0
0
0
0
0
0
0
0
0
0
0
0
0
0
0
0
0
0
0
0
0
0
0
0
0
0
0
0
0
0
0
0
0
0
0
0
0
0
0
0
0
0
0
0
0
0
0
0
0
0
0
0
0
0
0
0
0
0
0
0
0
0
0
0
0
0
0
0
0
0
0
0
0
0
0
0
0
0
0
0
0
0
0
0
0
0
0
0
0
0
0
0
0
0
0
0
0
0
0
0
0
0
0
0
0
0
0
0
0
0
0
0
0
0
0
0
0
0
0
0
0
0
0
0
0
0
0
0
0
0
0
0
0
0
0
0
0
0
0
0
0
0
0
0
0
0
0
0
0
0
0
0
0
0
0
0
0
0
0
0
0
0
0
0
0
0
0
0
0
0
0
0
0
0
0
0
0
0
0
0
0
0
0
0
0
0
0
0
0
0
0
0
0
0
0
0
0
0
0
0
0
0
0
0
0
0
0
0
0
0
0
0
0
0
0
0
0
0
0
0
0
0
0
0
0
0
0
0
0
0
0
0
0
0
0
0
0
0
0
0
0
0
0
0
0
0
0
0
0
0
0
0
0
0
0
0
0
0
0
0
0
0
0
0
0
0
0
0
0
0
0
0
0
0
0
0
0
0
0
0
0
0
0
0
0
0
0
0
0
0
0
0
0
0
0
0
0
0
0
0
0
0
0
0
0
0
0
0
0
0
0
0
0
0
0
0
0
0
0
0
0
0
0
0
0
0
0
0
0
0
0
0
0
0
0
0
0
0
0
0
0
0
0
0
0
0
0
0
0
0
0
0
0
0
0
0
0
0
0
0
0
0
0
0
0
0
0
0
0
0
0
0
0
0
0
0
0
0
0
0
0
0
0
0
0
0
0
0
0
0
0
0
0
0
0
0
0
0
0
0
0
0
0
0
0
0
0
0
0
0
0
0
0
0
0
0
0
0
0
0
0
0
0
0
0
0
0
0
0
0
0
0
0
0
0
0
0
0
0
0
0
0
0
0
0
0
0
0
0
0
0
0
0
0
0
0
0
0
0
0
0
0
0
0
0
0
0
0
0
0
0
0
0
0
0
0
0
0
0
0
0
0
0
0
0
0
0
0
0
0
0
0
0
0
0
0
0
0
0
0
0
0
0
0
0
0
0
0
0
0
0
0
0
0
0
0
0
0
0
0
0
0
0
0
0
0
0
0
0
0
0
0
0
0
0
0
0
0
0
0
0
0
0
0
0
0
0
0
0
0
0
0
0
0
0
0
0
0
0
0
0
0
0
0
0
0
0
0
0
0
0
0
0
0
0
0
0
0
0
0
0
0
0
0
0
0
0
0
0
0
0
0
0
0
0
0
0
0
0
0
0
0
0
0
0
0
0
0
0
0
0
0
0
0
0
0
0
0
0
0
0
0
0
0
0
0
0
0
0
0
0
0
0
0
0
0
0
0
0
0
0
0
0
0
0
0
0
0
0
0
0
0
0
0
0
0
0
0
0
0
0
0
0
0
0
0
0
0
0
0
0
0
0
0
0
0
0
0
0
0
0
0
0
0
0
0
0
0
0
0
0
0
0
0
0
0
0
0
0
0
0
0
0
0
0
0
0
0
0
0
0
0
0
0
0
0
0
0
0
0
0
0
0
0
0
0
0
0
0
0
0
0
0
0
0
0
0
0
0
0
0
0
0
0
0
0
0
0
0
0
0
0
0
0
0
0
0
0
0
0
0
0
0
0
0
0
0
0
0
0
0
0
0
0
0
0
0
0
0
0
0
0
0
0
0
0
0
0
0
0
0
0
0
0
0
0
0
0
0
0
0
0
0
0
0
0
0
0
0
0
0
0
0
0
0
0
0
0
0
0
0
0
0
0
0
0
0
0
0
0
0
0
0
0
0
0
0
0
0
0
0
0
0
0
0
0
0
0
0
0
0
0
0
0
0
0
0
0
0
0
0
0
0
0
0
0
0
0
0
0
0
0
0
0
0
0
0
0
0
0
0
0
0
0
0
0
0
0
0
0
0
0
0
0
0
0
0
0
0
0
0
0
0
0
0
0
0
0
0
0
0
0
0
0
0
0
0
0
0
0
0
0
0
0
0
0
0
0
0
0
0
0
0
0
0
0
0
0
0
0
0
0
0
0
0
0
0
0
0
0
0
0
0
0
0
0
0
0
0
0
0
0
0
0
0
0
0
0
0
0
0
0
0
0
0
0
0
0
0
0
0
0
0
0
0
0
0
0
0
0
0
0
0
0
0
0
0
0
0
0
0
0
0
0
0
0
0
0
0
0
0
0
0
0
0
0
0
0
0
0
0
0
0
0
0
0
0
0
0
0
0
0
0
0
0
0
0
0
0
0
0
0
0
0
0
0
0
0
0
0
0
0
0
0
0
0
0
0
0
0
0
0
0
0
0
0
0
0
0
0
0
0
0
0
0
0
0
0
0
0
0
0
0
0
0
0
0
0
0
0
0
0
0
0
0
0
0
0
0
0
0
0
0
0
0
0
0
0
0
0
0
0
0
0
0
0
0
0
0
0
0
0
0
0
0
0
0
0
0
0
0
0
0
0
0
0
0
0
0
0
0
0
0
0
0
0
0
0
0
0
0
0
0
0
0
0
0
0
0
0
0
0
0
0
0
0
0
0
0
0
0
0
0
0
0
0
0
0
0
0
0
0
0
0
0
0
0
0
0
0
0
0
0
0
0
0
0
0
0
0
0
0
0
0
0
0
0
0
0
0
0
0
0
0
0
0
0
0
0
0
0
0
0
0
0
0
0
0
0
0
0
0
0
0
0
0
0
0
0
0
0
0
0
0
0
0
0
0
0
0
0
0
0
0
0
0
0
0
0
0
0
0
0
0
0
0
0
0
0
0
0
0
0
0
0
0
0
0
0
0
0
0
0
0
0
0
0
0
0
0
0
0
0
0
0
0
0
0
0
0
0
0
0
0
0
0
0
0
0
0
0
0
0
0
0
0
0
0
0
0
0
0
0
0
0
0
0
0
0
0
0
0
0
0
0
0
0
0
0
0
0
0
0
0
0
0
0
0
0
0
0
0
0
0
0
0
0
0
0
0
0
0
0
0
0
0
0
0
0
0
0
0
0
0
0
0
0
0
0
0
0
0
0
0
0
0
0
0
0
0
0
0
0
0
0
0
0
0
0
0
0
0
0
0
0
0
0
0
0
0
0
0
0
0
0
0
0
0
0
0
0
0
0
0
0
0
0
0
0
0
0
0
0
0
0
0
0
0
0
0
0
0
0
0
0
0
0
0
0
0
0
0
0
0
0
0
0
0
0
0
0
0
0
0
0
0
0
0
0
0
0
0
0
0
0
0
0
0
0
0
0
0
0
0
0
0
0
0
0
0
0
0
0
0
0
0
0
0
0
0
0
0
0
0
0
0
0
0
0
0
0
0
0
0
0
0
0
0
0
0
0
0
0
0
0
0
0
0
0
0
0
0
0
0
0
0
0
0
0
0
0
0
0
0
0
0
0
0
0
0
0
0
0
0
0
2.68426807e-299
1.90736842e-300
2.35503483e-296
2.03083707e-297
2.03216735e-293
2.05231171e-294
1.72501802e-290
1.98823369e-291
1.44071106e-287
1.8547426e-288
1.18408316e-284
1.68400394e-285
9.5780843e-282
1.48638807e-282
7.62661084e-279
1.28271105e-279
5.97864505e-276
1.0778278e-276
4.61477524e-273
8.86208538e-274
3.50776092e-270
7.13777864e-271
2.62598927e-267
5.63658417e-268
1.9363696e-264
4.36729524e-265
1.40657139e-261
3.32214655e-262
1.00659908e-258
2.48233315e-259
7.09762001e-256
1.82275907e-256
4.93137445e-253
1.31580913e-253
3.3764256e-250
9.34105083e-251
2.2783097e-247
6.52325655e-248
1.51518142e-244
4.48239806e-245
9.93208255e-242
3.03132075e-242
6.41748645e-239
2.01797527e-239
4.08753403e-236
1.32263303e-236
2.56655239e-233
8.53632362e-234
1.58872794e-230
5.42589076e-231
9.69562238e-228
3.3969851e-228
5.83367929e-225
2.09501024e-225
3.46068359e-222
1.27288849e-222
2.02415323e-219
7.61978696e-220
1.1673325e-216
4.49443679e-217
6.63775031e-214
2.61225113e-214
3.72156619e-211
1.49618326e-211
2.05736029e-208
8.44508301e-209
1.12143448e-205
4.69772521e-206
6.02717069e-203
2.57541704e-203
3.19392044e-200
1.39152839e-200
1.66877807e-197
7.41013478e-198
8.59661953e-195
3.88912101e-195
4.36616407e-192
2.01171654e-192
2.18626115e-189
1.02557572e-189
1.07923963e-186
5.15284323e-187
5.25205878e-184
2.55149125e-184
2.51951431e-181
1.24507632e-181
1.19139849e-178
5.98737529e-179
5.55296938e-176
2.83724336e-176
2.55090432e-173
1.32481239e-173
1.15487214e-170
6.09515879e-171
5.15243055e-168
2.76287182e-168
2.26513442e-165
1.23381704e-165
9.81164499e-163
5.42776861e-163
4.18711969e-160
2.35199048e-160
1.76023843e-157
1.00381451e-157
7.28893625e-155
4.21921675e-155
2.97265349e-152
1.7463213e-152
1.1938774e-149
7.11673025e-150
4.72122909e-147
2.85527209e-147
1.83811017e-144
1.12763391e-144
7.04444589e-142
4.38310265e-142
2.65714363e-139
1.67657666e-139
9.86293908e-137
6.3099337e-137
3.60202755e-134
2.33621566e-134
1.29407397e-131
8.50766906e-132
4.57256821e-129
3.04674389e-129
1.58877827e-126
1.07275956e-126
5.42720837e-124
3.71294284e-124
1.82222813e-121
1.26295125e-121
6.01228456e-119
4.22089749e-119
1.94885059e-116
1.38568477e-116
6.20447976e-114
4.46735827e-114
1.93954149e-111
1.4139774e-111
5.95157318e-109
4.39249324e-109
1.79212469e-106
1.33881565e-106
5.29377225e-104
4.00246562e-104
1.5334558e-101
1.17321913e-101
4.35437267e-99
3.37065072e-99
1.2115961e-96
9.48767978e-97
3.30207725e-94
2.61538681e-94
8.81092604e-92
7.05745449e-92
2.30068164e-89
1.86333434e-89
5.87590299e-87
4.81110691e-87
1.46704683e-84
1.21416378e-84
3.578633e-82
2.99321827e-82
8.52373078e-80
7.20380593e-80
1.98106447e-77
1.69146508e-77
4.48973149e-75
3.8720044e-75
9.91446099e-73
8.63479783e-73
2.13154337e-70
1.87438523e-70
4.45776835e-68
3.95708253e-68
9.06004914e-66
8.11688754e-66
1.78768445e-63
1.61605655e-63
3.42072319e-61
3.11955325e-61
6.33998939e-59
5.83136684e-59
1.13666158e-56
1.05418116e-56
1.96842859e-54
1.84033507e-54
3.28749667e-52
3.09757965e-52
5.28576575e-50
5.01796067e-50
8.16591004e-48
7.80842572e-48
1.20952986e-45
1.16462711e-45
1.71353493e-43
1.66088608e-43
2.31553017e-41
2.25855047e-41
2.97542121e-39
2.91944636e-39
3.62290908e-37
3.57429283e-37
4.16311474e-35
4.12729515e-35
4.49355794e-33
4.47213197e-33
4.53086576e-31
4.51832915e-31
4.23988875e-29
4.22320574e-29
3.6534176e-27
3.61938033e-27
2.8710501e-25
2.8265067e-25
2.03300335e-23
2.03194093e-23
1.27692442e-21
1.27103299e-21
6.97506192e-20
6.92748688e-20
3.22107957e-18
3.20945933e-18
1.20727397e-16
1.19756899e-16
3.44436628e-15
3.45497454e-15
2.90842985e-11
3.02366933e-11
0.0136523759
0.056300259
0.701954234
0.757681054
0.454434782
0.381360403
0.0770386325
0.0628348645
0.0118070722
0.0106433922
0.00199659497
0.00188812082
0.000299535636
0.000295195594
4.18442408e-05
4.18486065e-05
5.89295333e-06
5.90617682e-06
1.28051566e-06
1.28421823e-06
7.39847585e-07
7.40133418e-07
6.80988022e-07
6.80982289e-07
6.74988775e-07
6.74989471e-07
6.74421891e-07
6.74422479e-07
6.74369889e-07
6.74371925e-07
6.74366559e-07
6.74367922e-07
6.74365739e-07
6.74368281e-07
6.74364354e-07
6.74367487e-07
6.74366005e-07
6.74365855e-07
6.74366658e-07
6.74365052e-07
6.74366637e-07
6.74365605e-07
6.74367459e-07
6.74365851e-07
6.74366727e-07
6.74366866e-07
6.74366947e-07
6.74366321e-07
6.74367213e-07
6.74366348e-07
6.74367245e-07
6.7436593e-07
6.74366764e-07
6.74366399e-07
6.74366764e-07
6.74366464e-07
6.74366244e-07
6.74366903e-07
6.74366048e-07
6.74366554e-07
6.74367245e-07
6.74366747e-07
6.74366255e-07
6.74366701e-07
6.74366266e-07
6.74366405e-07
6.7436697e-07
6.74366508e-07
6.74366702e-07
6.74365285e-07
6.743661e-07
6.74366708e-07
6.74365514e-07
6.7436736e-07
6.74365375e-07
6.74367194e-07
6.74366661e-07
6.74367282e-07
6.743666e-07
6.74367025e-07
6.74365743e-07
6.74367592e-07
6.74365822e-07
6.74366746e-07
6.743671e-07
6.74365357e-07
6.74367694e-07
6.74365327e-07
6.74367347e-07
6.74365655e-07
6.74367042e-07
6.74365949e-07
6.74366861e-07
6.74367354e-07
6.74366528e-07
6.74366986e-07
6.74366911e-07
6.7436663e-07
6.74367801e-07
6.74366634e-07
6.74366437e-07
6.74367212e-07
6.74367012e-07
6.74366936e-07
6.74366991e-07
6.74366633e-07
6.74366548e-07
6.74367008e-07
6.74366615e-07
6.74367272e-07
6.74366378e-07
6.74366398e-07
6.74365884e-07
6.74366771e-07
6.74365988e-07
6.74366722e-07
6.74365905e-07
6.74367383e-07
6.74366464e-07
6.74367508e-07
6.74366314e-07
6.74367285e-07
6.74366189e-07
6.74367235e-07
6.74366393e-07
6.74367605e-07
6.74365924e-07
6.7436788e-07
6.74365842e-07
6.7436838e-07
6.74366442e-07
6.7436729e-07
6.74367535e-07
6.74367568e-07
6.74367152e-07
6.74366891e-07
6.74368184e-07
6.74366388e-07
6.74367296e-07
6.74366208e-07
6.74366211e-07
6.7436697e-07
6.74365665e-07
6.74366461e-07
6.74366434e-07
6.74366517e-07
6.74366432e-07
6.74366319e-07
6.7436732e-07
6.74366115e-07
6.74367882e-07
6.74365385e-07
6.74368005e-07
6.74366441e-07
6.7436707e-07
6.74367061e-07
6.74366631e-07
6.7436675e-07
6.74367365e-07
6.7436673e-07
6.74368742e-07
6.74366299e-07
6.74368058e-07
6.7436669e-07
6.74368312e-07
6.74366598e-07
6.74367301e-07
6.74366128e-07
6.74366777e-07
6.74366179e-07
6.74366722e-07
6.74366912e-07
6.74366097e-07
6.74366822e-07
6.7436668e-07
6.74367356e-07
6.74367259e-07
6.74367941e-07
6.74367563e-07
6.74367717e-07
6.74368244e-07
6.74367878e-07
6.74368318e-07
6.74367364e-07
6.74367336e-07
6.74366312e-07
6.7436713e-07
6.74366653e-07
6.74367533e-07
6.74367085e-07
6.7436763e-07
6.74366562e-07
6.74368435e-07
6.74366664e-07
6.74368361e-07
6.74366626e-07
6.74367051e-07
6.74366738e-07
6.74367381e-07
6.74366108e-07
6.74367905e-07
6.74366712e-07
6.7436819e-07
6.74366074e-07
6.7436728e-07
6.74366693e-07
6.74367695e-07
6.74366491e-07
6.74368831e-07
6.74367733e-07
6.74368585e-07
6.74366878e-07
6.74368112e-07
6.74367582e-07
6.74367557e-07
6.74367435e-07
6.74367423e-07
6.74367525e-07
6.74367034e-07
6.74367386e-07
6.74367769e-07
6.74367448e-07
6.74366758e-07
6.74366503e-07
6.74367742e-07
6.74366679e-07
6.74367485e-07
6.74367512e-07
6.74367624e-07
6.74368071e-07
6.74367451e-07
6.74367204e-07
6.74368446e-07
6.74366966e-07
6.7436776e-07
6.74367481e-07
6.74367451e-07
6.74368061e-07
6.74367306e-07
6.74368597e-07
6.74366917e-07
6.74368747e-07
6.74367043e-07
6.74368439e-07
6.74366427e-07
6.74368801e-07
6.74366524e-07
6.74368251e-07
6.74366721e-07
6.74367188e-07
6.74367927e-07
6.74367887e-07
6.7436767e-07
6.74367826e-07
6.74366744e-07
6.7436829e-07
6.74367212e-07
6.74368154e-07
6.74367645e-07
6.74367058e-07
6.74368564e-07
6.74367206e-07
6.74369167e-07
6.74366766e-07
6.74369063e-07
6.74366683e-07
6.74367934e-07
6.74366931e-07
6.74367467e-07
6.74366485e-07
6.74368291e-07
6.74366822e-07
6.74367186e-07
6.74368022e-07
6.74366814e-07
6.74367953e-07
6.74367643e-07
6.7436843e-07
6.74367655e-07
6.74367597e-07
6.74368066e-07
6.74367751e-07
6.74367552e-07
6.74368193e-07
6.74367599e-07
6.74366976e-07
6.74367526e-07
6.74367092e-07
6.74367712e-07
6.74368061e-07
6.74367538e-07
6.74367797e-07
6.74367943e-07
6.74367493e-07
6.74367702e-07
6.7436726e-07
6.74367647e-07
6.7436796e-07
6.74368371e-07
6.74367899e-07
6.7436749e-07
6.74368279e-07
6.7436781e-07
6.74368023e-07
6.7436796e-07
6.74367705e-07
6.74367358e-07
6.74367954e-07
6.74367399e-07
6.74368055e-07
6.7436781e-07
6.74368389e-07
6.74366999e-07
6.7436805e-07
6.74367748e-07
6.7436754e-07
6.74367923e-07
6.74367044e-07
6.7436869e-07
6.74367115e-07
6.74368e-07
6.74367877e-07
6.74368201e-07
6.74367373e-07
6.74368465e-07
6.7436763e-07
6.74367747e-07
6.74367849e-07
6.74367669e-07
6.74368618e-07
6.74367204e-07
6.74368854e-07
6.74367633e-07
6.74367775e-07
6.7436788e-07
6.74368149e-07
6.74367537e-07
6.74367955e-07
6.74367125e-07
6.74367868e-07
6.74367957e-07
6.7436825e-07
6.74367575e-07
6.74367766e-07
6.74368444e-07
6.74368066e-07
6.74367845e-07
6.74367786e-07
6.74368146e-07
6.74367495e-07
6.74368777e-07
6.74368646e-07
6.74367135e-07
6.74367887e-07
6.74368196e-07
6.74367209e-07
6.74368937e-07
6.74367902e-07
6.7436798e-07
6.74368481e-07
6.74368591e-07
6.74367295e-07
6.74368184e-07
6.74368299e-07
6.74368804e-07
6.74368841e-07
6.74367822e-07
6.74368721e-07
6.74368251e-07
6.74368741e-07
6.74368781e-07
6.74369032e-07
6.74368538e-07
6.74368822e-07
6.74367946e-07
6.74368305e-07
6.74367222e-07
6.74368274e-07
6.7436823e-07
6.74369173e-07
6.74368702e-07
6.74367981e-07
6.74368898e-07
6.74367695e-07
6.74368915e-07
6.7436762e-07
6.74367967e-07
6.74368247e-07
6.74367772e-07
6.74368624e-07
6.7436752e-07
6.74368675e-07
6.74367482e-07
6.74368275e-07
6.74368979e-07
6.74368346e-07
6.74369112e-07
6.74368054e-07
6.74368557e-07
6.74368194e-07
6.74367997e-07
6.74368162e-07
6.7436781e-07
6.74369512e-07
6.74367491e-07
6.74368802e-07
6.74367564e-07
6.74368915e-07
6.74368991e-07
6.74368436e-07
6.74368852e-07
6.74368837e-07
6.74368194e-07
6.74368935e-07
6.74368783e-07
6.74368098e-07
6.74368973e-07
6.74368401e-07
6.74368249e-07
6.74368153e-07
6.74368301e-07
6.74369162e-07
6.74367696e-07
6.74369286e-07
6.74368925e-07
6.74369015e-07
6.74368781e-07
6.74369116e-07
6.74367871e-07
6.74368973e-07
6.74368562e-07
6.74368639e-07
6.74369108e-07
6.74369143e-07
6.74368848e-07
6.74368649e-07
6.74368327e-07
6.74369137e-07
6.74368612e-07
6.74369284e-07
6.74368467e-07
6.74368794e-07
6.74368352e-07
6.74368875e-07
6.74368546e-07
6.7436942e-07
6.74368948e-07
6.74369549e-07
6.74367972e-07
6.74368803e-07
6.74368914e-07
6.74368468e-07
6.74369076e-07
6.74368937e-07
6.74369017e-07
6.74369438e-07
6.74367961e-07
6.74369358e-07
6.74368733e-07
6.74368179e-07
6.74369015e-07
6.74369046e-07
6.74368052e-07
6.74369594e-07
6.74367877e-07
6.74369769e-07
6.74369015e-07
6.74369118e-07
6.74368845e-07
6.743689e-07
6.74369479e-07
6.74368226e-07
6.74368859e-07
6.74369162e-07
6.74368014e-07
6.74369771e-07
6.7436807e-07
6.74369563e-07
6.74368181e-07
6.74369135e-07
6.74367635e-07
6.7436947e-07
6.74367896e-07
6.74368612e-07
6.74368483e-07
6.74368841e-07
6.74368382e-07
6.74367836e-07
6.74370305e-07
6.74368271e-07
6.74369596e-07
6.7436852e-07
6.74369324e-07
6.74368859e-07
6.74370343e-07
6.74367515e-07
6.74370199e-07
6.74367575e-07
6.74370001e-07
6.74367807e-07
6.74369635e-07
6.74368659e-07
6.74369357e-07
6.74369254e-07
6.74369719e-07
6.74368886e-07
6.74369656e-07
6.74369072e-07
6.74369089e-07
6.74368919e-07
6.743693e-07
6.74368685e-07
6.74369431e-07
6.74369148e-07
6.74369438e-07
6.74369487e-07
6.74369107e-07
6.74369422e-07
6.74369236e-07
6.74369172e-07
6.74369448e-07
6.74369499e-07
6.74369509e-07
6.74369536e-07
6.74369528e-07
6.74369544e-07
6.74369685e-07
6.74369739e-07
6.7436976e-07
6.74369883e-07
6.74369941e-07
6.74370083e-07
6.74370183e-07
6.74370227e-07
6.74370383e-07
6.74370506e-07
6.74370567e-07
6.74370704e-07
6.74370841e-07
6.74370998e-07
6.74371083e-07
6.7437118e-07
6.74371319e-07
6.74371373e-07
6.7437145e-07
6.74371521e-07
6.74371576e-07
6.74371558e-07
6.7437163e-07
6.74371622e-07
6.7437163e-07
6.74371632e-07
6.74371634e-07
6.74371642e-07
6.74371651e-07
6.7437164e-07
6.74371646e-07
6.74371624e-07
6.74371616e-07
6.74371645e-07
6.74371636e-07
6.74371639e-07
6.74371638e-07
6.7437164e-07
6.74371649e-07
6.74371641e-07
6.74371638e-07
6.74371656e-07
6.7437163e-07
6.7437164e-07
6.74371631e-07
6.74371645e-07
6.74371642e-07
6.74371637e-07
6.7437164e-07
6.74371631e-07
6.74371622e-07
6.74371656e-07
)
;

boundaryField
{
    closed
    {
        type            calculated;
        value           uniform 0;
    }
    open
    {
        type            calculated;
        value           uniform 0;
    }
    sides
    {
        type            empty;
    }
}


// ************************************************************************* //
