/*--------------------------------*- C++ -*----------------------------------*\
| =========                 |                                                 |
| \\      /  F ield         | OpenFOAM: The Open Source CFD Toolbox           |
|  \\    /   O peration     | Version:  2206                                  |
|   \\  /    A nd           | Website:  www.openfoam.com                      |
|    \\/     M anipulation  |                                                 |
\*---------------------------------------------------------------------------*/
FoamFile
{
    version     2.0;
    format      ascii;
    arch        "LSB;label=32;scalar=64";
    class       volScalarField;
    location    "1.12e-05";
    object      sourcePV;
}
// * * * * * * * * * * * * * * * * * * * * * * * * * * * * * * * * * * * * * //

dimensions      [1 -3 -1 0 0 0 0];

internalField   nonuniform List<scalar> 
3183
(
0
0
0
0
0
0
0
0
0
0
0
0
0
0
0
0
0
0
0
0
0
0
0
0
0
0
0
0
0
0
0
0
0
0
0
0
0
0
0
0
0
0
0
0
0
0
0
0
0
0
0
0
0
0
0
0
0
0
0
0
0
0
0
0
0
0
0
0
0
0
0
0
0
0
0
0
0
0
0
0
0
0
0
0
0
0
0
0
0
0
0
0
0
0
0
0
0
0
0
0
0
0
0
0
0
0
0
0
0
0
0
0
0
0
0
0
0
0
0
0
0
0
0
0
0
0
0
0
0
0
0
0
0
0
0
0
0
0
0
0
0
0
0
0
0
0
0
0
0
0
0
0
0
0
0
0
0
0
0
0
0
0
0
0
0
0
0
0
0
0
0
0
0
0
0
0
0
0
0
0
0
0
0
0
0
0
0
0
0
0
0
0
0
0
0
0
0
0
0
0
0
0
0
0
0
0
0
0
0
0
0
0
0
0
0
0
0
0
0
0
0
0
0
0
0
0
0
0
0
0
0
0
0
0
0
0
0
0
0
0
0
0
0
0
0
0
0
0
0
0
0
0
0
0
0
0
0
0
0
0
0
0
0
0
0
0
0
0
0
0
0
0
0
0
0
0
0
0
0
0
0
0
0
0
0
0
0
0
0
0
0
0
0
0
0
0
0
0
0
0
0
0
0
0
0
0
0
0
0
0
0
0
0
0
0
0
0
0
0
0
0
0
0
0
0
0
0
0
0
0
0
0
0
0
0
0
0
0
0
0
0
0
0
0
0
0
0
0
0
0
0
0
0
0
0
0
0
0
0
0
0
0
0
0
0
0
0
0
0
0
0
0
0
0
0
0
0
0
0
0
0
0
0
0
0
0
0
0
0
0
0
0
0
0
0
0
0
0
0
0
0
0
0
0
0
0
0
0
0
0
0
0
0
0
0
0
0
0
0
0
0
0
0
0
0
0
0
0
0
0
0
0
0
0
0
0
0
0
0
0
0
0
0
0
0
0
0
0
0
0
0
0
0
0
0
0
0
0
0
0
0
0
0
0
0
0
0
0
0
0
0
0
0
0
0
0
0
0
0
0
0
0
0
0
0
0
0
0
0
0
0
0
0
0
0
0
0
0
0
0
0
0
0
0
0
0
0
0
0
0
0
0
0
0
0
0
0
0
0
0
0
0
0
0
0
0
0
0
0
0
0
0
0
0
0
0
0
0
0
0
0
0
0
0
0
0
0
0
0
0
0
0
0
0
0
0
0
0
0
0
0
0
0
0
0
0
0
0
0
0
0
0
0
0
0
0
0
0
0
0
0
0
0
0
0
0
0
0
0
0
0
0
0
0
0
0
0
0
0
0
0
0
0
0
0
0
0
0
0
0
0
0
0
0
0
0
0
0
0
0
0
0
0
0
0
0
0
0
0
0
0
0
0
0
0
0
0
0
0
0
0
0
0
0
0
0
0
0
0
0
0
0
0
0
0
0
0
0
0
0
0
0
0
0
0
0
0
0
0
0
0
0
0
0
0
0
0
0
0
0
0
0
0
0
0
0
0
0
0
0
0
0
0
0
0
0
0
0
0
0
0
0
0
0
0
0
0
0
0
0
0
0
0
0
0
0
0
0
0
0
0
0
0
0
0
0
0
0
0
0
0
0
0
0
0
0
0
0
0
0
0
0
0
0
0
0
0
0
0
0
0
0
0
0
0
0
0
0
0
0
0
0
0
0
0
0
0
0
0
0
0
0
0
0
0
0
0
0
0
0
0
0
0
0
0
0
0
0
0
0
0
0
0
0
0
0
0
0
0
0
0
0
0
0
0
0
0
0
0
0
0
0
0
0
0
0
0
0
0
0
0
0
0
0
0
0
0
0
0
0
0
0
0
0
0
0
0
0
0
0
0
0
0
0
0
0
0
0
0
0
0
0
0
0
0
0
0
0
0
0
0
0
0
0
0
0
0
0
0
0
0
0
0
0
0
0
0
0
0
0
0
0
0
0
0
0
0
0
0
0
0
0
0
0
0
0
0
0
0
0
0
0
0
0
0
0
0
0
0
0
0
0
0
0
0
0
0
0
0
0
0
0
0
0
0
0
0
0
0
0
0
0
0
0
0
0
0
0
0
0
0
0
0
0
0
0
0
0
0
0
0
0
0
0
0
0
0
0
0
0
0
0
0
0
0
0
0
0
0
0
0
0
0
0
0
0
0
0
0
0
0
0
0
0
0
0
0
0
0
0
0
0
0
0
0
0
0
0
0
0
0
0
0
0
0
0
0
0
0
0
0
0
0
0
0
0
0
0
0
0
0
0
0
0
0
0
0
0
0
0
0
0
0
0
0
0
0
0
0
0
0
0
0
0
0
0
0
0
0
0
0
0
0
0
0
0
0
0
0
0
0
0
0
0
0
0
0
0
0
0
0
0
0
0
0
0
0
0
0
0
0
0
0
0
0
0
0
0
0
0
0
0
0
0
0
0
0
0
0
0
0
0
0
0
0
0
0
0
0
0
0
0
0
0
0
0
0
0
0
0
0
0
0
0
0
0
0
0
0
0
0
0
0
0
0
0
0
0
0
0
0
0
0
0
0
0
0
0
0
0
0
0
0
0
0
0
0
0
0
0
0
0
0
0
0
0
0
0
0
0
0
0
0
0
0
0
0
0
0
0
0
0
0
0
0
0
0
0
0
0
0
0
0
0
0
0
0
0
0
0
0
0
0
0
0
0
0
0
0
0
0
0
0
0
0
0
0
0
0
0
0
0
0
0
0
0
0
0
0
0
0
0
0
0
0
0
0
0
0
0
0
0
0
0
0
0
0
0
0
0
0
0
0
0
0
0
0
0
0
0
0
0
0
0
0
0
0
0
0
0
0
0
0
0
0
0
0
0
0
0
0
0
0
0
0
0
0
0
0
0
0
0
0
0
0
0
0
0
0
0
0
0
0
0
0
0
0
0
0
0
0
0
0
0
0
0
0
0
0
0
0
0
0
0
0
0
0
0
0
0
0
0
0
0
0
0
0
0
0
0
0
0
0
0
0
0
0
0
0
0
0
0
0
0
0
0
0
0
0
0
0
0
0
0
0
0
0
0
0
0
0
0
0
0
0
0
0
0
0
0
0
0
0
0
0
0
0
0
0
0
0
0
0
0
0
0
0
0
0
0
0
0
0
0
0
0
0
0
0
0
0
0
0
0
0
0
0
0
0
0
0
0
0
0
0
0
0
0
0
0
0
0
0
0
0
0
0
0
0
0
0
0
0
0
0
0
0
0
0
0
0
0
0
0
0
0
0
0
0
0
0
0
0
0
0
0
0
0
0
0
0
0
0
0
0
0
0
0
0
0
0
0
0
0
0
0
0
0
0
0
0
0
0
0
0
0
0
0
0
0
0
0
0
0
0
0
0
0
0
0
0
0
0
0
0
0
0
0
0
0
0
0
0
0
0
0
0
0
0
0
0
0
0
0
0
0
0
0
0
0
0
0
0
0
0
0
0
0
0
0
0
0
0
0
0
0
0
0
0
0
0
0
0
0
0
0
0
0
0
0
0
0
0
0
0
0
0
0
0
0
0
0
0
0
0
0
0
0
0
0
0
0
0
0
0
0
0
0
0
0
0
0
0
0
0
0
0
0
0
0
0
0
0
0
0
0
0
0
0
0
0
0
0
0
0
0
0
0
0
0
0
0
0
0
0
0
0
0
0
0
0
0
0
0
0
0
0
0
0
0
0
0
0
0
0
0
0
0
0
0
0
0
0
0
0
0
0
0
0
0
0
0
0
0
0
0
0
0
0
0
0
0
0
0
0
0
0
0
0
0
0
0
0
0
0
0
0
0
0
0
0
0
0
0
0
0
0
0
0
0
0
0
0
0
0
0
0
0
0
0
0
0
0
0
0
0
0
0
0
0
0
0
0
0
0
0
0
0
0
0
0
0
0
0
0
0
0
0
0
0
0
0
0
0
0
0
0
0
0
0
0
0
0
0
0
0
0
0
0
0
0
0
0
0
0
0
0
0
0
0
0
0
0
0
0
0
0
0
0
0
0
0
0
0
0
0
0
0
0
0
0
0
0
0
0
0
0
0
0
0
0
0
0
0
0
0
0
0
0
0
0
0
0
0
0
0
0
0
0
0
0
0
0
0
0
0
0
0
0
0
0
0
0
0
0
0
0
0
0
0
0
0
0
0
0
0
0
0
0
0
0
0
0
0
0
0
0
0
0
0
0
0
0
0
0
0
0
0
0
0
0
0
0
0
0
0
0
0
0
0
0
0
0
0
0
0
0
0
0
0
0
0
0
0
0
0
0
0
0
0
0
0
0
0
0
0
0
0
0
0
0
0
0
0
0
0
0
0
0
0
0
0
0
0
0
0
0
0
0
0
0
0
0
0
0
0
0
0
0
0
0
0
0
0
0
0
0
0
0
0
0
0
0
0
0
0
0
0
0
0
0
0
0
0
0
0
0
0
0
0
0
0
0
0
0
0
0
0
0
0
0
0
0
0
0
0
0
0
0
0
0
0
0
0
0
0
0
0
0
0
0
0
0
0
0
0
0
0
0
0
0
0
0
0
0
0
0
0
0
0
0
0
0
0
0
0
0
0
0
0
0
0
0
0
0
0
0
0
0
0
0
0
0
0
0
0
0
0
0
0
0
0
0
0
0
0
0
0
0
0
0
0
0
0
0
0
0
0
0
0
0
0
0
0
0
0
0
0
0
0
0
0
0
0
0
0
0
0
0
0
0
0
0
0
0
0
0
0
0
0
0
0
0
0
0
0
0
0
0
0
0
0
0
0
0
0
0
0
0
0
0
0
0
0
0
0
0
0
0
0
0
0
0
0
0
0
0
0
0
0
0
0
0
0
0
0
0
0
0
0
0
0
0
0
0
0
0
0
0
0
0
0
0
0
0
0
0
0
0
0
0
0
0
0
0
0
0
0
0
0
0
0
0
0
0
0
0
0
0
0
0
0
0
0
0
0
0
0
0
0
0
0
0
0
0
0
0
0
0
0
0
0
0
0
0
0
0
0
0
0
0
0
0
0
0
0
0
0
0
0
0
0
0
0
0
0
0
0
0
0
0
0
0
0
0
0
0
0
0
0
0
0
0
0
0
0
0
0
0
0
0
0
0
0
0
0
0
0
0
0
0
0
0
0
0
0
0
0
0
0
0
0
0
0
0
0
0
0
0
0
0
0
0
0
0
0
0
0
0
0
0
0
0
0
0
0
0
0
0
0
0
0
0
0
0
0
0
0
0
0
0
0
0
0
0
0
0
0
0
0
0
0
0
0
0
0
0
0
0
0
0
0
0
0
0
0
0
0
0
0
0
0
0
0
0
0
0
0
0
0
0
0
0
5.25265072e-299
2.89744904e-300
4.68646233e-296
3.33007361e-297
4.11165417e-293
3.54563746e-294
3.54796e-290
3.58313002e-291
3.01170813e-287
3.47125624e-288
2.51533675e-284
3.23819421e-285
2.06729022e-281
2.94010167e-282
1.67223728e-278
2.59508422e-279
1.33152962e-275
2.23948461e-276
1.04381135e-272
1.88177903e-273
8.05693386e-270
1.54723106e-270
6.12419811e-267
1.24618443e-267
4.5847134e-264
9.84090958e-265
3.38070676e-261
7.62485866e-262
2.45573232e-258
5.80013407e-259
1.75742085e-255
4.33390425e-256
1.23917314e-252
3.18235418e-253
8.60968428e-250
2.29727052e-250
5.89489982e-247
1.63085362e-247
3.97769981e-244
1.13889505e-244
2.6453545e-241
7.82581661e-242
1.73404181e-238
5.29238145e-239
1.12042865e-235
3.52318206e-236
7.13642369e-233
2.30918437e-233
4.48094258e-230
1.49035633e-230
2.77375935e-227
9.47306007e-228
1.69275825e-224
5.93079465e-225
1.01850179e-221
3.65767737e-222
6.04200582e-219
2.22233541e-219
3.53396816e-216
1.33033824e-216
2.03804525e-213
7.84683502e-214
1.15888451e-210
4.560728e-211
6.49748062e-208
2.61218564e-208
3.59194434e-205
1.47442664e-205
1.95791192e-202
8.20175619e-203
1.05228344e-199
4.49641937e-200
5.57626415e-197
2.42946875e-197
2.91351883e-194
1.29373508e-194
1.50088339e-191
6.79001449e-192
7.62288374e-189
3.51225494e-189
3.8169923e-186
1.79055215e-186
1.88424396e-183
8.99634651e-184
9.16956689e-181
4.45464735e-181
4.39881883e-178
2.17377815e-178
2.08006206e-175
1.04533556e-175
9.69492657e-173
4.95354182e-173
4.45362262e-170
2.31298932e-170
2.01629071e-167
1.06415348e-167
8.99562602e-165
4.82369659e-165
3.9546971e-162
2.15412058e-162
1.71301463e-159
9.4763386e-160
7.31029024e-157
4.10633905e-157
3.07319942e-154
1.75255927e-154
1.27257503e-151
7.36632849e-152
5.18995429e-149
3.04890151e-149
2.08438998e-146
1.24250959e-146
8.2427916e-144
4.98501818e-144
3.20915566e-141
1.96873551e-141
1.22988947e-138
7.65245681e-139
4.63910578e-136
2.92713438e-136
1.72197006e-133
1.10165102e-133
6.28877816e-131
4.0787978e-131
2.25932312e-128
1.48535353e-128
7.98324464e-126
5.31930869e-126
2.77384722e-123
1.87293041e-123
9.47536048e-121
6.48242513e-121
3.18142722e-118
2.20498598e-118
1.04968447e-115
7.36926289e-116
3.4024973e-113
2.41926637e-113
1.08323982e-110
7.79955866e-111
3.38624455e-108
2.46866247e-108
1.03908487e-105
7.66885182e-106
3.12886964e-103
2.33743761e-103
9.24239443e-101
6.9879028e-101
2.67725975e-98
2.04832272e-98
7.60229714e-96
5.88481747e-96
2.11532504e-93
1.65645356e-93
5.76509508e-91
4.56620257e-91
1.53829915e-88
1.23216064e-88
4.01675896e-86
3.25319452e-86
1.02587362e-83
8.39970924e-84
2.56131635e-81
2.11980796e-81
6.24793364e-79
5.22585833e-79
1.48815775e-76
1.25771213e-76
3.45873951e-74
2.95312808e-74
7.83862005e-72
6.76013062e-72
1.73096527e-69
1.50754894e-69
3.72146054e-67
3.27248826e-67
7.78281561e-65
6.90866848e-65
1.58179354e-62
1.417127e-62
3.12111743e-60
2.82147235e-60
5.97223897e-58
5.44642651e-58
1.10689844e-55
1.01809806e-55
1.98449691e-53
1.84049437e-53
3.43667852e-51
3.21304011e-51
5.73963886e-49
5.40806281e-49
9.22841587e-47
8.76085511e-47
1.42568584e-44
1.36327267e-44
2.1117176e-42
2.03332192e-42
2.9916598e-40
2.89974021e-40
4.042683e-38
3.94320218e-38
5.19478646e-36
5.09705999e-36
6.32523521e-34
6.24035614e-34
7.26838003e-32
7.20584261e-32
7.84530064e-30
7.80789306e-30
7.91043635e-28
7.88854869e-28
7.40241973e-26
7.37329287e-26
6.37850003e-24
6.31907438e-24
5.01256499e-22
4.93479669e-22
3.54941958e-20
3.54756469e-20
2.22938173e-18
2.21909589e-18
1.21777572e-16
1.2094696e-16
5.62368126e-15
5.6033935e-15
2.10777905e-13
2.09083513e-13
6.01351743e-12
6.03203838e-12
4.93853385e-09
5.09081491e-09
0.293587183
1.08433002
9.77749751
10.2289354
5.55895677
4.62957839
0.909823255
0.741220545
0.138675605
0.125008031
0.0234502653
0.0221762223
0.00351808135
0.00346710698
0.000491462183
0.000491513458
6.92096058e-05
6.93649174e-05
1.50359216e-05
1.50794088e-05
8.68570433e-06
8.68906148e-06
7.99439106e-06
7.99432373e-06
7.92392912e-06
7.9239373e-06
7.917271e-06
7.9172779e-06
7.91666023e-06
7.91668414e-06
7.91662111e-06
7.91663712e-06
7.91661149e-06
7.91664134e-06
7.91659522e-06
7.91663201e-06
7.9166146e-06
7.91661284e-06
7.91662228e-06
7.91660342e-06
7.91662202e-06
7.91660991e-06
7.91663168e-06
7.9166128e-06
7.91662308e-06
7.91662472e-06
7.91662567e-06
7.91661832e-06
7.91662879e-06
7.91661864e-06
7.91662917e-06
7.91661372e-06
7.91662352e-06
7.91661923e-06
7.91662352e-06
7.91661999e-06
7.91661741e-06
7.91662515e-06
7.91661511e-06
7.91662105e-06
7.91662917e-06
7.91662332e-06
7.91661754e-06
7.91662278e-06
7.91661767e-06
7.9166193e-06
7.91662594e-06
7.91662051e-06
7.91662279e-06
7.91660615e-06
7.91661572e-06
7.91662286e-06
7.91660884e-06
7.91663052e-06
7.91660721e-06
7.91662857e-06
7.91662231e-06
7.91662961e-06
7.91662159e-06
7.91662659e-06
7.91661153e-06
7.91663324e-06
7.91661246e-06
7.91662331e-06
7.91662747e-06
7.916607e-06
7.91663445e-06
7.91660665e-06
7.91663037e-06
7.91661049e-06
7.91662679e-06
7.91661394e-06
7.91662466e-06
7.91663044e-06
7.91662074e-06
7.91662612e-06
7.91662524e-06
7.91662195e-06
7.9166357e-06
7.91662199e-06
7.91661967e-06
7.91662878e-06
7.91662643e-06
7.91662554e-06
7.91662619e-06
7.91662198e-06
7.91662099e-06
7.91662639e-06
7.91662177e-06
7.91662949e-06
7.91661899e-06
7.91661922e-06
7.91661318e-06
7.9166236e-06
7.91661441e-06
7.91662303e-06
7.91661344e-06
7.91663079e-06
7.91662e-06
7.91663226e-06
7.91661823e-06
7.91662964e-06
7.91661676e-06
7.91662905e-06
7.91661917e-06
7.9166334e-06
7.91661366e-06
7.91663663e-06
7.91661269e-06
7.9166425e-06
7.91661974e-06
7.9166297e-06
7.91663257e-06
7.91663297e-06
7.91662808e-06
7.91662501e-06
7.9166402e-06
7.9166191e-06
7.91662977e-06
7.91661699e-06
7.91661703e-06
7.91662594e-06
7.91661061e-06
7.91661996e-06
7.91661964e-06
7.91662062e-06
7.91661962e-06
7.9166183e-06
7.91663005e-06
7.91661589e-06
7.91663665e-06
7.91660732e-06
7.91663809e-06
7.91661973e-06
7.91662712e-06
7.91662701e-06
7.91662196e-06
7.91662336e-06
7.91663058e-06
7.91662312e-06
7.91664676e-06
7.91661805e-06
7.91663872e-06
7.91662265e-06
7.9166417e-06
7.91662157e-06
7.91662983e-06
7.91661605e-06
7.91662368e-06
7.91661664e-06
7.91662303e-06
7.91662526e-06
7.91661568e-06
7.91662421e-06
7.91662253e-06
7.91663048e-06
7.91662933e-06
7.91663734e-06
7.9166329e-06
7.91663471e-06
7.9166409e-06
7.91663661e-06
7.91664178e-06
7.91663056e-06
7.91663023e-06
7.91661821e-06
7.91662782e-06
7.91662222e-06
7.91663255e-06
7.91662729e-06
7.9166337e-06
7.91662115e-06
7.91664314e-06
7.91662234e-06
7.91664228e-06
7.9166219e-06
7.91662689e-06
7.91662321e-06
7.91663076e-06
7.91661582e-06
7.91663692e-06
7.9166229e-06
7.91664027e-06
7.91661542e-06
7.91662958e-06
7.91662269e-06
7.91663446e-06
7.91662031e-06
7.91664779e-06
7.9166349e-06
7.91664491e-06
7.91662486e-06
7.91663935e-06
7.91663312e-06
7.91663284e-06
7.9166314e-06
7.91663126e-06
7.91663246e-06
7.9166267e-06
7.91663083e-06
7.91663533e-06
7.91663156e-06
7.91662344e-06
7.91662046e-06
7.91663501e-06
7.91662252e-06
7.91663199e-06
7.91663231e-06
7.91663362e-06
7.91663888e-06
7.91663159e-06
7.91662869e-06
7.91664327e-06
7.91662589e-06
7.91663522e-06
7.91663194e-06
7.91663159e-06
7.91663875e-06
7.91662988e-06
7.91664505e-06
7.91662532e-06
7.91664681e-06
7.9166268e-06
7.9166432e-06
7.91661957e-06
7.91664744e-06
7.9166207e-06
7.91664098e-06
7.91662302e-06
7.9166285e-06
7.91663718e-06
7.91663671e-06
7.91663416e-06
7.91663599e-06
7.91662329e-06
7.91664144e-06
7.91662878e-06
7.91663985e-06
7.91663387e-06
7.91662697e-06
7.91664466e-06
7.91662871e-06
7.91665174e-06
7.91662354e-06
7.91665053e-06
7.91662257e-06
7.91663727e-06
7.91662548e-06
7.91663178e-06
7.91662025e-06
7.91664146e-06
7.9166242e-06
7.91662847e-06
7.91663829e-06
7.91662411e-06
7.91663749e-06
7.91663384e-06
7.91664309e-06
7.91663398e-06
7.9166333e-06
7.91663881e-06
7.91663512e-06
7.91663277e-06
7.91664031e-06
7.91663333e-06
7.91662601e-06
7.91663247e-06
7.91662737e-06
7.91663466e-06
7.91663875e-06
7.91663261e-06
7.91663566e-06
7.91663737e-06
7.91663209e-06
7.91663453e-06
7.91662934e-06
7.91663389e-06
7.91663757e-06
7.91664239e-06
7.91663685e-06
7.91663204e-06
7.91664131e-06
7.9166358e-06
7.9166383e-06
7.91663756e-06
7.91663458e-06
7.9166305e-06
7.9166375e-06
7.91663097e-06
7.91663868e-06
7.9166358e-06
7.9166426e-06
7.91662628e-06
7.91663862e-06
7.91663507e-06
7.91663264e-06
7.91663714e-06
7.91662681e-06
7.91664614e-06
7.91662764e-06
7.91663804e-06
7.9166366e-06
7.9166404e-06
7.91663067e-06
7.9166435e-06
7.9166337e-06
7.91663506e-06
7.91663626e-06
7.91663415e-06
7.91664529e-06
7.91662869e-06
7.91664807e-06
7.91663373e-06
7.91663539e-06
7.91663663e-06
7.91663979e-06
7.91663259e-06
7.91663751e-06
7.91662775e-06
7.91663649e-06
7.91663753e-06
7.91664097e-06
7.91663304e-06
7.91663529e-06
7.91664325e-06
7.91663881e-06
7.91663622e-06
7.91663553e-06
7.91663975e-06
7.91663211e-06
7.91664716e-06
7.91664562e-06
7.91662788e-06
7.9166367e-06
7.91664034e-06
7.91662875e-06
7.91664904e-06
7.91663688e-06
7.91663781e-06
7.91664368e-06
7.91664498e-06
7.91662976e-06
7.9166402e-06
7.91664154e-06
7.91664748e-06
7.91664791e-06
7.91663594e-06
7.9166465e-06
7.91664098e-06
7.91664674e-06
7.91664721e-06
7.91665016e-06
7.91664435e-06
7.91664769e-06
7.9166374e-06
7.91664162e-06
7.9166289e-06
7.91664126e-06
7.91664074e-06
7.91665182e-06
7.91664628e-06
7.91663782e-06
7.91664859e-06
7.91663446e-06
7.91664879e-06
7.91663357e-06
7.91663765e-06
7.91664094e-06
7.91663536e-06
7.91664537e-06
7.91663239e-06
7.91664596e-06
7.91663195e-06
7.91664127e-06
7.91664953e-06
7.91664211e-06
7.9166511e-06
7.91663867e-06
7.91664457e-06
7.91664032e-06
7.91663801e-06
7.91663993e-06
7.9166358e-06
7.9166558e-06
7.91663205e-06
7.91664745e-06
7.91663291e-06
7.91664879e-06
7.91664968e-06
7.91664315e-06
7.91664805e-06
7.91664787e-06
7.91664032e-06
7.91664902e-06
7.91664723e-06
7.91663919e-06
7.91664947e-06
7.91664275e-06
7.91664096e-06
7.91663983e-06
7.91664158e-06
7.91665168e-06
7.91663447e-06
7.91665314e-06
7.91664891e-06
7.91664995e-06
7.91664721e-06
7.91665114e-06
7.91663652e-06
7.91664947e-06
7.91664464e-06
7.91664555e-06
7.91665106e-06
7.91665146e-06
7.91664799e-06
7.91664566e-06
7.91664187e-06
7.91665139e-06
7.91664522e-06
7.91665312e-06
7.91664353e-06
7.91664736e-06
7.91664217e-06
7.91664831e-06
7.91664445e-06
7.91665472e-06
7.91664917e-06
7.91665623e-06
7.91663771e-06
7.91664746e-06
7.91664877e-06
7.91664354e-06
7.91665067e-06
7.91664904e-06
7.91664999e-06
7.91665493e-06
7.91663758e-06
7.91665399e-06
7.91664665e-06
7.91664014e-06
7.91664996e-06
7.91665032e-06
7.91663865e-06
7.91665676e-06
7.9166366e-06
7.91665882e-06
7.91664995e-06
7.91665117e-06
7.91664796e-06
7.91664861e-06
7.91665541e-06
7.9166407e-06
7.91664813e-06
7.91665169e-06
7.9166382e-06
7.91665884e-06
7.91663886e-06
7.91665639e-06
7.91664017e-06
7.91665136e-06
7.91663375e-06
7.9166553e-06
7.91663682e-06
7.91664523e-06
7.91664372e-06
7.91664791e-06
7.91664252e-06
7.91663611e-06
7.91666511e-06
7.91664122e-06
7.91665679e-06
7.91664415e-06
7.91665359e-06
7.91664813e-06
7.91666555e-06
7.91663234e-06
7.91666387e-06
7.91663304e-06
7.91666154e-06
7.91663577e-06
7.91665724e-06
7.91664578e-06
7.91665398e-06
7.91665277e-06
7.91665823e-06
7.91664844e-06
7.91665748e-06
7.91665063e-06
7.91665082e-06
7.91664883e-06
7.91665331e-06
7.91664609e-06
7.91665485e-06
7.91665152e-06
7.91665493e-06
7.9166555e-06
7.91665103e-06
7.91665474e-06
7.91665256e-06
7.9166518e-06
7.91665505e-06
7.91665564e-06
7.91665576e-06
7.91665608e-06
7.91665598e-06
7.91665617e-06
7.91665782e-06
7.91665846e-06
7.91665871e-06
7.91666015e-06
7.91666083e-06
7.9166625e-06
7.91666368e-06
7.91666419e-06
7.91666603e-06
7.91666747e-06
7.91666819e-06
7.91666979e-06
7.9166714e-06
7.91667325e-06
7.91667425e-06
7.91667538e-06
7.91667701e-06
7.91667765e-06
7.91667856e-06
7.91667939e-06
7.91668004e-06
7.91667983e-06
7.91668067e-06
7.91668057e-06
7.91668067e-06
7.9166807e-06
7.91668072e-06
7.91668082e-06
7.91668092e-06
7.9166808e-06
7.91668086e-06
7.9166806e-06
7.91668051e-06
7.91668085e-06
7.91668074e-06
7.91668077e-06
7.91668076e-06
7.91668078e-06
7.91668089e-06
7.91668081e-06
7.91668076e-06
7.91668098e-06
7.91668067e-06
7.91668078e-06
7.91668069e-06
7.91668085e-06
7.91668082e-06
7.91668075e-06
7.91668078e-06
7.91668068e-06
7.91668058e-06
7.91668098e-06
)
;

boundaryField
{
    closed
    {
        type            calculated;
        value           uniform 0;
    }
    open
    {
        type            calculated;
        value           uniform 0;
    }
    sides
    {
        type            empty;
    }
}


// ************************************************************************* //
