/*--------------------------------*- C++ -*----------------------------------*\
| =========                 |                                                 |
| \\      /  F ield         | OpenFOAM: The Open Source CFD Toolbox           |
|  \\    /   O peration     | Version:  2206                                  |
|   \\  /    A nd           | Website:  www.openfoam.com                      |
|    \\/     M anipulation  |                                                 |
\*---------------------------------------------------------------------------*/
FoamFile
{
    version     2.0;
    format      ascii;
    arch        "LSB;label=32;scalar=64";
    class       volVectorField;
    location    "1.12e-05";
    object      U;
}
// * * * * * * * * * * * * * * * * * * * * * * * * * * * * * * * * * * * * * //

dimensions      [0 1 -1 0 0 0 0];

internalField   nonuniform List<vector> 
3183
(
(3.11637837e-13 0 0)
(2.16266688e-14 0 0)
(-2.04774704e-13 0 0)
(-1.69595043e-13 0 0)
(-1.19667023e-13 0 0)
(-5.4625575e-18 0 0)
(-4.29750916e-19 0 0)
(-2.94115738e-23 0 0)
(2.4067652e-23 0 0)
(3.67792456e-19 0 0)
(7.58070883e-18 0 0)
(1.40987389e-13 0 0)
(4.76467797e-13 0 0)
(1.16223506e-13 0 0)
(4.89628576e-14 0 0)
(8.4593266e-14 0 0)
(-1.78069107e-13 0 0)
(-4.76402303e-13 0 0)
(-7.3658557e-13 0 0)
(-4.96702638e-14 0 0)
(3.60285711e-13 0 0)
(1.17602085e-16 0 0)
(5.29552713e-15 0 0)
(2.43210665e-13 0 0)
(3.14082911e-13 0 0)
(4.22311732e-13 0 0)
(4.44076986e-13 0 0)
(4.74176308e-13 0 0)
(2.7140777e-13 0 0)
(3.82311137e-13 0 0)
(-1.65438691e-13 0 0)
(-2.07931546e-13 0 0)
(-8.13047871e-13 0 0)
(-1.11264494e-12 0 0)
(-6.48558982e-13 0 0)
(-3.57115885e-13 0 0)
(-3.64246105e-13 0 0)
(-3.15245096e-13 0 0)
(-1.31261524e-13 0 0)
(-1.12874136e-13 0 0)
(-4.19826712e-13 0 0)
(-4.8268366e-13 0 0)
(-2.05509072e-13 0 0)
(-5.65161883e-13 0 0)
(-1.77723269e-13 0 0)
(1.18367091e-13 0 0)
(-1.07695146e-13 0 0)
(1.86187481e-14 0 0)
(-1.83888953e-14 0 0)
(2.28881769e-13 0 0)
(2.62658795e-13 0 0)
(7.57672804e-13 0 0)
(5.60060104e-13 0 0)
(1.12248999e-12 0 0)
(1.49531216e-12 0 0)
(1.50171427e-12 0 0)
(1.98718564e-12 0 0)
(2.21774004e-12 0 0)
(2.36742709e-12 0 0)
(2.5579804e-12 0 0)
(2.51321971e-12 0 0)
(2.18467877e-12 0 0)
(2.17148853e-12 0 0)
(1.62279794e-12 0 0)
(1.82794687e-12 0 0)
(1.8222843e-12 0 0)
(1.24503932e-12 0 0)
(1.35508036e-12 0 0)
(1.27958171e-12 0 0)
(5.6120865e-13 0 0)
(7.70380019e-13 0 0)
(5.57903968e-13 0 0)
(3.58309747e-13 0 0)
(-2.56973902e-14 0 0)
(-9.25446544e-14 0 0)
(-6.52982346e-13 0 0)
(-4.66038615e-13 0 0)
(-9.13513726e-13 0 0)
(-9.06607499e-13 0 0)
(-1.15155268e-12 0 0)
(-1.3965817e-12 0 0)
(-1.49438602e-12 0 0)
(-5.63877508e-13 0 0)
(-2.02616827e-12 0 0)
(-1.13528217e-12 0 0)
(-1.44790981e-12 0 0)
(-1.92207637e-12 0 0)
(-2.06693194e-12 0 0)
(-1.78218559e-12 0 0)
(-2.33365668e-12 0 0)
(-3.05051269e-12 0 0)
(-3.61654047e-12 0 0)
(-2.36849352e-12 0 0)
(-3.3343458e-12 0 0)
(-3.69246735e-12 0 0)
(-2.7886356e-12 0 0)
(-4.35879108e-12 0 0)
(-3.1383741e-12 0 0)
(-4.25290426e-12 0 0)
(-4.52402567e-12 0 0)
(-3.12507714e-12 0 0)
(-3.68952806e-12 0 0)
(-4.31551508e-12 0 0)
(-3.99832326e-12 0 0)
(-4.10938549e-12 0 0)
(-4.35587441e-12 0 0)
(-4.52828894e-12 0 0)
(-4.17883976e-12 0 0)
(-5.61381859e-12 0 0)
(-5.49103181e-12 0 0)
(-4.25982639e-12 0 0)
(-4.61971849e-12 0 0)
(-4.25207383e-12 0 0)
(-5.65332808e-12 0 0)
(-4.86182155e-12 0 0)
(-4.77109999e-12 0 0)
(-5.2160684e-12 0 0)
(-4.00129818e-12 0 0)
(-5.43036681e-12 0 0)
(-6.39694621e-12 0 0)
(-5.90242654e-12 0 0)
(-5.00074634e-12 0 0)
(-6.13353293e-12 0 0)
(-5.91749907e-12 0 0)
(-5.1076561e-12 0 0)
(-5.35695552e-12 0 0)
(-5.38595784e-12 0 0)
(-6.46817145e-12 0 0)
(-4.03110516e-12 0 0)
(-5.29818976e-12 0 0)
(-4.92060993e-12 0 0)
(-4.99228205e-12 0 0)
(-5.74388815e-12 0 0)
(-6.02860091e-12 0 0)
(-4.95967264e-12 0 0)
(-5.82374355e-12 0 0)
(-6.71782907e-12 0 0)
(-6.85070466e-12 0 0)
(-6.67970424e-12 0 0)
(-5.99152174e-12 0 0)
(-6.45676159e-12 0 0)
(-6.71767945e-12 0 0)
(-7.34488912e-12 0 0)
(-7.66293216e-12 0 0)
(-6.30194638e-12 0 0)
(-7.29627797e-12 0 0)
(-6.59121192e-12 0 0)
(-7.47740047e-12 0 0)
(-6.57407325e-12 0 0)
(-6.82450142e-12 0 0)
(-7.5603115e-12 0 0)
(-6.93176164e-12 0 0)
(-7.74252271e-12 0 0)
(-8.05580661e-12 0 0)
(-8.14207916e-12 0 0)
(-7.00801417e-12 0 0)
(-8.32427067e-12 0 0)
(-8.14174984e-12 0 0)
(-7.86227432e-12 0 0)
(-8.17994292e-12 0 0)
(-9.20221907e-12 0 0)
(-8.70824009e-12 0 0)
(-7.72748758e-12 0 0)
(-8.49056077e-12 0 0)
(-8.6517926e-12 0 0)
(-8.76765212e-12 0 0)
(-7.94700126e-12 0 0)
(-8.05761663e-12 0 0)
(-7.8132801e-12 0 0)
(-8.08334409e-12 0 0)
(-9.04107256e-12 0 0)
(-8.09556801e-12 0 0)
(-7.93564065e-12 0 0)
(-7.74849724e-12 0 0)
(-8.39562052e-12 0 0)
(-7.65244965e-12 0 0)
(-8.04056575e-12 0 0)
(-8.22633023e-12 0 0)
(-8.19152498e-12 0 0)
(-9.15279703e-12 0 0)
(-7.91084776e-12 0 0)
(-9.79825551e-12 0 0)
(-8.44077639e-12 0 0)
(-7.93943101e-12 0 0)
(-8.66264579e-12 0 0)
(-8.91218213e-12 0 0)
(-7.39470551e-12 0 0)
(-7.77714978e-12 0 0)
(-8.31994606e-12 0 0)
(-7.04792152e-12 0 0)
(-7.79092858e-12 0 0)
(-7.9224837e-12 0 0)
(-8.81284113e-12 0 0)
(-8.50618386e-12 0 0)
(-8.70700503e-12 0 0)
(-7.9255371e-12 0 0)
(-8.49391049e-12 0 0)
(-8.37478862e-12 0 0)
(-9.45565364e-12 0 0)
(-9.24445592e-12 0 0)
(-8.547389e-12 0 0)
(-8.88908138e-12 0 0)
(-8.47458232e-12 0 0)
(-8.74865508e-12 0 0)
(-9.61940684e-12 0 0)
(-9.32355511e-12 0 0)
(-9.16254194e-12 0 0)
(-8.88081395e-12 0 0)
(-9.99077496e-12 0 0)
(-8.22371727e-12 0 0)
(-8.71569225e-12 0 0)
(-9.79277691e-12 0 0)
(-8.83624212e-12 0 0)
(-9.51563273e-12 0 0)
(-9.10639642e-12 0 0)
(-8.49447235e-12 0 0)
(-9.20867735e-12 0 0)
(-9.81821464e-12 0 0)
(-8.13165883e-12 0 0)
(-9.31678396e-12 0 0)
(-8.55570267e-12 0 0)
(-8.73011161e-12 0 0)
(-8.99983079e-12 0 0)
(-7.92342921e-12 0 0)
(-8.26277227e-12 0 0)
(-8.81840581e-12 0 0)
(-8.60166675e-12 0 0)
(-8.94139704e-12 0 0)
(-9.13015703e-12 0 0)
(-8.71827209e-12 0 0)
(-9.90843446e-12 0 0)
(-9.96197522e-12 0 0)
(-9.83429692e-12 0 0)
(-9.91776399e-12 0 0)
(-1.04893807e-11 0 0)
(-1.01055441e-11 0 0)
(-1.11350909e-11 0 0)
(-1.01417105e-11 0 0)
(-1.04620307e-11 0 0)
(-1.15820936e-11 0 0)
(-1.02677769e-11 0 0)
(-1.19109888e-11 0 0)
(-1.15195251e-11 0 0)
(-1.12686769e-11 0 0)
(-1.155671e-11 0 0)
(-1.24691529e-11 0 0)
(-1.0754404e-11 0 0)
(-1.13570012e-11 0 0)
(-1.20972863e-11 0 0)
(-1.2546175e-11 0 0)
(-1.19835342e-11 0 0)
(-1.24437071e-11 0 0)
(-1.23204141e-11 0 0)
(-1.29360081e-11 0 0)
(-1.35576311e-11 0 0)
(-1.36777245e-11 0 0)
(-1.29383516e-11 0 0)
(-1.28545783e-11 0 0)
(-1.36067996e-11 0 0)
(-1.34214469e-11 0 0)
(-1.36854965e-11 0 0)
(-1.33720995e-11 0 0)
(-1.40815264e-11 0 0)
(-1.29375457e-11 0 0)
(-1.43494567e-11 0 0)
(-1.3747757e-11 0 0)
(-1.38168193e-11 0 0)
(-1.36108605e-11 0 0)
(-1.43930128e-11 0 0)
(-1.36206909e-11 0 0)
(-1.34351093e-11 0 0)
(-1.42413942e-11 0 0)
(-1.48296634e-11 0 0)
(-1.41523266e-11 0 0)
(-1.46368735e-11 0 0)
(-1.37315568e-11 0 0)
(-1.53063458e-11 0 0)
(-1.48387318e-11 0 0)
(-1.43725102e-11 0 0)
(-1.33375742e-11 0 0)
(-1.39305335e-11 0 0)
(-1.52437232e-11 0 0)
(-1.50407974e-11 0 0)
(-1.40710568e-11 0 0)
(-1.36728679e-11 0 0)
(-1.52125856e-11 0 0)
(-1.37723688e-11 0 0)
(-1.47358805e-11 0 0)
(-1.50048875e-11 0 0)
(-1.44886501e-11 0 0)
(-1.43235375e-11 0 0)
(-1.41123624e-11 0 0)
(-1.39561774e-11 0 0)
(-1.49763752e-11 0 0)
(-1.30030551e-11 0 0)
(-1.43276971e-11 0 0)
(-1.44044163e-11 0 0)
(-1.35608842e-11 0 0)
(-1.37514379e-11 0 0)
(-1.44215634e-11 0 0)
(-1.45392603e-11 0 0)
(-1.44413242e-11 0 0)
(-1.42327426e-11 0 0)
(-1.46661349e-11 0 0)
(-1.53491151e-11 0 0)
(-1.49608043e-11 0 0)
(-1.4545023e-11 0 0)
(-1.50841625e-11 0 0)
(-1.60594395e-11 0 0)
(-1.45251551e-11 0 0)
(-1.48046584e-11 0 0)
(-1.46984079e-11 0 0)
(-1.47201606e-11 0 0)
(-1.43390687e-11 0 0)
(-1.54840389e-11 0 0)
(-1.51406721e-11 0 0)
(-1.69812763e-11 0 0)
(-1.58246269e-11 0 0)
(-1.47477112e-11 0 0)
(-1.66904322e-11 0 0)
(-1.58112066e-11 0 0)
(-1.54618721e-11 0 0)
(-1.5989897e-11 0 0)
(-1.54706976e-11 0 0)
(-1.56653984e-11 0 0)
(-1.53767572e-11 0 0)
(-1.59406627e-11 0 0)
(-1.52985608e-11 0 0)
(-1.59858803e-11 0 0)
(-1.61628008e-11 0 0)
(-1.42725811e-11 0 0)
(-1.64618933e-11 0 0)
(-1.56286104e-11 0 0)
(-1.52613695e-11 0 0)
(-1.42780347e-11 0 0)
(-1.61379353e-11 0 0)
(-1.50505212e-11 0 0)
(-1.703726e-11 0 0)
(-1.62063335e-11 0 0)
(-1.49547693e-11 0 0)
(-1.53334353e-11 0 0)
(-1.5552842e-11 0 0)
(-1.5083098e-11 0 0)
(-1.40903218e-11 0 0)
(-1.45665846e-11 0 0)
(-1.54827354e-11 0 0)
(-1.56617067e-11 0 0)
(-1.50486764e-11 0 0)
(-1.47368865e-11 0 0)
(-1.58141157e-11 0 0)
(-1.46424595e-11 0 0)
(-1.58325571e-11 0 0)
(-1.65157052e-11 0 0)
(-1.51002615e-11 0 0)
(-1.39691097e-11 0 0)
(-1.58864885e-11 0 0)
(-1.58325144e-11 0 0)
(-1.5260638e-11 0 0)
(-1.53757004e-11 0 0)
(-1.55361128e-11 0 0)
(-1.45807624e-11 0 0)
(-1.56317239e-11 0 0)
(-1.54895033e-11 0 0)
(-1.57601162e-11 0 0)
(-1.42008947e-11 0 0)
(-1.50267715e-11 0 0)
(-1.5151778e-11 0 0)
(-1.52836804e-11 0 0)
(-1.45638719e-11 0 0)
(-1.48407563e-11 0 0)
(-1.37406973e-11 0 0)
(-1.44738802e-11 0 0)
(-1.3931874e-11 0 0)
(-1.30164534e-11 0 0)
(-1.40783166e-11 0 0)
(-1.5198925e-11 0 0)
(-1.41495356e-11 0 0)
(-1.34171868e-11 0 0)
(-1.35829283e-11 0 0)
(-1.34312756e-11 0 0)
(-1.36449717e-11 0 0)
(-1.38311445e-11 0 0)
(-1.39110376e-11 0 0)
(-1.37099423e-11 0 0)
(-1.40125366e-11 0 0)
(-1.39258361e-11 0 0)
(-1.31637583e-11 0 0)
(-1.30202661e-11 0 0)
(-1.3483994e-11 0 0)
(-1.26591699e-11 0 0)
(-1.33081696e-11 0 0)
(-1.26429229e-11 0 0)
(-1.20832234e-11 0 0)
(-1.23304878e-11 0 0)
(-1.27371759e-11 0 0)
(-1.13558562e-11 0 0)
(-1.22812351e-11 0 0)
(-1.24231056e-11 0 0)
(-1.19189418e-11 0 0)
(-1.19314054e-11 0 0)
(-1.10608956e-11 0 0)
(-1.19167481e-11 0 0)
(-1.18067321e-11 0 0)
(-1.29104855e-11 0 0)
(-1.15917207e-11 0 0)
(-1.15157132e-11 0 0)
(-1.13731664e-11 0 0)
(-1.28913772e-11 0 0)
(-1.21638939e-11 0 0)
(-1.24199719e-11 0 0)
(-1.23425552e-11 0 0)
(-1.08101867e-11 0 0)
(-1.07030943e-11 0 0)
(-1.16645437e-11 0 0)
(-1.05641468e-11 0 0)
(-1.01315878e-11 0 0)
(-1.05333382e-11 0 0)
(-1.08652972e-11 0 0)
(-1.03002993e-11 0 0)
(-1.04268973e-11 0 0)
(-9.55437846e-12 0 0)
(-9.76183155e-12 0 0)
(-9.91250638e-12 0 0)
(-1.04686458e-11 0 0)
(-1.088409e-11 0 0)
(-1.07365438e-11 0 0)
(-1.05983474e-11 0 0)
(-1.04522557e-11 0 0)
(-9.55716481e-12 0 0)
(-8.78685792e-12 0 0)
(-9.41199266e-12 0 0)
(-1.09143771e-11 0 0)
(-9.21331464e-12 0 0)
(-9.01512527e-12 0 0)
(-9.00879483e-12 0 0)
(-8.40831116e-12 0 0)
(-9.55275002e-12 0 0)
(-8.89092998e-12 0 0)
(-7.65035122e-12 0 0)
(-7.06761685e-12 0 0)
(-8.53216943e-12 0 0)
(-8.6525944e-12 0 0)
(-8.74866412e-12 0 0)
(-8.30298509e-12 0 0)
(-8.29587155e-12 0 0)
(-9.21245684e-12 0 0)
(-8.86041583e-12 0 0)
(-8.99062549e-12 0 0)
(-9.099103e-12 0 0)
(-8.09421265e-12 0 0)
(-7.81291569e-12 0 0)
(-7.30547553e-12 0 0)
(-8.20073476e-12 0 0)
(-8.1645081e-12 0 0)
(-8.17463016e-12 0 0)
(-7.50433442e-12 0 0)
(-7.69431077e-12 0 0)
(-7.8502775e-12 0 0)
(-7.61870976e-12 0 0)
(-6.47768546e-12 0 0)
(-7.81932116e-12 0 0)
(-7.87327578e-12 0 0)
(-7.4735689e-12 0 0)
(-6.83239235e-12 0 0)
(-8.11230731e-12 0 0)
(-7.78144692e-12 0 0)
(-6.58647538e-12 0 0)
(-6.99378406e-12 0 0)
(-7.06640109e-12 0 0)
(-7.33191087e-12 0 0)
(-6.1845778e-12 0 0)
(-6.97074736e-12 0 0)
(-6.45120202e-12 0 0)
(-7.22556423e-12 0 0)
(-5.18021636e-12 0 0)
(-6.34940183e-12 0 0)
(-6.34162544e-12 0 0)
(-6.00267365e-12 0 0)
(-5.41809769e-12 0 0)
(-5.58902587e-12 0 0)
(-5.40365538e-12 0 0)
(-5.38004905e-12 0 0)
(-5.55060396e-12 0 0)
(-4.99074615e-12 0 0)
(-5.74386804e-12 0 0)
(-5.29130619e-12 0 0)
(-5.06210223e-12 0 0)
(-5.93929605e-12 0 0)
(-5.67509673e-12 0 0)
(-5.51991466e-12 0 0)
(-5.23827996e-12 0 0)
(-5.4625981e-12 0 0)
(-6.21092744e-12 0 0)
(-5.12348392e-12 0 0)
(-6.13550403e-12 0 0)
(-6.14189872e-12 0 0)
(-5.82013383e-12 0 0)
(-6.15982058e-12 0 0)
(-5.62983478e-12 0 0)
(-6.1892985e-12 0 0)
(-6.18809862e-12 0 0)
(-5.86006504e-12 0 0)
(-4.97333371e-12 0 0)
(-5.36203968e-12 0 0)
(-5.25338082e-12 0 0)
(-6.34140935e-12 0 0)
(-5.68234605e-12 0 0)
(-5.72925961e-12 0 0)
(-5.22973097e-12 0 0)
(-5.49300671e-12 0 0)
(-4.29507562e-12 0 0)
(-5.028911e-12 0 0)
(-4.7214805e-12 0 0)
(-4.54850118e-12 0 0)
(-4.8070738e-12 0 0)
(-5.3119613e-12 0 0)
(-4.93417607e-12 0 0)
(-4.50459457e-12 0 0)
(-4.66208699e-12 0 0)
(-4.83894892e-12 0 0)
(-5.17607767e-12 0 0)
(-5.02166373e-12 0 0)
(-3.7571623e-12 0 0)
(-4.47119132e-12 0 0)
(-4.92962993e-12 0 0)
(-3.34076247e-12 0 0)
(-4.73619443e-12 0 0)
(-4.06079844e-12 0 0)
(-3.75066851e-12 0 0)
(-3.6542646e-12 0 0)
(-4.22375201e-12 0 0)
(-3.30787963e-12 0 0)
(-4.12073437e-12 0 0)
(-3.59956064e-12 0 0)
(-2.64695144e-12 0 0)
(-3.09743141e-12 0 0)
(-3.54068807e-12 0 0)
(-2.38657144e-12 0 0)
(-2.58794036e-12 0 0)
(-3.33176264e-12 0 0)
(-1.88867926e-12 0 0)
(-2.79032584e-12 0 0)
(-3.40689383e-12 0 0)
(-2.78890817e-12 0 0)
(-1.59960463e-12 0 0)
(-2.57967658e-12 0 0)
(-1.82909026e-12 0 0)
(-1.05533875e-12 0 0)
(-1.9472845e-12 0 0)
(-2.26015536e-12 0 0)
(-2.76480409e-12 0 0)
(-1.42402642e-12 0 0)
(-1.98968591e-12 0 0)
(-1.97680036e-12 0 0)
(-2.5063078e-12 0 0)
(-1.15503099e-12 0 0)
(-1.39074556e-12 0 0)
(-5.33752081e-13 0 0)
(-1.96281214e-12 0 0)
(-1.38637659e-12 0 0)
(-1.17803452e-12 0 0)
(-2.1138359e-12 0 0)
(-9.09353399e-13 0 0)
(-1.3687919e-12 0 0)
(-1.96083083e-12 0 0)
(-1.02215446e-12 0 0)
(-9.82104114e-13 0 0)
(-3.85961367e-13 0 0)
(4.60672517e-13 0 0)
(-1.14985731e-12 0 0)
(-3.978458e-13 0 0)
(5.28964452e-14 0 0)
(8.38887884e-13 0 0)
(1.0951417e-12 0 0)
(2.02501059e-12 0 0)
(1.53097725e-13 0 0)
(1.69061529e-12 0 0)
(1.4959862e-12 0 0)
(1.5408489e-12 0 0)
(1.28343899e-12 0 0)
(1.35977127e-12 0 0)
(2.0954257e-12 0 0)
(2.97193224e-12 0 0)
(1.6242842e-12 0 0)
(1.39903353e-12 0 0)
(1.59305799e-12 0 0)
(2.55902218e-12 0 0)
(2.13614781e-12 0 0)
(1.08844807e-12 0 0)
(1.56993747e-12 0 0)
(2.14495323e-12 0 0)
(2.86584236e-12 0 0)
(2.22021714e-12 0 0)
(1.99929455e-12 0 0)
(2.01599521e-12 0 0)
(1.00586973e-12 0 0)
(2.3457369e-12 0 0)
(2.49336118e-12 0 0)
(2.81987045e-12 0 0)
(2.66832137e-12 0 0)
(2.35635516e-12 0 0)
(2.83327384e-12 0 0)
(3.11966858e-12 0 0)
(2.81030696e-12 0 0)
(3.66543298e-12 0 0)
(2.87923323e-12 0 0)
(3.67457358e-12 0 0)
(3.27710421e-12 0 0)
(3.84200376e-12 0 0)
(2.6827896e-12 0 0)
(2.37241441e-12 0 0)
(3.18362817e-12 0 0)
(2.59295932e-12 0 0)
(2.49614082e-12 0 0)
(3.36778887e-12 0 0)
(3.23749623e-12 0 0)
(2.627398e-12 0 0)
(2.77961344e-12 0 0)
(1.96245324e-12 0 0)
(2.73609944e-12 0 0)
(2.91788502e-12 0 0)
(2.38158857e-12 0 0)
(2.23229448e-12 0 0)
(3.46691741e-12 0 0)
(2.94336468e-12 0 0)
(3.49159036e-12 0 0)
(2.92609343e-12 0 0)
(3.0624411e-12 0 0)
(3.40103471e-12 0 0)
(3.73496578e-12 0 0)
(3.84729742e-12 0 0)
(3.73356259e-12 0 0)
(3.96084443e-12 0 0)
(3.80595513e-12 0 0)
(3.07796825e-12 0 0)
(3.84196339e-12 0 0)
(4.41147143e-12 0 0)
(3.64789447e-12 0 0)
(4.36103298e-12 0 0)
(4.50822631e-12 0 0)
(3.81476034e-12 0 0)
(4.50508917e-12 0 0)
(5.33128305e-12 0 0)
(4.29516694e-12 0 0)
(4.40218306e-12 0 0)
(3.97146754e-12 0 0)
(3.71566376e-12 0 0)
(4.69933279e-12 0 0)
(3.95233345e-12 0 0)
(4.11076319e-12 0 0)
(4.59556244e-12 0 0)
(3.8607763e-12 0 0)
(3.43745988e-12 0 0)
(3.73172521e-12 0 0)
(3.54441366e-12 0 0)
(3.95972892e-12 0 0)
(3.38185918e-12 0 0)
(4.13251661e-12 0 0)
(2.8630372e-12 0 0)
(2.8285993e-12 0 0)
(4.04109388e-12 0 0)
(4.06644712e-12 0 0)
(3.93708438e-12 0 0)
(3.32538109e-12 0 0)
(4.19252094e-12 0 0)
(3.66152605e-12 0 0)
(4.51685646e-12 0 0)
(4.92647239e-12 0 0)
(5.07355145e-12 0 0)
(4.49682464e-12 0 0)
(5.69382582e-12 0 0)
(5.00538024e-12 0 0)
(5.39270189e-12 0 0)
(5.36768603e-12 0 0)
(4.81014711e-12 0 0)
(4.21831381e-12 0 0)
(4.90316362e-12 0 0)
(5.06299086e-12 0 0)
(5.87265797e-12 0 0)
(5.81928891e-12 0 0)
(5.36146279e-12 0 0)
(5.53815438e-12 0 0)
(5.52709969e-12 0 0)
(6.12652302e-12 0 0)
(6.14112748e-12 0 0)
(6.62592776e-12 0 0)
(6.48581934e-12 0 0)
(5.555076e-12 0 0)
(6.1012477e-12 0 0)
(7.01476083e-12 0 0)
(7.15788772e-12 0 0)
(6.61837022e-12 0 0)
(7.11185472e-12 0 0)
(7.04969046e-12 0 0)
(6.99975859e-12 0 0)
(6.51354975e-12 0 0)
(6.55312628e-12 0 0)
(7.24901479e-12 0 0)
(6.37236963e-12 0 0)
(6.98994181e-12 0 0)
(7.25753558e-12 0 0)
(6.52041541e-12 0 0)
(7.24982281e-12 0 0)
(7.40875661e-12 0 0)
(7.62306995e-12 0 0)
(8.47973726e-12 0 0)
(7.38146582e-12 0 0)
(6.83843624e-12 0 0)
(6.75500453e-12 0 0)
(6.55675291e-12 0 0)
(7.40280754e-12 0 0)
(6.65051791e-12 0 0)
(7.44210244e-12 0 0)
(6.95848806e-12 0 0)
(7.54881309e-12 0 0)
(6.87494428e-12 0 0)
(6.96530582e-12 0 0)
(7.61616033e-12 0 0)
(7.56862654e-12 0 0)
(7.18103109e-12 0 0)
(6.59386935e-12 0 0)
(7.22383533e-12 0 0)
(7.26778752e-12 0 0)
(7.39869566e-12 0 0)
(7.44331064e-12 0 0)
(5.76675285e-12 0 0)
(7.06721672e-12 0 0)
(6.35452999e-12 0 0)
(8.10500788e-12 0 0)
(6.19385584e-12 0 0)
(6.70791577e-12 0 0)
(6.29356007e-12 0 0)
(7.04390856e-12 0 0)
(6.67598255e-12 0 0)
(6.87081285e-12 0 0)
(6.63231895e-12 0 0)
(6.63310576e-12 0 0)
(6.75927118e-12 0 0)
(6.64555525e-12 0 0)
(7.36653839e-12 0 0)
(7.98089551e-12 0 0)
(6.65268497e-12 0 0)
(7.70686807e-12 0 0)
(7.32393785e-12 0 0)
(7.48905322e-12 0 0)
(6.91990237e-12 0 0)
(6.75628328e-12 0 0)
(7.34141921e-12 0 0)
(6.65648372e-12 0 0)
(6.4786882e-12 0 0)
(6.72980942e-12 0 0)
(7.19070504e-12 0 0)
(6.1743647e-12 0 0)
(7.24027867e-12 0 0)
(6.61999993e-12 0 0)
(6.38334594e-12 0 0)
(6.97902651e-12 0 0)
(6.71522996e-12 0 0)
(7.19443168e-12 0 0)
(6.26601387e-12 0 0)
(6.93388583e-12 0 0)
(6.76151952e-12 0 0)
(6.69160982e-12 0 0)
(6.51897726e-12 0 0)
(6.74835791e-12 0 0)
(6.88228765e-12 0 0)
(6.81160587e-12 0 0)
(6.44125287e-12 0 0)
(5.98108004e-12 0 0)
(6.27494478e-12 0 0)
(6.87590165e-12 0 0)
(6.63527295e-12 0 0)
(6.17812322e-12 0 0)
(7.23567953e-12 0 0)
(6.60181801e-12 0 0)
(6.3574115e-12 0 0)
(7.33650525e-12 0 0)
(6.97358661e-12 0 0)
(7.58790328e-12 0 0)
(7.72909017e-12 0 0)
(7.08912464e-12 0 0)
(7.40504655e-12 0 0)
(6.86946753e-12 0 0)
(7.23049473e-12 0 0)
(6.8438555e-12 0 0)
(7.19774948e-12 0 0)
(7.5824973e-12 0 0)
(7.38898075e-12 0 0)
(8.2892383e-12 0 0)
(7.63824276e-12 0 0)
(7.97749604e-12 0 0)
(7.53650823e-12 0 0)
(7.36408636e-12 0 0)
(6.344923e-12 0 0)
(6.73782718e-12 0 0)
(6.37050164e-12 0 0)
(7.09591833e-12 0 0)
(6.17187403e-12 0 0)
(7.71441844e-12 0 0)
(6.22362042e-12 0 0)
(7.11113827e-12 0 0)
(7.60587097e-12 0 0)
(7.00197903e-12 0 0)
(7.31668909e-12 0 0)
(6.33395244e-12 0 0)
(6.74439682e-12 0 0)
(7.89614062e-12 0 0)
(7.20834985e-12 0 0)
(6.95363433e-12 0 0)
(6.5471622e-12 0 0)
(7.11840559e-12 0 0)
(6.36546887e-12 0 0)
(6.43417934e-12 0 0)
(6.05031408e-12 0 0)
(7.19750261e-12 0 0)
(6.2080286e-12 0 0)
(6.66269788e-12 0 0)
(6.98995878e-12 0 0)
(6.53779203e-12 0 0)
(6.76423932e-12 0 0)
(7.45569009e-12 0 0)
(7.25863669e-12 0 0)
(7.40801918e-12 0 0)
(6.82030777e-12 0 0)
(7.35342082e-12 0 0)
(6.83040764e-12 0 0)
(5.51896382e-12 0 0)
(8.07549445e-12 0 0)
(7.95187095e-12 0 0)
(7.30574277e-12 0 0)
(7.04340109e-12 0 0)
(8.32127364e-12 0 0)
(6.49717884e-12 0 0)
(7.53772735e-12 0 0)
(6.6252944e-12 0 0)
(7.16721508e-12 0 0)
(6.88060412e-12 0 0)
(8.02798073e-12 0 0)
(7.44220912e-12 0 0)
(7.78180249e-12 0 0)
(7.82896109e-12 0 0)
(7.88857964e-12 0 0)
(8.12163488e-12 0 0)
(7.53930551e-12 0 0)
(7.08618938e-12 0 0)
(8.24461301e-12 0 0)
(7.42506399e-12 0 0)
(7.79854079e-12 0 0)
(6.63829136e-12 0 0)
(8.09998299e-12 0 0)
(8.1003569e-12 0 0)
(6.87633487e-12 0 0)
(7.40024205e-12 0 0)
(8.26149064e-12 0 0)
(8.38394261e-12 0 0)
(7.1962479e-12 0 0)
(7.07852454e-12 0 0)
(9.17277617e-12 0 0)
(8.16784952e-12 0 0)
(8.749899e-12 0 0)
(8.15211297e-12 0 0)
(8.19017347e-12 0 0)
(8.7620074e-12 0 0)
(8.65523917e-12 0 0)
(8.34314516e-12 0 0)
(8.59458345e-12 0 0)
(9.94837367e-12 0 0)
(8.14057128e-12 0 0)
(9.3749239e-12 0 0)
(7.85397151e-12 0 0)
(7.66878898e-12 0 0)
(9.68166231e-12 0 0)
(8.48759942e-12 0 0)
(8.35169529e-12 0 0)
(8.57742678e-12 0 0)
(8.26752553e-12 0 0)
(9.34462263e-12 0 0)
(8.63883101e-12 0 0)
(9.82789096e-12 0 0)
(9.09899055e-12 0 0)
(9.7904415e-12 0 0)
(8.64440341e-12 0 0)
(8.08539312e-12 0 0)
(9.06222908e-12 0 0)
(8.99326103e-12 0 0)
(8.91532019e-12 0 0)
(8.42630329e-12 0 0)
(8.16387146e-12 0 0)
(9.43898141e-12 0 0)
(8.08002492e-12 0 0)
(8.31905424e-12 0 0)
(7.60474714e-12 0 0)
(8.54913299e-12 0 0)
(7.97770553e-12 0 0)
(7.70819621e-12 0 0)
(8.49394489e-12 0 0)
(8.45571818e-12 0 0)
(8.42269601e-12 0 0)
(7.90635551e-12 0 0)
(7.58371787e-12 0 0)
(8.38610754e-12 0 0)
(9.02034474e-12 0 0)
(7.80166903e-12 0 0)
(7.66818668e-12 0 0)
(8.27436813e-12 0 0)
(8.55047772e-12 0 0)
(7.93565477e-12 0 0)
(8.15542412e-12 0 0)
(9.6750054e-12 0 0)
(7.73699986e-12 0 0)
(7.98159224e-12 0 0)
(8.92631568e-12 0 0)
(8.50749648e-12 0 0)
(7.97592321e-12 0 0)
(7.58923599e-12 0 0)
(9.12210687e-12 0 0)
(8.29911227e-12 0 0)
(8.49945719e-12 0 0)
(9.0284725e-12 0 0)
(7.91357567e-12 0 0)
(9.25804196e-12 0 0)
(8.99325723e-12 0 0)
(8.37662843e-12 0 0)
(9.82826773e-12 0 0)
(8.64371421e-12 0 0)
(7.84350339e-12 0 0)
(8.3363328e-12 0 0)
(7.93763506e-12 0 0)
(8.59795168e-12 0 0)
(7.97050327e-12 0 0)
(8.13174242e-12 0 0)
(7.87980033e-12 0 0)
(8.56807311e-12 0 0)
(7.96928893e-12 0 0)
(7.80336143e-12 0 0)
(8.96336891e-12 0 0)
(8.01508587e-12 0 0)
(8.40813773e-12 0 0)
(7.19696216e-12 0 0)
(7.66734268e-12 0 0)
(8.57373288e-12 0 0)
(8.72273313e-12 0 0)
(9.34605407e-12 0 0)
(8.11778997e-12 0 0)
(7.83184101e-12 0 0)
(8.17059028e-12 0 0)
(8.25086853e-12 0 0)
(7.53625864e-12 0 0)
(9.12564486e-12 0 0)
(8.42482811e-12 0 0)
(6.95721947e-12 0 0)
(7.99178056e-12 0 0)
(8.34883952e-12 0 0)
(7.53805956e-12 0 0)
(8.7212901e-12 0 0)
(8.00888312e-12 0 0)
(9.1278384e-12 0 0)
(7.38618513e-12 0 0)
(8.39689656e-12 0 0)
(7.84095561e-12 0 0)
(8.63706561e-12 0 0)
(9.40658472e-12 0 0)
(8.92200593e-12 0 0)
(8.67920577e-12 0 0)
(8.96631976e-12 0 0)
(7.44164717e-12 0 0)
(7.93855951e-12 0 0)
(7.82902306e-12 0 0)
(8.13837743e-12 0 0)
(7.98171469e-12 0 0)
(8.56649377e-12 0 0)
(7.57585229e-12 0 0)
(9.22653668e-12 0 0)
(8.45524185e-12 0 0)
(7.60607396e-12 0 0)
(8.66139201e-12 0 0)
(8.51886909e-12 0 0)
(8.25830059e-12 0 0)
(7.98097656e-12 0 0)
(8.2197493e-12 0 0)
(8.08995277e-12 0 0)
(8.28824537e-12 0 0)
(7.94459613e-12 0 0)
(8.77192995e-12 0 0)
(7.74497619e-12 0 0)
(7.60545409e-12 0 0)
(7.28652259e-12 0 0)
(8.23191873e-12 0 0)
(8.85223616e-12 0 0)
(7.78089457e-12 0 0)
(8.09158383e-12 0 0)
(8.92295668e-12 0 0)
(8.0519201e-12 0 0)
(8.23858341e-12 0 0)
(7.78925453e-12 0 0)
(8.32451608e-12 0 0)
(7.73478839e-12 0 0)
(8.74109559e-12 0 0)
(7.27496219e-12 0 0)
(8.47437193e-12 0 0)
(7.36014871e-12 0 0)
(7.27287974e-12 0 0)
(7.50038564e-12 0 0)
(7.94967422e-12 0 0)
(7.67484345e-12 0 0)
(7.70302162e-12 0 0)
(7.52358616e-12 0 0)
(7.30925894e-12 0 0)
(6.93942745e-12 0 0)
(7.26215308e-12 0 0)
(6.83526472e-12 0 0)
(6.49280833e-12 0 0)
(6.7565079e-12 0 0)
(5.76427995e-12 0 0)
(7.58370068e-12 0 0)
(6.31032467e-12 0 0)
(6.85696579e-12 0 0)
(7.28475394e-12 0 0)
(7.00106375e-12 0 0)
(5.85532543e-12 0 0)
(6.53035698e-12 0 0)
(6.84107647e-12 0 0)
(6.33329465e-12 0 0)
(5.57125247e-12 0 0)
(6.62773234e-12 0 0)
(5.36227898e-12 0 0)
(5.88832581e-12 0 0)
(6.19776179e-12 0 0)
(4.91484496e-12 0 0)
(5.93619616e-12 0 0)
(5.70999507e-12 0 0)
(4.65926253e-12 0 0)
(4.49716924e-12 0 0)
(6.10466416e-12 0 0)
(5.98399461e-12 0 0)
(4.17042834e-12 0 0)
(4.65635862e-12 0 0)
(3.83866682e-12 0 0)
(2.38486653e-12 0 0)
(3.23083145e-12 0 0)
(2.62302963e-12 0 0)
(2.29339999e-12 0 0)
(2.16007897e-12 0 0)
(2.79422986e-12 0 0)
(2.50130041e-12 0 0)
(2.35956908e-12 0 0)
(1.99800235e-12 0 0)
(2.9076943e-12 0 0)
(2.05723324e-12 0 0)
(2.27741668e-12 0 0)
(3.07241903e-12 0 0)
(2.08189544e-12 0 0)
(2.78794864e-12 0 0)
(2.61505813e-12 0 0)
(2.57044793e-12 0 0)
(2.05281752e-12 0 0)
(2.57030738e-12 0 0)
(1.89340504e-12 0 0)
(2.47361614e-12 0 0)
(2.48952529e-12 0 0)
(2.01535748e-12 0 0)
(1.01894931e-12 0 0)
(1.13438971e-12 0 0)
(2.07916209e-12 0 0)
(1.20432531e-12 0 0)
(1.56072989e-12 0 0)
(1.16001185e-12 0 0)
(1.17060344e-12 0 0)
(1.124269e-12 0 0)
(9.65810207e-13 0 0)
(2.93800189e-12 0 0)
(1.64745053e-12 0 0)
(1.92207001e-12 0 0)
(2.03155032e-12 0 0)
(2.25217714e-12 0 0)
(1.73309836e-12 0 0)
(2.17754229e-12 0 0)
(2.57994602e-12 0 0)
(2.4870458e-12 0 0)
(2.24356846e-12 0 0)
(1.38990701e-12 0 0)
(1.7491122e-12 0 0)
(1.99894939e-12 0 0)
(1.39297375e-12 0 0)
(1.84411536e-12 0 0)
(1.93048276e-12 0 0)
(1.11680849e-12 0 0)
(1.3791157e-12 0 0)
(2.15634443e-12 0 0)
(1.5468352e-12 0 0)
(1.43574172e-12 0 0)
(1.23295398e-12 0 0)
(1.2720665e-13 0 0)
(1.8689236e-12 0 0)
(1.13184399e-12 0 0)
(4.03615183e-13 0 0)
(6.40842778e-13 0 0)
(1.50511974e-12 0 0)
(4.29482262e-13 0 0)
(1.89205027e-13 0 0)
(2.39796474e-13 0 0)
(-7.41544184e-13 0 0)
(-7.10561377e-13 0 0)
(-6.15109489e-13 0 0)
(-9.28275696e-13 0 0)
(-1.033379e-12 0 0)
(-9.52739119e-13 0 0)
(-1.34332234e-12 0 0)
(-1.35229489e-12 0 0)
(-1.43654347e-12 0 0)
(-1.55558489e-12 0 0)
(-1.63997333e-12 0 0)
(-1.98885937e-12 0 0)
(-2.16614109e-12 0 0)
(-2.90988972e-12 0 0)
(-2.45313115e-12 0 0)
(-2.32422498e-12 0 0)
(-2.46921574e-12 0 0)
(-3.49547153e-12 0 0)
(-3.94907869e-12 0 0)
(-3.6921287e-12 0 0)
(-3.38989143e-12 0 0)
(-3.61855144e-12 0 0)
(-3.32110571e-12 0 0)
(-2.84693105e-12 0 0)
(-3.98906213e-12 0 0)
(-2.78885706e-12 0 0)
(-3.68162867e-12 0 0)
(-4.17515403e-12 0 0)
(-3.5306453e-12 0 0)
(-2.89997511e-12 0 0)
(-4.22036642e-12 0 0)
(-3.65554388e-12 0 0)
(-3.64497195e-12 0 0)
(-4.20089935e-12 0 0)
(-4.23506203e-12 0 0)
(-4.23056216e-12 0 0)
(-4.73768388e-12 0 0)
(-4.44898719e-12 0 0)
(-5.1847282e-12 0 0)
(-4.15639732e-12 0 0)
(-4.39431449e-12 0 0)
(-3.87052294e-12 0 0)
(-4.09058549e-12 0 0)
(-4.68931584e-12 0 0)
(-4.02690351e-12 0 0)
(-4.90844254e-12 0 0)
(-5.48901835e-12 0 0)
(-4.27449288e-12 0 0)
(-4.39582597e-12 0 0)
(-5.37283691e-12 0 0)
(-5.50070969e-12 0 0)
(-5.2864874e-12 0 0)
(-5.30320317e-12 0 0)
(-5.96545063e-12 0 0)
(-5.17691366e-12 0 0)
(-5.54963966e-12 0 0)
(-4.85049054e-12 0 0)
(-4.27161312e-12 0 0)
(-5.11400956e-12 0 0)
(-3.98704326e-12 0 0)
(-3.82430062e-12 0 0)
(-4.87759224e-12 0 0)
(-4.96140937e-12 0 0)
(-4.8287436e-12 0 0)
(-4.32665309e-12 0 0)
(-4.38880507e-12 0 0)
(-3.84099963e-12 0 0)
(-3.40291858e-12 0 0)
(-3.80502232e-12 0 0)
(-3.53423725e-12 0 0)
(-3.89010724e-12 0 0)
(-4.00587171e-12 0 0)
(-3.59048765e-12 0 0)
(-3.4350722e-12 0 0)
(-4.15866569e-12 0 0)
(-5.18951555e-12 0 0)
(-4.95243217e-12 0 0)
(-4.75128528e-12 0 0)
(-5.14313915e-12 0 0)
(-4.63472049e-12 0 0)
(-4.99477761e-12 0 0)
(-5.79167586e-12 0 0)
(-5.42936914e-12 0 0)
(-4.36128668e-12 0 0)
(-5.2144116e-12 0 0)
(-5.6714931e-12 0 0)
(-5.23460076e-12 0 0)
(-5.3321235e-12 0 0)
(-6.18137266e-12 0 0)
(-6.01431025e-12 0 0)
(-6.14179698e-12 0 0)
(-6.79567262e-12 0 0)
(-5.61867972e-12 0 0)
(-4.27985778e-12 0 0)
(-5.78104704e-12 0 0)
(-6.10003956e-12 0 0)
(-5.25947779e-12 0 0)
(-5.26419533e-12 0 0)
(-6.64650657e-12 0 0)
(-5.42339348e-12 0 0)
(-5.81912594e-12 0 0)
(-5.30653072e-12 0 0)
(-7.0427583e-12 0 0)
(-5.59038876e-12 0 0)
(-5.78757907e-12 0 0)
(-5.99230317e-12 0 0)
(-5.75338997e-12 0 0)
(-5.8839199e-12 0 0)
(-5.95633378e-12 0 0)
(-5.59350205e-12 0 0)
(-6.32976368e-12 0 0)
(-5.88741827e-12 0 0)
(-7.28297366e-12 0 0)
(-6.7337339e-12 0 0)
(-6.69137897e-12 0 0)
(-7.01037712e-12 0 0)
(-7.08181439e-12 0 0)
(-6.75546656e-12 0 0)
(-6.11452276e-12 0 0)
(-5.76392767e-12 0 0)
(-6.20315534e-12 0 0)
(-6.4093916e-12 0 0)
(-6.5151527e-12 0 0)
(-7.12455818e-12 0 0)
(-5.89425573e-12 0 0)
(-6.36264729e-12 0 0)
(-6.31407581e-12 0 0)
(-6.05503388e-12 0 0)
(-6.27737991e-12 0 0)
(-6.57232523e-12 0 0)
(-6.05141865e-12 0 0)
(-6.45539525e-12 0 0)
(-6.22407256e-12 0 0)
(-6.9782631e-12 0 0)
(-6.14812952e-12 0 0)
(-6.44445107e-12 0 0)
(-5.93488311e-12 0 0)
(-5.85334439e-12 0 0)
(-5.75328951e-12 0 0)
(-6.2080281e-12 0 0)
(-6.37109173e-12 0 0)
(-6.0214341e-12 0 0)
(-6.42361391e-12 0 0)
(-5.60551212e-12 0 0)
(-6.22985836e-12 0 0)
(-5.93142392e-12 0 0)
(-6.19563384e-12 0 0)
(-6.6204642e-12 0 0)
(-6.30208989e-12 0 0)
(-5.75706876e-12 0 0)
(-5.01222397e-12 0 0)
(-5.75333528e-12 0 0)
(-5.8603299e-12 0 0)
(-6.20365527e-12 0 0)
(-6.07381195e-12 0 0)
(-6.78559327e-12 0 0)
(-7.64770442e-12 0 0)
(-6.61959718e-12 0 0)
(-6.85423865e-12 0 0)
(-7.18835999e-12 0 0)
(-7.52853625e-12 0 0)
(-7.46085536e-12 0 0)
(-7.0675116e-12 0 0)
(-7.24322359e-12 0 0)
(-8.24575203e-12 0 0)
(-7.03703096e-12 0 0)
(-6.95988106e-12 0 0)
(-6.9277104e-12 0 0)
(-7.29190995e-12 0 0)
(-8.2790608e-12 0 0)
(-7.46877242e-12 0 0)
(-8.00869887e-12 0 0)
(-7.26062002e-12 0 0)
(-8.36707575e-12 0 0)
(-7.66015479e-12 0 0)
(-8.06428407e-12 0 0)
(-7.12698812e-12 0 0)
(-8.192994e-12 0 0)
(-6.91729222e-12 0 0)
(-8.21500704e-12 0 0)
(-8.29927268e-12 0 0)
(-7.85155472e-12 0 0)
(-8.67742283e-12 0 0)
(-8.66755762e-12 0 0)
(-8.03082823e-12 0 0)
(-8.75081748e-12 0 0)
(-8.71843229e-12 0 0)
(-8.86974802e-12 0 0)
(-7.78941845e-12 0 0)
(-8.13330471e-12 0 0)
(-9.48388726e-12 0 0)
(-8.11221425e-12 0 0)
(-7.72392483e-12 0 0)
(-8.87591008e-12 0 0)
(-8.50231106e-12 0 0)
(-8.95931081e-12 0 0)
(-9.38249989e-12 0 0)
(-9.93833093e-12 0 0)
(-8.78739558e-12 0 0)
(-9.4362038e-12 0 0)
(-8.88577153e-12 0 0)
(-9.57028803e-12 0 0)
(-9.05084198e-12 0 0)
(-9.50520565e-12 0 0)
(-8.99332039e-12 0 0)
(-9.58890289e-12 0 0)
(-9.95600895e-12 0 0)
(-9.26677639e-12 0 0)
(-9.9091075e-12 0 0)
(-9.67059999e-12 0 0)
(-9.28826322e-12 0 0)
(-9.04840163e-12 0 0)
(-8.82964538e-12 0 0)
(-8.53221258e-12 0 0)
(-9.03804112e-12 0 0)
(-9.40697254e-12 0 0)
(-8.93791566e-12 0 0)
(-8.29014959e-12 0 0)
(-9.009174e-12 0 0)
(-8.41020814e-12 0 0)
(-8.97257123e-12 0 0)
(-9.51887247e-12 0 0)
(-8.39877806e-12 0 0)
(-8.82550825e-12 0 0)
(-8.25760056e-12 0 0)
(-7.83066544e-12 0 0)
(-9.71777933e-12 0 0)
(-7.52221124e-12 0 0)
(-7.52872074e-12 0 0)
(-9.35671933e-12 0 0)
(-8.23646581e-12 0 0)
(-8.52542379e-12 0 0)
(-9.20675508e-12 0 0)
(-8.87517782e-12 0 0)
(-9.05388456e-12 0 0)
(-8.89168021e-12 0 0)
(-8.34854083e-12 0 0)
(-8.86561786e-12 0 0)
(-7.58996008e-12 0 0)
(-7.74827227e-12 0 0)
(-8.72777324e-12 0 0)
(-7.93907446e-12 0 0)
(-8.69508368e-12 0 0)
(-8.19922266e-12 0 0)
(-8.06817564e-12 0 0)
(-7.57014868e-12 0 0)
(-8.46362377e-12 0 0)
(-9.16059247e-12 0 0)
(-8.62881701e-12 0 0)
(-7.81169135e-12 0 0)
(-8.2976512e-12 0 0)
(-9.70592848e-12 0 0)
(-8.05122035e-12 0 0)
(-8.42197549e-12 0 0)