/*--------------------------------*- C++ -*----------------------------------*\
| =========                 |                                                 |
| \\      /  F ield         | OpenFOAM: The Open Source CFD Toolbox           |
|  \\    /   O peration     | Version:  2206                                  |
|   \\  /    A nd           | Website:  www.openfoam.com                      |
|    \\/     M anipulation  |                                                 |
\*---------------------------------------------------------------------------*/
FoamFile
{
    version     2.0;
    format      ascii;
    arch        "LSB;label=32;scalar=64";
    class       volScalarField;
    location    "7.4e-06";
    object      p;
}
// * * * * * * * * * * * * * * * * * * * * * * * * * * * * * * * * * * * * * //

dimensions      [1 -1 -2 0 0 0 0];

internalField   nonuniform List<scalar> 
3183
(
101325
101325
101325
101325
101325
101325
101325
101325
101325
101325
101325
101325
101325
101325
101325
101325
101325
101325
101325
101325
101325
101325
101325
101325
101325
101325
101325
101325
101325
101325
101325
101325
101325
101325
101325
101325
101325
101325
101325
101325
101325
101325
101325
101325
101325
101325
101325
101325
101325
101325
101325
101325
101325
101325
101325
101325
101325
101325
101325
101325
101325
101325
101325
101325
101325
101325
101325
101325
101325
101325
101325
101325
101325
101325
101325
101325
101325
101325
101325
101325
101325
101325
101325
101325
101325
101325
101325
101325
101325
101325
101325
101325
101325
101325
101325
101325
101325
101325
101325
101325
101325
101325
101325
101325
101325
101325
101325
101325
101325
101325
101325
101325
101325
101325
101325
101325
101325
101325
101325
101325
101325
101325
101325
101325
101325
101325
101325
101325
101325
101325
101325
101325
101325
101325
101325
101325
101325
101325
101325
101325
101325
101325
101325
101325
101325
101325
101325
101325
101325
101325
101325
101325
101325
101325
101325
101325
101325
101325
101325
101325
101325
101325
101325
101325
101325
101325
101325
101325
101325
101325
101325
101325
101325
101325
101325
101325
101325
101325
101325
101325
101325
101325
101325
101325
101325
101325
101325
101325
101325
101325
101325
101325
101325
101325
101325
101325
101325
101325
101325
101325
101325
101325
101325
101325
101325
101325
101325
101325
101325
101325
101325
101325
101325
101325
101325
101325
101325
101325
101325
101325
101325
101325
101325
101325
101325
101325
101325
101325
101325
101325
101325
101325
101325
101325
101325
101325
101325
101325
101325
101325
101325
101325
101325
101325
101325
101325
101325
101325
101325
101325
101325
101325
101325
101325
101325
101325
101325
101325
101325
101325
101325
101325
101325
101325
101325
101325
101325
101325
101325
101325
101325
101325
101325
101325
101325
101325
101325
101325
101325
101325
101325
101325
101325
101325
101325
101325
101325
101325
101325
101325
101325
101325
101325
101325
101325
101325
101325
101325
101325
101325
101325
101325
101325
101325
101325
101325
101325
101325
101325
101325
101325
101325
101325
101325
101325
101325
101325
101325
101325
101325
101325
101325
101325
101325
101325
101325
101325
101325
101325
101325
101325
101325
101325
101325
101325
101325
101325
101325
101325
101325
101325
101325
101325
101325
101325
101325
101325
101325
101325
101325
101325
101325
101325
101325
101325
101325
101325
101325
101325
101325
101325
101325
101325
101325
101325
101325
101325
101325
101325
101325
101325
101325
101325
101325
101325
101325
101325
101325
101325
101325
101325
101325
101325
101325
101325
101325
101325
101325
101325
101325
101325
101325
101325
101325
101325
101325
101325
101325
101325
101325
101325
101325
101325
101325
101325
101325
101325
101325
101325
101325
101325
101325
101325
101325
101325
101325
101325
101325
101325
101325
101325
101325
101325
101325
101325
101325
101325
101325
101325
101325
101325
101325
101325
101325
101325
101325
101325
101325
101325
101325
101325
101325
101325
101325
101325
101325
101325
101325
101325
101325
101325
101325
101325
101325
101325
101325
101325
101325
101325
101325
101325
101325
101325
101325
101325
101325
101325
101325
101325
101325
101325
101325
101325
101325
101325
101325
101325
101325
101325
101325
101325
101325
101325
101325
101325
101325
101325
101325
101325
101325
101325
101325
101325
101325
101325
101325
101325
101325
101325
101325
101325
101325
101325
101325
101325
101325
101325
101325
101325
101325
101325
101325
101325
101325
101325
101325
101325
101325
101325
101325
101325
101325
101325
101325
101325
101325
101325
101325
101325
101325
101325
101325
101325
101325
101325
101325
101325
101325
101325
101325
101325
101325
101325
101325
101325
101325
101325
101325
101325
101325
101325
101325
101325
101325
101325
101325
101325
101325
101325
101325
101325
101325
101325
101325
101325
101325
101325
101325
101325
101325
101325
101325
101325
101325
101325
101325
101325
101325
101325
101325
101325
101325
101325
101325
101325
101325
101325
101325
101325
101325
101325
101325
101325
101325
101325
101325
101325
101325
101325
101325
101325
101325
101325
101325
101325
101325
101325
101325
101325
101325
101325
101325
101325
101325
101325
101325
101325
101325
101325
101325
101325
101325
101325
101325
101325
101325
101325
101325
101325
101325
101325
101325
101325
101325
101325
101325
101325
101325
101325
101325
101325
101325
101325
101325
101325
101325
101325
101325
101325
101325
101325
101325
101325
101325
101325
101325
101325
101325
101325
101325
101325
101325
101325
101325
101325
101325
101325
101325
101325
101325
101325
101325
101325
101325
101325
101325
101325
101325
101325
101325
101325
101325
101325
101325
101325
101325
101325
101325
101325
101325
101325
101325
101325
101325
101325
101325
101325
101325
101325
101325
101325
101325
101325
101325
101325
101325
101325
101325
101325
101325
101325
101325
101325
101325
101325
101325
101325
101325
101325
101325
101325
101325
101325
101325
101325
101325
101325
101325
101325
101325
101325
101325
101325
101325
101325
101325
101325
101325
101325
101325
101325
101325
101325
101325
101325
101325
101325
101325
101325
101325
101325
101325
101325
101325
101325
101325
101325
101325
101325
101325
101325
101325
101325
101325
101325
101325
101325
101325
101325
101325
101325
101325
101325
101325
101325
101325
101325
101325
101325
101325
101325
101325
101325
101325
101325
101325
101325
101325
101325
101325
101325
101325
101325
101325
101325
101325
101325
101325
101325
101325
101325
101325
101325
101325
101325
101325
101325
101325
101325
101325
101325
101325
101325
101325
101325
101325
101325
101325
101325
101325
101325
101325
101325
101325
101325
101325
101325
101325
101325
101325
101325
101325
101325
101325
101325
101325
101325
101325
101325
101325
101325
101325
101325
101325
101325
101325
101325
101325
101325
101325
101325
101325
101325
101325
101325
101325
101325
101325
101325
101325
101325
101325
101325
101325
101325
101325
101325
101325
101325
101325
101325
101325
101325
101325
101325
101325
101325
101325
101325
101325
101325
101325
101325
101325
101325
101325
101325
101325
101325
101325
101325
101325
101325
101325
101325
101325
101325
101325
101325
101325
101325
101325
101325
101325
101325
101325
101325
101325
101325
101325
101325
101325
101325
101325
101325
101325
101325
101325
101325
101325
101325
101325
101325
101325
101325
101325
101325
101325
101325
101325
101325
101325
101325
101325
101325
101325
101325
101325
101325
101325
101325
101325
101325
101325
101325
101325
101325
101325
101325
101325
101325
101325
101325
101325
101325
101325
101325
101325
101325
101325
101325
101325
101325
101325
101325
101325
101325
101325
101325
101325
101325
101325
101325
101325
101325
101325
101325
101325
101325
101325
101325
101325
101325
101325
101325
101325
101325
101325
101325
101325
101325
101325
101325
101325
101325
101325
101325
101325
101325
101325
101325
101325
101325
101325
101325
101325
101325
101325
101325
101325
101325
101325
101325
101325
101325
101325
101325
101325
101325
101325
101325
101325
101325
101325
101325
101325
101325
101325
101325
101325
101325
101325
101325
101325
101325
101325
101325
101325
101325
101325
101325
101325
101325
101325
101325
101325
101325
101325
101325
101325
101325
101325
101325
101325
101325
101325
101325
101325
101325
101325
101325
101325
101325
101325
101325
101325
101325
101325
101325
101325
101325
101325
101325
101325
101325
101325
101325
101325
101325
101325
101325
101325
101325
101325
101325
101325
101325
101325
101325
101325
101325
101325
101325
101325
101325
101325
101325
101325
101325
101325
101325
101325
101325
101325
101325
101325
101325
101325
101325
101325
101325
101325
101325
101325
101325
101325
101325
101325
101325
101325
101325
101325
101325
101325
101325
101325
101325
101325
101325
101325
101325
101325
101325
101325
101325
101325
101325
101325
101325
101325
101325
101325
101325
101325
101325
101325
101325
101325
101325
101325
101325
101325
101325
101325
101325
101325
101325
101325
101325
101325
101325
101325
101325
101325
101325
101325
101325
101325
101325
101325
101325
101325
101325
101325
101325
101325
101325
101325
101325
101325
101325
101325
101325
101325
101325
101325
101325
101325
101325
101325
101325
101325
101325
101325
101325
101325
101325
101325
101325
101325
101325
101325
101325
101325
101325
101325
101325
101325
101325
101325
101325
101325
101325
101325
101325
101325
101325
101325
101325
101325
101325
101325
101325
101325
101325
101325
101325
101325
101325
101325
101325
101325
101325
101325
101325
101325
101325
101325
101325
101325
101325
101325
101325
101325
101325
101325
101325
101325
101325
101325
101325
101325
101325
101325
101325
101325
101325
101325
101325
101325
101325
101325
101325
101325
101325
101325
101325
101325
101325
101325
101325
101325
101325
101325
101325
101325
101325
101325
101325
101325
101325
101325
101325
101325
101325
101325
101325
101325
101325
101325
101325
101325
101325
101325
101325
101325
101325
101325
101325
101325
101325
101325
101325
101325
101325
101325
101325
101325
101325
101325
101325
101325
101325
101325
101325
101325
101325
101325
101325
101325
101325
101325
101325
101325
101325
101325
101325
101325
101325
101325
101325
101325
101325
101325
101325
101325
101325
101325
101325
101325
101325
101325
101325
101325
101325
101325
101325
101325
101325
101325
101325
101325
101325
101325
101325
101325
101325
101325
101325
101325
101325
101325
101325
101325
101325
101325
101325
101325
101325
101325
101325
101325
101325
101325
101325
101325
101325
101325
101325
101325
101325
101325
101325
101325
101325
101325
101325
101325
101325
101325
101325
101325
101325
101325
101325
101325
101325
101325
101325
101325
101325
101325
101325
101325
101325
101325
101325
101325
101325
101325
101325
101325
101325
101325
101325
101325
101325
101325
101325
101325
101325
101325
101325
101325
101325
101325
101325
101325
101325
101325
101325
101325
101325
101325
101325
101325
101325
101325
101325
101325
101325
101325
101325
101325
101325
101325
101325
101325
101325
101325
101325
101325
101325
101325
101325
101325
101325
101325
101325
101325
101325
101325
101325
101325
101325
101325
101325
101325
101325
101325
101325
101325
101325
101325
101325
101325
101325
101325
101325
101325
101325
101325
101325
101325
101325
101325
101325
101325
101325
101325
101325
101325
101325
101325
101325
101325
101325
101325
101325
101325
101325
101325
101325
101325
101325
101325
101325
101325
101325
101325
101325
101325
101325
101325
101325
101325
101325
101325
101325
101325
101325
101325
101325
101325
101325
101325
101325
101325
101325
101325
101325
101325
101325
101325
101325
101325
101325
101325
101325
101325
101325
101325
101325
101325
101325
101325
101325
101325
101325
101325
101325
101325
101325
101325
101325
101325
101325
101325
101325
101325
101325
101325
101325
101325
101325
101325
101325
101325
101325
101325
101325
101325
101325
101325
101325
101325
101325
101325
101325
101325
101325
101325
101325
101325
101325
101325
101325
101325
101325
101325
101325
101325
101325
101325
101325
101325
101325
101325
101325
101325
101325
101325
101325
101325
101325
101325
101325
101325
101325
101325
101325
101325
101325
101325
101325
101325
101325
101325
101325
101325
101325
101325
101325
101325
101325
101325
101325
101325
101325
101325
101325
101325
101325
101325
101325
101325
101325
101325
101325
101325
101325
101325
101325
101325
101325
101325
101325
101325
101325
101325
101325
101325
101325
101325
101325
101325
101325
101325
101325
101325
101325
101325
101325
101325
101325
101325
101325
101325
101325
101325
101325
101325
101325
101325
101325
101325
101325
101325
101325
101325
101325
101325
101325
101325
101325
101325
101325
101325
101325
101325
101325
101325
101325
101325
101325
101325
101325
101325
101325
101325
101325
101325
101325
101325
101325
101325
101325
101325
101325
101325
101325
101325
101325
101325
101325
101325
101325
101325
101325
101325
101325
101325
101325
101325
101325
101325
101325
101325
101325
101325
101325
101325
101325
101325
101325
101325
101325
101325
101325
101325
101325
101325
101325
101325
101325
101325
101325
101325
101325
101325
101325
101325
101325
101325
101325
101325
101325
101325
101325
101325
101325
101325
101325
101325
101325
101325
101325
101325
101325
101325
101325
101325
101325
101325
101325
101325
101325
101325
101325
101325
101325
101325
101325
101325
101325
101325
101325
101325
101325
101325
101325
101325
101325
101325
101325
101325
101325
101325
101325
101325
101325
101325
101325
101325
101325
101325
101325
101325
101325
101325
101325
101325
101325
101325
101325
101325
101325
101325
101325
101325
101325
101325
101325
101325
101325
101325
101325
101325
101325
101325
101325
101325
101325
101325
101325
101325
101325
101325
101325
101325
101325
101325
101325
101325
101325
101325
101325
101325
101325
101325
101325
101325
101325
101325
101325
101325
101325
101325
101325
101325
101325
101325
101325
101325
101325
101325
101325
101325
101325
101325
101325
101325
101325
101325
101325
101325
101325
101325
101325
101325
101325
101325
101325
101325
101325
101325
101325
101325
101325
101325
101325
101325
101325
101325
101325
101325
101325
101325
101325
101325
101325
101325
101325
101325
101325
101325
101325
101325
101325
101325
101325
101325
101325
101325
101325
101325
101325
101325
101325
101325
101325
101325
101325
101325
101325
101325
101325
101325
101325
101325
101325
101325
101325
101325
101325
101325
101325
101325
101325
101325
101325
101325
101325
101325
101325
101325
101325
101325
101325
101325
101325
101325
101325
101325
101325
101325
101325
101325
101325
101325
101325
101325
101325
101325
101325
101325
101325
101325
101325
101325
101325
101325
101325
101325
101325
101325
101325
101325
101325
101325
101325
101325
101325
101325
101325
101325
101325
101325
101325
101325
101325
101325
101325
101325
101325
101325
101325
101325
101325
101325
101325
101325
101325
101325
101325
101325
101325
101325
101325
101325
101325
101325
101325
101325
101325
101325
101325
101325
101325
101325
101325
101325
101325
101325
101325
101325
101325
101325
101325
101325
101325
101325
101325
101325
101325
101325
101325
101325
101325
101325
101325
101325
101325
101325
101325
101325
101325
101325
101325
101325
101325
101325
101325
101325
101325
101325
101325
101325
101325
101325
101325
101325
101325
101325
101325
101325
101325
101325
101325
101325
101325
101325
101325
101325
101325
101325
101325
101325
101325
101325
101325
101325
101325
101325
101325
101325
101325
101325
101325
101325
101325
101325
101325
101325
101325
101325
101325
101325
101325
101325
101325
101325
101325
101325
101325
101325
101325
101325
101325
101325
101325
101325
101325
101325
101325
101325
101325
101325
101325
101325
101325
101325
101325
101325
101325
101325
101325
101325
101325
101325
101325
101325
101325
101325
101325
101325
101325
101325
101325
101325
101325
101325
101325
101325
101325
101325
101325
101325
101325
101325
101325
101325
101325
101325
101325
101325
101325
101325
101325
101325
101325
101325
101325
101325
101325
101325
101324.999
101324.999
101324.999
101324.999
101324.999
101324.999
101324.999
101324.999
101324.999
101324.999
101324.999
101324.999
101324.999
101324.999
101324.998
101324.998
101324.998
101324.998
101324.998
101324.998
101324.997
101324.997
101324.997
101324.997
101324.997
101324.996
101324.996
101324.996
101324.995
101324.995
101324.995
101324.994
101324.994
101324.993
101324.993
101324.992
101324.992
101324.991
101324.99
101324.99
101324.989
101324.988
101324.987
101324.986
101324.985
101324.984
101324.983
101324.982
101324.98
101324.979
101324.977
101324.976
101324.974
101324.972
101324.97
101324.968
101324.966
101324.964
101324.961
101324.958
101324.955
101324.952
101324.949
101324.946
101324.942
101324.938
101324.934
101324.929
101324.924
101324.919
101324.914
101324.908
101324.902
101324.896
101324.889
101324.881
101324.874
101324.865
101324.857
101324.847
101324.838
101324.827
101324.816
101324.804
101324.792
101324.779
101324.765
101324.751
101324.735
101324.719
101324.702
101324.683
101324.664
101324.644
101324.622
101324.6
101324.576
101324.55
101324.524
101324.496
101324.466
101324.435
101324.403
101324.368
101324.332
101324.294
101324.254
101324.212
101324.168
101324.122
101324.073
101324.022
101323.969
101323.913
101323.854
101323.793
101323.728
101323.661
101323.59
101323.517
101323.439
101323.359
101323.274
101323.186
101323.094
101322.999
101322.899
101322.794
101322.686
101322.572
101322.454
101322.332
101322.204
101322.071
101321.933
101321.79
101321.641
101321.486
101321.326
101321.159
101320.987
101320.808
101320.623
101320.431
101320.233
101320.028
101319.816
101319.597
101319.371
101319.137
101318.896
101318.648
101318.392
101318.129
101317.857
101317.578
101317.291
101316.996
101316.693
101316.381
101316.062
101315.735
101315.399
101315.055
101314.704
101314.344
101313.976
101313.6
101313.216
101312.824
101312.424
101312.017
101311.603
101311.181
101310.751
101310.315
101309.872
101309.422
101308.966
101308.504
101308.036
101307.563
101307.084
101306.6
101306.112
101305.619
101305.123
101304.623
101304.12
101303.615
101303.107
101302.598
101302.087
101301.576
101301.065
101300.554
101300.044
101299.535
101299.028
101298.524
101298.023
101297.526
101297.033
101296.545
101296.062
101295.586
101295.116
101294.654
101294.2
101293.754
101293.318
101292.891
101292.474
101292.069
101291.675
101291.293
101290.923
101290.567
101290.224
101289.896
101289.582
101289.283
101288.999
101288.731
101288.48
101288.245
101288.026
101287.825
101287.641
101287.475
101287.327
101287.196
101287.083
101286.989
101286.913
101286.854
101286.814
101286.792
101286.788
101286.802
101286.833
101286.882
101286.948
101287.031
101287.131
101287.247
101287.378
101287.525
101287.688
101287.864
101288.055
101288.26
101288.477
101288.707
101288.948
101289.201
101289.465
101289.738
101290.021
101290.313
101290.612
101290.919
101291.232
101291.552
101291.877
101292.206
101292.539
101292.876
101293.215
101293.555
101293.898
101294.24
101294.583
101294.925
101295.266
101295.605
101295.942
101296.275
101296.606
101296.932
101297.255
101297.572
101297.884
101298.191
101298.491
101298.786
101299.074
101299.354
101299.628
101299.895
101300.154
101300.406
101300.649
101300.885
101301.113
101301.333
101301.546
101301.75
101301.946
101302.134
101302.315
101302.488
101302.654
101302.813
101302.964
101303.108
101303.246
101303.377
101303.503
101303.622
101303.736
101303.844
101303.948
101304.047
101304.141
101304.232
101304.318
101304.402
101304.482
101304.56
101304.635
101304.708
101304.78
101304.849
101304.918
101304.986
101305.052
101305.119
101305.184
101305.25
101305.316
101305.381
101305.447
101305.513
101305.579
101305.645
101305.712
101305.778
101305.845
101305.912
101305.978
101306.044
101306.11
101306.174
101306.238
101306.3
101306.361
101306.42
101306.477
101306.532
101306.583
101306.632
101306.677
101306.719
101306.757
101306.79
101306.82
101306.844
101306.864
101306.879
101306.889
101306.894
101306.894
101306.888
101306.878
101306.863
101306.843
101306.819
101306.791
101306.758
101306.723
101306.685
101306.644
101306.602
101306.559
101306.515
101306.472
101306.43
101306.39
101306.353
101306.319
101306.29
101306.267
101306.25
101306.239
101306.237
101306.244
101306.26
101306.287
101306.324
101306.373
101306.434
101306.506
101306.592
101306.689
101306.799
101306.921
101307.055
101307.2
101307.356
101307.521
101307.695
101307.876
101308.063
101308.254
101308.448
101308.643
101308.836
101309.025
101309.21
101309.386
101309.553
101309.708
101309.849
101309.975
101310.084
101310.175
101310.247
101310.3
101310.333
101310.348
101310.344
101310.325
101310.291
101310.245
101310.191
101310.132
101310.071
101310.012
101309.959
101309.915
101309.883
101309.868
101309.871
101309.893
101309.925
101309.973
101310.351
101310.564
101310.48
101309.293
101309.23
101309.287
101309.498
101309.522
101309.603
101309.596
101309.593
101309.568
101309.549
101309.532
101309.522
101309.518
101309.521
101309.53
101309.544
101309.564
101309.588
101309.617
101309.648
101309.683
101309.719
101309.757
101309.795
101309.833
101309.869
101309.903
101309.935
101309.964
101309.988
101310.009
101310.024
101310.035
101310.04
101310.039
101310.032
101310.018
101309.999
101309.973
101309.942
101309.904
101309.86
101309.81
101309.755
101309.695
101309.629
101309.558
101309.483
101309.404
101309.321
101309.234
101309.145
101309.052
101308.957
101308.86
101308.761
101308.661
101308.56
101308.458
101308.355
101308.253
101308.15
101308.048
101307.947
101307.847
101307.748
101307.651
101307.556
101307.462
101307.371
101307.281
101307.195
101307.111
101307.029
101306.951
101306.875
101306.803
101306.733
101306.667
101306.604
101306.544
101306.488
101306.435
101306.385
101306.339
101306.296
101306.256
101306.219
101306.186
101306.155
101306.128
101306.104
101306.083
101306.064
101306.049
101306.036
101306.026
101306.018
101306.013
101306.01
101306.009
101306.011
101306.014
101306.019
101306.027
101306.035
101306.046
101306.058
101306.071
101306.085
101306.1
101306.117
101306.134
101306.152
101306.171
101306.19
101306.21
101306.23
101306.25
101306.27
101306.291
101306.311
101306.331
101306.351
101306.371
101306.39
101306.409
101306.427
101306.445
101306.461
101306.478
101306.493
101306.507
101306.521
101306.533
101306.545
101306.555
101306.564
101306.572
101306.579
101306.585
101306.59
101306.593
101306.595
101306.596
101306.595
101306.593
101306.59
101306.586
101306.58
101306.573
101306.565
101306.555
101306.544
101306.532
101306.519
101306.505
101306.489
101306.473
101306.455
101306.436
101306.416
101306.395
101306.373
101306.35
101306.326
101306.302
101306.276
101306.25
101306.223
101306.195
101306.166
101306.137
101306.108
101306.077
101306.046
101306.015
101305.982
101305.95
101305.916
101305.883
101305.849
101305.815
101305.781
101305.747
101305.713
101305.679
101305.644
101305.61
101305.575
101305.54
101305.505
101305.471
101305.436
101305.401
101305.366
101305.331
101305.297
101305.262
101305.228
101305.193
101305.159
101305.125
101305.091
101305.057
101305.023
101304.989
101304.955
101304.921
101304.888
101304.854
101304.821
101304.787
101304.754
101304.721
101304.687
101304.654
101304.62
101304.586
101304.553
101304.519
101304.485
101304.45
101304.416
101304.381
101304.346
101304.311
101304.275
101304.239
101304.203
101304.166
101304.128
101304.09
101304.052
101304.013
101303.973
101303.932
101303.891
101303.849
101303.806
101303.763
101303.718
101303.673
101303.626
101303.579
101303.531
101303.481
101303.43
101303.378
101303.325
101303.271
101303.215
101303.159
101303.1
101303.04
101302.979
101302.917
101302.853
101302.787
101302.72
101302.651
101302.58
101302.508
101302.434
101302.359
101302.281
101302.202
101302.121
101302.038
101301.954
101301.867
101301.779
101301.688
101301.596
101301.502
101301.405
101301.307
101301.207
101301.104
101301
101300.894
101300.785
101300.675
101300.562
101300.447
101300.331
101300.212
101300.091
101299.968
101299.844
101299.717
101299.588
101299.457
101299.324
101299.189
101299.052
101298.913
101298.772
101298.629
101298.484
101298.338
101298.189
101298.039
101297.887
101297.733
101297.578
101297.421
101297.262
101297.101
101296.939
101296.776
101296.611
101296.444
101296.277
101296.108
101295.937
101295.766
101295.593
101295.419
101295.244
101295.068
101294.891
101294.713
101294.535
101294.356
101294.176
101293.995
101293.814
101293.633
101293.451
101293.269
101293.087
101292.904
101292.722
101292.539
101292.357
101292.175
101291.993
101291.811
101291.63
101291.45
101291.27
101291.09
101290.912
101290.734
101290.558
101290.382
101290.208
101290.034
101289.863
101289.692
101289.523
101289.356
101289.19
101289.027
101288.865
101288.705
101288.547
101288.391
101288.238
101288.086
101287.938
101287.791
101287.648
101287.507
101287.369
101287.233
101287.101
101286.972
101286.845
101286.722
101286.602
101286.486
101286.373
101286.263
101286.157
101286.055
101285.956
101285.861
101285.77
101285.683
101285.6
101285.521
101285.446
101285.375
101285.308
101285.246
101285.188
101285.134
101285.085
101285.04
101285
101284.964
101284.933
101284.906
101284.884
101284.867
101284.854
101284.846
101284.843
101284.845
101284.851
101284.863
101284.879
101284.9
101284.925
101284.956
101284.991
101285.032
101285.077
101285.127
101285.182
101285.241
101285.306
101285.375
101285.449
101285.528
101285.612
101285.7
101285.794
101285.891
101285.994
101286.101
101286.213
101286.329
101286.45
101286.575
101286.704
101286.838
101286.977
101287.119
101287.266
101287.417
101287.573
101287.732
101287.895
101288.062
101288.234
101288.409
101288.587
101288.77
101288.956
101289.146
101289.339
101289.536
101289.736
101289.939
101290.146
101290.356
101290.569
101290.784
101291.003
101291.225
101291.449
101291.676
101291.906
101292.138
101292.373
101292.61
101292.849
101293.091
101293.334
101293.58
101293.828
101294.077
101294.328
101294.581
101294.836
101295.092
101295.35
101295.609
101295.87
101296.131
101296.394
101296.658
101296.923
101297.188
101297.455
101297.722
101297.99
101298.259
101298.528
101298.797
101299.067
101299.337
101299.608
101299.879
101300.149
101300.42
101300.691
101300.961
101301.232
101301.502
101301.772
101302.041
101302.31
101302.579
101302.847
101303.114
101303.381
101303.657
101303.952
101304.266
101304.601
101304.958
101305.338
101305.742
101306.172
101306.628
101307.111
101307.623
101308.164
101308.735
101309.335
101309.966
101310.626
101311.315
101312.032
101312.774
101313.539
101314.324
101315.124
101315.935
101316.75
101317.563
101318.367
101319.152
101319.912
101320.636
101321.317
101321.946
101322.518
101323.026
101323.468
101323.843
101324.152
101324.398
101324.589
101324.73
101324.83
101324.898
101324.942
101324.969
101324.985
101324.993
101324.997
101324.999
101325
101325
101325
101325
101325
101325
101325
101325
101325
101325
101325
101325
101325
101325
101325
101325
101325
101325
101325
101325
101325
101325
101325
101325
101325
101325
101325
101325
101325
101325
)
;

boundaryField
{
    closed
    {
        type            zeroGradient;
    }
    open
    {
        type            waveTransmissive;
        gamma           1.25;
        fieldInf        101325;
        lInf            1;
        value           uniform 101325;
    }
    sides
    {
        type            empty;
    }
}


// ************************************************************************* //
