/*--------------------------------*- C++ -*----------------------------------*\
| =========                 |                                                 |
| \\      /  F ield         | OpenFOAM: The Open Source CFD Toolbox           |
|  \\    /   O peration     | Version:  2206                                  |
|   \\  /    A nd           | Website:  www.openfoam.com                      |
|    \\/     M anipulation  |                                                 |
\*---------------------------------------------------------------------------*/
FoamFile
{
    version     2.0;
    format      ascii;
    arch        "LSB;label=32;scalar=64";
    class       surfaceScalarField;
    location    "7.4e-06";
    object      phi;
}
// * * * * * * * * * * * * * * * * * * * * * * * * * * * * * * * * * * * * * //

dimensions      [1 0 -1 0 0 0 0];

oriented        oriented;

internalField   nonuniform List<scalar> 
3182
(
2.57120775e-18
-2.28235544e-18
4.88560885e-19
-1.01309456e-18
-7.27189389e-22
-8.13779721e-24
-5.9355519e-25
-1.73528296e-29
5.54460985e-26
5.2119986e-24
7.02299358e-23
3.63726906e-19
3.62120994e-18
-1.41211918e-18
-1.80733373e-19
-5.68402322e-19
6.65711267e-19
-3.11260967e-18
-4.0299816e-18
4.73240482e-18
2.16893543e-20
2.29514592e-22
1.18088851e-22
3.54943865e-19
2.03361236e-18
1.84764308e-18
3.40172201e-18
4.58154017e-19
-1.77766386e-18
-1.24621367e-18
-2.09380024e-18
-3.6415173e-18
-1.95075193e-18
-2.20152379e-18
-1.64714105e-19
4.78056145e-19
-4.89182186e-19
-9.6960578e-19
-1.1488249e-19
-4.08394935e-19
-2.05720638e-18
-2.65789304e-18
-9.79653638e-19
-7.5926668e-19
-6.44432501e-19
-1.15194624e-19
2.13475777e-19
-7.63811145e-19
-6.52741088e-19
-1.08034953e-18
-6.52877725e-19
-3.06152796e-19
8.71509534e-19
1.29675832e-18
2.16966307e-18
2.61645001e-18
3.91352841e-18
4.56291609e-18
4.99854675e-18
4.9926764e-18
5.00053374e-18
4.77331183e-18
4.98513512e-18
4.77393044e-18
4.5924255e-18
5.66806083e-18
7.18634334e-18
7.81634637e-18
8.28262493e-18
1.04241252e-17
1.08661019e-17
1.18299236e-17
1.30630642e-17
1.43342582e-17
1.60687795e-17
1.60964396e-17
1.65138392e-17
1.79079717e-17
1.88492721e-17
1.94056333e-17
2.02137503e-17
1.99447775e-17
1.99305708e-17
1.89954932e-17
1.62395106e-17
1.64172869e-17
1.58807774e-17
1.49377936e-17
1.46840847e-17
1.45413924e-17
1.39230207e-17
1.15010054e-17
9.89042875e-18
1.25545469e-17
9.9705498e-18
8.66286412e-18
6.59485929e-18
7.57077098e-18
1.10343407e-17
9.12751033e-18
7.38086938e-18
1.13295791e-17
1.04109627e-17
1.1790659e-17
1.148019e-17
7.06784004e-18
7.01858841e-18
8.67436576e-18
7.46233712e-18
7.13344602e-18
7.00055812e-18
9.71967972e-18
6.43468394e-18
6.47433331e-18
6.31906104e-18
4.1388999e-18
4.53137398e-18
7.36011184e-18
3.56529346e-18
3.18773826e-18
7.74289939e-19
2.46383083e-18
1.55111948e-18
-2.04377093e-18
-3.16243872e-18
-2.86523336e-18
-6.86302422e-18
-8.81480959e-18
-8.33094228e-18
-7.09204356e-18
-4.37940376e-18
-7.01924917e-18
-5.86720561e-18
-7.63381941e-18
-6.81867297e-18
-4.19407159e-18
-6.6547513e-18
-7.0673598e-18
-6.61578665e-18
-4.42512758e-18
-5.49779972e-18
-8.89410219e-18
-4.97583972e-18
-6.10770143e-18
-6.41849445e-18
-9.5931405e-18
-8.22547945e-18
-1.12397891e-17
-1.22829994e-17
-1.51385342e-17
-1.34985134e-17
-9.84198701e-18
-1.16450177e-17
-1.318267e-17
-1.30081352e-17
-1.34963853e-17
-1.49720877e-17
-1.3661047e-17
-1.43343041e-17
-1.71314591e-17
-1.74560228e-17
-2.04033074e-17
-1.98318197e-17
-1.9455585e-17
-1.89864197e-17
-2.1955271e-17
-2.29882656e-17
-2.57304928e-17
-2.64358793e-17
-2.66027797e-17
-2.47814179e-17
-2.32497506e-17
-2.20358367e-17
-2.19737052e-17
-2.01338016e-17
-1.87890775e-17
-2.00294907e-17
-2.41256416e-17
-2.47529143e-17
-2.4308334e-17
-2.62568625e-17
-2.64058977e-17
-2.38942803e-17
-2.7334783e-17
-2.83366554e-17
-3.02005064e-17
-2.83146519e-17
-2.79758903e-17
-2.99551745e-17
-2.72573523e-17
-2.89780546e-17
-2.90596129e-17
-2.66565631e-17
-2.57452474e-17
-2.45430198e-17
-2.54031496e-17
-2.66794473e-17
-2.52806129e-17
-2.78698749e-17
-2.80503581e-17
-2.76030244e-17
-2.62393166e-17
-3.18242098e-17
-2.99469994e-17
-3.14018905e-17
-3.31501846e-17
-3.1689891e-17
-3.32142798e-17
-3.38271414e-17
-3.21914217e-17
-3.0932561e-17
-3.10447942e-17
-3.1506529e-17
-3.40697784e-17
-3.48541717e-17
-3.48728599e-17
-3.51573267e-17
-3.4553005e-17
-3.43967938e-17
-3.72894694e-17
-3.77576907e-17
-4.06051725e-17
-4.04076662e-17
-3.9576501e-17
-4.12553425e-17
-4.01777753e-17
-4.06270617e-17
-4.10701803e-17
-4.39378992e-17
-4.49275497e-17
-4.3584533e-17
-4.69337636e-17
-4.47317944e-17
-4.62188405e-17
-4.23119657e-17
-4.46409706e-17
-4.7224943e-17
-4.59806506e-17
-4.47827685e-17
-4.8404044e-17
-4.81751489e-17
-4.72701151e-17
-4.75544781e-17
-4.60038453e-17
-4.98883882e-17
-5.20522001e-17
-5.08974649e-17
-5.00915326e-17
-5.37340355e-17
-5.45509529e-17
-5.63483388e-17
-5.95620135e-17
-5.74737424e-17
-5.60499527e-17
-5.22699566e-17
-5.27047392e-17
-5.19746333e-17
-5.28425204e-17
-5.69477742e-17
-5.79628544e-17
-5.85956204e-17
-5.65062019e-17
-5.71453346e-17
-5.86637555e-17
-5.96726356e-17
-6.15168833e-17
-6.09450674e-17
-6.11482508e-17
-6.46683292e-17
-6.15293677e-17
-6.27468569e-17
-6.14705341e-17
-5.99254218e-17
-6.53780935e-17
-6.27391939e-17
-6.40858247e-17
-6.34314688e-17
-6.01608201e-17
-6.50783958e-17
-6.29218477e-17
-6.35326113e-17
-6.13807659e-17
-6.28782743e-17
-5.89687698e-17
-6.06352269e-17
-6.08768661e-17
-6.14460021e-17
-6.15103648e-17
-6.03425413e-17
-6.06695206e-17
-5.99772306e-17
-6.10075969e-17
-6.23140608e-17
-6.18350088e-17
-6.54350951e-17
-6.48061001e-17
-6.70128419e-17
-6.65736721e-17
-6.63081667e-17
-6.96717877e-17
-6.63807819e-17
-6.80747074e-17
-6.86159523e-17
-6.96893181e-17
-7.18754371e-17
-7.25926578e-17
-7.03140221e-17
-7.22980959e-17
-7.1348398e-17
-7.32448062e-17
-7.39786307e-17
-7.30290661e-17
-7.07021282e-17
-7.18325495e-17
-7.23189596e-17
-7.14611723e-17
-7.51523182e-17
-7.65059953e-17
-7.86950072e-17
-7.91330149e-17
-7.56076596e-17
-7.37435039e-17
-7.51242439e-17
-7.80747032e-17
-7.80922194e-17
-7.47336979e-17
-7.89374442e-17
-7.78530463e-17
-7.88871287e-17
-7.6308742e-17
-7.83717993e-17
-7.62179322e-17
-7.3040774e-17
-7.27138412e-17
-7.03448259e-17
-7.03133922e-17
-7.17380986e-17
-7.24471266e-17
-7.26279545e-17
-7.33448861e-17
-7.49443987e-17
-7.24288781e-17
-7.48796769e-17
-7.37661397e-17
-7.39026847e-17
-7.55126073e-17
-7.4429214e-17
-7.24449436e-17
-7.06499265e-17
-6.92665177e-17
-7.23982611e-17
-7.2871648e-17
-6.9728332e-17
-7.22637556e-17
-7.17246831e-17
-7.07111858e-17
-7.08769015e-17
-7.03763092e-17
-7.1112737e-17
-7.36201843e-17
-7.46341525e-17
-7.40936427e-17
-7.39541819e-17
-7.40856381e-17
-7.49910601e-17
-7.25334769e-17
-6.88188125e-17
-6.74694846e-17
-6.43877035e-17
-6.6377912e-17
-6.51970247e-17
-6.1732483e-17
-6.20374164e-17
-5.61604826e-17
-5.94863127e-17
-5.91842338e-17
-5.44686431e-17
-5.76405893e-17
-5.66445456e-17
-5.62132372e-17
-5.68241661e-17
-5.44418758e-17
-5.25906839e-17
-5.6930682e-17
-5.72190443e-17
-5.35033646e-17
-5.46044612e-17
-5.07219207e-17
-4.88439859e-17
-5.02669868e-17
-4.79823681e-17
-5.06284647e-17
-5.22337612e-17
-4.83669393e-17
-5.09460609e-17
-4.65190368e-17
-5.22690076e-17
-5.15211491e-17
-4.81124682e-17
-4.69804786e-17
-4.97234294e-17
-5.22487703e-17
-5.04433287e-17
-4.97882451e-17
-4.54456401e-17
-4.68298523e-17
-4.43433829e-17
-4.52170591e-17
-4.39550199e-17
-4.05963604e-17
-4.13942313e-17
-4.35205726e-17
-4.297243e-17
-4.25776427e-17
-4.26121247e-17
-3.77939865e-17
-3.7638899e-17
-4.13487431e-17
-4.22583443e-17
-4.04117587e-17
-3.89569379e-17
-3.76948932e-17
-3.73504497e-17
-3.79354651e-17
-3.82598588e-17
-4.02113435e-17
-3.56951068e-17
-3.65307773e-17
-3.28444659e-17
-3.68904491e-17
-3.67128885e-17
-3.63419066e-17
-3.31462167e-17
-3.22112309e-17
-3.25475491e-17
-3.15446106e-17
-2.87107261e-17
-3.08268118e-17
-3.27708132e-17
-2.8850166e-17
-2.87266033e-17
-2.92855979e-17
-3.04206728e-17
-2.69534533e-17
-2.77936294e-17
-3.00840132e-17
-2.93415288e-17
-3.01280017e-17
-3.33201183e-17
-2.82201429e-17
-2.8832128e-17
-2.8997959e-17
-3.03771076e-17
-2.89179329e-17
-2.98432195e-17
-3.00852047e-17
-3.07252158e-17
-2.93062255e-17
-2.85584612e-17
-2.88094197e-17
-3.14112998e-17
-2.92060421e-17
-2.82701603e-17
-2.72190736e-17
-2.65335251e-17
-2.61122337e-17
-2.16852223e-17
-2.27763044e-17
-2.28607632e-17
-2.25559867e-17
-2.34669476e-17
-1.99327208e-17
-1.85659667e-17
-1.86064819e-17
-1.52568926e-17
-1.44035213e-17
-1.44424022e-17
-1.54910913e-17
-1.19193364e-17
-1.36258584e-17
-1.33428492e-17
-1.37724138e-17
-1.49832666e-17
-1.28243904e-17
-1.21331339e-17
-1.31956969e-17
-1.52527467e-17
-1.37204607e-17
-1.49709858e-17
-1.19285732e-17
-1.31816703e-17
-1.15347255e-17
-1.35951279e-17
-1.41341471e-17
-1.35051586e-17
-1.43176264e-17
-1.34476998e-17
-1.41405248e-17
-1.46083745e-17
-1.5079357e-17
-1.3951991e-17
-1.38961247e-17
-1.26196066e-17
-1.40293036e-17
-1.32416376e-17
-1.51682878e-17
-1.32813372e-17
-1.17215721e-17
-1.37201057e-17
-1.30758024e-17
-9.86495253e-18
-1.0940596e-17
-6.40718571e-18
-5.30574531e-18
-8.79155054e-18
-9.89754598e-18
-8.12336192e-18
-5.70911414e-18
-2.73792214e-18
2.51316991e-20
-5.34434781e-19
2.2794535e-18
6.24197775e-19
1.67557894e-18
2.44368273e-18
4.34258501e-18
3.41538777e-18
7.51455662e-18
6.93104859e-18
6.07994608e-18
2.73142312e-18
5.09702507e-18
3.68163446e-18
5.9095906e-18
3.39744889e-18
6.84281943e-18
8.31854991e-18
7.57374448e-18
1.02784203e-17
9.50295196e-18
8.37870173e-18
6.01004207e-18
1.17475231e-17
7.91836693e-18
8.97823613e-18
7.99473118e-18
1.01633249e-17
6.95281477e-18
8.80983392e-18
8.55981843e-18
1.23583884e-17
9.59212771e-18
1.32377584e-17
1.26545589e-17
1.12662727e-17
1.45448705e-17
1.35501922e-17
1.20143987e-17
1.16490519e-17
1.27618213e-17
1.08736862e-17
1.39039736e-17
1.56319826e-17
1.46296547e-17
1.51153376e-17
1.30669151e-17
1.58546641e-17
2.01089467e-17
1.85168141e-17
1.93406667e-17
1.96215184e-17
2.03985868e-17
2.09505976e-17
2.25040636e-17
2.27516115e-17
1.96243026e-17
1.80707919e-17
1.45890007e-17
1.85112613e-17
2.04151678e-17
1.93897186e-17
2.01621648e-17
2.046149e-17
2.21141811e-17
2.42534101e-17
2.36121824e-17
2.53166452e-17
2.94525094e-17
2.774619e-17
2.80309451e-17
2.6667679e-17
2.63185657e-17
2.51956883e-17
2.0973133e-17
2.09425331e-17
2.51290562e-17
2.45200469e-17
2.67110151e-17
2.80747284e-17
2.70466992e-17
2.5831272e-17
2.68647312e-17
3.20071722e-17
3.10201315e-17
2.77039386e-17
2.9398754e-17
3.28082567e-17
2.94005292e-17
2.81426609e-17
2.56838123e-17
2.34613911e-17
2.05918569e-17
2.24726081e-17
2.32915418e-17
2.17791169e-17
2.46895248e-17
2.14894083e-17
2.16413885e-17
2.40622691e-17
2.21446057e-17
2.06442454e-17
2.00218634e-17
1.74621287e-17
1.99463336e-17
1.94795085e-17
1.7972655e-17
1.7582302e-17
1.73497689e-17
1.55208974e-17
1.71636768e-17
1.75694024e-17
1.99180473e-17
2.21685315e-17
1.9825567e-17
2.10805984e-17
2.20223435e-17
2.32549017e-17
2.00965075e-17
1.97142357e-17
1.92915233e-17
2.14843162e-17
1.99814289e-17
1.84092009e-17
1.87456679e-17
1.97178291e-17
1.79707559e-17
1.95850633e-17
2.05837209e-17
1.86138732e-17
2.09157317e-17
1.94762012e-17
1.47137708e-17
1.47713074e-17
1.10273462e-17
1.28114845e-17
9.29807232e-18
8.34332896e-18
7.96893279e-18
7.69218568e-18
1.10259233e-17
1.2140952e-17
1.13705294e-17
1.08517307e-17
1.02864473e-17
8.24819494e-18
1.26505111e-17
1.26255122e-17
9.73622052e-18
9.75279491e-18
8.48934415e-18
1.00964286e-17
1.2167365e-17
1.44682394e-17
1.44054514e-17
1.02533137e-17
1.08864304e-17
1.34525854e-17
1.48170433e-17
1.44919972e-17
1.43661549e-17
1.58621595e-17
1.6169755e-17
1.7597935e-17
1.68006559e-17
1.66112078e-17
1.29209686e-17
1.47038406e-17
1.68610381e-17
1.97799422e-17
2.0827535e-17
1.98811996e-17
2.04789009e-17
2.25392523e-17
2.32378476e-17
2.49158326e-17
2.36697482e-17
2.13449098e-17
2.54656807e-17
2.59247027e-17
2.84561909e-17
2.70006322e-17
2.31443082e-17
2.17552539e-17
2.49067884e-17
2.54604211e-17
2.99420463e-17
2.83821958e-17
2.81805238e-17
2.83350213e-17
3.01675376e-17
3.23659154e-17
3.01786877e-17
2.96528499e-17
3.13029148e-17
3.01125393e-17
2.98620227e-17
2.69236225e-17
3.02736794e-17
2.8419008e-17
2.76825557e-17
2.66075419e-17
2.48195242e-17
2.55468955e-17
2.20823498e-17
2.01086178e-17
2.18075555e-17
2.1948405e-17
1.96921814e-17
2.02222985e-17
2.08286986e-17
2.38952887e-17
2.16391386e-17
2.40356489e-17
2.48387697e-17
2.58838214e-17
2.77824346e-17
2.83329529e-17
2.39613224e-17
2.52258946e-17
2.50404353e-17
2.16532342e-17
2.09011541e-17
2.04253557e-17
1.72446657e-17
2.16203703e-17
1.94737292e-17
1.75395333e-17
2.20003416e-17
2.0116153e-17
1.89439921e-17
2.15862575e-17
2.17691979e-17
2.02848496e-17
2.06473063e-17
1.90578584e-17
2.11620832e-17
1.96606354e-17
2.08731396e-17
1.88774716e-17
1.92987197e-17
2.23059163e-17
2.24335905e-17
2.374606e-17
2.29386175e-17
2.09659671e-17
2.07560104e-17
2.00256947e-17
2.29164872e-17
2.0025192e-17
2.3256873e-17
2.21429611e-17
2.13029255e-17
2.04220234e-17
2.28433034e-17
2.23027946e-17
2.13822801e-17
2.40884271e-17
2.69435915e-17
2.71558971e-17
2.44790923e-17
2.73804296e-17
2.49631282e-17
2.47160772e-17
2.21185349e-17
2.22229662e-17
1.93417675e-17
2.15915218e-17
2.21150489e-17
1.87382927e-17
2.27304208e-17
1.9795861e-17
2.34186942e-17
2.19874493e-17
2.28377203e-17
1.80151812e-17
2.48688188e-17
2.03535587e-17
1.90294059e-17
1.96856424e-17
1.89317395e-17
1.81144429e-17
2.28372786e-17
1.66692953e-17
1.80159786e-17
1.96697219e-17
1.56449093e-17
1.65477972e-17
1.57668169e-17
1.52840819e-17
1.48672929e-17
1.60788592e-17
1.23645465e-17
1.32327521e-17
1.18364612e-17
1.18015133e-17
7.59537636e-18
1.28252729e-17
1.08695727e-17
1.45523495e-17
1.59133538e-17
1.6481088e-17
1.7747246e-17
1.55254986e-17
1.56970748e-17
1.65559626e-17
1.83502088e-17
1.5692769e-17
1.39082101e-17
1.35281985e-17
1.36629785e-17
1.21282634e-17
1.22828353e-17
1.02436221e-17
1.53931684e-17
1.47747527e-17
1.48256962e-17
1.58190047e-17
1.68151305e-17
1.71578687e-17
2.04946824e-17
1.84618776e-17
1.68105863e-17
1.7876204e-17
1.67317618e-17
1.69905199e-17
1.47204627e-17
1.6330432e-17
1.88749468e-17
1.84858197e-17
1.71485268e-17
1.78163115e-17
1.50971323e-17
1.68810014e-17
1.6466075e-17
1.63951058e-17
1.81054933e-17
1.96027296e-17
1.89615217e-17
2.27683229e-17
2.44554737e-17
2.18757407e-17
2.25799735e-17
1.98796662e-17
1.99365008e-17
2.32492544e-17
2.51746839e-17
2.36511719e-17
2.59186809e-17
2.72840549e-17
2.84863082e-17
3.02747177e-17
3.18837768e-17
3.03822691e-17
2.97941696e-17
3.16033514e-17
3.20800062e-17
3.20801275e-17
3.27275466e-17
3.34743251e-17
3.25357646e-17
3.78345003e-17
3.82161406e-17
3.94478191e-17
3.38477567e-17
3.32001299e-17
3.03871112e-17
3.36580731e-17
3.68281352e-17
3.42466369e-17
3.56493633e-17
3.57053927e-17
3.72460732e-17
3.44105291e-17
3.81973591e-17
3.95339486e-17
3.91929749e-17
4.05347264e-17
4.0900812e-17
3.51805644e-17
3.59686768e-17
3.57857513e-17
3.90670139e-17
3.72913181e-17
3.8206541e-17
4.06772683e-17
3.80152048e-17
3.86792497e-17
3.88691082e-17
4.01765836e-17
4.0049802e-17
3.79579415e-17
3.69599877e-17
3.7577746e-17
3.85358528e-17
4.04025875e-17
4.21963544e-17
3.80172433e-17
3.68197765e-17
3.85851825e-17
3.72150168e-17
3.76553529e-17
3.63279447e-17
3.53154762e-17
3.5826716e-17
3.77746668e-17
4.04122821e-17
3.87587488e-17
3.56467223e-17
3.62109052e-17
3.52339373e-17
3.67937187e-17
3.65530419e-17
4.0503779e-17
3.9211263e-17
4.17835884e-17
4.13011437e-17
4.34065841e-17
3.85298717e-17
4.04120445e-17
4.15220717e-17
4.29504817e-17
4.40647464e-17
4.12469584e-17
3.86397832e-17
3.77417769e-17
3.59993018e-17
3.63374306e-17
3.33533358e-17
3.84289207e-17
3.78717517e-17
3.61826582e-17
3.60642282e-17
3.36073408e-17
3.35769079e-17
3.14494968e-17
3.43010605e-17
3.42369487e-17
3.40233277e-17
3.32435622e-17
3.40601131e-17
3.74384656e-17
3.67687902e-17
3.60646469e-17
3.52576184e-17
3.58987519e-17
3.54065941e-17
3.41440257e-17
3.25147991e-17
3.35532812e-17
3.57395177e-17
3.41824207e-17
3.19175857e-17
3.18603071e-17
2.91799867e-17
3.24177377e-17
3.36133674e-17
3.14152513e-17
3.14652308e-17
3.28236697e-17
3.14400277e-17
3.24953779e-17
3.30979347e-17
3.44066915e-17
3.41155343e-17
3.49410041e-17
3.30772937e-17
3.4254316e-17
3.56177035e-17
3.2635943e-17
3.64921415e-17
3.50633098e-17
3.38986079e-17
3.37409583e-17
3.01286682e-17
3.05711476e-17
3.13517789e-17
3.42086781e-17
3.35537372e-17
3.52436084e-17
3.45875493e-17
3.8397829e-17
3.63957222e-17
3.49727907e-17
3.6030293e-17
3.63613006e-17
3.62480493e-17
3.35549158e-17
3.29510611e-17
3.52941486e-17
3.48304721e-17
3.72332358e-17
3.42139538e-17
3.50171493e-17
3.39633187e-17
3.76867657e-17
3.96224738e-17
4.23504784e-17
4.23976096e-17
4.03702265e-17
4.08477329e-17
4.05176131e-17
3.97805492e-17
3.6135376e-17
3.60957304e-17
3.67193332e-17
3.76726215e-17
3.95327645e-17
3.91209002e-17
3.90989927e-17
3.61991412e-17
3.8009471e-17
3.3070444e-17
3.53441931e-17
3.36229194e-17
3.26096209e-17
3.0264889e-17
3.22591506e-17
2.75589993e-17
2.53782471e-17
2.40811178e-17
2.63710507e-17
2.59276317e-17
2.37164792e-17
2.38891011e-17
2.54379549e-17
2.2162273e-17
2.14636964e-17
2.1716925e-17
1.99566779e-17
2.24847794e-17
1.72249886e-17
1.71104218e-17
1.81896191e-17
1.85683458e-17
1.56495697e-17
1.35008555e-17
1.17741086e-17
1.18106456e-17
1.26929679e-17
1.27471664e-17
1.73208376e-17
1.49002612e-17
1.57711282e-17
1.26416389e-17
1.65992041e-17
1.60848402e-17
2.03631244e-17
1.73492966e-17
1.76361131e-17
1.75882116e-17
1.57318272e-17
1.49423559e-17
1.45754018e-17
1.78798887e-17
1.46047808e-17
1.3903728e-17
1.05519321e-17
1.00415493e-17
9.43442569e-18
7.79626964e-18
5.85944053e-18
6.33404014e-18
4.51731805e-18
7.42877336e-18
8.5114734e-18
7.4090602e-18
7.43549399e-18
6.75678085e-18
8.39423371e-18
5.02174151e-18
4.66982e-18
5.0031633e-18
2.78121937e-18
-1.73039233e-18
8.18676574e-19
7.71218463e-19
-1.27463331e-18
-2.08359744e-18
-2.43332251e-18
-1.76861504e-18
-1.40426528e-18
-2.64486829e-18
-2.63469456e-18
-3.00181009e-18
-6.21145167e-18
-7.06522467e-18
-7.74673274e-18
-9.53000266e-18
-8.81972753e-18
-1.04998284e-17
-1.15347736e-17
-1.17578711e-17
-1.09627017e-17
-1.26753673e-17
-1.35445298e-17
-1.48396211e-17
-1.37566776e-17
-1.51155461e-17
-1.56941797e-17
-1.46949859e-17
-1.44259422e-17
-1.27113877e-17
-1.16962753e-17
-1.1894051e-17
-1.27954866e-17
-1.43657714e-17
-1.27457282e-17
-1.40194608e-17
-1.51353701e-17
-1.44680134e-17
-1.53820387e-17
-1.36282661e-17
-1.59264427e-17
-1.42713003e-17
-1.61392333e-17
-1.84859134e-17
-1.72189977e-17
-1.46493526e-17
-1.75896405e-17
-1.78627036e-17
-2.24158303e-17
-2.03176339e-17
-2.11041547e-17
-2.31628696e-17
-2.30348229e-17
-2.1003354e-17
-2.12278613e-17
-1.77025667e-17
-1.98118713e-17
-1.78648722e-17
-1.93106293e-17
-2.19607183e-17
-2.43176964e-17
-1.87558262e-17
-1.817828e-17
-2.24594919e-17
-2.15944737e-17
-1.68979942e-17
-1.73167177e-17
-1.74379188e-17
-1.64129924e-17
-2.08914704e-17
-2.37166048e-17
-2.06333413e-17
-2.19780305e-17
-1.94088603e-17
-1.82537584e-17
-1.89173384e-17
-1.83623886e-17
-1.98926523e-17
-2.21639753e-17
-2.30009052e-17
-1.89568084e-17
-1.88895015e-17
-1.94558745e-17
-2.13226039e-17
-2.54879453e-17
-2.45313553e-17
-2.38873126e-17
-2.71265346e-17
-3.16257354e-17
-2.76448438e-17
-2.98352552e-17
-2.86190405e-17
-2.94310409e-17
-2.94639878e-17
-3.07639394e-17
-3.07735777e-17
-3.25014016e-17
-2.91471458e-17
-3.34776735e-17
-3.03735603e-17
-3.32900517e-17
-3.88066388e-17
-3.51109639e-17
-3.67074048e-17
-3.38537281e-17
-3.56148236e-17
-3.63322928e-17
-3.88214009e-17
-3.96409954e-17
-4.36676989e-17
-4.72059023e-17
-4.96578845e-17
-4.82859338e-17
-4.69792234e-17
-4.4311127e-17
-4.25655529e-17
-4.63042288e-17
-4.04918622e-17
-4.34432955e-17
-4.54739557e-17
-4.66085802e-17
-4.47326501e-17
-4.64039947e-17
-4.38009508e-17
-4.76335981e-17
-4.67800995e-17
-4.83540174e-17
-4.79833136e-17
-4.99777304e-17
-4.91848527e-17
-5.21570049e-17
-5.06767736e-17
-5.24019582e-17
-5.30083706e-17
-5.19856227e-17
-5.05410335e-17
-5.08846003e-17
-4.95538715e-17
-5.04801131e-17
-4.96621798e-17
-5.29446097e-17
-4.96440571e-17
-4.84168223e-17
-4.64630639e-17
-4.65591402e-17
-4.6456537e-17
-4.21151643e-17
-4.14303974e-17
-4.06642838e-17
-4.1151704e-17
-3.93258535e-17
-3.97668713e-17
-4.0583241e-17
-4.27551982e-17
-4.16566597e-17
-4.06900173e-17
-4.06201586e-17
-3.81294536e-17
-3.66886985e-17
-3.51210645e-17
-3.53019693e-17
-3.19125737e-17
-3.44474956e-17
-3.3219569e-17
-3.19302856e-17
-3.42093367e-17
-3.23919723e-17
-3.41535319e-17
-3.26828696e-17
-3.3403403e-17
-3.41467345e-17
-3.44345609e-17
-3.5466711e-17
-3.21015315e-17
-3.445126e-17
-3.34534692e-17
-3.51412802e-17
-3.29280364e-17
-3.07328355e-17
-2.871573e-17
-2.79908808e-17
-2.70743866e-17
-2.96746166e-17
-2.864779e-17
-2.66881466e-17
-2.71154776e-17
-2.60731322e-17
-2.79278515e-17
-2.69951915e-17
-2.42552183e-17
-2.59025193e-17
-2.58038595e-17
-2.51583573e-17
-2.78376078e-17
-2.52762507e-17
-2.94808153e-17
-2.51940329e-17
-2.78220911e-17
-2.88679825e-17
-2.45629567e-17
-2.31315524e-17
-2.57622768e-17
-2.19614936e-17
-2.30570413e-17
-1.96769666e-17
-1.95864447e-17
-1.70498715e-17
-1.84653455e-17
-2.07928156e-17
-2.20821818e-17
-2.47011501e-17
-2.35389306e-17
-2.49512148e-17
-2.0811734e-17
-2.20743808e-17
-2.08106109e-17
-1.68373718e-17
-1.98949089e-17
-2.18970451e-17
-2.19823204e-17
-2.05339514e-17
-2.29062129e-17
-2.37566322e-17
-2.49285349e-17
-2.40195574e-17
-2.13798395e-17
-2.24609822e-17
-2.34341589e-17
-2.17619712e-17
-2.23450795e-17
-2.10979223e-17
-1.89027886e-17
-1.78736136e-17
-1.68083699e-17
-2.09232353e-17
-2.08292223e-17
-1.74931687e-17
-1.75943179e-17
-2.05000114e-17
-2.09037627e-17
-2.3031117e-17
-2.10333982e-17
-1.95596037e-17
-1.52079449e-17
-1.72165643e-17
-1.76308616e-17
-1.87801599e-17
-1.92188483e-17
-1.76548362e-17
-1.92754141e-17
-1.96229361e-17
-2.13487329e-17
-2.22806589e-17
-2.27194045e-17
-1.89960632e-17
-2.06540907e-17
-2.17312071e-17
-2.26398727e-17
-2.24823786e-17
-2.27330388e-17
-2.18151196e-17
-2.12180269e-17
-2.21116637e-17
-2.11091315e-17
-1.84927307e-17
-1.96486046e-17
-1.92924973e-17
-1.98424991e-17
-2.47580753e-17
-2.40559717e-17
-2.59151048e-17
-1.91843014e-17
-2.21574627e-17
-2.36489362e-17
-2.26785444e-17
-2.18762796e-17
-2.1828242e-17
-2.52779682e-17
-2.63217772e-17
-2.40453266e-17
-2.44345414e-17
-2.21651841e-17
-2.0378296e-17
-2.14954025e-17
-2.0458749e-17
-1.85864218e-17
-2.03777018e-17
-2.26041599e-17
-2.48893721e-17
-2.31229881e-17
-2.55857961e-17
-2.17801915e-17
-2.57369545e-17
-2.65733397e-17
-2.57475117e-17
-2.70527556e-17
-2.52731845e-17
-2.50857899e-17
-2.42322359e-17
-2.34103831e-17
-2.22142103e-17
-2.03415019e-17
-2.16820228e-17
-1.99281534e-17
-2.25739801e-17
-2.21639978e-17
-2.20657738e-17
-2.67869989e-17
-2.55510798e-17
-2.78611334e-17
-2.67575515e-17
-2.66627473e-17
-2.607579e-17
-2.43002095e-17
-2.43881845e-17
-2.40089679e-17
-2.33536543e-17
-2.65221766e-17
-2.63630771e-17
-2.4475802e-17
-2.48435891e-17
-2.84512898e-17
-2.3607942e-17
-2.13290685e-17
-2.33891227e-17
-2.37535476e-17
-2.50231521e-17
-2.40533897e-17
-2.51092531e-17
-2.51303776e-17
-2.17661966e-17
-2.20331031e-17
-2.16200041e-17
-2.01508382e-17
-2.02186346e-17
-1.69823282e-17
-1.98988964e-17
-1.70348055e-17
-1.69845596e-17
-1.57793508e-17
-1.12054462e-17
-1.22792928e-17
-1.47813064e-17
-1.43991737e-17
-1.67671933e-17
-1.45655338e-17
-1.37380364e-17
-1.52494084e-17
-1.44466759e-17
-1.57330936e-17
-1.41483054e-17
-1.21871685e-17
-1.28483253e-17
-1.04415727e-17
-8.84752621e-18
-1.24720273e-17
-1.23180118e-17
-1.05457662e-17
-1.06080825e-17
-1.24335497e-17
-1.40191455e-17
-1.10614783e-17
-1.46546391e-17
-1.49476547e-17
-1.52169857e-17
-1.50091234e-17
-1.38259531e-17
-1.27796237e-17
-1.11425092e-17
-1.61271982e-17
-1.58506341e-17
-1.77999174e-17
-1.72202468e-17
-1.91255245e-17
-1.62026159e-17
-1.79200086e-17
-1.77163934e-17
-1.9223264e-17
-1.8991552e-17
-1.95505178e-17
-2.29906161e-17
-2.14236626e-17
-2.48862379e-17
-2.45409588e-17
-2.34678595e-17
-2.1820519e-17
-2.62903672e-17
-2.47219687e-17
-2.45526537e-17
-2.4958586e-17
-2.37626693e-17
-2.38568431e-17
-2.557453e-17
-3.04816904e-17
-2.99759668e-17
-3.12654753e-17
-3.32434246e-17
-3.23339367e-17
-3.10898184e-17
-3.23661086e-17
-3.09891638e-17
-3.32110627e-17
-2.72842053e-17
-3.01751816e-17
-2.74455096e-17
-3.13824632e-17
-3.23686948e-17
-3.2529912e-17
-3.20677693e-17
-3.17359251e-17
-3.08561489e-17
-3.10882638e-17
-2.98482869e-17
-2.96234217e-17
-2.84387094e-17
-3.02631424e-17
-2.9374218e-17
-3.0123749e-17
-2.88939039e-17
-2.67882215e-17
-2.7292292e-17
-2.43897036e-17
-2.41221359e-17
-2.46684876e-17
-2.39617752e-17
-2.39510689e-17
-2.31055849e-17
-2.57179391e-17
-2.77110812e-17
-2.83553182e-17
-2.84593118e-17
-2.56818724e-17
-2.92651787e-17
-3.02360886e-17
-2.66294404e-17
-2.80734664e-17
-2.67978922e-17
-2.67824795e-17
-2.22029377e-17
-2.37664692e-17
-2.26312192e-17
-2.20264182e-17
-2.32037676e-17
-2.58903367e-17
-2.4243122e-17
-2.27797813e-17
-2.07793768e-17
-2.12863592e-17
-1.84063902e-17
-2.01449607e-17
-1.9893838e-17
-1.92989392e-17
-1.90417941e-17
-1.8209386e-17
-1.73114048e-17
-1.9777559e-17
-1.93846392e-17
-2.1029283e-17
-2.07366012e-17
-1.85113717e-17
-2.14544305e-17
-2.2653682e-17
-2.16448588e-17
-2.53880208e-17
-2.21422066e-17
-2.27460765e-17
-1.84712425e-17
-2.07073448e-17
-2.26410418e-17
-2.25425943e-17
-2.20539918e-17
-2.37276505e-17
-2.08731925e-17
-2.30230804e-17
-2.60729648e-17
-2.50208567e-17
-2.88959699e-17
-2.74164193e-17
-2.58512336e-17
-2.8496543e-17
-2.82319134e-17
-3.01646638e-17
-2.61812324e-17
-2.84586239e-17
-2.6704629e-17
-2.27479037e-17
-2.7055365e-17
-2.02338186e-17
-2.30641015e-17
-1.98803959e-17
-1.84000233e-17
-2.02379126e-17
-2.02400974e-17
-2.28451291e-17
-2.11201505e-17
-2.24027788e-17
-1.93737965e-17
-2.50436539e-17
-2.42717495e-17
-2.44054746e-17
-2.67792637e-17
-2.50464986e-17
-2.32901749e-17
-2.36842479e-17
-2.08731535e-17
-2.19380036e-17
-1.78252947e-17
-1.81785748e-17
-1.91995524e-17
-2.10183082e-17
-2.05492514e-17
-2.08839502e-17
-2.45850039e-17
-2.49955438e-17
-2.6987783e-17
-2.62646603e-17
-2.34236799e-17
-2.52118173e-17
-2.32193889e-17
-2.07577953e-17
-1.98349394e-17
-1.93962609e-17
-1.81952223e-17
-1.9959373e-17
-1.87065785e-17
-1.5771802e-17
-1.87871666e-17
-2.06291819e-17
-1.72794702e-17
-2.04619281e-17
-2.03089236e-17
-2.37249674e-17
-2.47268631e-17
-2.35294153e-17
-2.43836544e-17
-2.32119667e-17
-2.12986973e-17
-2.15355682e-17
-1.7980258e-17
-1.91860043e-17
-1.98856853e-17
-1.74241088e-17
-1.85139718e-17
-1.76244105e-17
-1.45921785e-17
-1.65441832e-17
-1.5039421e-17
-1.26296887e-17
-1.37916649e-17
-1.06244069e-17
-7.79386443e-18
-8.13051443e-18
-7.44429455e-18
-7.46873033e-18
-6.97759233e-18
-9.36856366e-18
-1.03546347e-17
-6.34974251e-18
-6.61575828e-18
-3.35193221e-18
-2.82703707e-18
-3.8986419e-18
-2.28920561e-18
-2.32944747e-18
-3.25848631e-18
-1.18018966e-18
-2.93179225e-18
-1.70130536e-18
-3.1744995e-18
-1.70949351e-18
1.32820744e-18
1.66414418e-18
3.40961964e-18
6.54504068e-18
4.93830789e-18
3.01707501e-18
5.18879088e-18
2.11206368e-18
6.61696205e-18
6.17545708e-18
4.56240839e-18
2.66801051e-18
2.95835567e-18
6.14602203e-18
5.92156858e-18
6.7676649e-18
6.70919018e-18
2.07114607e-18
5.04753323e-19
1.46334839e-18
1.57565028e-18
1.17008496e-18
2.33955191e-19
2.04672727e-18
3.47505198e-18
2.78419762e-18
5.54230143e-18
9.96239397e-18
8.94737081e-18
1.0013335e-17
9.90327927e-18
9.21906348e-18
8.62449548e-18
1.12243858e-17
1.14367259e-17
1.13143467e-17
1.28338084e-17
1.14824731e-17
1.4968038e-17
1.30419934e-17
1.4788266e-17
1.35708589e-17
1.55169256e-17
1.45243403e-17
1.16961225e-17
9.9068399e-18
1.21178588e-17
1.40038959e-17
1.70422885e-17
1.79083545e-17
1.63488997e-17
1.99049693e-17
1.68367221e-17
1.983972e-17
1.97732361e-17
1.81114466e-17
2.13674179e-17
2.20136985e-17
2.14594518e-17
1.97451097e-17
2.07402982e-17
1.8809975e-17
1.92003927e-17
2.16099376e-17
2.00929556e-17
2.24292045e-17
1.98722201e-17
2.17837667e-17
1.9529923e-17
2.11675552e-17
2.16935751e-17
2.0238074e-17
1.9864559e-17
2.06616172e-17
2.44479683e-17
2.32557157e-17
2.26746311e-17
2.45818741e-17
2.67464397e-17
2.3570317e-17
2.38268836e-17
2.34046725e-17
2.48765994e-17
2.55562875e-17
2.51481155e-17
2.65997165e-17
2.64987138e-17
2.71595226e-17
2.82134312e-17
2.40404407e-17
2.28255274e-17
2.49257593e-17
2.62779849e-17
2.75698419e-17
3.15403884e-17
3.05994045e-17
3.187617e-17
3.46141557e-17
3.21940051e-17
3.35062781e-17
2.92771375e-17
3.3558124e-17
3.58890346e-17
3.80016704e-17
3.97267868e-17
3.95866761e-17
3.62459784e-17
3.73355496e-17
3.75942179e-17
3.94316139e-17
3.77464208e-17
3.8572794e-17
3.97835385e-17
3.94791565e-17
4.14059094e-17
4.07155353e-17
4.10639671e-17
3.9951314e-17
3.94342621e-17
4.09875138e-17
4.37151722e-17
4.34572025e-17
4.71501534e-17
4.65000911e-17
4.44091424e-17
4.37865709e-17
4.5783385e-17
4.64244971e-17
4.79144189e-17
4.6402991e-17
4.70541862e-17
5.07580364e-17
5.29765569e-17
5.30456538e-17
5.54796805e-17
5.89303958e-17
5.73600086e-17
5.73566079e-17
5.75205635e-17
5.79389121e-17
5.84035786e-17
6.20536249e-17
6.38413968e-17
6.30654572e-17
6.27689483e-17
6.19088379e-17
6.40282843e-17
6.34607859e-17
6.25581777e-17
6.22747382e-17
6.05782179e-17
6.50017002e-17
6.21979486e-17
6.49925249e-17
6.42676357e-17
6.59175855e-17
6.78665629e-17
6.71253434e-17
6.7884293e-17
6.596868e-17
6.49781025e-17
6.82261756e-17
6.28943914e-17
6.31701418e-17
6.30262015e-17
6.34248526e-17
6.5652489e-17
6.44411571e-17
6.37819509e-17
6.86356915e-17
6.38331909e-17
6.71782298e-17
6.65692562e-17
6.76628051e-17
7.09091601e-17
7.13622973e-17
7.21332259e-17
7.80790952e-17
7.56237243e-17
7.66773326e-17
7.75857608e-17
7.57985526e-17
7.67672908e-17
7.66507894e-17
7.86707294e-17
8.15126726e-17
7.89310256e-17
8.22392545e-17
8.56981505e-17
8.3197675e-17
8.2645982e-17
8.5797504e-17
8.11978286e-17
8.1024688e-17
7.7578487e-17
8.02188353e-17
7.75527128e-17
7.85297372e-17
8.1241786e-17
7.57317646e-17
7.84672599e-17
7.91306323e-17
7.8158191e-17
7.71013096e-17
7.72384559e-17
8.22915708e-17
7.8957481e-17
7.6429584e-17
7.66250262e-17
7.78128882e-17
7.78894881e-17
7.95443545e-17
7.6855611e-17
8.08861438e-17
8.10651735e-17
8.24164581e-17
8.49062623e-17
8.11886436e-17
7.95380895e-17
7.88668837e-17
8.03796232e-17
8.18195515e-17