/*--------------------------------*- C++ -*----------------------------------*\
| =========                 |                                                 |
| \\      /  F ield         | OpenFOAM: The Open Source CFD Toolbox           |
|  \\    /   O peration     | Version:  2206                                  |
|   \\  /    A nd           | Website:  www.openfoam.com                      |
|    \\/     M anipulation  |                                                 |
\*---------------------------------------------------------------------------*/
FoamFile
{
    version     2.0;
    format      ascii;
    arch        "LSB;label=32;scalar=64";
    class       volScalarField;
    location    "7.4e-06";
    object      sourcePV;
}
// * * * * * * * * * * * * * * * * * * * * * * * * * * * * * * * * * * * * * //

dimensions      [1 -3 -1 0 0 0 0];

internalField   nonuniform List<scalar> 
3183
(
0
0
0
0
0
0
0
0
0
0
0
0
0
0
0
0
0
0
0
0
0
0
0
0
0
0
0
0
0
0
0
0
0
0
0
0
0
0
0
0
0
0
0
0
0
0
0
0
0
0
0
0
0
0
0
0
0
0
0
0
0
0
0
0
0
0
0
0
0
0
0
0
0
0
0
0
0
0
0
0
0
0
0
0
0
0
0
0
0
0
0
0
0
0
0
0
0
0
0
0
0
0
0
0
0
0
0
0
0
0
0
0
0
0
0
0
0
0
0
0
0
0
0
0
0
0
0
0
0
0
0
0
0
0
0
0
0
0
0
0
0
0
0
0
0
0
0
0
0
0
0
0
0
0
0
0
0
0
0
0
0
0
0
0
0
0
0
0
0
0
0
0
0
0
0
0
0
0
0
0
0
0
0
0
0
0
0
0
0
0
0
0
0
0
0
0
0
0
0
0
0
0
0
0
0
0
0
0
0
0
0
0
0
0
0
0
0
0
0
0
0
0
0
0
0
0
0
0
0
0
0
0
0
0
0
0
0
0
0
0
0
0
0
0
0
0
0
0
0
0
0
0
0
0
0
0
0
0
0
0
0
0
0
0
0
0
0
0
0
0
0
0
0
0
0
0
0
0
0
0
0
0
0
0
0
0
0
0
0
0
0
0
0
0
0
0
0
0
0
0
0
0
0
0
0
0
0
0
0
0
0
0
0
0
0
0
0
0
0
0
0
0
0
0
0
0
0
0
0
0
0
0
0
0
0
0
0
0
0
0
0
0
0
0
0
0
0
0
0
0
0
0
0
0
0
0
0
0
0
0
0
0
0
0
0
0
0
0
0
0
0
0
0
0
0
0
0
0
0
0
0
0
0
0
0
0
0
0
0
0
0
0
0
0
0
0
0
0
0
0
0
0
0
0
0
0
0
0
0
0
0
0
0
0
0
0
0
0
0
0
0
0
0
0
0
0
0
0
0
0
0
0
0
0
0
0
0
0
0
0
0
0
0
0
0
0
0
0
0
0
0
0
0
0
0
0
0
0
0
0
0
0
0
0
0
0
0
0
0
0
0
0
0
0
0
0
0
0
0
0
0
0
0
0
0
0
0
0
0
0
0
0
0
0
0
0
0
0
0
0
0
0
0
0
0
0
0
0
0
0
0
0
0
0
0
0
0
0
0
0
0
0
0
0
0
0
0
0
0
0
0
0
0
0
0
0
0
0
0
0
0
0
0
0
0
0
0
0
0
0
0
0
0
0
0
0
0
0
0
0
0
0
0
0
0
0
0
0
0
0
0
0
0
0
0
0
0
0
0
0
0
0
0
0
0
0
0
0
0
0
0
0
0
0
0
0
0
0
0
0
0
0
0
0
0
0
0
0
0
0
0
0
0
0
0
0
0
0
0
0
0
0
0
0
0
0
0
0
0
0
0
0
0
0
0
0
0
0
0
0
0
0
0
0
0
0
0
0
0
0
0
0
0
0
0
0
0
0
0
0
0
0
0
0
0
0
0
0
0
0
0
0
0
0
0
0
0
0
0
0
0
0
0
0
0
0
0
0
0
0
0
0
0
0
0
0
0
0
0
0
0
0
0
0
0
0
0
0
0
0
0
0
0
0
0
0
0
0
0
0
0
0
0
0
0
0
0
0
0
0
0
0
0
0
0
0
0
0
0
0
0
0
0
0
0
0
0
0
0
0
0
0
0
0
0
0
0
0
0
0
0
0
0
0
0
0
0
0
0
0
0
0
0
0
0
0
0
0
0
0
0
0
0
0
0
0
0
0
0
0
0
0
0
0
0
0
0
0
0
0
0
0
0
0
0
0
0
0
0
0
0
0
0
0
0
0
0
0
0
0
0
0
0
0
0
0
0
0
0
0
0
0
0
0
0
0
0
0
0
0
0
0
0
0
0
0
0
0
0
0
0
0
0
0
0
0
0
0
0
0
0
0
0
0
0
0
0
0
0
0
0
0
0
0
0
0
0
0
0
0
0
0
0
0
0
0
0
0
0
0
0
0
0
0
0
0
0
0
0
0
0
0
0
0
0
0
0
0
0
0
0
0
0
0
0
0
0
0
0
0
0
0
0
0
0
0
0
0
0
0
0
0
0
0
0
0
0
0
0
0
0
0
0
0
0
0
0
0
0
0
0
0
0
0
0
0
0
0
0
0
0
0
0
0
0
0
0
0
0
0
0
0
0
0
0
0
0
0
0
0
0
0
0
0
0
0
0
0
0
0
0
0
0
0
0
0
0
0
0
0
0
0
0
0
0
0
0
0
0
0
0
0
0
0
0
0
0
0
0
0
0
0
0
0
0
0
0
0
0
0
0
0
0
0
0
0
0
0
0
0
0
0
0
0
0
0
0
0
0
0
0
0
0
0
0
0
0
0
0
0
0
0
0
0
0
0
0
0
0
0
0
0
0
0
0
0
0
0
0
0
0
0
0
0
0
0
0
0
0
0
0
0
0
0
0
0
0
0
0
0
0
0
0
0
0
0
0
0
0
0
0
0
0
0
0
0
0
0
0
0
0
0
0
0
0
0
0
0
0
0
0
0
0
0
0
0
0
0
0
0
0
0
0
0
0
0
0
0
0
0
0
0
0
0
0
0
0
0
0
0
0
0
0
0
0
0
0
0
0
0
0
0
0
0
0
0
0
0
0
0
0
0
0
0
0
0
0
0
0
0
0
0
0
0
0
0
0
0
0
0
0
0
0
0
0
0
0
0
0
0
0
0
0
0
0
0
0
0
0
0
0
0
0
0
0
0
0
0
0
0
0
0
0
0
0
0
0
0
0
0
0
0
0
0
0
0
0
0
0
0
0
0
0
0
0
0
0
0
0
0
0
0
0
0
0
0
0
0
0
0
0
0
0
0
0
0
0
0
0
0
0
0
0
0
0
0
0
0
0
0
0
0
0
0
0
0
0
0
0
0
0
0
0
0
0
0
0
0
0
0
0
0
0
0
0
0
0
0
0
0
0
0
0
0
0
0
0
0
0
0
0
0
0
0
0
0
0
0
0
0
0
0
0
0
0
0
0
0
0
0
0
0
0
0
0
0
0
0
0
0
0
0
0
0
0
0
0
0
0
0
0
0
0
0
0
0
0
0
0
0
0
0
0
0
0
0
0
0
0
0
0
0
0
0
0
0
0
0
0
0
0
0
0
0
0
0
0
0
0
0
0
0
0
0
0
0
0
0
0
0
0
0
0
0
0
0
0
0
0
0
0
0
0
0
0
0
0
0
0
0
0
0
0
0
0
0
0
0
0
0
0
0
0
0
0
0
0
0
0
0
0
0
0
0
0
0
0
0
0
0
0
0
0
0
0
0
0
0
0
0
0
0
0
0
0
0
0
0
0
0
0
0
0
0
0
0
0
0
0
0
0
0
0
0
0
0
0
0
0
0
0
0
0
0
0
0
0
0
0
0
0
0
0
0
0
0
0
0
0
0
0
0
0
0
0
0
0
0
0
0
0
0
0
0
0
0
0
0
0
0
0
0
0
0
0
0
0
0
0
0
0
0
0
0
0
0
0
0
0
0
0
0
0
0
0
0
0
0
0
0
0
0
0
0
0
0
0
0
0
0
0
0
0
0
0
0
0
0
0
0
0
0
0
0
0
0
0
0
0
0
0
0
0
0
0
0
0
0
0
0
0
0
0
0
0
0
0
0
0
0
0
0
0
0
0
0
0
0
0
0
0
0
0
0
0
0
0
0
0
0
0
0
0
0
0
0
0
0
0
0
0
0
0
0
0
0
0
0
0
0
0
0
0
0
0
0
0
0
0
0
0
0
0
0
0
0
0
0
0
0
0
0
0
0
0
0
0
0
0
0
0
0
0
0
0
0
0
0
0
0
0
0
0
0
0
0
0
0
0
0
0
0
0
0
0
0
0
0
0
0
0
0
0
0
0
0
0
0
0
0
0
0
0
0
0
0
0
0
0
0
0
0
0
0
0
0
0
0
0
0
0
0
0
0
0
0
0
0
0
0
0
0
0
0
0
0
0
0
0
0
0
0
0
0
0
0
0
0
0
0
0
0
0
0
0
0
0
0
0
0
0
0
0
0
0
0
0
0
0
0
0
0
0
0
0
0
0
0
0
0
0
0
0
0
0
0
0
0
0
0
0
0
0
0
0
0
0
0
0
0
0
0
0
0
0
0
0
0
0
0
0
0
0
0
0
0
0
0
0
0
0
0
0
0
0
0
0
0
0
0
0
0
0
0
0
0
0
0
0
0
0
0
0
0
0
0
0
0
0
0
0
0
0
0
0
0
0
0
0
0
0
0
0
0
0
0
0
0
0
0
0
0
0
0
0
0
0
0
0
0
0
0
0
0
0
0
0
0
0
0
0
0
0
0
0
0
0
0
0
0
0
0
0
0
0
0
0
0
0
0
0
0
0
0
0
0
0
0
0
0
0
0
0
0
0
0
0
0
0
0
0
0
0
0
0
0
0
0
0
0
0
0
0
0
0
0
0
0
0
0
0
0
0
0
0
0
0
0
0
0
0
0
0
0
0
0
0
0
0
0
0
0
0
0
0
0
0
0
0
0
0
0
0
0
0
0
0
0
0
0
0
0
0
0
0
0
0
0
0
0
0
0
0
0
0
0
0
0
0
0
0
0
0
0
0
0
0
0
0
0
0
0
0
0
0
0
0
0
0
0
0
0
0
0
0
0
0
0
0
0
0
0
0
0
0
0
0
0
0
0
0
0
0
0
0
0
0
0
0
0
0
0
0
0
0
0
0
0
0
0
0
0
0
0
0
0
0
0
0
0
0
0
0
0
0
0
0
0
0
0
0
0
0
0
0
0
0
0
0
0
0
0
0
0
0
0
0
0
0
0
0
0
0
0
0
0
0
0
0
0
0
0
0
0
0
0
0
0
0
0
0
0
0
0
0
0
0
0
0
0
0
0
0
0
0
0
0
0
0
0
0
0
0
0
0
0
0
0
0
0
0
0
0
0
0
0
0
0
0
0
0
0
0
0
0
0
0
0
0
0
0
0
0
0
0
0
0
0
0
0
0
0
0
0
0
0
0
0
0
0
0
0
0
0
0
0
0
0
0
0
0
0
0
0
0
0
0
0
0
0
0
0
0
0
0
0
0
0
0
0
0
0
0
0
0
0
0
0
0
0
0
0
0
0
0
0
0
0
0
0
0
0
0
0
0
0
0
0
0
0
0
0
0
0
0
0
0
0
0
0
0
0
0
0
0
0
0
0
0
0
0
0
0
0
0
0
0
0
0
0
0
0
0
0
0
0
0
0
0
0
0
0
0
0
0
0
0
0
0
0
0
0
0
0
0
0
0
0
0
0
0
0
0
0
0
0
0
0
0
0
0
0
0
0
0
0
0
0
0
0
0
0
0
0
0
0
0
0
0
0
0
2.21885269e-298
0
9.97079199e-295
0
3.82344086e-291
0
1.28489711e-287
0
3.85762485e-284
0
1.04976403e-280
0
2.61856938e-277
0
6.04123166e-274
0
1.29848675e-270
0
2.61586122e-267
0
4.96420821e-264
0
8.91261443e-261
0
1.51941746e-257
0
2.46744976e-254
0
3.82758399e-251
0
5.68546244e-248
0
8.10415891e-245
0
1.11066581e-241
0
1.46600462e-238
0
1.86651002e-235
0
2.29545359e-232
0
2.73018551e-229
0
3.14407357e-226
0
3.50927006e-223
0
3.79989299e-220
0
3.99510307e-217
0
4.0815637e-214
0
4.05488575e-211
0
3.91985457e-208
0
3.68946311e-205
0
3.38298243e-202
0
3.02344341e-199
3.45308901e-201
2.63495977e-196
9.24526869e-198
2.24029097e-193
1.28797118e-194
1.8589445e-190
1.46411317e-191
1.50598042e-187
1.49106144e-188
1.19154258e-184
1.41009805e-185
9.210252e-182
1.26045988e-182
6.95709955e-179
1.07578432e-179
5.13679341e-176
8.82257227e-177
3.70822032e-173
6.9822105e-174
2.61782946e-170
5.34847344e-171
1.80760416e-167
3.97439208e-168
1.22103065e-164
2.86977083e-165
8.07007961e-162
2.01617266e-162
5.21934276e-159
1.37962806e-159
3.30363083e-156
9.20261382e-157
2.04667209e-153
5.98781189e-154
1.2411437e-150
3.80252489e-151
7.36786416e-148
2.35786491e-148
4.28182039e-145
1.42813472e-145
2.4361107e-142
8.45188518e-143
1.35692149e-139
4.88852207e-140
7.39949156e-137
2.7639147e-137
3.95031525e-134
1.52777328e-134
2.06457409e-131
8.25709482e-132
1.05627485e-128
4.36376032e-129
5.28984241e-126
2.25515538e-126
2.59293703e-123
1.13966502e-123
1.24388751e-120
5.631882e-121
5.83927274e-118
2.72134511e-118
2.6820412e-115
1.28568245e-115
1.20512836e-112
5.93824955e-113
5.29646126e-110
2.68102498e-110
2.27634107e-107
1.18302096e-107
9.56517358e-105
5.10097226e-105
3.92868665e-102
2.14877179e-102
1.57683236e-99
8.84097309e-100
6.18273757e-97
3.55193708e-97
2.36752796e-94
1.39301466e-94
8.8507047e-92
5.331229e-92
3.2289784e-89
1.99031438e-89
1.14915564e-86
7.24543996e-87
3.98772794e-84
2.57078764e-84
1.34863705e-81
8.88623993e-82
4.44282811e-79
2.99084122e-79
1.42485659e-76
9.79590992e-77
4.44591286e-74
3.1203453e-74
1.34876498e-71
9.65990811e-72
3.97537948e-69
2.90425746e-69
1.13747161e-66
8.47303237e-67
3.15676971e-64
2.39663253e-64
8.48927435e-62
6.56604231e-62
2.20987856e-59
1.74054642e-59
5.56206411e-57
4.45904059e-57
1.35182832e-54
1.10258825e-54
3.16821552e-52
2.62775266e-52
7.14887996e-50
6.02656835e-50
1.55037341e-47
1.32772232e-47
3.22525719e-45
2.80441469e-45
6.4220131e-43
5.66650014e-43
1.22090271e-40
1.09254552e-40
2.20988353e-38
2.00438296e-38
3.79605349e-36
3.48756748e-36
6.16520561e-34
5.73363146e-34
9.42590577e-32
8.86738114e-32
1.34967409e-29
1.28343168e-29
1.79888821e-27
1.72775508e-27
2.21527563e-25
2.14724291e-25
2.49765637e-23
2.44105933e-23
2.54876948e-21
2.50932753e-21
2.31945258e-19
2.29788395e-19
1.84552459e-17
1.83720889e-17
1.24912161e-15
1.24667133e-15
6.9064533e-14
6.7987149e-14
2.9234174e-12
2.91420332e-12
1.57908758e-09
1.68165079e-09
1.04630831
2.90577711
9.92035225
9.112094
2.29774511
1.85404074
0.229930027
0.206387242
0.0313418704
0.0298610751
0.00375288088
0.00372593946
0.00041621509
0.000416765753
4.84681632e-05
4.84260748e-05
1.16267997e-05
1.16436576e-05
8.30238643e-06
8.30562824e-06
8.02733098e-06
8.02755016e-06
8.00610385e-06
8.00610239e-06
8.00456038e-06
8.00456138e-06
8.00445085e-06
8.00446647e-06
8.00443345e-06
8.0044606e-06
8.00443579e-06
8.00445486e-06
8.00443807e-06
8.00446544e-06
8.00443084e-06
8.00445436e-06
8.00444299e-06
8.00443429e-06
8.00444576e-06
8.00443986e-06
8.00444783e-06
8.00444159e-06
8.00445422e-06
8.00444439e-06
8.00444689e-06
8.00444147e-06
8.00446015e-06
8.0044438e-06
8.00445423e-06
8.00443687e-06
8.00444627e-06
8.00444276e-06
8.00445363e-06
8.00443726e-06
8.00445094e-06
8.00444628e-06
8.00444557e-06
8.00444904e-06
8.00444751e-06
8.00444402e-06
8.00444069e-06
8.00444878e-06
8.00444448e-06
8.00445025e-06
8.00444815e-06
8.00443734e-06
8.00445518e-06
8.00443834e-06
8.00444845e-06
8.00443041e-06
8.00445272e-06
8.00443238e-06
8.00444321e-06
8.00444269e-06
8.0044359e-06
8.00445802e-06
8.00444222e-06
8.0044512e-06
8.00445201e-06
8.0044529e-06
8.00444473e-06
8.00445104e-06
8.00444315e-06
8.00445489e-06
8.00444443e-06
8.00444909e-06
8.00444774e-06
8.00444215e-06
8.00445418e-06
8.004437e-06
8.00445562e-06
8.0044479e-06
8.00444472e-06
8.00445578e-06
8.00445093e-06
8.0044531e-06
8.00443722e-06
8.00445184e-06
8.00444739e-06
8.00445093e-06
8.00445397e-06
8.00445177e-06
8.00445544e-06
8.00445372e-06
8.00444899e-06
8.00444083e-06
8.00445504e-06
8.00445314e-06
8.00444415e-06
8.00444556e-06
8.0044544e-06
8.00443166e-06
8.00444843e-06
8.00443792e-06
8.00444721e-06
8.00444251e-06
8.00445164e-06
8.00445229e-06
8.00444247e-06
8.00445163e-06
8.00444462e-06
8.00445333e-06
8.0044398e-06
8.00446878e-06
8.00444285e-06
8.00444983e-06
8.00444309e-06
8.00445825e-06
8.00444707e-06
8.00445491e-06
8.0044405e-06
8.00445514e-06
8.00445599e-06
8.00446781e-06
8.00445216e-06
8.00445784e-06
8.0044606e-06
8.00444407e-06
8.00445674e-06
8.00444067e-06
8.00445427e-06
8.00444558e-06
8.00444576e-06
8.00444689e-06
8.00445104e-06
8.00445575e-06
8.00444491e-06
8.00444709e-06
8.00445566e-06
8.00445365e-06
8.00445211e-06
8.00444268e-06
8.00445988e-06
8.00445039e-06
8.00444822e-06
8.00446195e-06
8.00445159e-06
8.00445191e-06
8.00444857e-06
8.00446423e-06
8.0044573e-06
8.00444697e-06
8.00446471e-06
8.00444906e-06
8.00446772e-06
8.00445252e-06
8.00445984e-06
8.00445218e-06
8.00445411e-06
8.00444683e-06
8.00446202e-06
8.00444186e-06
8.00444712e-06
8.00445511e-06
8.00445246e-06
8.00445174e-06
8.00445751e-06
8.0044584e-06
8.00444928e-06
8.00446876e-06
8.00445951e-06
8.00446597e-06
8.00445975e-06
8.0044557e-06
8.00445488e-06
8.00445772e-06
8.0044574e-06
8.00445648e-06
8.00445469e-06
8.00445503e-06
8.00446204e-06
8.00445442e-06
8.00446115e-06
8.00445865e-06
8.0044659e-06
8.00445163e-06
8.00446366e-06
8.00445346e-06
8.00446085e-06
8.0044531e-06
8.0044614e-06
8.00444896e-06
8.00445839e-06
8.004449e-06
8.00445596e-06
8.00445622e-06
8.00445748e-06
8.00445542e-06
8.00447129e-06
8.0044547e-06
8.00446486e-06
8.00444958e-06
8.00446709e-06
8.00445875e-06
8.00445442e-06
8.0044589e-06
8.00445734e-06
8.0044586e-06
8.00445596e-06
8.00446204e-06
8.00445398e-06
8.00446986e-06
8.00444755e-06
8.0044581e-06
8.00445869e-06
8.004452e-06
8.00445772e-06
8.00446556e-06
8.00446139e-06
8.00446194e-06
8.00446489e-06
8.00445901e-06
8.00446154e-06
8.00447067e-06
8.00445945e-06
8.00446038e-06
8.00446014e-06
8.00447147e-06
8.00445642e-06
8.00447151e-06
8.00445749e-06
8.00446581e-06
8.00446084e-06
8.00445413e-06
8.00446126e-06
8.00446939e-06
8.00446003e-06
8.00446243e-06
8.00445508e-06
8.00445495e-06
8.00446184e-06
8.00446971e-06
8.00445641e-06
8.00446465e-06
8.00445262e-06
8.00447111e-06
8.00445646e-06
8.00446376e-06
8.00447062e-06
8.00445694e-06
8.00447278e-06
8.00446554e-06
8.00447186e-06
8.0044597e-06
8.0044761e-06
8.00445279e-06
8.00446515e-06
8.00445442e-06
8.00446656e-06
8.00445304e-06
8.00446863e-06
8.00445914e-06
8.00445985e-06
8.00447155e-06
8.00446063e-06
8.00447156e-06
8.00446015e-06
8.00446545e-06
8.0044648e-06
8.00445897e-06
8.00446762e-06
8.00445669e-06
8.00446775e-06
8.00446745e-06
8.00447195e-06
8.00445144e-06
8.00446361e-06
8.00445684e-06
8.00446411e-06
8.00446944e-06
8.00445902e-06
8.0044635e-06
8.00445864e-06
8.00446097e-06
8.00446647e-06
8.00445451e-06
8.00445787e-06
8.00446915e-06
8.004476e-06
8.0044658e-06
8.00446483e-06
8.00446435e-06
8.00446664e-06
8.00447276e-06
8.00446441e-06
8.00447387e-06
8.00446884e-06
8.00446002e-06
8.00447498e-06
8.00447178e-06
8.00447091e-06
8.00446595e-06
8.00446642e-06
8.00447072e-06
8.00445812e-06
8.00447182e-06
8.00448085e-06
8.00445336e-06
8.00447545e-06
8.00446203e-06
8.00447422e-06
8.00446319e-06
8.00447432e-06
8.00446378e-06
8.00446255e-06
8.00447075e-06
8.00447226e-06
8.00446222e-06
8.00447283e-06
8.00447018e-06
8.00446646e-06
8.0044751e-06
8.00446532e-06
8.00446007e-06
8.00447039e-06
8.00446233e-06
8.00447501e-06
8.00446435e-06
8.00446662e-06
8.00446953e-06
8.00446701e-06
8.00447643e-06
8.00446838e-06
8.00448014e-06
8.0044625e-06
8.00447891e-06
8.00447138e-06
8.00447416e-06
8.00447618e-06
8.00446834e-06
8.00447665e-06
8.00447837e-06
8.00447225e-06
8.00446526e-06
8.00448283e-06
8.00446152e-06
8.00447955e-06
8.00447501e-06
8.00447521e-06
8.00447428e-06
8.00447349e-06
8.00446973e-06
8.00448191e-06
8.00446862e-06
8.00446802e-06
8.00447766e-06
8.00447316e-06
8.00448996e-06
8.00447139e-06
8.00448383e-06
8.00447739e-06
8.00448828e-06
8.00447361e-06
8.00448583e-06
8.00446749e-06
8.00448604e-06
8.00446847e-06
8.00447204e-06
8.00448291e-06
8.00447122e-06
8.00447882e-06
8.0044746e-06
8.00447832e-06
8.00447957e-06
8.00447483e-06
8.00446462e-06
8.00447974e-06
8.00447745e-06
8.00446904e-06
8.00447836e-06
8.00447789e-06
8.00447489e-06
8.00447682e-06
8.00447781e-06
8.00447197e-06
8.00448465e-06
8.00448159e-06
8.004485e-06
8.00448049e-06
8.00447556e-06
8.0044784e-06
8.00448336e-06
8.00447648e-06
8.00449472e-06
8.00446803e-06
8.00449188e-06
8.00447129e-06
8.00448633e-06
8.00448294e-06
8.00448301e-06
8.00447864e-06
8.00448464e-06
8.00448136e-06
8.00447552e-06
8.0044837e-06
8.00447954e-06
8.00448465e-06
8.00447798e-06
8.00448312e-06
8.00448895e-06
8.00447676e-06
8.00448533e-06
8.00447291e-06
8.00448613e-06
8.00448401e-06
8.0044816e-06
8.00448316e-06
8.00448558e-06
8.00447567e-06
8.00449287e-06
8.00448567e-06
8.00448363e-06
8.00448482e-06
8.00449363e-06
8.00449136e-06
8.00449028e-06
8.00448418e-06
8.00450172e-06
8.00448544e-06
8.0044926e-06
8.00447987e-06
8.00448501e-06
8.00448626e-06
8.00448372e-06
8.00449153e-06
8.00448587e-06
8.0044867e-06
8.00449477e-06
8.00448849e-06
8.00449361e-06
8.0044836e-06
8.00448581e-06
8.00448658e-06
8.00448185e-06
8.00449043e-06
8.00449018e-06
8.00448225e-06
8.00448276e-06
8.00448452e-06
8.00448203e-06
8.00448479e-06
8.00448571e-06
8.0044837e-06
8.00449404e-06
8.00448163e-06
8.00449615e-06
8.00449564e-06
8.00448686e-06
8.00449067e-06
8.00449017e-06
8.00449637e-06
8.00448402e-06
8.00448495e-06
8.00449822e-06
8.00447079e-06
8.00450163e-06
8.00448291e-06
8.00449322e-06
8.00448e-06
8.00448768e-06
8.00448294e-06
8.00448963e-06
8.00448159e-06
8.00448544e-06
8.00448758e-06
8.00448442e-06
8.00449839e-06
8.00447908e-06
8.00449654e-06
8.00448824e-06
8.00449573e-06
8.00449373e-06
8.00449047e-06
8.00448532e-06
8.00450515e-06
8.00448333e-06
8.00449459e-06
8.0044788e-06
8.00450147e-06
8.00447497e-06
8.00450034e-06
8.00447654e-06
8.00450137e-06
8.00448655e-06
8.00449137e-06
8.00449385e-06
8.00449018e-06
8.00449158e-06
8.00448931e-06
8.00448858e-06
8.00449409e-06
8.0044882e-06
8.0044941e-06
8.00449181e-06
8.00449442e-06
8.00449383e-06
8.00449009e-06
8.00449261e-06
8.00449194e-06
8.0044901e-06
8.00449288e-06
8.0044934e-06
8.00449303e-06
8.0044929e-06
8.00449236e-06
8.0044922e-06
8.00449324e-06
8.00449297e-06
8.00449314e-06
8.00449357e-06
8.00449306e-06
8.00449375e-06
8.00449371e-06
8.00449332e-06
8.00449401e-06
8.0044939e-06
8.00449336e-06
8.00449353e-06
8.00449371e-06
8.00449399e-06
8.00449379e-06
8.00449381e-06
8.00449391e-06
8.00449378e-06
8.00449384e-06
8.00449377e-06
8.00449388e-06
8.00449355e-06
8.00449396e-06
8.00449366e-06
8.00449373e-06
8.00449377e-06
8.00449374e-06
8.00449377e-06
8.00449391e-06
8.00449381e-06
8.00449382e-06
8.00449363e-06
8.00449361e-06
8.00449389e-06
8.00449372e-06
8.00449383e-06
8.00449382e-06
8.00449369e-06
8.00449383e-06
8.00449378e-06
8.00449381e-06
8.00449389e-06
8.00449371e-06
8.00449392e-06
8.0044937e-06
8.00449387e-06
8.00449378e-06
8.00449371e-06
8.00449384e-06
8.00449366e-06
8.00449368e-06
8.00449392e-06
)
;

boundaryField
{
    closed
    {
        type            calculated;
        value           uniform 0;
    }
    open
    {
        type            calculated;
        value           uniform 0;
    }
    sides
    {
        type            empty;
    }
}


// ************************************************************************* //
