/*--------------------------------*- C++ -*----------------------------------*\
| =========                 |                                                 |
| \\      /  F ield         | OpenFOAM: The Open Source CFD Toolbox           |
|  \\    /   O peration     | Version:  2206                                  |
|   \\  /    A nd           | Website:  www.openfoam.com                      |
|    \\/     M anipulation  |                                                 |
\*---------------------------------------------------------------------------*/
FoamFile
{
    version     2.0;
    format      ascii;
    arch        "LSB;label=32;scalar=64";
    class       volScalarField;
    location    "5.8e-06";
    object      PVsourcePV;
}
// * * * * * * * * * * * * * * * * * * * * * * * * * * * * * * * * * * * * * //

dimensions      [1 -3 -1 0 0 0 0];

internalField   nonuniform List<scalar> 
3183
(
0
0
0
0
0
0
0
0
0
0
0
0
0
0
0
0
0
0
0
0
0
0
0
0
0
0
0
0
0
0
0
0
0
0
0
0
0
0
0
0
0
0
0
0
0
0
0
0
0
0
0
0
0
0
0
0
0
0
0
0
0
0
0
0
0
0
0
0
0
0
0
0
0
0
0
0
0
0
0
0
0
0
0
0
0
0
0
0
0
0
0
0
0
0
0
0
0
0
0
0
0
0
0
0
0
0
0
0
0
0
0
0
0
0
0
0
0
0
0
0
0
0
0
0
0
0
0
0
0
0
0
0
0
0
0
0
0
0
0
0
0
0
0
0
0
0
0
0
0
0
0
0
0
0
0
0
0
0
0
0
0
0
0
0
0
0
0
0
0
0
0
0
0
0
0
0
0
0
0
0
0
0
0
0
0
0
0
0
0
0
0
0
0
0
0
0
0
0
0
0
0
0
0
0
0
0
0
0
0
0
0
0
0
0
0
0
0
0
0
0
0
0
0
0
0
0
0
0
0
0
0
0
0
0
0
0
0
0
0
0
0
0
0
0
0
0
0
0
0
0
0
0
0
0
0
0
0
0
0
0
0
0
0
0
0
0
0
0
0
0
0
0
0
0
0
0
0
0
0
0
0
0
0
0
0
0
0
0
0
0
0
0
0
0
0
0
0
0
0
0
0
0
0
0
0
0
0
0
0
0
0
0
0
0
0
0
0
0
0
0
0
0
0
0
0
0
0
0
0
0
0
0
0
0
0
0
0
0
0
0
0
0
0
0
0
0
0
0
0
0
0
0
0
0
0
0
0
0
0
0
0
0
0
0
0
0
0
0
0
0
0
0
0
0
0
0
0
0
0
0
0
0
0
0
0
0
0
0
0
0
0
0
0
0
0
0
0
0
0
0
0
0
0
0
0
0
0
0
0
0
0
0
0
0
0
0
0
0
0
0
0
0
0
0
0
0
0
0
0
0
0
0
0
0
0
0
0
0
0
0
0
0
0
0
0
0
0
0
0
0
0
0
0
0
0
0
0
0
0
0
0
0
0
0
0
0
0
0
0
0
0
0
0
0
0
0
0
0
0
0
0
0
0
0
0
0
0
0
0
0
0
0
0
0
0
0
0
0
0
0
0
0
0
0
0
0
0
0
0
0
0
0
0
0
0
0
0
0
0
0
0
0
0
0
0
0
0
0
0
0
0
0
0
0
0
0
0
0
0
0
0
0
0
0
0
0
0
0
0
0
0
0
0
0
0
0
0
0
0
0
0
0
0
0
0
0
0
0
0
0
0
0
0
0
0
0
0
0
0
0
0
0
0
0
0
0
0
0
0
0
0
0
0
0
0
0
0
0
0
0
0
0
0
0
0
0
0
0
0
0
0
0
0
0
0
0
0
0
0
0
0
0
0
0
0
0
0
0
0
0
0
0
0
0
0
0
0
0
0
0
0
0
0
0
0
0
0
0
0
0
0
0
0
0
0
0
0
0
0
0
0
0
0
0
0
0
0
0
0
0
0
0
0
0
0
0
0
0
0
0
0
0
0
0
0
0
0
0
0
0
0
0
0
0
0
0
0
0
0
0
0
0
0
0
0
0
0
0
0
0
0
0
0
0
0
0
0
0
0
0
0
0
0
0
0
0
0
0
0
0
0
0
0
0
0
0
0
0
0
0
0
0
0
0
0
0
0
0
0
0
0
0
0
0
0
0
0
0
0
0
0
0
0
0
0
0
0
0
0
0
0
0
0
0
0
0
0
0
0
0
0
0
0
0
0
0
0
0
0
0
0
0
0
0
0
0
0
0
0
0
0
0
0
0
0
0
0
0
0
0
0
0
0
0
0
0
0
0
0
0
0
0
0
0
0
0
0
0
0
0
0
0
0
0
0
0
0
0
0
0
0
0
0
0
0
0
0
0
0
0
0
0
0
0
0
0
0
0
0
0
0
0
0
0
0
0
0
0
0
0
0
0
0
0
0
0
0
0
0
0
0
0
0
0
0
0
0
0
0
0
0
0
0
0
0
0
0
0
0
0
0
0
0
0
0
0
0
0
0
0
0
0
0
0
0
0
0
0
0
0
0
0
0
0
0
0
0
0
0
0
0
0
0
0
0
0
0
0
0
0
0
0
0
0
0
0
0
0
0
0
0
0
0
0
0
0
0
0
0
0
0
0
0
0
0
0
0
0
0
0
0
0
0
0
0
0
0
0
0
0
0
0
0
0
0
0
0
0
0
0
0
0
0
0
0
0
0
0
0
0
0
0
0
0
0
0
0
0
0
0
0
0
0
0
0
0
0
0
0
0
0
0
0
0
0
0
0
0
0
0
0
0
0
0
0
0
0
0
0
0
0
0
0
0
0
0
0
0
0
0
0
0
0
0
0
0
0
0
0
0
0
0
0
0
0
0
0
0
0
0
0
0
0
0
0
0
0
0
0
0
0
0
0
0
0
0
0
0
0
0
0
0
0
0
0
0
0
0
0
0
0
0
0
0
0
0
0
0
0
0
0
0
0
0
0
0
0
0
0
0
0
0
0
0
0
0
0
0
0
0
0
0
0
0
0
0
0
0
0
0
0
0
0
0
0
0
0
0
0
0
0
0
0
0
0
0
0
0
0
0
0
0
0
0
0
0
0
0
0
0
0
0
0
0
0
0
0
0
0
0
0
0
0
0
0
0
0
0
0
0
0
0
0
0
0
0
0
0
0
0
0
0
0
0
0
0
0
0
0
0
0
0
0
0
0
0
0
0
0
0
0
0
0
0
0
0
0
0
0
0
0
0
0
0
0
0
0
0
0
0
0
0
0
0
0
0
0
0
0
0
0
0
0
0
0
0
0
0
0
0
0
0
0
0
0
0
0
0
0
0
0
0
0
0
0
0
0
0
0
0
0
0
0
0
0
0
0
0
0
0
0
0
0
0
0
0
0
0
0
0
0
0
0
0
0
0
0
0
0
0
0
0
0
0
0
0
0
0
0
0
0
0
0
0
0
0
0
0
0
0
0
0
0
0
0
0
0
0
0
0
0
0
0
0
0
0
0
0
0
0
0
0
0
0
0
0
0
0
0
0
0
0
0
0
0
0
0
0
0
0
0
0
0
0
0
0
0
0
0
0
0
0
0
0
0
0
0
0
0
0
0
0
0
0
0
0
0
0
0
0
0
0
0
0
0
0
0
0
0
0
0
0
0
0
0
0
0
0
0
0
0
0
0
0
0
0
0
0
0
0
0
0
0
0
0
0
0
0
0
0
0
0
0
0
0
0
0
0
0
0
0
0
0
0
0
0
0
0
0
0
0
0
0
0
0
0
0
0
0
0
0
0
0
0
0
0
0
0
0
0
0
0
0
0
0
0
0
0
0
0
0
0
0
0
0
0
0
0
0
0
0
0
0
0
0
0
0
0
0
0
0
0
0
0
0
0
0
0
0
0
0
0
0
0
0
0
0
0
0
0
0
0
0
0
0
0
0
0
0
0
0
0
0
0
0
0
0
0
0
0
0
0
0
0
0
0
0
0
0
0
0
0
0
0
0
0
0
0
0
0
0
0
0
0
0
0
0
0
0
0
0
0
0
0
0
0
0
0
0
0
0
0
0
0
0
0
0
0
0
0
0
0
0
0
0
0
0
0
0
0
0
0
0
0
0
0
0
0
0
0
0
0
0
0
0
0
0
0
0
0
0
0
0
0
0
0
0
0
0
0
0
0
0
0
0
0
0
0
0
0
0
0
0
0
0
0
0
0
0
0
0
0
0
0
0
0
0
0
0
0
0
0
0
0
0
0
0
0
0
0
0
0
0
0
0
0
0
0
0
0
0
0
0
0
0
0
0
0
0
0
0
0
0
0
0
0
0
0
0
0
0
0
0
0
0
0
0
0
0
0
0
0
0
0
0
0
0
0
0
0
0
0
0
0
0
0
0
0
0
0
0
0
0
0
0
0
0
0
0
0
0
0
0
0
0
0
0
0
0
0
0
0
0
0
0
0
0
0
0
0
0
0
0
0
0
0
0
0
0
0
0
0
0
0
0
0
0
0
0
0
0
0
0
0
0
0
0
0
0
0
0
0
0
0
0
0
0
0
0
0
0
0
0
0
0
0
0
0
0
0
0
0
0
0
0
0
0
0
0
0
0
0
0
0
0
0
0
0
0
0
0
0
0
0
0
0
0
0
0
0
0
0
0
0
0
0
0
0
0
0
0
0
0
0
0
0
0
0
0
0
0
0
0
0
0
0
0
0
0
0
0
0
0
0
0
0
0
0
0
0
0
0
0
0
0
0
0
0
0
0
0
0
0
0
0
0
0
0
0
0
0
0
0
0
0
0
0
0
0
0
0
0
0
0
0
0
0
0
0
0
0
0
0
0
0
0
0
0
0
0
0
0
0
0
0
0
0
0
0
0
0
0
0
0
0
0
0
0
0
0
0
0
0
0
0
0
0
0
0
0
0
0
0
0
0
0
0
0
0
0
0
0
0
0
0
0
0
0
0
0
0
0
0
0
0
0
0
0
0
0
0
0
0
0
0
0
0
0
0
0
0
0
0
0
0
0
0
0
0
0
0
0
0
0
0
0
0
0
0
0
0
0
0
0
0
0
0
0
0
0
0
0
0
0
0
0
0
0
0
0
0
0
0
0
0
0
0
0
0
0
0
0
0
0
0
0
0
0
0
0
0
0
0
0
0
0
0
0
0
0
0
0
0
0
0
0
0
0
0
0
0
0
0
0
0
0
0
0
0
0
0
0
0
0
0
0
0
0
0
0
0
0
0
0
0
0
0
0
0
0
0
0
0
0
0
0
0
0
0
0
0
0
0
0
0
0
0
0
0
0
0
0
0
0
0
0
0
0
0
0
0
0
0
0
0
0
0
0
0
0
0
0
0
0
0
0
0
0
0
0
0
0
0
0
0
0
0
0
0
0
0
0
0
0
0
0
0
0
0
0
0
0
0
0
0
0
0
0
0
0
0
0
0
0
0
0
0
0
0
0
0
0
0
0
0
0
0
0
0
0
0
0
0
0
0
0
0
0
0
0
0
0
0
0
0
0
0
0
0
0
0
0
0
0
0
0
0
0
0
0
0
0
0
0
0
0
0
0
0
0
0
0
0
0
0
0
0
0
0
0
0
0
0
0
0
0
0
0
0
0
0
0
0
0
0
0
0
0
0
0
0
0
0
0
0
0
0
0
0
0
0
0
0
0
0
0
0
0
0
0
0
0
0
0
0
0
0
0
0
0
0
0
0
0
0
0
0
0
0
0
0
0
0
0
0
0
0
0
0
0
0
0
0
0
0
0
0
0
0
0
0
0
0
0
0
0
0
0
0
0
0
0
0
0
0
0
0
0
0
0
0
0
0
0
0
0
0
0
0
0
0
0
0
0
0
0
0
0
0
0
0
0
0
0
0
0
0
0
0
0
0
0
0
0
0
0
0
0
0
0
0
0
0
0
0
0
0
1.98077608e-296
0
3.62566562e-289
0
3.41948663e-282
0
1.66227842e-275
0
4.16785989e-269
0
5.397217e-263
0
3.61907851e-257
0
1.26283539e-251
0
1.96245492e-247
0
1.60262108e-243
0
9.05992115e-240
0
3.97215355e-236
0
1.43643447e-232
0
4.45184654e-229
0
1.21353106e-225
0
2.96413159e-222
0
6.57851706e-219
0
1.34097084e-215
0
2.53210591e-212
0
4.45985624e-209
0
7.36906299e-206
0
1.14769159e-202
0
1.69164665e-199
0
2.36788696e-196
0
3.15695301e-193
0
4.019302e-190
0
4.89764452e-187
0
5.72319382e-184
0
6.42487125e-181
0
6.93968294e-178
0
7.22211736e-175
0
7.25062451e-172
0
7.02995099e-169
0
6.58909473e-166
0
5.97561333e-163
0
5.24771353e-160
5.95878134e-163
4.46581979e-157
1.3571086e-158
3.6851623e-154
2.1297156e-155
2.95045228e-151
2.46569378e-152
2.29310058e-148
2.47483758e-149
1.73086048e-145
2.26808113e-146
1.26936095e-142
1.94299344e-143
9.04797356e-140
1.57582161e-140
6.27047262e-137
1.21930057e-137
4.226233e-134
9.04628471e-135
2.77086263e-131
6.45798789e-132
1.76755397e-128
4.44712392e-129
1.09723192e-125
2.95952421e-126
6.62901345e-123
1.90605058e-123
3.89821583e-120
1.18927816e-120
2.23139575e-117
7.19495989e-118
1.24335148e-114
4.22323618e-115
6.7439818e-112
2.40626779e-112
3.56064191e-109
1.33130919e-109
1.82978266e-106
7.15416415e-107
9.15135195e-104
3.73467301e-104
4.45375001e-101
1.89405852e-101
2.1088522e-98
9.33217385e-99
9.71303868e-96
4.46676254e-96
4.3505589e-93
2.07667106e-93
1.89448311e-90
9.37615541e-91
8.01767529e-88
4.11012824e-88
3.29651323e-85
1.74873733e-85
1.31621043e-82
7.21890169e-83
5.10097019e-80
2.89005772e-80
1.9178092e-77
1.12153774e-77
6.99076293e-75
4.21644501e-75
2.46900734e-72
1.53470639e-72
8.44264563e-70
5.4042696e-70
2.79278217e-67
1.83962919e-67
8.92898277e-65
6.04800663e-65
2.75633995e-62
1.9184202e-62
8.20613403e-60
5.86453663e-60
2.35326905e-57
1.72556985e-57
6.49110633e-55
4.8800463e-55
1.71946037e-52
1.32438733e-52
4.36633768e-50
3.44289904e-50
1.06076254e-47
8.55592265e-48
2.45979648e-45
2.0278508e-45
5.43028126e-43
4.57172542e-43
1.13783173e-40
9.77402527e-41
2.25500508e-38
1.9745952e-38
4.20972097e-36
3.75400136e-36
7.36704266e-34
6.68335947e-34
1.20157232e-31
1.10772665e-31
1.81369798e-29
1.69712793e-29
2.51163567e-27
2.38241284e-27
3.15608658e-25
3.03048238e-25
3.54772332e-23
3.44306242e-23
3.49993251e-21
3.42738841e-21
2.95024559e-19
2.91074156e-19
2.04206774e-17
2.02577118e-17
1.08804271e-15
1.0940861e-15
2.96595269e-12
2.68942476e-12
0.117485167
0.271824637
0.678889152
0.597422026
0.0976251876
0.0806389683
0.00946345538
0.00875642164
0.00105246607
0.00102955039
0.00010559556
0.000105261189
1.00102724e-05
1.00842744e-05
1.44185211e-06
1.44575761e-06
7.40930054e-07
7.41193837e-07
6.88793507e-07
6.88834025e-07
6.85258146e-07
6.85258303e-07
6.85031251e-07
6.85032007e-07
6.85018544e-07
6.85018842e-07
6.85017287e-07
6.85018245e-07
6.8501689e-07
6.85018121e-07
6.85016942e-07
6.85017494e-07
6.8501712e-07
6.85018673e-07
6.8501618e-07
6.85018116e-07
6.85017399e-07
6.85017112e-07
6.85017373e-07
6.85017426e-07
6.8501782e-07
6.85016998e-07
6.85018338e-07
6.85016439e-07
6.85017833e-07
6.85017199e-07
6.85018276e-07
6.85017189e-07
6.85017991e-07
6.8501687e-07
6.85017698e-07
6.85017382e-07
6.85017667e-07
6.85017724e-07
6.85017625e-07
6.85017484e-07
6.85016896e-07
6.85017637e-07
6.85017723e-07
6.85016593e-07
6.85017353e-07
6.85017605e-07
6.8501739e-07
6.85017115e-07
6.850176e-07
6.85016924e-07
6.85017839e-07
6.85016784e-07
6.85017688e-07
6.85016449e-07
6.85018152e-07
6.85015858e-07
6.85018212e-07
6.85017184e-07
6.85016667e-07
6.85018453e-07
6.85016871e-07
6.85017684e-07
6.85017949e-07
6.85017875e-07
6.85017726e-07
6.850177e-07
6.85017412e-07
6.85017761e-07
6.85018048e-07
6.85017227e-07
6.85017761e-07
6.85017727e-07
6.85017292e-07
6.85017367e-07
6.85017914e-07
6.85017721e-07
6.85017379e-07
6.85018909e-07
6.85017678e-07
6.85017757e-07
6.85017594e-07
6.85017955e-07
6.85018023e-07
6.85017196e-07
6.85018536e-07
6.8501764e-07
6.85018054e-07
6.85017834e-07
6.85017621e-07
6.85017179e-07
6.85017669e-07
6.85018649e-07
6.85017429e-07
6.85017069e-07
6.85018297e-07
6.85016295e-07
6.85018264e-07
6.85016903e-07
6.85017807e-07
6.85017558e-07
6.85017907e-07
6.8501756e-07
6.85017364e-07
6.8501815e-07
6.8501775e-07
6.85017862e-07
6.85017426e-07
6.85017892e-07
6.85018003e-07
6.85017381e-07
6.85017734e-07
6.8501751e-07
6.85018582e-07
6.85017662e-07
6.85017826e-07
6.85017521e-07
6.85018626e-07
6.85018815e-07
6.85017579e-07
6.85018607e-07
6.85017963e-07
6.850173e-07
6.8501844e-07
6.85017089e-07
6.85018758e-07
6.85017434e-07
6.85017649e-07
6.85017805e-07
6.85017839e-07
6.85018401e-07
6.85017436e-07
6.85018301e-07
6.85017908e-07
6.85018653e-07
6.85017173e-07
6.85018532e-07
6.85018101e-07
6.85017871e-07
6.85018105e-07
6.85018442e-07
6.85018172e-07
6.85018804e-07
6.85017447e-07
6.85018429e-07
6.85018306e-07
6.85017699e-07
6.85018322e-07
6.85017706e-07
6.85019007e-07
6.85018466e-07
6.85018918e-07
6.85017888e-07
6.85018177e-07
6.85017985e-07
6.85018287e-07
6.8501751e-07
6.85017581e-07
6.8501812e-07
6.85017286e-07
6.85018487e-07
6.85018584e-07
6.85018455e-07
6.85017924e-07
6.8501954e-07
6.85018681e-07
6.85019247e-07
6.85018345e-07
6.85019047e-07
6.85017935e-07
6.85018808e-07
6.85018391e-07
6.85018179e-07
6.85018952e-07
6.85018171e-07
6.85018239e-07
6.85018942e-07
6.85018444e-07
6.85018821e-07
6.85018938e-07
6.85017957e-07
6.85019164e-07
6.85018083e-07
6.85019422e-07
6.85017275e-07
6.8501901e-07
6.85018167e-07
6.85018192e-07
6.85018524e-07
6.85018314e-07
6.85018383e-07
6.85018558e-07
6.85018687e-07
6.85019166e-07
6.85018166e-07
6.85019708e-07
6.85017213e-07
6.85019732e-07
6.85018163e-07
6.85019048e-07
6.85018487e-07
6.85018518e-07
6.85018732e-07
6.85018757e-07
6.85019258e-07
6.85018008e-07
6.85019631e-07
6.85018205e-07
6.85018671e-07
6.85018904e-07
6.85018218e-07
6.85019206e-07
6.85018524e-07
6.8501913e-07
6.85018572e-07
6.85019244e-07
6.85018511e-07
6.85019833e-07
6.85018785e-07
6.85019349e-07
6.85018631e-07
6.8501921e-07
6.85019588e-07
6.85018343e-07
6.85019768e-07
6.85019303e-07
6.85018578e-07
6.85018827e-07
6.85018808e-07
6.85019119e-07
6.85019204e-07
6.85018519e-07
6.85018972e-07
6.85018515e-07
6.85018765e-07
6.85018442e-07
6.85020134e-07
6.8501859e-07
6.85019132e-07
6.85018606e-07
6.85019363e-07
6.8501933e-07
6.85019284e-07
6.85019804e-07
6.85018235e-07
6.85020334e-07
6.85019643e-07
6.85019993e-07
6.850189e-07
6.85020096e-07
6.85019062e-07
6.85019297e-07
6.85018547e-07
6.85019081e-07
6.8501886e-07
6.85019609e-07
6.85019307e-07
6.85019489e-07
6.8502061e-07
6.85018563e-07
6.85020371e-07
6.85018869e-07
6.85019816e-07
6.85019341e-07
6.8501903e-07
6.85019992e-07
6.85018259e-07
6.8501987e-07
6.8501946e-07
6.8502032e-07
6.85019285e-07
6.8501921e-07
6.85019196e-07
6.85019178e-07
6.85019631e-07
6.85019222e-07
6.85019365e-07
6.85019199e-07
6.8501903e-07
6.85019911e-07
6.85018838e-07
6.85019627e-07
6.8502e-07
6.85020548e-07
6.85019608e-07
6.85019907e-07
6.8501937e-07
6.85019658e-07
6.85020157e-07
6.85019715e-07
6.85019824e-07
6.85020883e-07
6.85019222e-07
6.85020607e-07
6.85019964e-07
6.85020016e-07
6.85020244e-07
6.85019146e-07
6.85020911e-07
6.85019196e-07
6.85020649e-07
6.85020712e-07
6.85018881e-07
6.8502001e-07
6.8501997e-07
6.85020439e-07
6.85020445e-07
6.85019802e-07
6.85019622e-07
6.85019852e-07
6.85020297e-07
6.85020157e-07
6.85020223e-07
6.85019606e-07
6.85020025e-07
6.85020487e-07
6.85020338e-07
6.85019238e-07
6.85019567e-07
6.85020333e-07
6.85019536e-07
6.85020934e-07
6.8501918e-07
6.85020929e-07
6.85019367e-07
6.85020456e-07
6.8502038e-07
6.8501985e-07
6.85020734e-07
6.8502004e-07
6.85020701e-07
6.85020133e-07
6.85020641e-07
6.85020363e-07
6.85020331e-07
6.85020269e-07
6.85020611e-07
6.85019967e-07
6.85019686e-07
6.85021281e-07
6.85019636e-07
6.85021598e-07
6.85019669e-07
6.8502082e-07
6.85020368e-07
6.85020376e-07
6.85019846e-07
6.85020879e-07
6.85020024e-07
6.85020389e-07
6.85020854e-07
6.85020797e-07
6.85021453e-07
6.85020196e-07
6.85021047e-07
6.85020918e-07
6.85021336e-07
6.85020508e-07
6.8502133e-07
6.85020157e-07
6.85021295e-07
6.85020427e-07
6.85020221e-07
6.85020826e-07
6.85020095e-07
6.85021164e-07
6.85020223e-07
6.85020815e-07
6.85020409e-07
6.85020501e-07
6.85019899e-07
6.85020541e-07
6.85020485e-07
6.85020247e-07
6.85021002e-07
6.85020306e-07
6.85020868e-07
6.85020307e-07
6.85020872e-07
6.85020063e-07
6.85021566e-07
6.85020924e-07
6.85020955e-07
6.85020522e-07
6.85020486e-07
6.85020439e-07
6.85021055e-07
6.85020324e-07
6.85021794e-07
6.85020223e-07
6.85021492e-07
6.85019303e-07
6.85021643e-07
6.85020858e-07
6.85021314e-07
6.85021342e-07
6.85021046e-07
6.85020793e-07
6.85020567e-07
6.85021302e-07
6.85020003e-07
6.85021298e-07
6.85020827e-07
6.85020258e-07
6.85020939e-07
6.8502088e-07
6.8502049e-07
6.85021142e-07
6.85020465e-07
6.85021563e-07
6.85020559e-07
6.85020894e-07
6.85021478e-07
6.850201e-07
6.85022297e-07
6.85020834e-07
6.85021696e-07
6.85020899e-07
6.85021293e-07
6.85021374e-07
6.85021425e-07
6.85020603e-07
6.85022021e-07
6.85020985e-07
6.85021181e-07
6.85020935e-07
6.85021033e-07
6.85020812e-07
6.85020455e-07
6.85021415e-07
6.85020966e-07
6.85021194e-07
6.85021262e-07
6.85021038e-07
6.85021944e-07
6.85020401e-07
6.85021153e-07
6.85021091e-07
6.8502041e-07
6.85021503e-07
6.85021077e-07
6.85020932e-07
6.85020749e-07
6.85021438e-07
6.85020989e-07
6.85020434e-07
6.85021384e-07
6.85021001e-07
6.8502055e-07
6.85020544e-07
6.85020871e-07
6.850216e-07
6.85020279e-07
6.8502183e-07
6.85020916e-07
6.85021101e-07
6.85020678e-07
6.85020815e-07
6.85021557e-07
6.85020329e-07
6.85021606e-07
6.85021093e-07
6.85021238e-07
6.85020574e-07
6.8502097e-07
6.85020448e-07
6.8502088e-07
6.85020953e-07
6.85020936e-07
6.85020699e-07
6.85020322e-07
6.85021757e-07
6.85020884e-07
6.85021015e-07
6.85020907e-07
6.85020782e-07
6.85021836e-07
6.85020706e-07
6.85021182e-07
6.85021638e-07
6.85020563e-07
6.85021173e-07
6.85020503e-07
6.85021606e-07
6.85020209e-07
6.85021913e-07
6.85019882e-07
6.85021146e-07
6.85020882e-07
6.85020752e-07
6.85021492e-07
6.85021194e-07
6.85021015e-07
6.85020962e-07
6.85020746e-07
6.85021291e-07
6.85020747e-07
6.85021088e-07
6.85020978e-07
6.85021245e-07
6.85021109e-07
6.85020924e-07
6.85020904e-07
6.85021037e-07
6.8502086e-07
6.85020968e-07
6.85021012e-07
6.85021008e-07
6.85020923e-07
6.85020938e-07
6.85020888e-07
6.85020945e-07
6.85020981e-07
6.85020948e-07
6.85020988e-07
6.85020949e-07
6.85020967e-07
6.85020961e-07
6.85020952e-07
6.85020993e-07
6.85020971e-07
6.85020937e-07
6.85020945e-07
6.85020969e-07
6.85020965e-07
6.85020967e-07
6.85020965e-07
6.85020964e-07
6.85020964e-07
6.85020964e-07
6.85020962e-07
6.85020966e-07
6.85020944e-07
6.85020971e-07
6.85020953e-07
6.85020957e-07
6.85020961e-07
6.85020962e-07
6.85020959e-07
6.85020971e-07
6.85020958e-07
6.85020962e-07
6.85020951e-07
6.85020952e-07
6.85020967e-07
6.85020963e-07
6.85020965e-07
6.85020962e-07
6.85020946e-07
6.85020964e-07
6.85020962e-07
6.8502096e-07
6.85020967e-07
6.85020954e-07
6.85020975e-07
6.85020958e-07
6.85020969e-07
6.85020956e-07
6.85020958e-07
6.85020971e-07
6.85020953e-07
6.85020953e-07
6.85020964e-07
)
;

boundaryField
{
    closed
    {
        type            calculated;
        value           uniform 0;
    }
    open
    {
        type            calculated;
        value           uniform 0;
    }
    sides
    {
        type            empty;
    }
}


// ************************************************************************* //
