/*--------------------------------*- C++ -*----------------------------------*\
| =========                 |                                                 |
| \\      /  F ield         | OpenFOAM: The Open Source CFD Toolbox           |
|  \\    /   O peration     | Version:  2206                                  |
|   \\  /    A nd           | Website:  www.openfoam.com                      |
|    \\/     M anipulation  |                                                 |
\*---------------------------------------------------------------------------*/
FoamFile
{
    version     2.0;
    format      ascii;
    arch        "LSB;label=32;scalar=64";
    class       volScalarField;
    location    "1.52e-05";
    object      p;
}
// * * * * * * * * * * * * * * * * * * * * * * * * * * * * * * * * * * * * * //

dimensions      [1 -1 -2 0 0 0 0];

internalField   nonuniform List<scalar> 
3183
(
101325
101325
101325
101325
101325
101325
101325
101325
101325
101325
101325
101325
101325
101325
101325
101325
101325
101325
101325
101325
101325
101325
101325
101325
101325
101325
101325
101325
101325
101325
101325
101325
101325
101325
101325
101325
101325
101325
101325
101325
101325
101325
101325
101325
101325
101325
101325
101325
101325
101325
101325
101325
101325
101325
101325
101325
101325
101325
101325
101325
101325
101325
101325
101325
101325
101325
101325
101325
101325
101325
101325
101325
101325
101325
101325
101325
101325
101325
101325
101325
101325
101325
101325
101325
101325
101325
101325
101325
101325
101325
101325
101325
101325
101325
101325
101325
101325
101325
101325
101325
101325
101325
101325
101325
101325
101325
101325
101325
101325
101325
101325
101325
101325
101325
101325
101325
101325
101325
101325
101325
101325
101325
101325
101325
101325
101325
101325
101325
101325
101325
101325
101325
101325
101325
101325
101325
101325
101325
101325
101325
101325
101325
101325
101325
101325
101325
101325
101325
101325
101325
101325
101325
101325
101325
101325
101325
101325
101325
101325
101325
101325
101325
101325
101325
101325
101325
101325
101325
101325
101325
101325
101325
101325
101325
101325
101325
101325
101325
101325
101325
101325
101325
101325
101325
101325
101325
101325
101325
101325
101325
101325
101325
101325
101325
101325
101325
101325
101325
101325
101325
101325
101325
101325
101325
101325
101325
101325
101325
101325
101325
101325
101325
101325
101325
101325
101325
101325
101325
101325
101325
101325
101325
101325
101325
101325
101325
101325
101325
101325
101325
101325
101325
101325
101325
101325
101325
101325
101325
101325
101325
101325
101325
101325
101325
101325
101325
101325
101325
101325
101325
101325
101325
101325
101325
101325
101325
101325
101325
101325
101325
101325
101325
101325
101325
101325
101325
101325
101325
101325
101325
101325
101325
101325
101325
101325
101325
101325
101325
101325
101325
101325
101325
101325
101325
101325
101325
101325
101325
101325
101325
101325
101325
101325
101325
101325
101325
101325
101325
101325
101325
101325
101325
101325
101325
101325
101325
101325
101325
101325
101325
101325
101325
101325
101325
101325
101325
101325
101325
101325
101325
101325
101325
101325
101325
101325
101325
101325
101325
101325
101325
101325
101325
101325
101325
101325
101325
101325
101325
101325
101325
101325
101325
101325
101325
101325
101325
101325
101325
101325
101325
101325
101325
101325
101325
101325
101325
101325
101325
101325
101325
101325
101325
101325
101325
101325
101325
101325
101325
101325
101325
101325
101325
101325
101325
101325
101325
101325
101325
101325
101325
101325
101325
101325
101325
101325
101325
101325
101325
101325
101325
101325
101325
101325
101325
101325
101325
101325
101325
101325
101325
101325
101325
101325
101325
101325
101325
101325
101325
101325
101325
101325
101325
101325
101325
101325
101325
101325
101325
101325
101325
101325
101325
101325
101325
101325
101325
101325
101325
101325
101325
101325
101325
101325
101325
101325
101325
101325
101325
101325
101325
101325
101325
101325
101325
101325
101325
101325
101325
101325
101325
101325
101325
101325
101325
101325
101325
101325
101325
101325
101325
101325
101325
101325
101325
101325
101325
101325
101325
101325
101325
101325
101325
101325
101325
101325
101325
101325
101325
101325
101325
101325
101325
101325
101325
101325
101325
101325
101325
101325
101325
101325
101325
101325
101325
101325
101325
101325
101325
101325
101325
101325
101325
101325
101325
101325
101325
101325
101325
101325
101325
101325
101325
101325
101325
101325
101325
101325
101325
101325
101325
101325
101325
101325
101325
101325
101325
101325
101325
101325
101325
101325
101325
101325
101325
101325
101325
101325
101325
101325
101325
101325
101325
101325
101325
101325
101325
101325
101325
101325
101325
101325
101325
101325
101325
101325
101325
101325
101325
101325
101325
101325
101325
101325
101325
101325
101325
101325
101325
101325
101325
101325
101325
101325
101325
101325
101325
101325
101325
101325
101325
101325
101325
101325
101325
101325
101325
101325
101325
101325
101325
101325
101325
101325
101325
101325
101325
101325
101325
101325
101325
101325
101325
101325
101325
101325
101325
101325
101325
101325
101325
101325
101325
101325
101325
101325
101325
101325
101325
101325
101325
101325
101325
101325
101325
101325
101325
101325
101325
101325
101325
101325
101325
101325
101325
101325
101325
101325
101325
101325
101325
101325
101325
101325
101325
101325
101325
101325
101325
101325
101325
101325
101325
101325
101325
101325
101325
101325
101325
101325
101325
101325
101325
101325
101325
101325
101325
101325
101325
101325
101325
101325
101325
101325
101325
101325
101325
101325
101325
101325
101325
101325
101325
101325
101325
101325
101325
101325
101325
101325
101325
101325
101325
101325
101325
101325
101325
101325
101325
101325
101325
101325
101325
101325
101325
101325
101325
101325
101325
101325
101325
101325
101325
101325
101325
101325
101325
101325
101325
101325
101325
101325
101325
101325
101325
101325
101325
101325
101325
101325
101325
101325
101325
101325
101325
101325
101325
101325
101325
101325
101325
101325
101325
101325
101325
101325
101325
101325
101325
101325
101325
101325
101325
101325
101325
101325
101325
101325
101325
101325
101325
101325
101325
101325
101325
101325
101325
101325
101325
101325
101325
101325
101325
101325
101325
101325
101325
101325
101325
101325
101325
101325
101325
101325
101325
101325
101325
101325
101325
101325
101325
101325
101325
101325
101325
101325
101325
101325
101325
101325
101325
101325
101325
101325
101325
101325
101325
101325
101325
101325
101325
101325
101325
101325
101325
101325
101325
101325
101325
101325
101325
101325
101325
101325
101325
101325
101325
101325
101325
101325
101325
101325
101325
101325
101325
101325
101325
101325
101325
101325
101325
101325
101325
101325
101325
101325
101325
101325
101325
101325
101325
101325
101325
101325
101325
101325
101325
101325
101325
101325
101325
101325
101325
101325
101325
101325
101325
101325
101325
101325
101325
101325
101325
101325
101325
101325
101325
101325
101325
101325
101325
101325
101325
101325
101325
101325
101325
101325
101325
101325
101325
101325
101325
101325
101325
101325
101325
101325
101325
101325
101325
101325
101325
101325
101325
101325
101325
101325
101325
101325
101325
101325
101325
101325
101325
101325
101325
101325
101325
101325
101325
101325
101325
101325
101325
101325
101325
101325
101325
101325
101325
101325
101325
101325
101325
101325
101325
101325
101325
101325
101325
101325
101325
101325
101325
101325
101325
101325
101325
101325
101325
101325
101325
101325
101325
101325
101325
101325
101325
101325
101325
101325
101325
101325
101325
101325
101325
101325
101325
101325
101325
101325
101325
101325
101325
101325
101325
101325
101325
101325
101325
101325
101325
101325
101325
101325
101325
101325
101325
101325
101325
101325
101325
101325
101325
101325
101325
101325
101325
101325
101325
101325
101325
101325
101325
101325
101325
101325
101325
101325
101325
101325
101325
101325
101325
101325
101325
101325
101325
101325
101325
101325
101325
101325
101325
101325
101325
101325
101325
101325
101325
101325
101325
101325
101325
101325
101325
101325
101325
101325
101325
101325
101325
101325
101325
101325
101325
101325
101325
101325
101325
101325
101325
101325
101325
101325
101325
101325
101325
101325
101325
101325
101325
101325
101325
101325
101325
101325
101325
101325
101325
101325
101325
101325
101325
101325
101325
101325
101325
101325
101325
101325
101325
101325
101325
101325
101325
101325
101325
101325
101325
101325
101325
101325
101325
101325
101325
101325
101325
101325
101325
101325
101325
101325
101325
101325
101325
101325
101325
101325
101325
101325
101325
101325
101325
101325
101325
101325
101325
101325
101325
101325
101325
101325
101325
101325
101325
101325
101325
101325
101325
101325
101325
101325
101325
101325
101325
101325
101325
101325
101325
101325
101325
101325
101325
101325
101325
101325
101325
101325
101325
101325
101325
101325
101325
101325
101325
101325
101325
101325
101325
101325
101325
101325
101325
101325
101325
101325
101325
101325
101325
101325
101325
101325
101325
101325
101325
101325
101325
101325
101325
101325
101325
101325
101325
101325
101325
101325
101325
101325
101325
101325
101325
101325
101325
101325
101325
101325
101325
101325
101325
101325
101325
101325
101325
101325
101325
101325
101325
101325
101325
101325
101325
101325
101325
101325
101325
101325
101325
101325
101325
101325
101325
101325
101325
101325
101325
101325
101325
101325
101325
101325
101325
101325
101325
101325
101325
101325
101325
101325
101325
101325
101325
101325
101325
101325
101325
101325
101325
101325
101325
101325
101325
101325
101325
101325
101325
101325
101325
101325
101325
101325
101325
101325
101325
101325
101325
101325
101325
101325
101325
101325
101325
101325
101325
101325
101325
101325
101325
101325
101325
101325
101325
101325
101325
101325
101325
101325
101325
101325
101325
101325
101325
101325
101325
101325
101325
101325
101325
101325
101325
101325
101325
101325
101325
101325
101325
101325
101325
101325
101325
101325
101325
101325
101325
101325
101325
101325
101325
101325
101325
101325
101325
101325
101325
101325
101325
101325
101325
101325
101325
101325
101325
101325
101325
101325
101325
101325
101325
101325
101325
101325
101325
101325
101325
101325
101325
101325
101325
101325
101325
101325
101325
101325
101325
101325
101325
101325
101325
101325
101325
101325
101325
101325
101325
101325
101325
101325
101325
101325
101325
101325
101325
101325
101325
101325
101325
101325
101325
101325
101325
101325
101325
101325
101325
101325
101325
101325
101325
101325
101325
101325
101325
101325
101325
101325
101325
101325
101325
101325
101325
101325
101325
101325
101325
101325
101325
101325
101325
101325
101325
101325
101325
101325
101325
101325
101325
101325
101325
101325
101325
101325
101325
101325
101325
101325
101325
101325
101325
101325
101325
101325
101325
101325
101325
101325
101325
101325
101325
101325
101325
101325
101325
101325
101325
101325
101325
101325
101325
101325
101325
101325
101325
101325
101325
101325
101325
101325
101325
101325
101325
101325
101325
101325
101325
101325
101325
101325
101325
101325
101325
101325
101325
101325
101325
101325
101325
101325
101325
101325
101325
101325
101325
101325
101325
101325
101325
101325
101325
101325
101325
101325
101325
101325
101325
101325
101325
101325
101325
101325
101325
101325
101325
101325
101325
101325
101325
101325
101325
101325
101325
101325
101325
101325
101325
101325
101325
101325
101325
101325
101325
101325
101325
101325
101325
101325
101325
101325
101325
101325
101325
101325
101325
101325
101325
101325
101325
101325
101325
101325
101325
101325
101325
101325
101325
101325
101325
101325
101325
101325
101325
101325
101325
101325
101325
101325
101325
101325
101325
101325
101325
101325
101325
101325
101325
101325
101325
101325
101325
101325
101325
101325
101325
101325
101325
101325
101325
101325
101325
101325
101325
101325
101325
101325
101325
101325
101325
101325
101325
101325
101325
101325
101325
101325
101325
101325
101325
101325
101325
101325
101325
101325
101325
101325
101325
101325
101325
101325
101325
101325
101325
101325
101325
101325
101325
101325
101325
101325
101325
101325
101325
101325
101325
101325
101325
101325
101325
101325
101325
101325
101325
101325
101325
101325
101325
101325
101325
101325
101325
101325
101325
101325
101325
101325
101325
101325
101325
101325
101325
101325
101325
101325
101325
101325
101325
101325
101325
101325
101325
101325
101325
101325
101325
101325
101325
101325
101325
101325
101325
101325
101325
101325
101325
101325
101325
101325
101325
101325
101325
101325
101325
101325
101325
101325
101325
101325
101325
101325
101325
101325
101325
101325
101325
101325
101325
101325
101325
101325
101325
101325
101325
101325
101325
101325
101325
101325
101325
101325
101325
101325
101325
101325
101325
101325
101325
101325
101325
101325
101325
101325
101325
101325
101325
101325
101325
101325
101325
101325
101325
101325
101325
101325
101325
101325
101325
101325
101325
101325
101325
101325
101325
101325
101325
101325
101325
101325
101325
101325
101325
101325
101325
101325
101325
101325
101325
101325
101325
101325
101325
101325
101325
101325
101325
101325
101325
101325
101325
101325
101325
101325
101325
101325
101325
101325
101325
101325
101325
101325
101325
101325
101325
101325
101325
101325
101325
101325
101325
101325
101325
101325
101325
101325
101325
101325
101325
101325
101325
101325
101325
101325
101325
101325
101325
101325
101325
101325
101325
101325
101325
101325
101325
101325
101325
101325
101325
101325
101325
101325
101325
101325
101325
101325
101325
101325
101325
101325
101325
101325
101325
101325
101325
101325
101325
101325
101325
101325
101325
101325
101325
101325
101325
101325
101325
101325
101325
101325
101325
101325
101325
101325
101325
101325
101324.999
101324.999
101324.999
101324.999
101324.999
101324.999
101324.999
101324.999
101324.999
101324.999
101324.999
101324.999
101324.999
101324.999
101324.999
101324.999
101324.999
101324.999
101324.998
101324.998
101324.998
101324.998
101324.998
101324.998
101324.998
101324.998
101324.998
101324.997
101324.997
101324.997
101324.997
101324.997
101324.996
101324.996
101324.996
101324.996
101324.996
101324.995
101324.995
101324.995
101324.994
101324.994
101324.994
101324.993
101324.993
101324.993
101324.992
101324.992
101324.991
101324.991
101324.99
101324.99
101324.989
101324.989
101324.988
101324.987
101324.987
101324.986
101324.985
101324.984
101324.983
101324.982
101324.981
101324.98
101324.979
101324.978
101324.977
101324.976
101324.975
101324.973
101324.972
101324.97
101324.969
101324.967
101324.965
101324.963
101324.962
101324.96
101324.957
101324.955
101324.953
101324.951
101324.948
101324.945
101324.942
101324.94
101324.936
101324.933
101324.93
101324.926
101324.923
101324.919
101324.915
101324.911
101324.906
101324.901
101324.897
101324.892
101324.886
101324.881
101324.875
101324.869
101324.863
101324.856
101324.849
101324.842
101324.835
101324.827
101324.819
101324.81
101324.801
101324.792
101324.782
101324.772
101324.762
101324.751
101324.74
101324.728
101324.716
101324.703
101324.689
101324.676
101324.661
101324.646
101324.63
101324.614
101324.597
101324.58
101324.562
101324.543
101324.523
101324.502
101324.481
101324.459
101324.436
101324.413
101324.388
101324.363
101324.336
101324.309
101324.28
101324.251
101324.22
101324.189
101324.156
101324.122
101324.087
101324.051
101324.013
101323.974
101323.934
101323.893
101323.85
101323.805
101323.759
101323.712
101323.663
101323.613
101323.561
101323.507
101323.451
101323.394
101323.335
101323.274
101323.211
101323.147
101323.08
101323.012
101322.941
101322.868
101322.793
101322.716
101322.637
101322.555
101322.472
101322.386
101322.297
101322.206
101322.113
101322.017
101321.918
101321.817
101321.713
101321.607
101321.498
101321.386
101321.271
101321.154
101321.034
101320.91
101320.784
101320.655
101320.523
101320.388
101320.249
101320.108
101319.963
101319.816
101319.665
101319.511
101319.354
101319.193
101319.03
101318.862
101318.692
101318.519
101318.342
101318.161
101317.978
101317.791
101317.601
101317.407
101317.21
101317.01
101316.806
101316.6
101316.39
101316.176
101315.96
101315.74
101315.517
101315.291
101315.062
101314.829
101314.594
101314.355
101314.114
101313.87
101313.623
101313.373
101313.12
101312.865
101312.607
101312.347
101312.084
101311.819
101311.552
101311.282
101311.01
101310.737
101310.461
101310.184
101309.905
101309.624
101309.342
101309.058
101308.773
101308.487
101308.2
101307.912
101307.624
101307.335
101307.045
101306.755
101306.465
101306.174
101305.884
101305.594
101305.305
101305.016
101304.727
101304.44
101304.153
101303.868
101303.584
101303.302
101303.021
101302.742
101302.465
101302.19
101301.917
101301.647
101301.38
101301.115
101300.853
101300.595
101300.339
101300.087
101299.839
101299.594
101299.354
101299.117
101298.884
101298.656
101298.432
101298.213
101297.999
101297.789
101297.585
101297.385
101297.191
101297.003
101296.819
101296.642
101296.47
101296.304
101296.143
101295.989
101295.841
101295.699
101295.563
101295.433
101295.31
101295.193
101295.082
101294.978
101294.881
101294.79
101294.705
101294.628
101294.556
101294.492
101294.434
101294.382
101294.337
101294.299
101294.267
101294.242
101294.223
101294.21
101294.204
101294.204
101294.21
101294.223
101294.241
101294.266
101294.296
101294.333
101294.374
101294.422
101294.475
101294.534
101294.597
101294.666
101294.74
101294.819
101294.902
101294.99
101295.083
101295.18
101295.281
101295.387
101295.496
101295.609
101295.725
101295.845
101295.968
101296.094
101296.224
101296.356
101296.491
101296.628
101296.767
101296.909
101297.053
101297.198
101297.346
101297.494
101297.645
101297.796
101297.948
101298.102
101298.256
101298.411
101298.566
101298.722
101298.878
101299.034
101299.19
101299.346
101299.502
101299.657
101299.812
101299.966
101300.119
101300.272
101300.423
101300.574
101300.723
101300.872
101301.019
101301.164
101301.309
101301.451
101301.593
101301.732
101301.87
101302.006
101302.141
101302.273
101302.404
101302.533
101302.66
101302.785
101302.908
101303.029
101303.148
101303.265
101303.38
101303.493
101303.603
101303.712
101303.819
101303.924
101304.027
101304.128
101304.226
101304.323
101304.418
101304.511
101304.602
101304.691
101304.779
101304.864
101304.948
101305.03
101305.11
101305.189
101305.266
101305.341
101305.415
101305.487
101305.558
101305.627
101305.695
101305.762
101305.827
101305.891
101305.953
101306.015
101306.075
101306.134
101306.193
101306.25
101306.306
101306.361
101306.415
101306.469
101306.521
101306.573
101306.624
101306.674
101306.724
101306.773
101306.822
101306.869
101306.917
101306.964
101307.01
101307.056
101307.101
101307.146
101307.191
101307.235
101307.279
101307.323
101307.366
101307.41
101307.453
101307.495
101307.538
101307.58
101307.622
101307.664
101307.706
101307.748
101307.789
101307.831
101307.872
101307.913
101307.954
101307.995
101308.036
101308.077
101308.117
101308.158
101308.198
101308.238
101308.278
101308.318
101308.358
101308.398
101308.437
101308.476
101308.515
101308.554
101308.593
101308.632
101308.67
101308.708
101308.746
101308.783
101308.82
101308.857
101308.894
101308.93
101308.966
101309.001
101309.036
101309.071
101309.106
101309.14
101309.173
101309.206
101309.239
101309.271
101309.303
101309.334
101309.365
101309.395
101309.424
101309.454
101309.482
101309.51
101309.538
101309.565
101309.591
101309.617
101309.643
101309.667
101309.692
101309.715
101309.738
101309.761
101309.783
101309.805
101309.826
101309.846
101309.866
101309.886
101309.905
101309.923
101309.941
101309.959
101309.976
101309.993
101310.01
101310.026
101310.041
101310.057
101310.072
101310.087
101310.101
101310.115
101310.129
101310.143
101310.157
101310.17
101310.184
101310.197
101310.21
101310.223
101310.236
101310.249
101310.262
101310.275
101310.288
101310.301
101310.315
101310.328
101310.341
101310.355
101310.369
101310.383
101310.397
101310.412
101310.426
101310.441
101310.457
101310.472
101310.488
101310.504
101310.521
101310.538
101310.555
101310.572
101310.59
101310.608
101310.627
101310.646
101310.665
101310.685
101310.705
101310.725
101310.746
101310.767
101310.788
101310.81
101310.832
101310.854
101310.876
101310.899
101310.921
101310.944
101310.968
101310.991
101311.014
101311.038
101311.062
101311.085
101311.109
101311.133
101311.156
101311.18
101311.203
101311.227
101311.25
101311.273
101311.296
101311.319
101311.341
101311.364
101311.386
101311.407
101311.429
101311.45
101311.471
101311.491
101311.511
101311.531
101311.55
101311.569
101311.588
101311.606
101311.623
101311.641
101311.657
101311.674
101311.69
101311.706
101311.721
101311.736
101311.751
101311.765
101311.779
101311.792
101311.806
101311.819
101311.831
101311.844
101311.856
101311.868
101311.88
101311.891
101311.903
101311.914
101311.925
101311.936
101311.947
101311.957
101311.968
101311.979
101311.989
101312
101312.01
101312.02
101312.031
101312.041
101312.052
101312.062
101312.072
101312.083
101312.093
101312.104
101312.114
101312.125
101312.135
101312.146
101312.156
101312.167
101312.178
101312.188
101312.199
101312.21
101312.22
101312.231
101312.241
101312.252
101312.263
101312.273
101312.284
101312.294
101312.304
101312.315
101312.325
101312.335
101312.345
101312.354
101312.364
101312.374
101312.383
101312.392
101312.401
101312.41
101312.418
101312.427
101312.435
101312.443
101312.451
101312.458
101312.465
101312.472
101312.479
101312.486
101312.493
101312.499
101312.505
101312.511
101312.517
101312.523
101312.529
101312.535
101312.541
101312.547
101312.553
101312.559
101312.565
101312.572
101312.579
101312.586
101312.594
101312.602
101312.61
101312.619
101312.629
101312.639
101312.649
101312.66
101312.671
101312.683
101312.695
101312.708
101312.722
101312.735
101312.749
101312.763
101312.778
101312.792
101312.807
101312.821
101312.836
101312.85
101312.864
101312.877
101312.89
101312.901
101312.913
101312.924
101312.934
101312.942
101312.938
101312.914
101313.255
101313.411
101313.328
101312.76
101312.649
101312.612
101312.694
101312.727
101312.807
101312.833
101312.886
101312.901
101312.919
101312.919
101312.918
101312.913
101312.907
101312.899
101312.892
101312.884
101312.877
101312.869
101312.861
101312.853
101312.846
101312.838
101312.83
101312.822
101312.814
101312.806
101312.798
101312.791
101312.783
101312.775
101312.767
101312.76
101312.752
101312.745
101312.737
101312.73
101312.723
101312.716
101312.709
101312.702
101312.695
101312.689
101312.683
101312.676
101312.67
101312.664
101312.659
101312.653
101312.648
101312.642
101312.637
101312.632
101312.627
101312.623
101312.618
101312.614
101312.609
101312.605
101312.601
101312.597
101312.593
101312.59
101312.586
101312.583
101312.579
101312.576
101312.573
101312.57
101312.566
101312.563
101312.56
101312.557
101312.554
101312.552
101312.549
101312.546
101312.543
101312.54
101312.537
101312.535
101312.532
101312.529
101312.526
101312.523
101312.52
101312.517
101312.514
101312.511
101312.508
101312.505
101312.502
101312.499
101312.496
101312.493
101312.489
101312.486
101312.482
101312.479
101312.475
101312.472
101312.468
101312.464
101312.461
101312.457
101312.453
101312.449
101312.445
101312.441
101312.437
101312.433
101312.429
101312.424
101312.42
101312.416
101312.411
101312.407
101312.402
101312.397
101312.393
101312.388
101312.383
101312.379
101312.374
101312.369
101312.364
101312.359
101312.354
101312.349
101312.344
101312.339
101312.334
101312.329
101312.323
101312.318
101312.313
101312.308
101312.302
101312.297
101312.292
101312.286
101312.281
101312.275
101312.27
101312.264
101312.259
101312.253
101312.248
101312.242
101312.237
101312.231
101312.226
101312.22
101312.215
101312.209
101312.203
101312.198
101312.192
101312.186
101312.181
101312.175
101312.17
101312.164
101312.158
101312.153
101312.147
101312.141
101312.136
101312.13
101312.124
101312.118
101312.113
101312.107
101312.101
101312.096
101312.09
101312.084
101312.079
101312.073
101312.067
101312.061
101312.056
101312.05
101312.044
101312.038
101312.033
101312.027
101312.021
101312.016
101312.01
101312.004
101311.998
101311.992
101311.987
101311.981
101311.975
101311.969
101311.963
101311.958
101311.952
101311.946
101311.94
101311.934
101311.928
101311.922
101311.916
101311.91
101311.904
101311.898
101311.892
101311.886
101311.879
101311.873
101311.867
101311.861
101311.854
101311.848
101311.841
101311.835
101311.828
101311.822
101311.815
101311.808
101311.801
101311.795
101311.788
101311.781
101311.774
101311.766
101311.759
101311.752
101311.745
101311.737
101311.73
101311.722
101311.715
101311.707
101311.699
101311.691
101311.683
101311.675
101311.667
101311.658
101311.65
101311.642
101311.633
101311.624
101311.616
101311.607
101311.598
101311.589
101311.58
101311.571
101311.561
101311.552
101311.542
101311.533
101311.523
101311.513
101311.503
101311.493
101311.483
101311.473
101311.463
101311.453
101311.442
101311.432
101311.421
101311.41
101311.399
101311.389
101311.378
101311.367
101311.356
101311.344
101311.333
101311.322
101311.311
101311.299
101311.288
101311.276
101311.265
101311.253
101311.241
101311.23
101311.218
101311.206
101311.194
101311.182
101311.171
101311.159
101311.147
101311.135
101311.123
101311.111
101311.099
101311.087
101311.075
101311.063
101311.051
101311.039
101311.027
101311.015
101311.003
101310.991
101310.979
101310.967
101310.955
101310.943
101310.931
101310.919
101310.908
101310.896
101310.884
101310.873
101310.861
101310.849
101310.838
101310.827
101310.815
101310.804
101310.793
101310.781
101310.77
101310.759
101310.748
101310.737
101310.727
101310.716
101310.705
101310.694
101310.684
101310.673
101310.663
101310.653
101310.642
101310.632
101310.622
101310.612
101310.602
101310.592
101310.583
101310.573
101310.563
101310.554
101310.544
101310.535
101310.526
101310.517
101310.507
101310.498
101310.489
101310.481
101310.472
101310.463
101310.454
101310.446
101310.437
101310.429
101310.42
101310.412
101310.404
101310.396
101310.387
101310.379
101310.371
101310.363
101310.355
101310.348
101310.34
101310.332
101310.324
101310.317
101310.309
101310.301
101310.294
101310.286
101310.279
101310.271
101310.264
101310.256
101310.249
101310.242
101310.234
101310.227
101310.22
101310.212
101310.205
101310.198
101310.19
101310.183
101310.176
101310.168
101310.161
101310.153
101310.146
101310.139
101310.131
101310.124
101310.116
101310.109
101310.101
101310.093
101310.086
101310.078
101310.07
101310.063
101310.055
101310.047
101310.039
101310.031
101310.023
101310.015
101310.006
101309.998
101309.99
101309.981
101309.973
101309.964
101309.956
101309.947
101309.938
101309.929
101309.92
101309.911
101309.902
101309.893
101309.883
101309.874
101309.864
101309.854
101309.845
101309.835
101309.825
101309.814
101309.804
101309.794
101309.783
101309.773
101309.762
101309.751
101309.74
101309.729
101309.718
101309.706
101309.695
101309.683
101309.672
101309.66
101309.648
101309.636
101309.623
101309.611
101309.598
101309.586
101309.573
101309.56
101309.547
101309.534
101309.521
101309.507
101309.493
101309.48
101309.466
101309.452
101309.438
101309.423
101309.409
101309.395
101309.38
101309.365
101309.35
101309.335
101309.32
101309.305
101309.289
101309.273
101309.258
101309.242
101309.226
101309.21
101309.194
101309.177
101309.161
101309.144
101309.128
101309.111
101309.094
101309.077
101309.06
101309.042
101309.025
101309.007
101308.99
101308.972
101308.954
101308.936
101308.918
101308.9
101308.882
101308.863
101308.843
101308.821
101308.797
101308.771
101308.744
101308.714
101308.682
101308.647
101308.609
101308.569
101308.526
101308.478
101308.428
101308.373
101308.314
101308.25
101308.181
101308.107
101308.027
101307.941
101307.848
101307.747
101307.639
101307.522
101307.396
101307.259
101307.11
101306.948
101306.769
101306.571
101306.348
101306.094
101305.801
101305.457
101305.045
101304.545
101303.932
101303.175
101302.242
101301.104
101299.746
101298.183
101296.489
101294.82
101293.433
101292.686
101292.984
101294.67
101297.881
101302.419
101307.727
101313.014
101317.534
101320.86
101322.968
101324.12
101324.664
101324.887
101324.967
101324.992
101324.998
101325
101325
101325.001
101325.001
101325.001
101325.001
101325.001
101325.001
101325.001
101325.001
101325.001
101325.001
101325
101325
101325
)
;

boundaryField
{
    closed
    {
        type            zeroGradient;
    }
    open
    {
        type            waveTransmissive;
        gamma           1.25;
        fieldInf        101325;
        lInf            1;
        value           uniform 101325;
    }
    sides
    {
        type            empty;
    }
}


// ************************************************************************* //
