/*--------------------------------*- C++ -*----------------------------------*\
| =========                 |                                                 |
| \\      /  F ield         | OpenFOAM: The Open Source CFD Toolbox           |
|  \\    /   O peration     | Version:  2206                                  |
|   \\  /    A nd           | Website:  www.openfoam.com                      |
|    \\/     M anipulation  |                                                 |
\*---------------------------------------------------------------------------*/
FoamFile
{
    version     2.0;
    format      ascii;
    arch        "LSB;label=32;scalar=64";
    class       surfaceScalarField;
    location    "1.52e-05";
    object      phi;
}
// * * * * * * * * * * * * * * * * * * * * * * * * * * * * * * * * * * * * * //

dimensions      [1 0 -1 0 0 0 0];

oriented        oriented;

internalField   nonuniform List<scalar> 
3182
(
5.41577459e-18
-2.24260011e-18
-2.05790079e-18
-2.0716041e-18
-6.47325346e-21
-3.54267013e-23
-2.50546568e-24
3.83629795e-26
4.61488708e-24
7.86770495e-23
9.19255393e-20
3.97793424e-18
3.61102935e-18
6.93242443e-19
1.39078886e-18
-1.1841746e-18
-4.38152855e-18
-4.86160616e-18
-4.61636404e-18
4.27791134e-18
6.87846693e-20
1.94296288e-21
1.17730827e-18
2.36215723e-18
4.07899102e-18
2.72743674e-18
7.84922969e-18
1.77723959e-18
-8.01532022e-20
7.06786098e-19
-1.0477252e-18
-2.01318258e-18
-5.65134959e-18
-6.70857846e-18
-4.82679188e-18
-5.66879986e-18
-5.28062575e-18
-5.69325001e-18
-7.54590838e-18
-5.31979634e-18
-3.56798288e-18
-2.00340817e-19
2.49636666e-18
3.54575442e-18
4.15408769e-18
6.50571558e-18
8.33888397e-18
9.85803581e-18
1.10570431e-17
1.24844332e-17
1.1506021e-17
9.58398303e-18
7.81662882e-18
5.54269497e-18
2.61172194e-18
-1.89095581e-19
-2.80367109e-18
-6.48285601e-18
-8.23578209e-18
-1.08534226e-17
-1.30135148e-17
-1.52203789e-17
-1.76534986e-17
-2.02130409e-17
-2.23161686e-17
-2.47098835e-17
-2.73276541e-17
-2.90484344e-17
-3.12309911e-17
-3.13024357e-17
-3.21238143e-17
-3.41063748e-17
-3.29026005e-17
-3.43856917e-17
-3.52661676e-17
-3.52625377e-17
-3.53610553e-17
-3.5339974e-17
-3.45045134e-17
-3.61166709e-17
-3.57476642e-17
-3.64810771e-17
-3.78450081e-17
-3.78454109e-17
-3.74867909e-17
-3.87462387e-17
-3.83612615e-17
-3.93802029e-17
-3.81439517e-17
-4.06238648e-17
-4.3644897e-17
-4.40285606e-17
-4.27359455e-17
-4.35182575e-17
-4.50895664e-17
-4.75835588e-17
-4.79488662e-17
-5.06089292e-17
-4.74115198e-17
-4.57340659e-17
-4.76948505e-17
-4.52271373e-17
-4.77779974e-17
-4.41226524e-17
-4.71822725e-17
-4.81551846e-17
-5.02259954e-17
-4.99317959e-17
-5.18647967e-17
-5.23794152e-17
-5.43330839e-17
-5.24685562e-17
-5.13331362e-17
-5.36672358e-17
-5.27895449e-17
-5.59138264e-17
-5.40105318e-17
-5.66434529e-17
-5.76183383e-17
-5.81823154e-17
-6.16194959e-17
-6.36473125e-17
-6.47240245e-17
-6.20289765e-17
-6.14944965e-17
-5.86694264e-17
-5.97917631e-17
-5.83970498e-17
-5.62367985e-17
-6.10072255e-17
-5.76211599e-17
-5.84441218e-17
-5.99847975e-17
-6.01182086e-17
-6.11675682e-17
-5.9531565e-17
-6.13654385e-17
-6.03261336e-17
-6.07178489e-17
-6.17820538e-17
-5.96091793e-17
-6.34609947e-17
-6.72444099e-17
-6.86374417e-17
-6.59307461e-17
-6.82438935e-17
-6.96392464e-17
-6.84626029e-17
-6.88614199e-17
-6.9816231e-17
-7.04417072e-17
-7.26773989e-17
-7.29331384e-17
-7.6076532e-17
-7.50006871e-17
-7.46484329e-17
-7.49923348e-17
-7.31720425e-17
-7.39570333e-17
-7.55794348e-17
-7.7787208e-17
-7.82138545e-17
-7.7611517e-17
-8.0964537e-17
-8.1214136e-17
-7.71735986e-17
-7.53383996e-17
-7.61441058e-17
-7.438757e-17
-7.23188036e-17
-7.75854218e-17
-7.65936763e-17
-7.71222413e-17
-7.34866254e-17
-7.59339411e-17
-7.56257097e-17
-7.75036029e-17
-7.69999848e-17
-7.48615175e-17
-7.672979e-17
-7.8322873e-17
-7.90674483e-17
-7.94534253e-17
-8.28434097e-17
-7.68784172e-17
-8.13532625e-17
-7.764925e-17
-8.03660602e-17
-7.82094593e-17
-8.10263164e-17
-8.09179688e-17
-8.34997008e-17
-8.17031396e-17
-8.44870493e-17
-8.41404116e-17
-8.36452797e-17
-8.28558886e-17
-8.32932811e-17
-8.34529622e-17
-8.4985191e-17
-8.68097755e-17
-8.65836852e-17
-8.70348315e-17
-8.82137163e-17
-8.9349707e-17
-8.85083874e-17
-8.88317788e-17
-8.92398536e-17
-8.67393464e-17
-9.05690927e-17
-9.12721353e-17
-9.03860263e-17
-8.97565704e-17
-9.09079857e-17
-8.97965786e-17
-9.15156272e-17
-8.91786319e-17
-9.21328744e-17
-9.40112203e-17
-8.94413844e-17
-9.10919031e-17
-9.39261804e-17
-9.49771578e-17
-9.53767983e-17
-9.72671497e-17
-9.49847514e-17
-9.78930255e-17
-9.96054213e-17
-9.98489968e-17
-9.99799022e-17
-1.01020727e-16
-1.02602666e-16
-1.01921075e-16
-1.0508296e-16
-1.0438813e-16
-1.01605806e-16
-1.01300732e-16
-1.03661739e-16
-1.03585197e-16
-1.05683659e-16
-1.08245663e-16
-1.06167894e-16
-1.06306093e-16
-1.04169364e-16
-1.04465081e-16
-1.03545506e-16
-1.04290077e-16
-1.04681344e-16
-1.06540264e-16
-1.04430381e-16
-1.02974122e-16
-1.05037658e-16
-1.04966093e-16
-1.05902455e-16
-1.06523359e-16
-1.07999456e-16
-1.09714587e-16
-1.10268823e-16
-1.12327413e-16
-1.12123653e-16
-1.13705609e-16
-1.12913182e-16
-1.13352065e-16
-1.13188008e-16
-1.13111339e-16
-1.14167482e-16
-1.13584543e-16
-1.11862805e-16
-1.12591595e-16
-1.14269206e-16
-1.14540792e-16
-1.16252356e-16
-1.14097928e-16
-1.14291867e-16
-1.1265362e-16
-1.11454882e-16
-1.1299289e-16
-1.10722621e-16
-1.13062039e-16
-1.14602778e-16
-1.17517962e-16
-1.1399819e-16
-1.15260568e-16
-1.1539841e-16
-1.17607216e-16
-1.18755599e-16
-1.1630724e-16
-1.16310331e-16
-1.15946974e-16
-1.14403102e-16
-1.1555923e-16
-1.14694387e-16
-1.2012581e-16
-1.19319157e-16
-1.21700239e-16
-1.2282556e-16
-1.16320296e-16
-1.20607637e-16
-1.1770938e-16
-1.19522712e-16
-1.16993062e-16
-1.1422397e-16
-1.16965209e-16
-1.13858262e-16
-1.14298387e-16
-1.15697509e-16
-1.16722516e-16
-1.15899036e-16
-1.19395233e-16
-1.22457275e-16
-1.24346547e-16
-1.23585065e-16
-1.19922623e-16
-1.22186223e-16
-1.24415191e-16
-1.27510491e-16
-1.27717956e-16
-1.2542715e-16
-1.2300435e-16
-1.20904745e-16
-1.19704814e-16
-1.21478138e-16
-1.20011815e-16
-1.22988544e-16
-1.21518499e-16
-1.21066165e-16
-1.22014846e-16
-1.21987538e-16
-1.2252309e-16
-1.25376201e-16
-1.23906977e-16
-1.2311393e-16
-1.20684175e-16
-1.18838566e-16
-1.16878184e-16
-1.17367364e-16
-1.20136052e-16
-1.20444001e-16
-1.23339188e-16
-1.20492105e-16
-1.18606192e-16
-1.19173914e-16
-1.16571149e-16
-1.1425794e-16
-1.14922329e-16
-1.15527255e-16
-1.14544217e-16
-1.17898588e-16
-1.15590417e-16
-1.12655974e-16
-1.14676392e-16
-1.10240861e-16
-1.09682308e-16
-1.11550859e-16
-1.1182206e-16
-1.14473366e-16
-1.13088966e-16
-1.1622835e-16
-1.15736527e-16
-1.14834237e-16
-1.1229476e-16
-1.13262458e-16
-1.17618263e-16
-1.15590645e-16
-1.17325596e-16
-1.16807499e-16
-1.15710149e-16
-1.16489525e-16
-1.15274173e-16
-1.17664439e-16
-1.15540272e-16
-1.1534253e-16
-1.16937839e-16
-1.17384504e-16
-1.1979664e-16
-1.15859924e-16
-1.13753621e-16
-1.12003325e-16
-1.11825531e-16
-1.13584079e-16
-1.11917694e-16
-1.11383612e-16
-1.13605042e-16
-1.09736254e-16
-1.1074442e-16
-1.09567672e-16
-1.12798233e-16
-1.13648222e-16
-1.14865162e-16
-1.1291404e-16
-1.10604083e-16
-1.0961491e-16
-1.10053743e-16
-1.10897387e-16
-1.08229159e-16
-1.11009965e-16
-1.06963346e-16
-1.06891654e-16
-1.06584034e-16
-1.08809198e-16
-1.08401072e-16
-1.07036152e-16
-1.10328685e-16
-1.14261663e-16
-1.08342342e-16
-1.08425629e-16
-1.09241771e-16
-1.05335964e-16
-1.03462451e-16
-1.00272754e-16
-1.00364544e-16
-9.8900181e-17
-9.72955893e-17
-9.86555855e-17
-9.82237499e-17
-9.76921294e-17
-9.89460823e-17
-9.82789956e-17
-9.56308877e-17
-9.60124267e-17
-9.66365561e-17
-9.22099986e-17
-9.02632748e-17
-8.92716486e-17
-8.97712385e-17
-9.0081968e-17
-8.96943273e-17
-8.64817643e-17
-8.5286183e-17
-8.63844655e-17
-8.51704187e-17
-8.79032937e-17
-8.70257918e-17
-8.22012963e-17
-8.02270482e-17
-7.93173936e-17
-7.98783571e-17
-7.64202414e-17
-7.90355203e-17
-7.72140598e-17
-7.75608655e-17
-7.86443619e-17
-8.22787869e-17
-8.20062215e-17
-8.07486037e-17
-8.16652245e-17
-7.79057536e-17
-8.04311068e-17
-7.56290163e-17
-7.58553975e-17
-7.50851372e-17
-7.61474229e-17
-7.52983099e-17
-7.37840772e-17
-7.39843494e-17
-7.56729098e-17
-7.25976466e-17
-7.27199952e-17
-7.3666466e-17
-7.26982374e-17
-6.93487942e-17
-6.94131143e-17
-6.74028319e-17
-6.64357201e-17
-6.54693012e-17
-6.45593838e-17
-6.38626401e-17
-6.4140332e-17
-6.46096322e-17
-5.88076633e-17
-6.18438543e-17
-5.97836033e-17
-5.75239718e-17
-5.71286883e-17
-5.46455565e-17
-5.92949653e-17
-5.75400198e-17
-6.03550655e-17
-5.58200651e-17
-5.53378021e-17
-5.30956049e-17
-5.35631128e-17
-5.39365643e-17
-5.48285856e-17
-5.61556296e-17
-5.45160455e-17
-5.3332647e-17
-5.1632209e-17
-5.36121212e-17
-4.9593174e-17
-5.12741245e-17
-5.35215395e-17
-5.43157709e-17
-5.59069495e-17
-5.61788926e-17
-5.8522236e-17
-5.69143977e-17
-5.58537667e-17
-5.46946983e-17
-5.17761615e-17
-5.24500028e-17
-5.09046639e-17
-5.18529941e-17
-5.22671406e-17
-5.1466956e-17
-5.21740859e-17
-5.08058315e-17
-4.82134874e-17
-4.82774894e-17
-4.52176329e-17
-4.72745619e-17
-4.64619211e-17
-4.28134156e-17
-4.52842566e-17
-4.01457779e-17
-3.86058459e-17
-4.00569131e-17
-4.03751564e-17
-3.70017432e-17
-3.60794169e-17
-3.28705897e-17
-3.31749289e-17
-2.9654349e-17
-2.78998924e-17
-2.98110682e-17
-3.0456092e-17
-3.36242679e-17
-3.37495399e-17
-3.25623444e-17
-3.5207985e-17
-3.07070507e-17
-3.42706605e-17
-3.65538262e-17
-3.79286613e-17
-3.48081649e-17
-3.3939426e-17
-3.5861537e-17
-3.58643178e-17
-3.18373258e-17
-3.16808271e-17
-3.16077982e-17
-2.91066866e-17
-2.86072326e-17
-2.95615001e-17
-2.86867916e-17
-2.86852056e-17
-2.53234979e-17
-2.68626092e-17
-2.53303878e-17
-2.39664214e-17
-2.22544009e-17
-2.60592976e-17
-2.79665053e-17
-2.70784577e-17
-2.73603908e-17
-2.60484015e-17
-2.46270754e-17
-2.55624755e-17
-2.7008392e-17
-2.65565673e-17
-2.71308086e-17
-2.42867303e-17
-2.30105958e-17
-2.24424365e-17
-2.16819618e-17
-2.14167254e-17
-2.20520879e-17
-2.00753037e-17
-2.20188658e-17
-1.6984646e-17
-1.69930798e-17
-1.74351786e-17
-1.71832921e-17
-1.50362871e-17
-1.75161373e-17
-1.83281011e-17
-1.78474667e-17
-1.81598315e-17
-1.43243402e-17
-1.36075676e-17
-1.0262737e-17
-9.42615429e-18
-7.91868696e-18
-6.59819513e-18
-1.00249063e-17
-7.10909491e-18
-9.23051762e-18
-3.77507209e-18
-3.52616664e-18
-4.71400334e-18
-4.74575942e-18
-6.55437124e-18
-9.983044e-18
-9.52406312e-18
-1.05776679e-17
-8.2375011e-18
-8.83849543e-18
-8.02686339e-18
-1.0486528e-17
-6.86333852e-18
-4.62373112e-18
-3.47796129e-18
5.58677439e-19
-1.62954693e-18
-3.86345574e-21
-2.38699647e-19
-8.6120704e-19
-1.01127747e-18
-4.31355122e-18
-2.7985916e-18
-3.130009e-18
-5.8031273e-18
-2.91934659e-18
-2.50999168e-18
-1.39731924e-18
1.25745368e-18
1.36503241e-18
6.82899823e-20
2.05218596e-18
3.02326114e-18
2.55694556e-18
3.84079538e-18
5.04220358e-18
5.11741255e-18
1.00019132e-18
6.25362709e-19
5.1264797e-19
4.36380093e-18
5.44535249e-18
9.67485964e-18
1.14068165e-17
1.56652985e-17
1.58183759e-17
1.54064988e-17
1.5939952e-17
1.64848443e-17
1.71622757e-17
2.03355058e-17
1.99968411e-17
1.83835302e-17
2.06361289e-17
1.76536561e-17
1.74635325e-17
1.54943562e-17
1.5402005e-17
1.37956128e-17
1.36384389e-17
1.64197389e-17
1.71386831e-17
1.55359839e-17
1.31744268e-17
1.30276637e-17
2.02929922e-17
1.89411996e-17
1.75687422e-17
1.7388761e-17
1.47037176e-17
1.5528833e-17
1.68007305e-17
1.74823229e-17
2.02645956e-17
2.04991043e-17
1.97527539e-17
1.79354941e-17
1.96035648e-17
1.86183883e-17
2.39272169e-17
2.1057506e-17
2.2831705e-17
2.54398759e-17
2.46356719e-17
2.83938422e-17
2.87536385e-17
2.83882313e-17
2.57400102e-17
3.17140542e-17
2.86408472e-17
3.23481677e-17
3.49806876e-17
3.67812781e-17
3.68701788e-17
3.86655326e-17
4.03947093e-17
3.91169177e-17
4.18028789e-17
3.90389503e-17
4.27043104e-17
4.21995372e-17
4.36404797e-17
4.42318146e-17
4.45152938e-17
4.30788081e-17
4.33144509e-17
4.59676936e-17
4.19786247e-17
4.13171674e-17
4.40941853e-17
4.54056573e-17
4.44930016e-17
4.59229569e-17
4.75207864e-17
4.73648066e-17
4.86047687e-17
4.68540063e-17
4.61480934e-17
4.74982269e-17
4.84381887e-17
4.71592266e-17
4.79172436e-17
4.93572417e-17
4.86964458e-17
5.03140185e-17
5.08402204e-17
5.31307501e-17
5.44313923e-17
5.65491855e-17
5.73165467e-17
6.12967791e-17
5.99979463e-17
6.201293e-17
6.47417691e-17
6.488491e-17
6.27256796e-17
5.97970161e-17
6.07416381e-17
5.96594359e-17
5.83715025e-17
5.95995764e-17
5.789854e-17
5.9299811e-17
6.38628301e-17
6.03451298e-17
5.94418431e-17
6.08944267e-17
6.38958007e-17
6.29815502e-17
6.29458786e-17
6.43847934e-17
6.32641385e-17
6.24285847e-17
6.0333915e-17
5.69847323e-17
6.05885549e-17
6.10324887e-17
6.21052971e-17
6.31473467e-17
6.27847501e-17
6.27396198e-17
5.78881964e-17
5.90956366e-17
6.22151469e-17
6.11678558e-17
6.233234e-17
6.32188935e-17
6.07565703e-17
6.3575663e-17
6.59755698e-17
6.83544586e-17
6.84468597e-17
6.41025715e-17
6.60114615e-17
6.51681676e-17
6.4266675e-17
6.41023066e-17
6.58797027e-17
6.7826314e-17
6.44275749e-17
6.33399037e-17
6.51282507e-17
6.4583501e-17
6.2195628e-17
6.48425037e-17
6.55380398e-17
6.31181259e-17
6.27462018e-17
6.54773492e-17
6.67958794e-17
6.73666651e-17
6.60349272e-17
6.53199519e-17
6.8565264e-17
6.48857077e-17
6.95155828e-17
6.87236784e-17
6.78428142e-17
6.905455e-17
7.0086623e-17
6.82052441e-17
6.7438466e-17
7.01689748e-17
6.97135842e-17
6.82737639e-17
7.01378749e-17
7.04657755e-17
6.69568348e-17
6.84842232e-17
6.66119534e-17
6.75016685e-17
6.81677056e-17
6.84739295e-17
6.99129375e-17
7.11505237e-17
6.91991243e-17
7.07619996e-17
6.9255723e-17
7.03328532e-17
7.3568724e-17
7.29975253e-17
7.45849307e-17
7.18016016e-17
7.11507344e-17
7.18752294e-17
7.31894599e-17
7.69845149e-17
7.44560613e-17
7.59235395e-17
7.43362889e-17
7.36427232e-17
7.86029196e-17
7.8366026e-17
7.5392368e-17
7.95095391e-17
7.93856774e-17
7.70087259e-17
8.01517758e-17
7.61911743e-17
7.84432372e-17
7.69309825e-17
7.39875701e-17
7.43872109e-17
7.14963687e-17
6.68317773e-17
6.77295871e-17
6.82183569e-17
6.45783228e-17
6.85186336e-17
6.77188258e-17
6.85486953e-17
6.61072542e-17
6.87263338e-17
6.60385771e-17
6.73681058e-17
6.61295681e-17
6.66882394e-17
6.55470303e-17
6.41855712e-17
6.41455601e-17
6.24417977e-17
6.2279582e-17
6.29484918e-17
6.60180184e-17
6.35577563e-17
6.38205245e-17
6.30867781e-17
6.01043663e-17
6.11871011e-17
6.20093557e-17
6.01778622e-17
5.90063489e-17
6.15823494e-17
5.81857598e-17
5.8541954e-17
5.63256624e-17
5.68109707e-17
5.73374589e-17
6.02948996e-17
5.91949379e-17
5.64882172e-17
5.72336003e-17
5.65421699e-17
5.65053463e-17
5.92839062e-17
5.5798443e-17
5.59314711e-17
5.88182698e-17
5.84175795e-17
6.07543748e-17
5.51975825e-17
5.61753983e-17
5.67027261e-17
5.91756345e-17
5.94840379e-17
5.84832112e-17
5.96359179e-17
5.70831092e-17
5.74026991e-17
5.77853799e-17
5.67106524e-17
5.76814143e-17
6.03919986e-17
6.40040023e-17
6.3989572e-17
6.19110208e-17
6.29589736e-17
6.27275825e-17
6.18394503e-17
6.60781722e-17
6.28894246e-17
5.72449322e-17
6.12289602e-17
5.71495549e-17
5.93224316e-17
6.12857134e-17
5.98670844e-17
5.81668597e-17
6.07634788e-17
5.90682903e-17
6.03253931e-17
6.0608244e-17
6.26457136e-17
6.04897057e-17
5.86676913e-17
6.11151717e-17
6.16847404e-17
5.90136815e-17
6.01094207e-17
6.22130737e-17
6.24035386e-17
6.25883856e-17
6.56891108e-17
6.37843989e-17
6.44030952e-17
6.3101029e-17
6.60750975e-17
6.53155586e-17
6.25449691e-17
6.54702831e-17
6.16539232e-17
6.42560623e-17
6.54058979e-17
6.63592493e-17
6.31694673e-17
6.37201206e-17
6.60002226e-17
6.63390212e-17
6.57380936e-17
6.51028043e-17
6.74352576e-17
6.62981051e-17
6.53493894e-17
6.53304242e-17
6.48506072e-17
6.6987078e-17
6.11132983e-17
6.08391857e-17
6.1108357e-17
6.08941233e-17
6.07069504e-17
6.14888311e-17
6.16987131e-17
5.85248856e-17
6.05476417e-17
5.75021704e-17
5.75119418e-17
5.87573587e-17
5.46127644e-17
5.46635566e-17
5.45586618e-17
5.59269944e-17
5.60509805e-17
5.2517059e-17
5.238254e-17
5.39977442e-17
5.5729704e-17
5.43830128e-17
5.66810847e-17
5.5092313e-17
5.43134927e-17
5.7434171e-17
5.99256692e-17
6.02815917e-17
6.42963061e-17
6.13339042e-17
5.77645326e-17
5.71122964e-17
5.81432259e-17
5.43836383e-17
5.57763333e-17
5.351596e-17
5.45351183e-17
5.62172161e-17
5.5841573e-17
5.50710075e-17
5.57333264e-17
5.66030966e-17
5.33560797e-17
5.47371072e-17
5.49705934e-17
5.55383824e-17
5.5655173e-17
5.52937379e-17
5.55501017e-17
5.52552373e-17
5.23051372e-17
5.1697909e-17
5.17268633e-17
5.18551842e-17
5.09764259e-17
5.02726863e-17
4.98992558e-17
4.64386705e-17
4.73352249e-17
4.74160088e-17
4.69609041e-17
5.1142954e-17
4.94787123e-17
5.17437827e-17
4.84659087e-17
5.10596104e-17
4.8189699e-17
4.69755091e-17
4.55163231e-17
4.22959179e-17
4.59235716e-17
4.42067543e-17
4.44426651e-17
4.68301789e-17
4.72601896e-17
4.42239068e-17
4.3536662e-17
4.28831411e-17
4.13624327e-17
3.80552161e-17
3.6847842e-17
3.61912024e-17
3.63740746e-17
3.78636263e-17
3.56873146e-17
3.24540687e-17
3.31013147e-17
2.94935593e-17
2.80562047e-17
3.02129193e-17
2.8009641e-17
2.82159318e-17
2.46096841e-17
2.70595334e-17
2.77359986e-17
2.0999244e-17
2.31865173e-17
2.16434539e-17
2.31321158e-17
2.31112875e-17
2.4733028e-17
2.80069719e-17
2.78034763e-17
2.80532741e-17
2.66604506e-17
2.36367764e-17
2.32286475e-17
2.39521207e-17
2.32098757e-17
2.41553147e-17
2.31588013e-17
2.16124299e-17
2.18562467e-17
2.19289132e-17
1.92087859e-17
1.6310064e-17
1.68490652e-17
1.77308716e-17
2.10666017e-17
2.43018989e-17
2.47932255e-17
2.85923653e-17
2.62531244e-17
2.41142484e-17
2.5316934e-17
2.79449297e-17
2.88249046e-17
2.61251669e-17
2.72465263e-17
2.83812229e-17
2.80627524e-17
3.03156894e-17
2.80587048e-17
3.05763069e-17
2.70951644e-17
2.45033975e-17
2.60759971e-17
2.44626538e-17
2.51856789e-17
1.99709742e-17
2.15055099e-17
2.31766071e-17
1.89964276e-17
1.84200378e-17
1.8042003e-17
1.74828301e-17
1.51255357e-17
1.48152622e-17
1.45989278e-17
1.51954871e-17
1.25529741e-17
1.25286321e-17
1.4875933e-17
1.06502119e-17
1.233547e-17
1.23805429e-17
1.40610056e-17
1.11230788e-17
1.03743194e-17
9.69554269e-18
8.33054808e-18
8.15403466e-18
6.69548687e-18
6.6811881e-18
3.43128698e-18
4.08081702e-18
3.54900784e-18
9.36620673e-19
1.33863237e-18
2.34528869e-18
-1.29956056e-18
-1.37337737e-18
-1.69765574e-18
-3.53292916e-18
-3.96140997e-18
-2.05877507e-18
-7.0896859e-19
2.69911201e-18
2.83772396e-19
-7.5655287e-19
-1.59094157e-18
-4.15717045e-18
-4.08058245e-18
-4.45840989e-18
-4.56728734e-18
-7.01295074e-18
-7.81091199e-18
-1.2354025e-17
-1.15014075e-17
-1.11551918e-17
-1.25275176e-17
-1.58308293e-17
-1.61048969e-17
-1.80890776e-17
-1.86029493e-17
-1.99484828e-17
-2.00204275e-17
-2.10092917e-17
-1.95644665e-17
-1.97275798e-17
-1.8610593e-17
-2.0093584e-17
-2.28255441e-17
-2.3661128e-17
-2.25566919e-17
-2.49379271e-17
-2.29356246e-17
-2.69467588e-17
-2.44158975e-17
-2.4396904e-17
-2.50187014e-17
-2.59183738e-17
-2.60763844e-17
-2.51004334e-17
-2.63873848e-17
-2.59619038e-17
-2.71273397e-17
-2.89366204e-17
-2.70686694e-17
-3.016025e-17
-3.03359644e-17
-2.83858748e-17
-2.85681499e-17
-2.51070928e-17
-2.71241577e-17
-2.91129725e-17
-3.08891873e-17
-3.29985179e-17
-3.6997114e-17
-3.67838725e-17
-3.75990646e-17
-3.80111464e-17
-4.11496233e-17
-4.32481894e-17
-4.46494087e-17
-4.33208911e-17
-4.49457715e-17
-4.66823881e-17
-4.7509966e-17
-4.57788367e-17
-5.00487712e-17
-5.00890389e-17
-5.03066963e-17
-5.25134898e-17
-5.24985202e-17
-5.09266858e-17
-5.02344478e-17
-5.30735849e-17
-5.6534484e-17
-5.91716314e-17
-5.29252939e-17
-5.70013751e-17
-5.44337441e-17
-5.07780959e-17
-5.2780651e-17
-5.2901724e-17
-5.59065779e-17
-5.74999025e-17
-6.08905303e-17
-6.20016584e-17
-5.87106832e-17
-6.13280165e-17
-6.03276113e-17
-6.08614101e-17
-6.01650918e-17
-6.39926385e-17
-6.21737121e-17
-6.4080688e-17
-6.41776639e-17
-6.53926941e-17
-6.47640271e-17
-6.54231097e-17
-6.33950186e-17
-6.20639028e-17
-6.620648e-17
-6.19291081e-17
-6.19293672e-17
-6.00496798e-17
-6.14492624e-17
-5.81999348e-17
-5.94940566e-17
-6.02191592e-17
-6.32487214e-17
-6.60009491e-17
-6.78426964e-17
-6.91776008e-17
-6.98287155e-17
-6.72568603e-17
-6.70137039e-17
-6.46487355e-17
-6.56774139e-17
-6.69606034e-17
-6.50426411e-17
-6.74170827e-17
-6.67454027e-17
-6.82566019e-17
-6.7023408e-17
-6.6881717e-17
-6.5372599e-17
-6.684888e-17
-6.5351476e-17
-6.5077772e-17
-6.43831489e-17
-6.79405963e-17
-6.85607596e-17
-6.9535502e-17
-6.67484751e-17
-6.81667382e-17
-6.56798322e-17
-6.52303038e-17
-6.54376779e-17
-6.77133245e-17
-6.62396746e-17
-6.58665074e-17
-7.13980246e-17
-7.06679112e-17
-7.17167557e-17
-7.48546227e-17
-7.32030093e-17
-7.28509986e-17
-7.13673356e-17
-7.1761743e-17
-7.29756876e-17
-7.04334972e-17
-7.18011958e-17
-7.08407581e-17
-7.0631045e-17
-7.17166698e-17
-7.11766775e-17
-7.09817343e-17
-7.12146602e-17
-7.32439535e-17
-7.27989269e-17
-7.50811068e-17
-7.52032518e-17
-7.26313604e-17
-7.50704388e-17
-7.39944255e-17
-7.45401783e-17
-7.61870182e-17
-7.44299842e-17
-7.55018288e-17
-7.53356256e-17
-7.80741207e-17
-7.60117261e-17
-7.73191438e-17
-7.89804958e-17
-7.91229436e-17
-7.78647185e-17
-7.92849114e-17
-7.70870824e-17
-7.78929973e-17
-7.67355934e-17
-7.58691699e-17
-7.39312603e-17
-7.61460211e-17
-7.5910188e-17
-7.71973453e-17
-7.65591216e-17
-8.00359843e-17
-7.78963466e-17
-7.90734617e-17
-7.94078411e-17
-7.9924e-17
-7.96214672e-17
-7.75911478e-17
-8.20992713e-17
-7.89935467e-17
-7.7738153e-17
-7.69787598e-17
-7.61863472e-17
-7.66881425e-17
-7.57600144e-17
-7.07876371e-17
-7.33668048e-17
-7.34064727e-17
-7.45314607e-17
-7.53370105e-17
-7.96811826e-17
-7.84508994e-17
-7.57104228e-17
-7.46182748e-17
-7.49444926e-17
-7.48580788e-17
-7.44203664e-17
-7.43505627e-17
-6.98117632e-17
-7.29677971e-17
-7.56655898e-17
-7.46419174e-17
-7.25990311e-17
-7.54408696e-17
-7.5943694e-17
-7.31661774e-17
-7.23717742e-17
-6.91574717e-17
-6.80681977e-17
-7.08486025e-17
-7.09260538e-17
-7.17517349e-17
-7.34140876e-17
-6.94598489e-17
-7.1475914e-17
-7.11515752e-17
-7.1557711e-17
-6.82094427e-17
-6.79252824e-17
-6.60876139e-17
-6.6207421e-17
-6.68448307e-17
-6.32325866e-17
-6.45874286e-17
-6.30843878e-17
-6.25144514e-17
-6.28854569e-17
-6.30209203e-17
-6.23304968e-17
-5.92568078e-17
-6.01535557e-17
-5.97021169e-17
-6.34446908e-17
-6.45693194e-17
-5.99491251e-17
-6.06224033e-17
-6.11796134e-17
-6.21784e-17
-6.19023284e-17
-6.25910751e-17
-6.19535502e-17
-6.16428546e-17
-6.2475682e-17
-6.04090082e-17
-5.6782553e-17
-5.79196501e-17
-5.55096095e-17
-5.94799107e-17
-5.66578264e-17
-5.94299298e-17
-5.95599624e-17
-5.97207501e-17
-5.95088119e-17
-5.98986828e-17
-5.87910916e-17
-5.82034309e-17
-6.16218277e-17
-6.37885547e-17
-6.23712065e-17
-6.23039746e-17
-6.02206247e-17
-6.02767029e-17
-6.20710731e-17
-6.60712081e-17
-6.70560722e-17
-6.60452457e-17
-6.88456936e-17
-6.80744929e-17
-6.53040608e-17
-7.1195601e-17
-6.83923056e-17
-6.82170545e-17
-6.51809613e-17
-6.48406765e-17
-6.67406981e-17
-6.64242269e-17
-6.62092177e-17
-6.60965965e-17
-6.42877642e-17
-6.75300411e-17
-6.84282804e-17
-6.61795671e-17
-6.88318825e-17
-6.94814741e-17
-7.16904085e-17
-7.42580826e-17
-7.65601163e-17
-7.49177958e-17
-8.11292343e-17
-8.14859397e-17
-8.01587075e-17
-7.64509506e-17
-7.77932356e-17
-7.48625979e-17
-7.76107187e-17
-7.30451805e-17
-6.82308897e-17
-7.20480983e-17
-7.3251254e-17
-7.47268761e-17
-7.5955617e-17
-7.54452539e-17
-7.39966488e-17
-7.38231575e-17
-7.3667922e-17
-7.23864553e-17
-7.30823207e-17
-7.33442515e-17
-7.29049752e-17
-7.23720778e-17
-7.39058562e-17
-7.24106183e-17
-7.27747738e-17
-7.32279259e-17
-7.2879631e-17
-7.13219021e-17
-6.91183175e-17
-6.90647179e-17
-6.51245474e-17
-6.49437478e-17
-6.91173385e-17
-7.14546042e-17
-6.81236987e-17
-6.94941966e-17
-7.16895172e-17
-6.94267945e-17
-6.94099462e-17
-6.94345795e-17
-6.86610126e-17
-6.56062744e-17
-6.67351396e-17
-6.61609062e-17
-6.35574613e-17
-6.33294603e-17
-6.23644656e-17
-6.08975684e-17
-5.85509109e-17
-5.91543239e-17
-6.31235205e-17
-6.34484683e-17
-6.04788239e-17
-5.90308678e-17
-5.79870405e-17
-5.66314539e-17
-5.59814109e-17
-5.20042409e-17
-5.43464172e-17
-5.23620308e-17
-5.34736374e-17
-5.17492621e-17
-5.14846004e-17
-4.85463356e-17
-5.09312097e-17
-4.74232323e-17
-4.64602686e-17
-4.77208292e-17
-4.7986237e-17
-4.69890377e-17
-4.98865569e-17
-4.71829982e-17
-4.94524813e-17
-4.6384704e-17
-4.79266714e-17
-4.79607007e-17
-4.87503619e-17
-4.8126132e-17
-4.33394292e-17
-4.3080738e-17
-4.21287728e-17
-4.28470068e-17
-4.40853367e-17
-4.71867113e-17
-4.5964595e-17
-4.37278249e-17
-4.362073e-17
-4.24148856e-17
-4.3673002e-17
-4.18275615e-17
-4.09197083e-17
-3.93558467e-17
-3.75341186e-17
-3.54096195e-17
-3.72874315e-17
-3.58885018e-17
-3.52544664e-17
-3.52552011e-17
-3.33971211e-17
-3.3529336e-17
-3.30460546e-17
-2.98880247e-17
-2.86321866e-17
-3.21546529e-17
-2.72798347e-17
-2.86819265e-17
-2.8778384e-17
-2.67148869e-17
-2.53478853e-17
-2.70338475e-17
-2.48912109e-17
-2.16917101e-17
-2.40448757e-17
-1.89319104e-17
-1.92526284e-17
-1.99824523e-17
-2.02008806e-17
-2.33748682e-17
-2.21948151e-17
-2.06048238e-17
-2.18368494e-17
-1.84645955e-17
-1.76576111e-17
-1.68559257e-17
-1.6482214e-17
-1.35325371e-17
-1.45181317e-17
-1.46977938e-17
-1.57286643e-17
-1.60969098e-17
-1.57752627e-17
-1.58064779e-17
-1.71509157e-17
-2.04122224e-17
-2.11282882e-17
-2.2070909e-17
-1.9544591e-17
-1.87959145e-17
-1.78023815e-17
-1.83257815e-17
-1.79497855e-17
-1.61718021e-17
-1.40598942e-17
-1.62855791e-17
-1.78183562e-17
-1.77021992e-17
-1.60379467e-17
-1.39184758e-17
-9.47753049e-18
-1.360183e-17
-1.06285692e-17
-1.09486723e-17
-1.26403566e-17
-1.33844417e-17
-1.53077942e-17
-1.64309369e-17
-1.41415915e-17
-1.4127991e-17
-1.08582796e-17
-1.23441861e-17
-8.60069447e-18
-1.50961238e-17
-1.71420611e-17
-1.47422053e-17
-1.37750307e-17
-1.11996687e-17
-7.41053824e-18
-8.02436135e-18
-8.20009779e-18
-1.01540598e-17
-6.634292e-18
-3.72370582e-18
-9.15782049e-18
-9.95213825e-18
-7.27890007e-18
-5.11835284e-18
-4.09350731e-18
-9.15602581e-19
-2.48865869e-18
-2.23345603e-18
-1.22789548e-18
-3.30272551e-18
-3.13838259e-18
-6.48768411e-19
2.08184145e-18
1.71258733e-18
-3.77680171e-19
3.98906938e-18
3.9068771e-18
3.92639499e-18
3.29431075e-18
5.82184334e-19
2.50446227e-18
7.22368875e-18
7.72029732e-18
1.1148861e-17
9.66202268e-18
6.1316622e-18
7.54902415e-18
7.78673255e-18
1.02344048e-17
1.10794214e-17
1.68451844e-17
1.61734707e-17
1.58291562e-17
1.58488351e-17
1.55615006e-17
1.40248021e-17
1.33285234e-17
1.29042732e-17
1.35523959e-17
1.29099046e-17
1.52562073e-17
1.70146317e-17
1.42016446e-17
1.52336199e-17
1.437527e-17
1.61361634e-17
1.60833777e-17
1.71685865e-17
1.90864677e-17
2.09698157e-17
2.32636475e-17
2.52440042e-17
2.82517743e-17
3.01559001e-17
2.86626032e-17
3.17816737e-17
3.15354295e-17
3.25667947e-17
3.29465503e-17
3.32815185e-17
3.34573865e-17
3.44370604e-17
3.36359394e-17
3.59753542e-17
3.70997998e-17
3.60090261e-17
3.95846589e-17
3.99298819e-17
4.42505374e-17
4.42918293e-17
4.76152505e-17
4.82822027e-17
5.02565074e-17
5.25437508e-17
5.53130637e-17
5.66514196e-17
5.68490805e-17
5.64750894e-17
5.58641308e-17
5.89279505e-17
5.91114299e-17
5.83593138e-17
6.4436729e-17
7.13267557e-17
7.44678737e-17
7.72763914e-17
8.38016731e-17
8.83354835e-17
9.13995682e-17
9.44310758e-17
9.85361037e-17
1.09174548e-16
1.13302169e-16
1.20428122e-16
1.2914088e-16
1.33363447e-16
1.43714508e-16
1.54386511e-16
1.65396384e-16
1.74029856e-16
1.91075333e-16
2.00321336e-16
2.12099053e-16
2.2696696e-16
2.43332733e-16
2.52640056e-16
2.72821716e-16
2.89460479e-16
3.08071875e-16
3.28981654e-16
3.5077201e-16
3.74273299e-16
4.03930034e-16
4.31433764e-16
4.63038357e-16
4.94073201e-16
5.28959762e-16
5.67624489e-16
6.10558324e-16
6.51834065e-16
7.00480834e-16
7.52608662e-16
8.06769191e-16
8.63695527e-16
9.2668995e-16
9.93332223e-16
1.06727602e-15
1.1451368e-15
1.22824536e-15
1.31777846e-15
1.41448673e-15
1.51979979e-15
1.63598413e-15
1.76322264e-15
1.89585609e-15
2.03897415e-15
2.19317012e-15
2.35831032e-15
2.53942871e-15
2.73136437e-15
2.94267815e-15
3.16560052e-15
3.40741079e-15
3.66394426e-15
3.94014237e-15
4.24004037e-15
4.56630574e-15
4.90999057e-15
5.28206005e-15
5.68470916e-15
6.11377625e-15
6.5784236e-15
7.07414798e-15
7.60983805e-15
8.18781588e-15
8.80617094e-15
9.47075282e-15
1.01872165e-14
1.09552199e-14
1.17792237e-14
1.26656355e-14
1.36180209e-14
1.46396178e-14
1.57402558e-14
1.69198729e-14
1.8182143e-14
1.95413632e-14
2.09966901e-14
2.25674867e-14
2.42477878e-14
2.60489381e-14
2.7978164e-14
3.00567353e-14
3.22814481e-14
3.46704169e-14
3.72349102e-14
3.99794744e-14
4.29287942e-14
4.60810023e-14
4.94709897e-14
5.31008039e-14
5.69903114e-14
6.11677101e-14
6.56403453e-14
7.04266917e-14
7.5562946e-14
8.10609296e-14
8.69501153e-14
9.32589618e-14
1.00011815e-13
1.07247015e-13
1.1499268e-13
1.23286122e-13
1.32162426e-13
1.41656976e-13
1.51828093e-13
1.6270526e-13
1.74350067e-13
1.86799652e-13
2.00124353e-13
2.14375132e-13
2.29611871e-13
2.45910497e-13
2.63330804e-13
2.81955779e-13
3.01862451e-13
3.23147695e-13
3.458908e-13
3.70196957e-13
3.96167822e-13
4.23907205e-13
4.53540493e-13
4.85195699e-13
5.18996443e-13
5.55092731e-13
5.93629696e-13
6.34772026e-13
6.78688612e-13
7.25561755e-13
7.75584714e-13
8.28957918e-13
8.85905117e-13
9.46650093e-13
1.01145163e-12
1.08056207e-12
1.15426436e-12
1.23284489e-12
1.31662257e-12
1.40593565e-12
1.50112476e-12
1.60257353e-12
1.7106756e-12
1.82585212e-12
1.94855595e-12
2.07925718e-12
2.21845675e-12
2.36669742e-12
2.52454042e-12
2.69258683e-12
2.87147265e-12
3.06187703e-12
3.26450992e-12
3.48013099e-12
3.70954166e-12
3.95359742e-12
4.21319177e-12
4.48928471e-12
4.78288247e-12
5.09505527e-12
5.42692907e-12
5.77971074e-12
6.15465624e-12
6.55311427e-12
6.97650143e-12
7.42631038e-12
7.90413181e-12
8.41163798e-12
8.95060824e-12
9.5229069e-12
1.0130514e-11
1.0775528e-11
1.14601493e-11
1.21867157e-11
1.29576857e-11
1.3775667e-11
1.46434036e-11
1.55637875e-11
1.65398938e-11
1.75749326e-11
1.86723251e-11
1.98356546e-11
2.10687088e-11
2.23754937e-11
2.37602128e-11
2.52273051e-11
2.67814554e-11
2.84275886e-11
3.01709095e-11
3.20168777e-11
3.39712707e-11
3.60401495e-11
3.82299018e-11
4.05472583e-11
4.2999295e-11
4.55934646e-11
4.83376064e-11
5.12399537e-11
5.43091789e-11
5.75543998e-11
6.09852042e-11