/*--------------------------------*- C++ -*----------------------------------*\
| =========                 |                                                 |
| \\      /  F ield         | OpenFOAM: The Open Source CFD Toolbox           |
|  \\    /   O peration     | Version:  2206                                  |
|   \\  /    A nd           | Website:  www.openfoam.com                      |
|    \\/     M anipulation  |                                                 |
\*---------------------------------------------------------------------------*/
FoamFile
{
    version     2.0;
    format      ascii;
    arch        "LSB;label=32;scalar=64";
    class       volScalarField;
    location    "6.6e-06";
    object      PVsourcePV;
}
// * * * * * * * * * * * * * * * * * * * * * * * * * * * * * * * * * * * * * //

dimensions      [1 -3 -1 0 0 0 0];

internalField   nonuniform List<scalar> 
3183
(
0
0
0
0
0
0
0
0
0
0
0
0
0
0
0
0
0
0
0
0
0
0
0
0
0
0
0
0
0
0
0
0
0
0
0
0
0
0
0
0
0
0
0
0
0
0
0
0
0
0
0
0
0
0
0
0
0
0
0
0
0
0
0
0
0
0
0
0
0
0
0
0
0
0
0
0
0
0
0
0
0
0
0
0
0
0
0
0
0
0
0
0
0
0
0
0
0
0
0
0
0
0
0
0
0
0
0
0
0
0
0
0
0
0
0
0
0
0
0
0
0
0
0
0
0
0
0
0
0
0
0
0
0
0
0
0
0
0
0
0
0
0
0
0
0
0
0
0
0
0
0
0
0
0
0
0
0
0
0
0
0
0
0
0
0
0
0
0
0
0
0
0
0
0
0
0
0
0
0
0
0
0
0
0
0
0
0
0
0
0
0
0
0
0
0
0
0
0
0
0
0
0
0
0
0
0
0
0
0
0
0
0
0
0
0
0
0
0
0
0
0
0
0
0
0
0
0
0
0
0
0
0
0
0
0
0
0
0
0
0
0
0
0
0
0
0
0
0
0
0
0
0
0
0
0
0
0
0
0
0
0
0
0
0
0
0
0
0
0
0
0
0
0
0
0
0
0
0
0
0
0
0
0
0
0
0
0
0
0
0
0
0
0
0
0
0
0
0
0
0
0
0
0
0
0
0
0
0
0
0
0
0
0
0
0
0
0
0
0
0
0
0
0
0
0
0
0
0
0
0
0
0
0
0
0
0
0
0
0
0
0
0
0
0
0
0
0
0
0
0
0
0
0
0
0
0
0
0
0
0
0
0
0
0
0
0
0
0
0
0
0
0
0
0
0
0
0
0
0
0
0
0
0
0
0
0
0
0
0
0
0
0
0
0
0
0
0
0
0
0
0
0
0
0
0
0
0
0
0
0
0
0
0
0
0
0
0
0
0
0
0
0
0
0
0
0
0
0
0
0
0
0
0
0
0
0
0
0
0
0
0
0
0
0
0
0
0
0
0
0
0
0
0
0
0
0
0
0
0
0
0
0
0
0
0
0
0
0
0
0
0
0
0
0
0
0
0
0
0
0
0
0
0
0
0
0
0
0
0
0
0
0
0
0
0
0
0
0
0
0
0
0
0
0
0
0
0
0
0
0
0
0
0
0
0
0
0
0
0
0
0
0
0
0
0
0
0
0
0
0
0
0
0
0
0
0
0
0
0
0
0
0
0
0
0
0
0
0
0
0
0
0
0
0
0
0
0
0
0
0
0
0
0
0
0
0
0
0
0
0
0
0
0
0
0
0
0
0
0
0
0
0
0
0
0
0
0
0
0
0
0
0
0
0
0
0
0
0
0
0
0
0
0
0
0
0
0
0
0
0
0
0
0
0
0
0
0
0
0
0
0
0
0
0
0
0
0
0
0
0
0
0
0
0
0
0
0
0
0
0
0
0
0
0
0
0
0
0
0
0
0
0
0
0
0
0
0
0
0
0
0
0
0
0
0
0
0
0
0
0
0
0
0
0
0
0
0
0
0
0
0
0
0
0
0
0
0
0
0
0
0
0
0
0
0
0
0
0
0
0
0
0
0
0
0
0
0
0
0
0
0
0
0
0
0
0
0
0
0
0
0
0
0
0
0
0
0
0
0
0
0
0
0
0
0
0
0
0
0
0
0
0
0
0
0
0
0
0
0
0
0
0
0
0
0
0
0
0
0
0
0
0
0
0
0
0
0
0
0
0
0
0
0
0
0
0
0
0
0
0
0
0
0
0
0
0
0
0
0
0
0
0
0
0
0
0
0
0
0
0
0
0
0
0
0
0
0
0
0
0
0
0
0
0
0
0
0
0
0
0
0
0
0
0
0
0
0
0
0
0
0
0
0
0
0
0
0
0
0
0
0
0
0
0
0
0
0
0
0
0
0
0
0
0
0
0
0
0
0
0
0
0
0
0
0
0
0
0
0
0
0
0
0
0
0
0
0
0
0
0
0
0
0
0
0
0
0
0
0
0
0
0
0
0
0
0
0
0
0
0
0
0
0
0
0
0
0
0
0
0
0
0
0
0
0
0
0
0
0
0
0
0
0
0
0
0
0
0
0
0
0
0
0
0
0
0
0
0
0
0
0
0
0
0
0
0
0
0
0
0
0
0
0
0
0
0
0
0
0
0
0
0
0
0
0
0
0
0
0
0
0
0
0
0
0
0
0
0
0
0
0
0
0
0
0
0
0
0
0
0
0
0
0
0
0
0
0
0
0
0
0
0
0
0
0
0
0
0
0
0
0
0
0
0
0
0
0
0
0
0
0
0
0
0
0
0
0
0
0
0
0
0
0
0
0
0
0
0
0
0
0
0
0
0
0
0
0
0
0
0
0
0
0
0
0
0
0
0
0
0
0
0
0
0
0
0
0
0
0
0
0
0
0
0
0
0
0
0
0
0
0
0
0
0
0
0
0
0
0
0
0
0
0
0
0
0
0
0
0
0
0
0
0
0
0
0
0
0
0
0
0
0
0
0
0
0
0
0
0
0
0
0
0
0
0
0
0
0
0
0
0
0
0
0
0
0
0
0
0
0
0
0
0
0
0
0
0
0
0
0
0
0
0
0
0
0
0
0
0
0
0
0
0
0
0
0
0
0
0
0
0
0
0
0
0
0
0
0
0
0
0
0
0
0
0
0
0
0
0
0
0
0
0
0
0
0
0
0
0
0
0
0
0
0
0
0
0
0
0
0
0
0
0
0
0
0
0
0
0
0
0
0
0
0
0
0
0
0
0
0
0
0
0
0
0
0
0
0
0
0
0
0
0
0
0
0
0
0
0
0
0
0
0
0
0
0
0
0
0
0
0
0
0
0
0
0
0
0
0
0
0
0
0
0
0
0
0
0
0
0
0
0
0
0
0
0
0
0
0
0
0
0
0
0
0
0
0
0
0
0
0
0
0
0
0
0
0
0
0
0
0
0
0
0
0
0
0
0
0
0
0
0
0
0
0
0
0
0
0
0
0
0
0
0
0
0
0
0
0
0
0
0
0
0
0
0
0
0
0
0
0
0
0
0
0
0
0
0
0
0
0
0
0
0
0
0
0
0
0
0
0
0
0
0
0
0
0
0
0
0
0
0
0
0
0
0
0
0
0
0
0
0
0
0
0
0
0
0
0
0
0
0
0
0
0
0
0
0
0
0
0
0
0
0
0
0
0
0
0
0
0
0
0
0
0
0
0
0
0
0
0
0
0
0
0
0
0
0
0
0
0
0
0
0
0
0
0
0
0
0
0
0
0
0
0
0
0
0
0
0
0
0
0
0
0
0
0
0
0
0
0
0
0
0
0
0
0
0
0
0
0
0
0
0
0
0
0
0
0
0
0
0
0
0
0
0
0
0
0
0
0
0
0
0
0
0
0
0
0
0
0
0
0
0
0
0
0
0
0
0
0
0
0
0
0
0
0
0
0
0
0
0
0
0
0
0
0
0
0
0
0
0
0
0
0
0
0
0
0
0
0
0
0
0
0
0
0
0
0
0
0
0
0
0
0
0
0
0
0
0
0
0
0
0
0
0
0
0
0
0
0
0
0
0
0
0
0
0
0
0
0
0
0
0
0
0
0
0
0
0
0
0
0
0
0
0
0
0
0
0
0
0
0
0
0
0
0
0
0
0
0
0
0
0
0
0
0
0
0
0
0
0
0
0
0
0
0
0
0
0
0
0
0
0
0
0
0
0
0
0
0
0
0
0
0
0
0
0
0
0
0
0
0
0
0
0
0
0
0
0
0
0
0
0
0
0
0
0
0
0
0
0
0
0
0
0
0
0
0
0
0
0
0
0
0
0
0
0
0
0
0
0
0
0
0
0
0
0
0
0
0
0
0
0
0
0
0
0
0
0
0
0
0
0
0
0
0
0
0
0
0
0
0
0
0
0
0
0
0
0
0
0
0
0
0
0
0
0
0
0
0
0
0
0
0
0
0
0
0
0
0
0
0
0
0
0
0
0
0
0
0
0
0
0
0
0
0
0
0
0
0
0
0
0
0
0
0
0
0
0
0
0
0
0
0
0
0
0
0
0
0
0
0
0
0
0
0
0
0
0
0
0
0
0
0
0
0
0
0
0
0
0
0
0
0
0
0
0
0
0
0
0
0
0
0
0
0
0
0
0
0
0
0
0
0
0
0
0
0
0
0
0
0
0
0
0
0
0
0
0
0
0
0
0
0
0
0
0
0
0
0
0
0
0
0
0
0
0
0
0
0
0
0
0
0
0
0
0
0
0
0
0
0
0
0
0
0
0
0
0
0
0
0
0
0
0
0
0
0
0
0
0
0
0
0
0
0
0
0
0
0
0
0
0
0
0
0
0
0
0
0
0
0
0
0
0
0
0
0
0
0
0
0
0
0
0
0
0
0
0
0
0
0
0
0
0
0
0
0
0
0
0
0
0
0
0
0
0
0
0
0
0
0
0
0
0
0
0
0
0
0
0
0
0
0
0
0
0
0
0
0
0
0
0
0
0
0
0
0
0
0
0
0
0
0
0
0
0
0
0
0
0
0
0
0
0
0
0
0
0
0
0
0
0
0
0
0
0
0
0
0
0
0
0
0
0
0
0
0
0
0
0
0
0
0
0
0
0
0
0
0
0
0
0
0
0
0
0
0
0
0
0
0
0
0
0
0
0
0
0
0
0
0
0
0
0
0
0
0
0
0
0
0
0
0
0
0
0
0
0
0
0
0
0
0
0
0
0
0
0
0
0
0
0
0
0
0
0
0
0
0
0
0
0
0
0
0
0
0
0
0
0
0
0
0
0
0
0
0
0
0
0
0
0
0
0
0
0
0
0
0
0
0
0
0
0
0
0
0
0
0
0
0
0
0
0
0
0
0
0
0
0
0
0
0
0
0
0
0
0
0
0
0
0
0
0
0
0
0
0
0
0
0
0
0
0
0
0
0
0
0
0
0
0
0
0
0
0
0
0
0
0
0
0
0
0
0
0
0
0
0
0
0
0
0
0
0
0
0
0
0
0
0
0
0
0
0
0
0
0
0
0
0
0
0
0
0
0
0
0
0
0
0
0
0
0
0
0
0
0
0
0
0
0
0
0
0
0
0
0
0
0
0
0
0
0
0
0
0
0
0
0
0
0
0
0
0
0
0
0
0
0
0
0
0
0
0
0
0
0
0
0
0
0
0
0
0
0
0
0
0
0
0
0
0
0
0
0
0
0
0
0
0
0
0
0
0
0
0
0
0
0
0
0
0
0
0
0
0
0
0
0
0
0
0
0
0
0
0
0
0
0
0
0
0
0
0
0
0
0
0
0
0
0
0
0
0
0
0
0
0
0
0
0
0
0
0
0
0
0
0
0
0
0
0
0
0
0
0
0
0
0
0
0
0
0
0
0
0
0
0
0
0
0
0
0
0
0
0
0
0
0
0
6.06647327e-296
0
4.07188219e-290
0
1.42433852e-284
0
2.51084868e-280
0
2.32103378e-276
0
1.48025437e-272
0
7.29809763e-269
0
2.95963349e-265
0
1.02624627e-261
0
3.12383751e-258
0
8.50709569e-255
0
2.10237635e-251
0
4.76723671e-248
0
1.00059751e-244
0
1.95785452e-241
0
3.59237953e-238
0
6.21158222e-235
0
1.01637069e-231
0
1.57936811e-228
0
2.33795724e-225
0
3.30581998e-222
0
4.4754314e-219
0
5.81308355e-216
0
7.25762908e-213
0
8.72394042e-210
0
1.01110961e-206
0
1.1314205e-203
0
1.22378683e-200
0
1.28088185e-197
0
1.29854014e-194
0
1.27622403e-191
0
1.21694479e-188
0
1.1266864e-185
0
1.01347004e-182
0
8.86250135e-180
1.66695816e-181
7.53837566e-177
3.33301921e-178
6.24011386e-174
4.25488748e-175
5.02919159e-171
4.57071412e-172
3.94797488e-168
4.43948746e-169
3.01984045e-165
4.01678969e-166
2.25151246e-162
3.43786083e-163
1.63673439e-159
2.80845916e-160
1.16041847e-156
2.20251309e-157
8.0258267e-154
1.66472361e-154
5.41623527e-151
1.21605731e-151
3.56713901e-148
8.60304889e-149
2.29312781e-145
5.90363136e-146
1.43907134e-142
3.93444075e-143
8.81722342e-140
2.54893706e-140
5.27492427e-137
1.6064865e-137
3.08151901e-134
9.85597223e-135
1.75791232e-131
5.88891401e-132
9.7931636e-129
3.42806708e-129
5.32772989e-126
1.94477785e-126
2.83038122e-123
1.07545957e-123
1.46828887e-120
5.79817089e-121
7.43724703e-118
3.04793633e-118
3.67796101e-115
1.56229084e-115
1.77560306e-112
7.80839809e-113
8.36695372e-110
3.80531081e-110
3.84768299e-107
1.80805884e-107
1.72646489e-104
8.37486869e-105
7.55695366e-102
3.78110126e-102
3.22594951e-99
1.6635983e-99
1.34266603e-96
7.13126493e-97
5.44680311e-94
2.9775118e-94
2.15291597e-91
1.21052122e-91
8.28812984e-89
4.79035943e-89
3.10631219e-86
1.84444655e-86
1.13289359e-83
6.9067134e-84
4.01850782e-81
2.51401321e-81
1.38556376e-78
8.89026018e-79
4.64092612e-76
3.05243898e-76
1.50904954e-73
1.0168865e-73
4.7599073e-71
3.28449249e-71
1.45523525e-68
1.02772898e-68
4.30839711e-66
3.11251213e-66
1.2339981e-63
9.11448972e-64
3.41549257e-61
2.57788443e-61
9.12442889e-59
7.0335333e-59
2.34956536e-56
1.84872889e-56
5.82303112e-54
4.67418563e-54
1.38664355e-51
1.13484874e-51
3.1668025e-49
2.64086367e-49
6.92150546e-47
5.87762527e-47
1.44432402e-44
1.24811355e-44
2.86964836e-42
2.5217602e-42
5.41168784e-40
4.83253419e-40
9.6516766e-38
8.75136008e-38
1.62106375e-35
1.49123767e-35
2.55125573e-33
2.37900573e-33
3.73998404e-31
3.5318397e-31
5.06991155e-29
4.84380928e-29
6.29886576e-27
6.08186625e-27
7.09188171e-25
6.91225975e-25
7.13128791e-23
7.0076108e-23
6.28090107e-21
6.21407835e-21
4.71541515e-19
4.690126e-19
2.8986275e-17
2.89233867e-17
1.36713707e-15
1.35918821e-15
4.56542051e-12
5.06526789e-12
0.0726178341
0.213641773
0.731583893
0.664241358
0.142040872
0.114982391
0.013946837
0.0127240244
0.00172239714
0.0016686569
0.000190294915
0.000189460831
1.94361645e-05
1.95441185e-05
2.38550595e-06
2.3804669e-06
8.2231194e-07
8.2254285e-07
6.93861975e-07
6.939211e-07
6.84159865e-07
6.84162793e-07
6.83477293e-07
6.83477047e-07
6.83432478e-07
6.83432233e-07
6.8342936e-07
6.83429853e-07
6.83428213e-07
6.83429881e-07
6.83428242e-07
6.83429313e-07
6.83428256e-07
6.83430177e-07
6.83427754e-07
6.83430122e-07
6.83428218e-07
6.83428208e-07
6.8342916e-07
6.83428682e-07
6.83429132e-07
6.83428526e-07
6.834298e-07
6.83428087e-07
6.834293e-07
6.83428602e-07
6.83429662e-07
6.83429013e-07
6.83429791e-07
6.83428204e-07
6.83429043e-07
6.83428743e-07
6.83429084e-07
6.83429192e-07
6.83429193e-07
6.83428848e-07
6.8342852e-07
6.83428957e-07
6.83429625e-07
6.83428525e-07
6.83428798e-07
6.83429127e-07
6.83428931e-07
6.83428889e-07
6.83429254e-07
6.83428198e-07
6.83429709e-07
6.83428283e-07
6.83429239e-07
6.83427609e-07
6.83429694e-07
6.83427516e-07
6.83429197e-07
6.83428558e-07
6.83428072e-07
6.83430192e-07
6.83428656e-07
6.83429165e-07
6.83429428e-07
6.83429682e-07
6.83429076e-07
6.83429159e-07
6.83428938e-07
6.8342932e-07
6.83429376e-07
6.83429097e-07
6.83429006e-07
6.83428901e-07
6.83429058e-07
6.83428622e-07
6.83429522e-07
6.83429214e-07
6.83428645e-07
6.83430053e-07
6.83429113e-07
6.83429541e-07
6.83428277e-07
6.83429957e-07
6.83429187e-07
6.83429322e-07
6.83429374e-07
6.83429649e-07
6.83429901e-07
6.83429258e-07
6.83429235e-07
6.83428728e-07
6.83429588e-07
6.83429871e-07
6.83428519e-07
6.83428674e-07
6.834298e-07
6.83427749e-07
6.83429709e-07
6.83428261e-07
6.83428909e-07
6.8342882e-07
6.83429663e-07
6.8342908e-07
6.83428984e-07
6.83429602e-07
6.83428506e-07
6.83429973e-07
6.83428395e-07
6.8342996e-07
6.83429412e-07
6.83428828e-07
6.8342873e-07
6.83429241e-07
6.83429743e-07
6.83429456e-07
6.83428785e-07
6.8342877e-07
6.83430271e-07
6.83430511e-07
6.83429156e-07
6.83429968e-07
6.83429825e-07
6.83428685e-07
6.83429555e-07
6.83429008e-07
6.83429538e-07
6.83429185e-07
6.83428996e-07
6.83429075e-07
6.8342939e-07
6.834297e-07
6.83428739e-07
6.83429919e-07
6.83429104e-07
6.83429939e-07
6.83429401e-07
6.83428884e-07
6.8342992e-07
6.83429559e-07
6.83429481e-07
6.83430353e-07
6.8342933e-07
6.83429618e-07
6.8342925e-07
6.83429923e-07
6.83429904e-07
6.83428885e-07
6.83430204e-07
6.83428984e-07
6.83430897e-07
6.83429508e-07
6.83430011e-07
6.83429406e-07
6.83429545e-07
6.83429516e-07
6.83429772e-07
6.8342868e-07
6.83429707e-07
6.83429358e-07
6.83428891e-07
6.83429829e-07
6.83430125e-07
6.83429976e-07
6.83429494e-07
6.83430818e-07
6.83430277e-07
6.83430672e-07
6.83429843e-07
6.83430036e-07
6.83429422e-07
6.8343041e-07
6.83429695e-07
6.83429715e-07
6.83430043e-07
6.83429685e-07
6.83430248e-07
6.83430101e-07
6.83429924e-07
6.83430226e-07
6.83430756e-07
6.83429061e-07
6.83430886e-07
6.83429486e-07
6.83430696e-07
6.83429507e-07
6.83430423e-07
6.83429346e-07
6.83429949e-07
6.83429443e-07
6.83429623e-07
6.83430059e-07
6.83429862e-07
6.83430318e-07
6.83430506e-07
6.8342971e-07
6.8343082e-07
6.83429195e-07
6.83431136e-07
6.83429719e-07
6.8342997e-07
6.83430067e-07
6.83429923e-07
6.83430379e-07
6.83429698e-07
6.83430336e-07
6.83429724e-07
6.83431092e-07
6.83429611e-07
6.83430018e-07
6.8343021e-07
6.83429705e-07
6.83430206e-07
6.83430308e-07
6.83430033e-07
6.83430264e-07
6.83430704e-07
6.83429937e-07
6.83430669e-07
6.83430816e-07
6.83430216e-07
6.83429917e-07
6.83430229e-07
6.83430816e-07
6.83429443e-07
6.83431177e-07
6.83430136e-07
6.83430349e-07
6.83430455e-07
6.83429799e-07
6.83430716e-07
6.83430535e-07
6.83430012e-07
6.83430001e-07
6.83430125e-07
6.83429417e-07
6.83430511e-07
6.83430939e-07
6.83429992e-07
6.83430216e-07
6.83430181e-07
6.83430583e-07
6.83430727e-07
6.8343028e-07
6.83430957e-07
6.83429744e-07
6.83431553e-07
6.8343087e-07
6.83431489e-07
6.83430045e-07
6.83431696e-07
6.83429923e-07
6.83430695e-07
6.83429353e-07
6.83430384e-07
6.83430127e-07
6.83430634e-07
6.83430799e-07
6.83430547e-07
6.83431321e-07
6.83429976e-07
6.83431287e-07
6.83430245e-07
6.83430631e-07
6.83430567e-07
6.83430349e-07
6.8343145e-07
6.8342947e-07
6.83431188e-07
6.83430659e-07
6.83431343e-07
6.8343002e-07
6.83430283e-07
6.83429992e-07
6.83430411e-07
6.83430814e-07
6.83430121e-07
6.83430637e-07
6.83430174e-07
6.83430313e-07
6.83430769e-07
6.83429679e-07
6.83430723e-07
6.83431134e-07
6.83431811e-07
6.83430634e-07
6.83430936e-07
6.83430907e-07
6.83430641e-07
6.83431196e-07
6.83430532e-07
6.83431177e-07
6.834315e-07
6.83429982e-07
6.83431673e-07
6.8343145e-07
6.83430976e-07
6.83431183e-07
6.83430809e-07
6.83431584e-07
6.83430196e-07
6.83431572e-07
6.83432184e-07
6.83429458e-07
6.83431581e-07
6.83430635e-07
6.83431675e-07
6.83431274e-07
6.83431365e-07
6.83430649e-07
6.83430927e-07
6.83431084e-07
6.83431424e-07
6.83430958e-07
6.83431105e-07
6.83431561e-07
6.8343097e-07
6.83431638e-07
6.83430637e-07
6.83430818e-07
6.83431051e-07
6.83430545e-07
6.83431568e-07
6.83430499e-07
6.83431508e-07
6.83430893e-07
6.83431229e-07
6.83431796e-07
6.83430596e-07
6.83432339e-07
6.83431016e-07
6.83431842e-07
6.83431291e-07
6.83431906e-07
6.83431624e-07
6.83431447e-07
6.83431715e-07
6.83432005e-07
6.83430959e-07
6.83431326e-07
6.83431859e-07
6.83430795e-07
6.83431986e-07
6.83431462e-07
6.83431848e-07
6.83431946e-07
6.8343115e-07
6.83431195e-07
6.83432347e-07
6.83431483e-07
6.83431233e-07
6.83432381e-07
6.83431848e-07
6.83432844e-07
6.8343159e-07
6.83432235e-07
6.83432122e-07
6.83432554e-07
6.83431445e-07
6.83432716e-07
6.83431081e-07
6.83432558e-07
6.83431513e-07
6.83431622e-07
6.83432537e-07
6.83431391e-07
6.83432383e-07
6.83431657e-07
6.83431972e-07
6.83431705e-07
6.83432082e-07
6.83430778e-07
6.8343211e-07
6.83431606e-07
6.83431349e-07
6.8343217e-07
6.83432031e-07
6.8343195e-07
6.83431797e-07
6.83431985e-07
6.83431545e-07
6.83432684e-07
6.83432034e-07
6.83432452e-07
6.83432027e-07
6.8343169e-07
6.8343179e-07
6.83432417e-07
6.83431999e-07
6.83432825e-07
6.83431695e-07
6.83432624e-07
6.83431114e-07
6.83433102e-07
6.83432161e-07
6.83432261e-07
6.83432416e-07
6.83432698e-07
6.83432375e-07
6.83431823e-07
6.83432591e-07
6.83431713e-07
6.8343261e-07
6.83431863e-07
6.83432096e-07
6.83432599e-07
6.83432353e-07
6.834322e-07
6.83431752e-07
6.8343245e-07
6.83432918e-07
6.83432339e-07
6.83432075e-07
6.83432754e-07
6.83431774e-07
6.83433429e-07
6.83432436e-07
6.83433109e-07
6.83432298e-07
6.83433035e-07
6.8343307e-07
6.83432851e-07
6.83432562e-07
6.83433814e-07
6.83432382e-07
6.83433003e-07
6.83432218e-07
6.83432049e-07
6.83432855e-07
6.83431663e-07
6.83433287e-07
6.83432382e-07
6.83432316e-07
6.83433138e-07
6.83432369e-07
6.83433386e-07
6.8343204e-07
6.83432592e-07
6.83432596e-07
6.83432015e-07
6.83432903e-07
6.83432455e-07
6.83432785e-07
6.8343209e-07
6.83432858e-07
6.83432162e-07
6.83432272e-07
6.83432845e-07
6.83432589e-07
6.83432337e-07
6.8343203e-07
6.83432903e-07
6.83433491e-07
6.83432112e-07
6.83433025e-07
6.83432966e-07
6.83432918e-07
6.83432599e-07
6.83432328e-07
6.83433377e-07
6.83431498e-07
6.83433267e-07
6.83432304e-07
6.83432867e-07
6.83432013e-07
6.83432559e-07
6.83432126e-07
6.83432682e-07
6.83432235e-07
6.83432596e-07
6.83432215e-07
6.83432199e-07
6.83433413e-07
6.83432096e-07
6.83433133e-07
6.83432616e-07
6.83432343e-07
6.83433515e-07
6.83432167e-07
6.83432716e-07
6.8343363e-07
6.83432004e-07
6.83433254e-07
6.83431603e-07
6.83433562e-07
6.83431762e-07
6.83433679e-07
6.83431326e-07
6.83433041e-07
6.83432395e-07
6.83432486e-07
6.83433193e-07
6.83432839e-07
6.83432783e-07
6.83432707e-07
6.83432305e-07
6.83433012e-07
6.83432398e-07
6.8343285e-07
6.83432684e-07
6.83432925e-07
6.83432883e-07
6.83432567e-07
6.83432719e-07
6.83432665e-07
6.83432608e-07
6.83432718e-07
6.83432771e-07
6.83432753e-07
6.83432713e-07
6.83432685e-07
6.83432645e-07
6.83432726e-07
6.83432717e-07
6.83432708e-07
6.83432752e-07
6.834327e-07
6.83432737e-07
6.83432742e-07
6.83432718e-07
6.8343276e-07
6.83432743e-07
6.83432704e-07
6.83432711e-07
6.83432737e-07
6.8343274e-07
6.83432736e-07
6.83432733e-07
6.83432739e-07
6.83432733e-07
6.83432732e-07
6.83432731e-07
6.83432738e-07
6.83432712e-07
6.83432744e-07
6.83432721e-07
6.83432726e-07
6.83432732e-07
6.83432729e-07
6.83432729e-07
6.8343274e-07
6.83432727e-07
6.83432731e-07
6.83432719e-07
6.83432718e-07
6.83432738e-07
6.8343273e-07
6.83432734e-07
6.83432734e-07
6.83432716e-07
6.83432734e-07
6.83432731e-07
6.83432732e-07
6.83432737e-07
6.83432726e-07
6.83432743e-07
6.83432725e-07
6.83432737e-07
6.83432728e-07
6.83432725e-07
6.83432739e-07
6.83432724e-07
6.83432721e-07
6.83432739e-07
)
;

boundaryField
{
    closed
    {
        type            calculated;
        value           uniform 0;
    }
    open
    {
        type            calculated;
        value           uniform 0;
    }
    sides
    {
        type            empty;
    }
}


// ************************************************************************* //
