/*--------------------------------*- C++ -*----------------------------------*\
| =========                 |                                                 |
| \\      /  F ield         | OpenFOAM: The Open Source CFD Toolbox           |
|  \\    /   O peration     | Version:  2206                                  |
|   \\  /    A nd           | Website:  www.openfoam.com                      |
|    \\/     M anipulation  |                                                 |
\*---------------------------------------------------------------------------*/
FoamFile
{
    version     2.0;
    format      ascii;
    arch        "LSB;label=32;scalar=64";
    class       volScalarField;
    location    "6.6e-06";
    object      sourcePV;
}
// * * * * * * * * * * * * * * * * * * * * * * * * * * * * * * * * * * * * * //

dimensions      [1 -3 -1 0 0 0 0];

internalField   nonuniform List<scalar> 
3183
(
0
0
0
0
0
0
0
0
0
0
0
0
0
0
0
0
0
0
0
0
0
0
0
0
0
0
0
0
0
0
0
0
0
0
0
0
0
0
0
0
0
0
0
0
0
0
0
0
0
0
0
0
0
0
0
0
0
0
0
0
0
0
0
0
0
0
0
0
0
0
0
0
0
0
0
0
0
0
0
0
0
0
0
0
0
0
0
0
0
0
0
0
0
0
0
0
0
0
0
0
0
0
0
0
0
0
0
0
0
0
0
0
0
0
0
0
0
0
0
0
0
0
0
0
0
0
0
0
0
0
0
0
0
0
0
0
0
0
0
0
0
0
0
0
0
0
0
0
0
0
0
0
0
0
0
0
0
0
0
0
0
0
0
0
0
0
0
0
0
0
0
0
0
0
0
0
0
0
0
0
0
0
0
0
0
0
0
0
0
0
0
0
0
0
0
0
0
0
0
0
0
0
0
0
0
0
0
0
0
0
0
0
0
0
0
0
0
0
0
0
0
0
0
0
0
0
0
0
0
0
0
0
0
0
0
0
0
0
0
0
0
0
0
0
0
0
0
0
0
0
0
0
0
0
0
0
0
0
0
0
0
0
0
0
0
0
0
0
0
0
0
0
0
0
0
0
0
0
0
0
0
0
0
0
0
0
0
0
0
0
0
0
0
0
0
0
0
0
0
0
0
0
0
0
0
0
0
0
0
0
0
0
0
0
0
0
0
0
0
0
0
0
0
0
0
0
0
0
0
0
0
0
0
0
0
0
0
0
0
0
0
0
0
0
0
0
0
0
0
0
0
0
0
0
0
0
0
0
0
0
0
0
0
0
0
0
0
0
0
0
0
0
0
0
0
0
0
0
0
0
0
0
0
0
0
0
0
0
0
0
0
0
0
0
0
0
0
0
0
0
0
0
0
0
0
0
0
0
0
0
0
0
0
0
0
0
0
0
0
0
0
0
0
0
0
0
0
0
0
0
0
0
0
0
0
0
0
0
0
0
0
0
0
0
0
0
0
0
0
0
0
0
0
0
0
0
0
0
0
0
0
0
0
0
0
0
0
0
0
0
0
0
0
0
0
0
0
0
0
0
0
0
0
0
0
0
0
0
0
0
0
0
0
0
0
0
0
0
0
0
0
0
0
0
0
0
0
0
0
0
0
0
0
0
0
0
0
0
0
0
0
0
0
0
0
0
0
0
0
0
0
0
0
0
0
0
0
0
0
0
0
0
0
0
0
0
0
0
0
0
0
0
0
0
0
0
0
0
0
0
0
0
0
0
0
0
0
0
0
0
0
0
0
0
0
0
0
0
0
0
0
0
0
0
0
0
0
0
0
0
0
0
0
0
0
0
0
0
0
0
0
0
0
0
0
0
0
0
0
0
0
0
0
0
0
0
0
0
0
0
0
0
0
0
0
0
0
0
0
0
0
0
0
0
0
0
0
0
0
0
0
0
0
0
0
0
0
0
0
0
0
0
0
0
0
0
0
0
0
0
0
0
0
0
0
0
0
0
0
0
0
0
0
0
0
0
0
0
0
0
0
0
0
0
0
0
0
0
0
0
0
0
0
0
0
0
0
0
0
0
0
0
0
0
0
0
0
0
0
0
0
0
0
0
0
0
0
0
0
0
0
0
0
0
0
0
0
0
0
0
0
0
0
0
0
0
0
0
0
0
0
0
0
0
0
0
0
0
0
0
0
0
0
0
0
0
0
0
0
0
0
0
0
0
0
0
0
0
0
0
0
0
0
0
0
0
0
0
0
0
0
0
0
0
0
0
0
0
0
0
0
0
0
0
0
0
0
0
0
0
0
0
0
0
0
0
0
0
0
0
0
0
0
0
0
0
0
0
0
0
0
0
0
0
0
0
0
0
0
0
0
0
0
0
0
0
0
0
0
0
0
0
0
0
0
0
0
0
0
0
0
0
0
0
0
0
0
0
0
0
0
0
0
0
0
0
0
0
0
0
0
0
0
0
0
0
0
0
0
0
0
0
0
0
0
0
0
0
0
0
0
0
0
0
0
0
0
0
0
0
0
0
0
0
0
0
0
0
0
0
0
0
0
0
0
0
0
0
0
0
0
0
0
0
0
0
0
0
0
0
0
0
0
0
0
0
0
0
0
0
0
0
0
0
0
0
0
0
0
0
0
0
0
0
0
0
0
0
0
0
0
0
0
0
0
0
0
0
0
0
0
0
0
0
0
0
0
0
0
0
0
0
0
0
0
0
0
0
0
0
0
0
0
0
0
0
0
0
0
0
0
0
0
0
0
0
0
0
0
0
0
0
0
0
0
0
0
0
0
0
0
0
0
0
0
0
0
0
0
0
0
0
0
0
0
0
0
0
0
0
0
0
0
0
0
0
0
0
0
0
0
0
0
0
0
0
0
0
0
0
0
0
0
0
0
0
0
0
0
0
0
0
0
0
0
0
0
0
0
0
0
0
0
0
0
0
0
0
0
0
0
0
0
0
0
0
0
0
0
0
0
0
0
0
0
0
0
0
0
0
0
0
0
0
0
0
0
0
0
0
0
0
0
0
0
0
0
0
0
0
0
0
0
0
0
0
0
0
0
0
0
0
0
0
0
0
0
0
0
0
0
0
0
0
0
0
0
0
0
0
0
0
0
0
0
0
0
0
0
0
0
0
0
0
0
0
0
0
0
0
0
0
0
0
0
0
0
0
0
0
0
0
0
0
0
0
0
0
0
0
0
0
0
0
0
0
0
0
0
0
0
0
0
0
0
0
0
0
0
0
0
0
0
0
0
0
0
0
0
0
0
0
0
0
0
0
0
0
0
0
0
0
0
0
0
0
0
0
0
0
0
0
0
0
0
0
0
0
0
0
0
0
0
0
0
0
0
0
0
0
0
0
0
0
0
0
0
0
0
0
0
0
0
0
0
0
0
0
0
0
0
0
0
0
0
0
0
0
0
0
0
0
0
0
0
0
0
0
0
0
0
0
0
0
0
0
0
0
0
0
0
0
0
0
0
0
0
0
0
0
0
0
0
0
0
0
0
0
0
0
0
0
0
0
0
0
0
0
0
0
0
0
0
0
0
0
0
0
0
0
0
0
0
0
0
0
0
0
0
0
0
0
0
0
0
0
0
0
0
0
0
0
0
0
0
0
0
0
0
0
0
0
0
0
0
0
0
0
0
0
0
0
0
0
0
0
0
0
0
0
0
0
0
0
0
0
0
0
0
0
0
0
0
0
0
0
0
0
0
0
0
0
0
0
0
0
0
0
0
0
0
0
0
0
0
0
0
0
0
0
0
0
0
0
0
0
0
0
0
0
0
0
0
0
0
0
0
0
0
0
0
0
0
0
0
0
0
0
0
0
0
0
0
0
0
0
0
0
0
0
0
0
0
0
0
0
0
0
0
0
0
0
0
0
0
0
0
0
0
0
0
0
0
0
0
0
0
0
0
0
0
0
0
0
0
0
0
0
0
0
0
0
0
0
0
0
0
0
0
0
0
0
0
0
0
0
0
0
0
0
0
0
0
0
0
0
0
0
0
0
0
0
0
0
0
0
0
0
0
0
0
0
0
0
0
0
0
0
0
0
0
0
0
0
0
0
0
0
0
0
0
0
0
0
0
0
0
0
0
0
0
0
0
0
0
0
0
0
0
0
0
0
0
0
0
0
0
0
0
0
0
0
0
0
0
0
0
0
0
0
0
0
0
0
0
0
0
0
0
0
0
0
0
0
0
0
0
0
0
0
0
0
0
0
0
0
0
0
0
0
0
0
0
0
0
0
0
0
0
0
0
0
0
0
0
0
0
0
0
0
0
0
0
0
0
0
0
0
0
0
0
0
0
0
0
0
0
0
0
0
0
0
0
0
0
0
0
0
0
0
0
0
0
0
0
0
0
0
0
0
0
0
0
0
0
0
0
0
0
0
0
0
0
0
0
0
0
0
0
0
0
0
0
0
0
0
0
0
0
0
0
0
0
0
0
0
0
0
0
0
0
0
0
0
0
0
0
0
0
0
0
0
0
0
0
0
0
0
0
0
0
0
0
0
0
0
0
0
0
0
0
0
0
0
0
0
0
0
0
0
0
0
0
0
0
0
0
0
0
0
0
0
0
0
0
0
0
0
0
0
0
0
0
0
0
0
0
0
0
0
0
0
0
0
0
0
0
0
0
0
0
0
0
0
0
0
0
0
0
0
0
0
0
0
0
0
0
0
0
0
0
0
0
0
0
0
0
0
0
0
0
0
0
0
0
0
0
0
0
0
0
0
0
0
0
0
0
0
0
0
0
0
0
0
0
0
0
0
0
0
0
0
0
0
0
0
0
0
0
0
0
0
0
0
0
0
0
0
0
0
0
0
0
0
0
0
0
0
0
0
0
0
0
0
0
0
0
0
0
0
0
0
0
0
0
0
0
0
0
0
0
0
0
0
0
0
0
0
0
0
0
0
0
0
0
0
0
0
0
0
0
0
0
0
0
0
0
0
0
0
0
0
0
0
0
0
0
0
0
0
0
0
0
0
0
0
0
0
0
0
0
0
0
0
0
0
0
0
0
0
0
0
0
0
0
0
0
0
0
0
0
0
0
0
0
0
0
0
0
0
0
0
0
0
0
0
0
0
0
0
0
0
0
0
0
0
0
0
0
0
0
0
0
0
0
0
0
0
0
0
0
0
0
0
0
0
0
0
0
0
0
0
0
0
0
0
0
0
0
0
0
0
0
0
0
0
0
0
0
0
0
0
0
0
0
0
0
0
0
0
0
0
0
0
0
0
0
0
0
0
0
0
0
0
0
0
0
0
0
0
0
0
0
0
0
0
0
0
0
0
0
0
0
0
0
0
0
0
0
0
0
0
0
0
0
0
0
0
0
0
0
0
0
0
0
0
0
0
0
0
0
0
0
0
0
0
0
0
0
0
0
0
0
0
0
0
0
0
0
0
0
0
0
0
0
0
0
0
0
0
0
0
0
0
0
0
0
0
0
0
0
0
0
0
0
0
0
0
0
0
0
0
0
0
0
0
0
0
0
0
0
0
0
0
0
0
0
0
0
0
0
0
0
0
0
0
0
0
0
0
0
0
0
0
0
0
0
0
0
0
0
0
0
0
0
0
0
0
0
0
0
0
0
0
0
0
0
0
0
0
0
0
0
0
0
0
0
0
0
0
0
0
0
0
0
0
0
0
0
0
0
0
0
0
0
0
0
0
0
0
0
0
0
0
0
0
0
0
0
0
0
0
0
0
0
0
0
0
0
0
0
0
0
0
0
0
0
0
0
0
0
0
0
0
0
0
0
0
0
0
0
0
0
0
0
0
0
0
0
0
0
0
0
0
0
0
0
0
0
0
0
0
0
0
0
0
0
0
0
0
0
0
0
0
0
0
0
0
0
0
0
0
0
0
0
0
0
0
0
0
0
0
0
0
0
0
0
0
0
0
0
8.17731178e-299
0
1.05914528e-292
0
7.10909716e-287
0
2.48675194e-281
0
4.38368949e-277
0
4.05229176e-273
0
2.58437539e-269
0
1.27417451e-265
0
5.16722268e-262
0
1.79172287e-258
0
5.45390641e-255
0
1.48525343e-251
0
3.67053785e-248
0
8.32311628e-245
0
1.74694271e-241
0
3.41821727e-238
0
6.27193369e-235
0
1.08447984e-231
0
1.77448109e-228
0
2.75741803e-225
0
4.08183843e-222
0
5.77162952e-219
0
7.81365352e-216
0
1.01490598e-212
0
1.26710911e-209
0
1.52311234e-206
0
1.76529578e-203
0
1.97534651e-200
0
2.13660885e-197
0
2.23629101e-194
0
2.26712061e-191
0
2.22815891e-188
0
2.12466333e-185
0
1.96708124e-182
0
1.76941686e-179
0
1.54730368e-176
2.91034146e-178
1.31612464e-173
5.81911664e-175
1.08946118e-170
7.428606e-172
8.78046318e-168
7.98000758e-169
6.89276744e-165
7.75089903e-166
5.27233799e-162
7.01291118e-163
3.93091452e-159
6.00215956e-160
2.85757379e-156
4.90328749e-157
2.02597405e-153
3.84536654e-154
1.4012287e-150
2.90644014e-151
9.45620255e-148
2.12311387e-148
6.22786628e-145
1.50200589e-145
4.00357074e-142
1.03071472e-142
2.51247396e-139
6.86913822e-140
1.53939861e-136
4.45018798e-137
9.20948774e-134
2.80476401e-134
5.38002255e-131
1.72075372e-131
3.06913827e-128
1.02814521e-128
1.70978796e-125
5.98506066e-126
9.30168105e-123
3.39538672e-123
4.94156121e-120
1.87764435e-120
2.56348484e-117
1.01230238e-117
1.2984686e-114
5.32139058e-115
6.42135035e-112
2.72760282e-112
3.10002453e-109
1.36326785e-109
1.46078605e-106
6.64369031e-107
6.71766788e-104
3.15668905e-104
3.01423422e-101
1.46216792e-101
1.31936818e-98
6.60142287e-99
5.6321837e-96
2.90447547e-96
2.34415998e-93
1.2450472e-93
9.50957093e-91
5.19843643e-91
3.75877495e-88
2.11344841e-88
1.44702419e-85
8.36348622e-86
5.42330895e-83
3.22021834e-83
1.97791837e-80
1.20584276e-80
7.01591086e-78
4.38921446e-78
2.41905511e-75
1.5521501e-75
8.10259068e-73
5.32925175e-73
2.63464887e-70
1.77538166e-70
8.31031986e-68
5.73439386e-68
2.54069452e-65
1.79431153e-65
7.52202843e-63
5.43413343e-63
2.15443669e-60
1.59129832e-60
5.96310684e-58
4.50072719e-58
1.5930336e-55
1.22798424e-55
4.10210503e-53
3.22769487e-53
1.01664272e-50
8.16065843e-51
2.42094031e-48
1.98133188e-48
5.52891896e-46
4.61068261e-46
1.2084253e-43
1.02617431e-43
2.52164461e-41
2.17908084e-41
5.01011769e-39
4.40273991e-39
9.4482632e-37
8.43711912e-37
1.68508575e-34
1.52789953e-34
2.83021442e-32
2.60355114e-32
4.45423616e-30
4.15350496e-30
6.52963633e-28
6.16623723e-28
8.85155613e-26
8.45680429e-26
1.09971867e-23
1.06183274e-23
1.23817129e-21
1.2068111e-21
1.24505121e-19
1.22345843e-19
1.09658222e-17
1.08491564e-17
8.23264104e-16
8.18848873e-16
5.06071236e-14
5.04973268e-14
2.38688395e-12
2.37300604e-12
1.16710409e-09
1.26876086e-09
1.36726659
3.59751861
9.40085449
8.38089676
1.6873272
1.36219321
0.163807422
0.149445328
0.020229776
0.0195985898
0.00223503478
0.00222523836
0.000228276393
0.000229544328
2.80141773e-05
2.79549929e-05
9.65425898e-06
9.65697104e-06
8.14559733e-06
8.14629176e-06
8.03164477e-06
8.03167916e-06
8.02362787e-06
8.02362498e-06
8.02310152e-06
8.02309865e-06
8.02306489e-06
8.02307069e-06
8.02305142e-06
8.02307101e-06
8.02305177e-06
8.02306434e-06
8.02305193e-06
8.02307449e-06
8.02304604e-06
8.02307384e-06
8.02305148e-06
8.02305137e-06
8.02306255e-06
8.02305694e-06
8.02306222e-06
8.02305511e-06
8.02307006e-06
8.02304995e-06
8.02306419e-06
8.023056e-06
8.02306844e-06
8.02306082e-06
8.02306995e-06
8.02305132e-06
8.02306117e-06
8.02305765e-06
8.02306165e-06
8.02306292e-06
8.02306293e-06
8.02305889e-06
8.02305503e-06
8.02306016e-06
8.02306801e-06
8.0230551e-06
8.02305829e-06
8.02306216e-06
8.02305986e-06
8.02305936e-06
8.02306365e-06
8.02305125e-06
8.02306899e-06
8.02305225e-06
8.02306347e-06
8.02304433e-06
8.02306882e-06
8.02304323e-06
8.02306299e-06
8.02305548e-06
8.02304977e-06
8.02307467e-06
8.02305663e-06
8.0230626e-06
8.0230657e-06
8.02306868e-06
8.02306156e-06
8.02306254e-06
8.02305994e-06
8.02306443e-06
8.02306508e-06
8.02306181e-06
8.02306074e-06
8.0230595e-06
8.02306135e-06
8.02305623e-06
8.0230668e-06
8.02306318e-06
8.02305649e-06
8.02307304e-06
8.02306199e-06
8.02306702e-06
8.02305217e-06
8.02307191e-06
8.02306287e-06
8.02306445e-06
8.02306506e-06
8.02306829e-06
8.02307125e-06
8.0230637e-06
8.02306343e-06
8.02305748e-06
8.02306757e-06
8.0230709e-06
8.02305502e-06
8.02305684e-06
8.02307006e-06
8.02304598e-06
8.023069e-06
8.02305199e-06
8.0230596e-06
8.02305856e-06
8.02306845e-06
8.02306161e-06
8.02306048e-06
8.02306774e-06
8.02305486e-06
8.02307209e-06
8.02305356e-06
8.02307195e-06
8.02306551e-06
8.02305865e-06
8.0230575e-06
8.0230635e-06
8.02306939e-06
8.02306603e-06
8.02305815e-06
8.02305797e-06
8.0230756e-06
8.02307842e-06
8.0230625e-06
8.02307204e-06
8.02307036e-06
8.02305697e-06
8.02306719e-06
8.02306076e-06
8.02306699e-06
8.02306284e-06
8.02306062e-06
8.02306155e-06
8.02306525e-06
8.0230689e-06
8.02305761e-06
8.02307146e-06
8.02306189e-06
8.02307169e-06
8.02306538e-06
8.02305931e-06
8.02307147e-06
8.02306723e-06
8.02306632e-06
8.02307656e-06
8.02306454e-06
8.02306793e-06
8.0230636e-06
8.02307151e-06
8.02307129e-06
8.02305932e-06
8.02307481e-06
8.02306049e-06
8.02308295e-06
8.02306664e-06
8.02307254e-06
8.02306543e-06
8.02306707e-06
8.02306672e-06
8.02306973e-06
8.02305691e-06
8.02306897e-06
8.02306487e-06
8.02305938e-06
8.02307041e-06
8.02307388e-06
8.02307213e-06
8.02306647e-06
8.02308202e-06
8.02307566e-06
8.0230803e-06
8.02307057e-06
8.02307284e-06
8.02306562e-06
8.02307723e-06
8.02306883e-06
8.02306906e-06
8.02307292e-06
8.02306872e-06
8.02307532e-06
8.0230736e-06
8.02307152e-06
8.02307507e-06
8.0230813e-06
8.02306139e-06
8.02308282e-06
8.02306637e-06
8.02308059e-06
8.02306662e-06
8.02307738e-06
8.02306473e-06
8.02307182e-06
8.02306587e-06
8.02306798e-06
8.02307311e-06
8.02307079e-06
8.02307615e-06
8.02307835e-06
8.02306901e-06
8.02308204e-06
8.02306295e-06
8.02308576e-06
8.02306912e-06
8.02307206e-06
8.0230732e-06
8.02307151e-06
8.02307686e-06
8.02306886e-06
8.02307636e-06
8.02306917e-06
8.02308524e-06
8.02306785e-06
8.02307262e-06
8.02307488e-06
8.02306895e-06
8.02307484e-06
8.02307603e-06
8.0230728e-06
8.02307551e-06
8.02308068e-06
8.02307167e-06
8.02308027e-06
8.023082e-06
8.02307495e-06
8.02307144e-06
8.0230751e-06
8.023082e-06
8.02306587e-06
8.02308623e-06
8.02307401e-06
8.02307651e-06
8.02307776e-06
8.02307005e-06
8.02308082e-06
8.0230787e-06
8.02307256e-06
8.02307242e-06
8.02307388e-06
8.02306557e-06
8.02307842e-06
8.02308344e-06
8.02307232e-06
8.02307495e-06
8.02307454e-06
8.02307926e-06
8.02308095e-06
8.02307571e-06
8.02308365e-06
8.0230694e-06
8.02309065e-06
8.02308263e-06
8.0230899e-06
8.02307294e-06
8.02309233e-06
8.02307151e-06
8.02308058e-06
8.02306482e-06
8.02307692e-06
8.0230739e-06
8.02307986e-06
8.0230818e-06
8.02307884e-06
8.02308793e-06
8.02307214e-06
8.02308753e-06
8.02307529e-06
8.02307983e-06
8.02307907e-06
8.02307651e-06
8.02308944e-06
8.02306618e-06
8.02308637e-06
8.02308015e-06
8.02308819e-06
8.02307264e-06
8.02307574e-06
8.02307232e-06
8.02307724e-06
8.02308198e-06
8.02307383e-06
8.0230799e-06
8.02307446e-06
8.02307609e-06
8.02308145e-06
8.02306864e-06
8.02308091e-06
8.02308574e-06
8.02309369e-06
8.02307986e-06
8.02308341e-06
8.02308307e-06
8.02307994e-06
8.02308646e-06
8.02307866e-06
8.02308623e-06
8.02309004e-06
8.0230722e-06
8.02309207e-06
8.02308944e-06
8.02308388e-06
8.02308631e-06
8.02308191e-06
8.02309102e-06
8.02307471e-06
8.02309087e-06
8.02309806e-06
8.02306605e-06
8.02309098e-06
8.02307987e-06
8.02309209e-06
8.02308738e-06
8.02308845e-06
8.02308004e-06
8.0230833e-06
8.02308514e-06
8.02308914e-06
8.02308367e-06
8.0230854e-06
8.02309074e-06
8.02308381e-06
8.02309166e-06
8.0230799e-06
8.02308202e-06
8.02308476e-06
8.02307881e-06
8.02309083e-06
8.02307828e-06
8.02309012e-06
8.0230829e-06
8.02308685e-06
8.02309351e-06
8.02307941e-06
8.02309989e-06
8.02308435e-06
8.02309405e-06
8.02308758e-06
8.0230948e-06
8.02309149e-06
8.02308941e-06
8.02309256e-06
8.02309597e-06
8.02308368e-06
8.02308799e-06
8.02309425e-06
8.02308175e-06
8.02309574e-06
8.02308959e-06
8.02309411e-06
8.02309527e-06
8.02308592e-06
8.02308644e-06
8.02309998e-06
8.02308983e-06
8.02308689e-06
8.02310038e-06
8.02309412e-06
8.02310582e-06
8.02309108e-06
8.02309867e-06
8.02309733e-06
8.02310241e-06
8.02308939e-06
8.02310431e-06
8.02308511e-06
8.02310246e-06
8.02309018e-06
8.02309147e-06
8.02310222e-06
8.02308875e-06
8.0231004e-06
8.02309188e-06
8.02309557e-06
8.02309244e-06
8.02309687e-06
8.02308155e-06
8.02309719e-06
8.02309127e-06
8.02308826e-06
8.0230979e-06
8.02309626e-06
8.02309532e-06
8.02309352e-06
8.02309572e-06
8.02309056e-06
8.02310394e-06
8.02309631e-06
8.02310121e-06
8.02309622e-06
8.02309226e-06
8.02309344e-06
8.0231008e-06
8.02309589e-06
8.02310559e-06
8.02309232e-06
8.02310323e-06
8.02308549e-06
8.02310885e-06
8.0230978e-06
8.02309896e-06
8.02310079e-06
8.0231041e-06
8.02310031e-06
8.02309383e-06
8.02310285e-06
8.02309253e-06
8.02310307e-06
8.02309429e-06
8.02309704e-06
8.02310294e-06
8.02310004e-06
8.02309825e-06
8.02309299e-06
8.02310119e-06
8.02310668e-06
8.02309989e-06
8.02309678e-06
8.02310476e-06
8.02309324e-06
8.02311269e-06
8.02310103e-06
8.02310893e-06
8.02309941e-06
8.02310806e-06
8.02310847e-06
8.0231059e-06
8.0231025e-06
8.02311721e-06
8.02310039e-06
8.02310768e-06
8.02309847e-06
8.02309647e-06
8.02310594e-06
8.02309194e-06
8.02311102e-06
8.02310039e-06
8.02309962e-06
8.02310927e-06
8.02310023e-06
8.02311218e-06
8.02309637e-06
8.02310286e-06
8.0231029e-06
8.02309608e-06
8.0231065e-06
8.02310125e-06
8.02310513e-06
8.02309696e-06
8.02310599e-06
8.02309781e-06
8.0230991e-06
8.02310583e-06
8.02310282e-06
8.02309986e-06
8.02309625e-06
8.02310652e-06
8.02311342e-06
8.02309722e-06
8.02310794e-06
8.02310725e-06
8.02310668e-06
8.02310294e-06
8.02309976e-06
8.02311208e-06
8.02309e-06
8.02311078e-06
8.02309947e-06
8.02310609e-06
8.02309606e-06
8.02310247e-06
8.02309739e-06
8.02310391e-06
8.02309867e-06
8.0231029e-06
8.02309843e-06
8.02309824e-06
8.0231125e-06
8.02309704e-06
8.02310921e-06
8.02310314e-06
8.02309994e-06
8.0231137e-06
8.02309786e-06
8.02310431e-06
8.02311505e-06
8.02309595e-06
8.02311064e-06
8.02309124e-06
8.02311425e-06
8.02309311e-06
8.02311562e-06
8.02308799e-06
8.02310814e-06
8.02310054e-06
8.02310161e-06
8.02310991e-06
8.02310575e-06
8.0231051e-06
8.02310421e-06
8.02309948e-06
8.02310779e-06
8.02310057e-06
8.02310589e-06
8.02310394e-06
8.02310677e-06
8.02310627e-06
8.02310256e-06
8.02310434e-06
8.02310371e-06
8.02310304e-06
8.02310433e-06
8.02310496e-06
8.02310475e-06
8.02310428e-06
8.02310395e-06
8.02310348e-06
8.02310443e-06
8.02310432e-06
8.02310422e-06
8.02310474e-06
8.02310412e-06
8.02310456e-06
8.02310462e-06
8.02310433e-06
8.02310483e-06
8.02310463e-06
8.02310417e-06
8.02310425e-06
8.02310456e-06
8.0231046e-06
8.02310455e-06
8.02310451e-06
8.02310459e-06
8.02310451e-06
8.0231045e-06
8.02310449e-06
8.02310458e-06
8.02310427e-06
8.02310464e-06
8.02310438e-06
8.02310443e-06
8.0231045e-06
8.02310447e-06
8.02310447e-06
8.0231046e-06
8.02310444e-06
8.02310449e-06
8.02310434e-06
8.02310433e-06
8.02310458e-06
8.02310448e-06
8.02310452e-06
8.02310452e-06
8.02310431e-06
8.02310452e-06
8.02310449e-06
8.0231045e-06
8.02310456e-06
8.02310443e-06
8.02310463e-06
8.02310442e-06
8.02310456e-06
8.02310445e-06
8.02310442e-06
8.02310459e-06
8.02310441e-06
8.02310438e-06
8.02310459e-06
)
;

boundaryField
{
    closed
    {
        type            calculated;
        value           uniform 0;
    }
    open
    {
        type            calculated;
        value           uniform 0;
    }
    sides
    {
        type            empty;
    }
}


// ************************************************************************* //
