/*--------------------------------*- C++ -*----------------------------------*\
| =========                 |                                                 |
| \\      /  F ield         | OpenFOAM: The Open Source CFD Toolbox           |
|  \\    /   O peration     | Version:  2206                                  |
|   \\  /    A nd           | Website:  www.openfoam.com                      |
|    \\/     M anipulation  |                                                 |
\*---------------------------------------------------------------------------*/
FoamFile
{
    version     2.0;
    format      ascii;
    arch        "LSB;label=32;scalar=64";
    class       volScalarField;
    location    "1.28e-05";
    object      p;
}
// * * * * * * * * * * * * * * * * * * * * * * * * * * * * * * * * * * * * * //

dimensions      [1 -1 -2 0 0 0 0];

internalField   nonuniform List<scalar> 
3183
(
101325
101325
101325
101325
101325
101325
101325
101325
101325
101325
101325
101325
101325
101325
101325
101325
101325
101325
101325
101325
101325
101325
101325
101325
101325
101325
101325
101325
101325
101325
101325
101325
101325
101325
101325
101325
101325
101325
101325
101325
101325
101325
101325
101325
101325
101325
101325
101325
101325
101325
101325
101325
101325
101325
101325
101325
101325
101325
101325
101325
101325
101325
101325
101325
101325
101325
101325
101325
101325
101325
101325
101325
101325
101325
101325
101325
101325
101325
101325
101325
101325
101325
101325
101325
101325
101325
101325
101325
101325
101325
101325
101325
101325
101325
101325
101325
101325
101325
101325
101325
101325
101325
101325
101325
101325
101325
101325
101325
101325
101325
101325
101325
101325
101325
101325
101325
101325
101325
101325
101325
101325
101325
101325
101325
101325
101325
101325
101325
101325
101325
101325
101325
101325
101325
101325
101325
101325
101325
101325
101325
101325
101325
101325
101325
101325
101325
101325
101325
101325
101325
101325
101325
101325
101325
101325
101325
101325
101325
101325
101325
101325
101325
101325
101325
101325
101325
101325
101325
101325
101325
101325
101325
101325
101325
101325
101325
101325
101325
101325
101325
101325
101325
101325
101325
101325
101325
101325
101325
101325
101325
101325
101325
101325
101325
101325
101325
101325
101325
101325
101325
101325
101325
101325
101325
101325
101325
101325
101325
101325
101325
101325
101325
101325
101325
101325
101325
101325
101325
101325
101325
101325
101325
101325
101325
101325
101325
101325
101325
101325
101325
101325
101325
101325
101325
101325
101325
101325
101325
101325
101325
101325
101325
101325
101325
101325
101325
101325
101325
101325
101325
101325
101325
101325
101325
101325
101325
101325
101325
101325
101325
101325
101325
101325
101325
101325
101325
101325
101325
101325
101325
101325
101325
101325
101325
101325
101325
101325
101325
101325
101325
101325
101325
101325
101325
101325
101325
101325
101325
101325
101325
101325
101325
101325
101325
101325
101325
101325
101325
101325
101325
101325
101325
101325
101325
101325
101325
101325
101325
101325
101325
101325
101325
101325
101325
101325
101325
101325
101325
101325
101325
101325
101325
101325
101325
101325
101325
101325
101325
101325
101325
101325
101325
101325
101325
101325
101325
101325
101325
101325
101325
101325
101325
101325
101325
101325
101325
101325
101325
101325
101325
101325
101325
101325
101325
101325
101325
101325
101325
101325
101325
101325
101325
101325
101325
101325
101325
101325
101325
101325
101325
101325
101325
101325
101325
101325
101325
101325
101325
101325
101325
101325
101325
101325
101325
101325
101325
101325
101325
101325
101325
101325
101325
101325
101325
101325
101325
101325
101325
101325
101325
101325
101325
101325
101325
101325
101325
101325
101325
101325
101325
101325
101325
101325
101325
101325
101325
101325
101325
101325
101325
101325
101325
101325
101325
101325
101325
101325
101325
101325
101325
101325
101325
101325
101325
101325
101325
101325
101325
101325
101325
101325
101325
101325
101325
101325
101325
101325
101325
101325
101325
101325
101325
101325
101325
101325
101325
101325
101325
101325
101325
101325
101325
101325
101325
101325
101325
101325
101325
101325
101325
101325
101325
101325
101325
101325
101325
101325
101325
101325
101325
101325
101325
101325
101325
101325
101325
101325
101325
101325
101325
101325
101325
101325
101325
101325
101325
101325
101325
101325
101325
101325
101325
101325
101325
101325
101325
101325
101325
101325
101325
101325
101325
101325
101325
101325
101325
101325
101325
101325
101325
101325
101325
101325
101325
101325
101325
101325
101325
101325
101325
101325
101325
101325
101325
101325
101325
101325
101325
101325
101325
101325
101325
101325
101325
101325
101325
101325
101325
101325
101325
101325
101325
101325
101325
101325
101325
101325
101325
101325
101325
101325
101325
101325
101325
101325
101325
101325
101325
101325
101325
101325
101325
101325
101325
101325
101325
101325
101325
101325
101325
101325
101325
101325
101325
101325
101325
101325
101325
101325
101325
101325
101325
101325
101325
101325
101325
101325
101325
101325
101325
101325
101325
101325
101325
101325
101325
101325
101325
101325
101325
101325
101325
101325
101325
101325
101325
101325
101325
101325
101325
101325
101325
101325
101325
101325
101325
101325
101325
101325
101325
101325
101325
101325
101325
101325
101325
101325
101325
101325
101325
101325
101325
101325
101325
101325
101325
101325
101325
101325
101325
101325
101325
101325
101325
101325
101325
101325
101325
101325
101325
101325
101325
101325
101325
101325
101325
101325
101325
101325
101325
101325
101325
101325
101325
101325
101325
101325
101325
101325
101325
101325
101325
101325
101325
101325
101325
101325
101325
101325
101325
101325
101325
101325
101325
101325
101325
101325
101325
101325
101325
101325
101325
101325
101325
101325
101325
101325
101325
101325
101325
101325
101325
101325
101325
101325
101325
101325
101325
101325
101325
101325
101325
101325
101325
101325
101325
101325
101325
101325
101325
101325
101325
101325
101325
101325
101325
101325
101325
101325
101325
101325
101325
101325
101325
101325
101325
101325
101325
101325
101325
101325
101325
101325
101325
101325
101325
101325
101325
101325
101325
101325
101325
101325
101325
101325
101325
101325
101325
101325
101325
101325
101325
101325
101325
101325
101325
101325
101325
101325
101325
101325
101325
101325
101325
101325
101325
101325
101325
101325
101325
101325
101325
101325
101325
101325
101325
101325
101325
101325
101325
101325
101325
101325
101325
101325
101325
101325
101325
101325
101325
101325
101325
101325
101325
101325
101325
101325
101325
101325
101325
101325
101325
101325
101325
101325
101325
101325
101325
101325
101325
101325
101325
101325
101325
101325
101325
101325
101325
101325
101325
101325
101325
101325
101325
101325
101325
101325
101325
101325
101325
101325
101325
101325
101325
101325
101325
101325
101325
101325
101325
101325
101325
101325
101325
101325
101325
101325
101325
101325
101325
101325
101325
101325
101325
101325
101325
101325
101325
101325
101325
101325
101325
101325
101325
101325
101325
101325
101325
101325
101325
101325
101325
101325
101325
101325
101325
101325
101325
101325
101325
101325
101325
101325
101325
101325
101325
101325
101325
101325
101325
101325
101325
101325
101325
101325
101325
101325
101325
101325
101325
101325
101325
101325
101325
101325
101325
101325
101325
101325
101325
101325
101325
101325
101325
101325
101325
101325
101325
101325
101325
101325
101325
101325
101325
101325
101325
101325
101325
101325
101325
101325
101325
101325
101325
101325
101325
101325
101325
101325
101325
101325
101325
101325
101325
101325
101325
101325
101325
101325
101325
101325
101325
101325
101325
101325
101325
101325
101325
101325
101325
101325
101325
101325
101325
101325
101325
101325
101325
101325
101325
101325
101325
101325
101325
101325
101325
101325
101325
101325
101325
101325
101325
101325
101325
101325
101325
101325
101325
101325
101325
101325
101325
101325
101325
101325
101325
101325
101325
101325
101325
101325
101325
101325
101325
101325
101325
101325
101325
101325
101325
101325
101325
101325
101325
101325
101325
101325
101325
101325
101325
101325
101325
101325
101325
101325
101325
101325
101325
101325
101325
101325
101325
101325
101325
101325
101325
101325
101325
101325
101325
101325
101325
101325
101325
101325
101325
101325
101325
101325
101325
101325
101325
101325
101325
101325
101325
101325
101325
101325
101325
101325
101325
101325
101325
101325
101325
101325
101325
101325
101325
101325
101325
101325
101325
101325
101325
101325
101325
101325
101325
101325
101325
101325
101325
101325
101325
101325
101325
101325
101325
101325
101325
101325
101325
101325
101325
101325
101325
101325
101325
101325
101325
101325
101325
101325
101325
101325
101325
101325
101325
101325
101325
101325
101325
101325
101325
101325
101325
101325
101325
101325
101325
101325
101325
101325
101325
101325
101325
101325
101325
101325
101325
101325
101325
101325
101325
101325
101325
101325
101325
101325
101325
101325
101325
101325
101325
101325
101325
101325
101325
101325
101325
101325
101325
101325
101325
101325
101325
101325
101325
101325
101325
101325
101325
101325
101325
101325
101325
101325
101325
101325
101325
101325
101325
101325
101325
101325
101325
101325
101325
101325
101325
101325
101325
101325
101325
101325
101325
101325
101325
101325
101325
101325
101325
101325
101325
101325
101325
101325
101325
101325
101325
101325
101325
101325
101325
101325
101325
101325
101325
101325
101325
101325
101325
101325
101325
101325
101325
101325
101325
101325
101325
101325
101325
101325
101325
101325
101325
101325
101325
101325
101325
101325
101325
101325
101325
101325
101325
101325
101325
101325
101325
101325
101325
101325
101325
101325
101325
101325
101325
101325
101325
101325
101325
101325
101325
101325
101325
101325
101325
101325
101325
101325
101325
101325
101325
101325
101325
101325
101325
101325
101325
101325
101325
101325
101325
101325
101325
101325
101325
101325
101325
101325
101325
101325
101325
101325
101325
101325
101325
101325
101325
101325
101325
101325
101325
101325
101325
101325
101325
101325
101325
101325
101325
101325
101325
101325
101325
101325
101325
101325
101325
101325
101325
101325
101325
101325
101325
101325
101325
101325
101325
101325
101325
101325
101325
101325
101325
101325
101325
101325
101325
101325
101325
101325
101325
101325
101325
101325
101325
101325
101325
101325
101325
101325
101325
101325
101325
101325
101325
101325
101325
101325
101325
101325
101325
101325
101325
101325
101325
101325
101325
101325
101325
101325
101325
101325
101325
101325
101325
101325
101325
101325
101325
101325
101325
101325
101325
101325
101325
101325
101325
101325
101325
101325
101325
101325
101325
101325
101325
101325
101325
101325
101325
101325
101325
101325
101325
101325
101325
101325
101325
101325
101325
101325
101325
101325
101325
101325
101325
101325
101325
101325
101325
101325
101325
101325
101325
101325
101325
101325
101325
101325
101325
101325
101325
101325
101325
101325
101325
101325
101325
101325
101325
101325
101325
101325
101325
101325
101325
101325
101325
101325
101325
101325
101325
101325
101325
101325
101325
101325
101325
101325
101325
101325
101325
101325
101325
101325
101325
101325
101325
101325
101325
101325
101325
101325
101325
101325
101325
101325
101325
101325
101325
101325
101325
101325
101325
101325
101325
101325
101325
101325
101325
101325
101325
101325
101325
101325
101325
101325
101325
101325
101325
101325
101325
101325
101325
101325
101325
101325
101325
101325
101325
101325
101325
101325
101325
101325
101325
101325
101325
101325
101325
101325
101325
101325
101325
101325
101325
101325
101325
101325
101325
101325
101325
101325
101325
101325
101325
101325
101325
101325
101325
101325
101325
101325
101325
101325
101325
101325
101325
101325
101325
101325
101325
101325
101325
101325
101325
101325
101325
101325
101325
101325
101325
101325
101325
101325
101325
101325
101325
101325
101325
101325
101325
101325
101325
101325
101325
101325
101325
101325
101325
101325
101325
101325
101325
101325
101325
101325
101325
101325
101325
101325
101325
101325
101325
101325
101325
101325
101325
101325
101325
101325
101325
101325
101325
101325
101325
101325
101325
101325
101325
101325
101325
101325
101325
101325
101325
101325
101325
101325
101325
101325
101325
101325
101325
101325
101325
101325
101325
101325
101325
101325
101325
101325
101325
101325
101325
101325
101325
101325
101325
101325
101325
101325
101325
101325
101325
101325
101325
101325
101325
101325
101325
101325
101325
101325
101325
101325
101325
101325
101325
101325
101325
101325
101325
101325
101325
101325
101325
101325
101325
101325
101325
101325
101325
101325
101325
101325
101325
101325
101325
101325
101325
101325
101325
101325
101325
101325
101325
101325
101325
101325
101325
101325
101325
101325
101325
101325
101325
101325
101325
101325
101325
101325
101325
101325
101325
101325
101325
101325
101325
101325
101325
101325
101325
101325
101325
101325
101325
101325
101325
101325
101325
101325
101325
101325
101325
101325
101325
101325
101325
101325
101325
101325
101325
101325
101325
101325
101325
101325
101325
101325
101325
101325
101325
101325
101325
101325
101325
101325
101325
101325
101325
101325
101325
101325
101325
101325
101325
101325
101325
101325
101325
101325
101325
101325
101325
101325
101325
101325
101325
101325
101325
101325
101325
101325
101325
101325
101325
101325
101325
101325
101325
101325
101325
101325
101325
101325
101325
101325
101325
101325
101325
101325
101325
101325
101325
101325
101325
101325
101325
101325
101325
101325
101325
101325
101325
101325
101325
101325
101325
101325
101325
101325
101325
101325
101325
101325
101325
101325
101325
101325
101325
101325
101325
101325
101325
101325
101325
101325
101325
101325
101325
101325
101325
101325
101325
101325
101325
101325
101325
101325
101325
101325
101325
101325
101325
101325
101325
101325
101325
101325
101325
101325
101325
101325
101325
101325
101325
101325
101325
101325
101325
101325
101325
101325
101325
101325
101325
101325
101325
101325
101325
101325
101325
101325
101325
101325
101325
101325
101325
101325
101325
101325
101325
101325
101325
101325
101325
101325
101325
101325
101325
101325
101325
101325
101325
101325
101325
101325
101325
101325
101325
101325
101325
101325
101325
101325
101325
101325
101325
101325
101325
101325
101325
101325
101325
101325
101325
101325
101325
101325
101325
101325
101325
101325
101325
101325
101325
101325
101325
101325
101324.999
101324.999
101324.999
101324.999
101324.999
101324.999
101324.999
101324.999
101324.999
101324.999
101324.999
101324.999
101324.999
101324.999
101324.999
101324.999
101324.999
101324.998
101324.998
101324.998
101324.998
101324.998
101324.998
101324.998
101324.998
101324.997
101324.997
101324.997
101324.997
101324.997
101324.997
101324.996
101324.996
101324.996
101324.996
101324.995
101324.995
101324.995
101324.994
101324.994
101324.994
101324.993
101324.993
101324.992
101324.992
101324.991
101324.991
101324.99
101324.99
101324.989
101324.989
101324.988
101324.987
101324.986
101324.986
101324.985
101324.984
101324.983
101324.982
101324.981
101324.98
101324.978
101324.977
101324.976
101324.974
101324.973
101324.971
101324.97
101324.968
101324.966
101324.964
101324.962
101324.96
101324.958
101324.956
101324.953
101324.951
101324.948
101324.945
101324.942
101324.939
101324.935
101324.932
101324.928
101324.924
101324.92
101324.916
101324.912
101324.907
101324.902
101324.897
101324.891
101324.886
101324.88
101324.873
101324.867
101324.86
101324.853
101324.845
101324.837
101324.829
101324.82
101324.811
101324.801
101324.792
101324.781
101324.77
101324.759
101324.747
101324.735
101324.722
101324.708
101324.694
101324.679
101324.664
101324.648
101324.631
101324.613
101324.595
101324.576
101324.556
101324.535
101324.514
101324.491
101324.468
101324.444
101324.418
101324.392
101324.364
101324.336
101324.306
101324.275
101324.243
101324.21
101324.175
101324.139
101324.102
101324.063
101324.023
101323.981
101323.938
101323.893
101323.847
101323.799
101323.749
101323.697
101323.643
101323.588
101323.53
101323.471
101323.409
101323.346
101323.28
101323.212
101323.142
101323.069
101322.994
101322.917
101322.837
101322.755
101322.67
101322.582
101322.492
101322.399
101322.303
101322.204
101322.102
101321.997
101321.889
101321.778
101321.664
101321.546
101321.425
101321.301
101321.174
101321.043
101320.909
101320.771
101320.629
101320.484
101320.335
101320.182
101320.026
101319.866
101319.702
101319.534
101319.362
101319.186
101319.006
101318.823
101318.635
101318.443
101318.247
101318.047
101317.843
101317.635
101317.422
101317.206
101316.985
101316.76
101316.531
101316.298
101316.061
101315.82
101315.575
101315.326
101315.073
101314.816
101314.555
101314.29
101314.022
101313.749
101313.474
101313.194
101312.911
101312.624
101312.335
101312.042
101311.745
101311.446
101311.143
101310.838
101310.53
101310.22
101309.907
101309.591
101309.273
101308.954
101308.632
101308.308
101307.983
101307.657
101307.329
101307
101306.67
101306.339
101306.007
101305.676
101305.344
101305.012
101304.68
101304.348
101304.017
101303.687
101303.358
101303.03
101302.704
101302.379
101302.057
101301.736
101301.417
101301.101
101300.788
101300.478
101300.171
101299.868
101299.568
101299.272
101298.98
101298.693
101298.41
101298.132
101297.858
101297.59
101297.327
101297.07
101296.819
101296.573
101296.334
101296.101
101295.874
101295.655
101295.441
101295.235
101295.036
101294.845
101294.66
101294.484
101294.314
101294.153
101294
101293.854
101293.716
101293.587
101293.466
101293.353
101293.248
101293.152
101293.064
101292.984
101292.913
101292.85
101292.796
101292.75
101292.712
101292.683
101292.662
101292.649
101292.644
101292.647
101292.659
101292.678
101292.705
101292.739
101292.781
101292.831
101292.887
101292.951
101293.022
101293.1
101293.184
101293.275
101293.372
101293.475
101293.585
101293.699
101293.82
101293.946
101294.076
101294.212
101294.353
101294.497
101294.647
101294.8
101294.957
101295.117
101295.281
101295.448
101295.618
101295.791
101295.966
101296.143
101296.322
101296.503
101296.686
101296.87
101297.055
101297.241
101297.427
101297.614
101297.802
101297.989
101298.177
101298.364
101298.551
101298.738
101298.923
101299.108
101299.291
101299.474
101299.655
101299.834
101300.012
101300.188
101300.362
101300.535
101300.705
101300.873
101301.039
101301.203
101301.364
101301.522
101301.679
101301.832
101301.983
101302.131
101302.277
101302.42
101302.56
101302.697
101302.832
101302.963
101303.092
101303.218
101303.342
101303.462
101303.58
101303.695
101303.807
101303.916
101304.023
101304.128
101304.229
101304.328
101304.425
101304.519
101304.611
101304.7
101304.787
101304.871
101304.954
101305.034
101305.112
101305.188
101305.263
101305.335
101305.405
101305.474
101305.54
101305.605
101305.669
101305.731
101305.791
101305.85
101305.907
101305.964
101306.019
101306.072
101306.125
101306.176
101306.227
101306.276
101306.325
101306.372
101306.419
101306.465
101306.511
101306.555
101306.599
101306.643
101306.686
101306.728
101306.77
101306.812
101306.853
101306.895
101306.935
101306.976
101307.016
101307.057
101307.097
101307.137
101307.177
101307.217
101307.257
101307.297
101307.338
101307.378
101307.418
101307.459
101307.5
101307.541
101307.582
101307.623
101307.664
101307.706
101307.748
101307.79
101307.832
101307.875
101307.917
101307.96
101308.003
101308.047
101308.09
101308.134
101308.178
101308.222
101308.266
101308.31
101308.354
101308.398
101308.443
101308.487
101308.531
101308.575
101308.619
101308.663
101308.707
101308.751
101308.794
101308.837
101308.879
101308.922
101308.964
101309.005
101309.046
101309.087
101309.127
101309.166
101309.205
101309.244
101309.281
101309.318
101309.355
101309.39
101309.425
101309.459
101309.492
101309.524
101309.556
101309.587
101309.616
101309.645
101309.674
101309.701
101309.727
101309.753
101309.777
101309.801
101309.824
101309.846
101309.867
101309.887
101309.906
101309.925
101309.942
101309.959
101309.975
101309.991
101310.005
101310.019
101310.032
101310.045
101310.057
101310.068
101310.079
101310.089
101310.098
101310.107
101310.116
101310.124
101310.132
101310.139
101310.146
101310.153
101310.159
101310.165
101310.171
101310.177
101310.183
101310.188
101310.194
101310.199
101310.205
101310.211
101310.217
101310.223
101310.229
101310.235
101310.242
101310.249
101310.257
101310.265
101310.274
101310.283
101310.293
101310.303
101310.315
101310.327
101310.34
101310.353
101310.368
101310.383
101310.4
101310.417
101310.436
101310.455
101310.476
101310.497
101310.52
101310.544
101310.569
101310.595
101310.622
101310.65
101310.679
101310.708
101310.739
101310.771
101310.803
101310.836
101310.869
101310.904
101310.938
101310.973
101311.008
101311.043
101311.078
101311.114
101311.148
101311.183
101311.217
101311.251
101311.284
101311.316
101311.348
101311.378
101311.408
101311.436
101311.463
101311.49
101311.514
101311.538
101311.561
101311.582
101311.602
101311.62
101311.638
101311.654
101311.669
101311.683
101311.696
101311.708
101311.72
101311.73
101311.74
101311.75
101311.759
101311.767
101311.775
101311.783
101311.791
101311.799
101311.807
101311.815
101311.823
101311.831
101311.839
101311.847
101311.856
101311.865
101311.874
101311.883
101311.892
101311.902
101311.911
101311.921
101311.931
101311.94
101311.95
101311.96
101311.97
101311.98
101311.99
101312
101312.01
101312.021
101312.031
101312.041
101312.051
101312.061
101312.072
101312.082
101312.092
101312.102
101312.112
101312.121
101312.129
101312.137
101312.144
101312.15
101312.155
101312.159
101312.161
101312.16
101312.143
101312.107
101312.434
101312.588
101312.496
101311.819
101311.733
101311.739
101311.874
101311.94
101312.054
101312.094
101312.156
101312.175
101312.193
101312.195
101312.196
101312.192
101312.188
101312.182
101312.176
101312.169
101312.163
101312.156
101312.149
101312.141
101312.134
101312.127
101312.12
101312.113
101312.106
101312.099
101312.092
101312.085
101312.078
101312.072
101312.065
101312.059
101312.052
101312.046
101312.04
101312.034
101312.028
101312.022
101312.016
101312.01
101312.004
101311.998
101311.992
101311.986
101311.98
101311.975
101311.969
101311.963
101311.957
101311.951
101311.945
101311.94
101311.934
101311.928
101311.922
101311.916
101311.91
101311.904
101311.898
101311.892
101311.886
101311.88
101311.874
101311.869
101311.863
101311.857
101311.851
101311.845
101311.839
101311.834
101311.828
101311.822
101311.817
101311.811
101311.806
101311.801
101311.795
101311.79
101311.785
101311.78
101311.775
101311.77
101311.765
101311.76
101311.755
101311.751
101311.746
101311.741
101311.737
101311.732
101311.728
101311.723
101311.718
101311.714
101311.709
101311.704
101311.7
101311.695
101311.69
101311.685
101311.68
101311.675
101311.669
101311.664
101311.658
101311.652
101311.646
101311.64
101311.633
101311.626
101311.619
101311.612
101311.605
101311.597
101311.589
101311.58
101311.572
101311.563
101311.553
101311.544
101311.534
101311.523
101311.513
101311.502
101311.49
101311.479
101311.467
101311.454
101311.442
101311.429
101311.415
101311.402
101311.388
101311.373
101311.359
101311.344
101311.329
101311.313
101311.298
101311.282
101311.265
101311.249
101311.232
101311.216
101311.199
101311.181
101311.164
101311.147
101311.129
101311.111
101311.094
101311.076
101311.058
101311.04
101311.022
101311.004
101310.986
101310.968
101310.95
101310.932
101310.914
101310.897
101310.879
101310.861
101310.844
101310.827
101310.809
101310.792
101310.776
101310.759
101310.742
101310.726
101310.71
101310.694
101310.678
101310.663
101310.647
101310.632
101310.617
101310.603
101310.588
101310.574
101310.561
101310.547
101310.534
101310.521
101310.509
101310.496
101310.484
101310.472
101310.461
101310.45
101310.439
101310.428
101310.417
101310.407
101310.397
101310.388
101310.378
101310.369
101310.36
101310.352
101310.343
101310.335
101310.327
101310.319
101310.312
101310.305
101310.298
101310.291
101310.284
101310.278
101310.271
101310.265
101310.259
101310.254
101310.248
101310.242
101310.237
101310.232
101310.227
101310.222
101310.217
101310.213
101310.208
101310.204
101310.199
101310.195
101310.191
101310.186
101310.182
101310.178
101310.174
101310.171
101310.167
101310.163
101310.159
101310.155
101310.151
101310.148
101310.144
101310.14
101310.136
101310.133
101310.129
101310.125
101310.121
101310.117
101310.113
101310.11
101310.106
101310.102
101310.097
101310.093
101310.089
101310.085
101310.08
101310.076
101310.072
101310.067
101310.062
101310.058
101310.053
101310.048
101310.043
101310.037
101310.032
101310.027
101310.021
101310.016
101310.01
101310.004
101309.998
101309.992
101309.986
101309.979
101309.973
101309.966
101309.959
101309.952
101309.945
101309.938
101309.93
101309.923
101309.915
101309.907
101309.899
101309.891
101309.882
101309.874
101309.865
101309.856
101309.847
101309.837
101309.828
101309.818
101309.808
101309.798
101309.788
101309.777
101309.767
101309.756
101309.745
101309.733
101309.722
101309.71
101309.698
101309.686
101309.674
101309.661
101309.649
101309.636
101309.623
101309.609
101309.596
101309.582
101309.568
101309.554
101309.539
101309.525
101309.51
101309.495
101309.48
101309.464
101309.449
101309.433
101309.417
101309.4
101309.384
101309.367
101309.351
101309.334
101309.316
101309.299
101309.281
101309.263
101309.245
101309.227
101309.209
101309.19
101309.172
101309.153
101309.134
101309.115
101309.095
101309.076
101309.056
101309.036
101309.016
101308.996
101308.976
101308.955
101308.934
101308.914
101308.893
101308.872
101308.851
101308.83
101308.808
101308.787
101308.765
101308.744
101308.722
101308.7
101308.678
101308.656
101308.634
101308.612
101308.59
101308.567
101308.545
101308.523
101308.5
101308.478
101308.455
101308.432
101308.41
101308.387
101308.364
101308.341
101308.319
101308.296
101308.273
101308.25
101308.227
101308.204
101308.182
101308.159
101308.136
101308.113
101308.09
101308.067
101308.044
101308.022
101307.999
101307.976
101307.953
101307.931
101307.908
101307.885
101307.863
101307.84
101307.818
101307.795
101307.773
101307.75
101307.728
101307.706
101307.683
101307.661
101307.639
101307.617
101307.595
101307.573
101307.551
101307.529
101307.507
101307.485
101307.463
101307.442
101307.42
101307.398
101307.377
101307.355
101307.334
101307.312
101307.291
101307.269
101307.248
101307.227
101307.205
101307.184
101307.163
101307.142
101307.12
101307.099
101307.078
101307.057
101307.036
101307.015
101306.994
101306.973
101306.952
101306.93
101306.909
101306.888
101306.867
101306.846
101306.825
101306.804
101306.783
101306.762
101306.74
101306.719
101306.698
101306.676
101306.655
101306.634
101306.612
101306.59
101306.569
101306.547
101306.525
101306.503
101306.481
101306.459
101306.437
101306.415
101306.393
101306.37
101306.347
101306.325
101306.302
101306.279
101306.256
101306.232
101306.209
101306.185
101306.161
101306.138
101306.113
101306.089
101306.065
101306.04
101306.015
101305.99
101305.965
101305.939
101305.913
101305.887
101305.861
101305.835
101305.808
101305.781
101305.754
101305.726
101305.698
101305.67
101305.642
101305.612
101305.58
101305.545
101305.507
101305.465
101305.42
101305.371
101305.317
101305.259
101305.194
101305.124
101305.046
101304.96
101304.865
101304.76
101304.644
101304.514
101304.369
101304.206
101304.023
101303.817
101303.584
101303.319
101303.019
101302.676
101302.285
101301.838
101301.328
101300.745
101300.083
101299.334
101298.493
101297.56
101296.543
101295.46
101294.345
101293.252
101292.264
101291.488
101291.061
101291.14
101291.883
101293.423
101295.828
101299.068
101302.985
101307.294
101311.623
101315.589
101318.888
101321.365
101323.035
101324.041
101324.579
101324.835
101324.942
101324.982
101324.995
101324.999
101325
101325
101325
101325
101325
101325
101325
101325
101325
101325
101325
101325
101325
101325
101325
101325
101325
101325
)
;

boundaryField
{
    closed
    {
        type            zeroGradient;
    }
    open
    {
        type            waveTransmissive;
        gamma           1.25;
        fieldInf        101325;
        lInf            1;
        value           uniform 101325;
    }
    sides
    {
        type            empty;
    }
}


// ************************************************************************* //
