/*--------------------------------*- C++ -*----------------------------------*\
| =========                 |                                                 |
| \\      /  F ield         | OpenFOAM: The Open Source CFD Toolbox           |
|  \\    /   O peration     | Version:  2206                                  |
|   \\  /    A nd           | Website:  www.openfoam.com                      |
|    \\/     M anipulation  |                                                 |
\*---------------------------------------------------------------------------*/
FoamFile
{
    version     2.0;
    format      ascii;
    arch        "LSB;label=32;scalar=64";
    class       surfaceScalarField;
    location    "1.28e-05";
    object      phi;
}
// * * * * * * * * * * * * * * * * * * * * * * * * * * * * * * * * * * * * * //

dimensions      [1 0 -1 0 0 0 0];

oriented        oriented;

internalField   nonuniform List<scalar> 
3182
(
4.56900878e-18
-2.61029937e-18
-9.16647001e-19
-1.74871301e-18
-3.8622659e-21
-2.47053377e-23
-1.7775887e-24
2.1262389e-29
2.17591593e-24
4.21643652e-23
4.13413973e-21
2.9271901e-18
3.52720823e-18
-4.30241327e-19
1.72740225e-18
-8.59241431e-19
-3.00373012e-18
-5.21602877e-18
-3.3518427e-18
4.43300925e-18
5.4730755e-20
7.56240052e-22
5.23912184e-19
2.0367095e-18
3.48806516e-18
1.97776886e-18
4.47320318e-18
2.85324849e-18
1.91366775e-18
9.78373909e-19
-1.80919914e-18
-4.18703254e-18
-5.16327408e-18
-7.85746715e-18
-4.83108123e-18
-3.71347836e-18
-3.48291619e-18
-1.94547134e-18
-1.31205116e-18
-2.33620925e-18
-3.57211009e-18
-3.46282368e-18
-2.92993277e-18
-1.28846356e-19
3.43950441e-19
1.190372e-18
2.91990184e-18
3.3532004e-18
4.22741636e-18
4.78289662e-18
7.1686214e-18
8.27935765e-18
1.02036807e-17
1.16120153e-17
1.38915518e-17
1.30402937e-17
1.32431114e-17
1.17316646e-17
1.10760275e-17
9.33361874e-18
6.95507808e-18
5.19261851e-18
3.85599185e-18
1.50063809e-18
-1.64664015e-19
-1.91053058e-18
-3.65957742e-18
-6.03941218e-18
-6.47343002e-18
-8.2674374e-18
-8.67000495e-18
-1.02706892e-17
-1.20639821e-17
-1.30685221e-17
-1.43682501e-17
-1.65460509e-17
-1.66490759e-17
-1.96506271e-17
-2.08779571e-17
-2.29475753e-17
-2.4718743e-17
-2.4889855e-17
-2.63946369e-17
-2.73920327e-17
-2.87040931e-17
-2.92622514e-17
-2.89017656e-17
-2.98190663e-17
-3.03480508e-17
-3.17429292e-17
-3.13306388e-17
-3.32221677e-17
-3.58539982e-17
-3.42921795e-17
-3.69603148e-17
-3.60848475e-17
-3.84288482e-17
-3.8266696e-17
-3.9073242e-17
-3.88904387e-17
-3.81090471e-17
-3.68551736e-17
-3.95317652e-17
-4.01925366e-17
-3.76674827e-17
-3.81025513e-17
-4.02078082e-17
-3.95457514e-17
-4.17626823e-17
-3.88558011e-17
-4.20338226e-17
-4.30172415e-17
-4.08662975e-17
-3.8945943e-17
-4.09499244e-17
-3.93341195e-17
-3.84123867e-17
-4.05033645e-17
-3.61426814e-17
-4.08513618e-17
-4.29540926e-17
-4.09662582e-17
-4.50839042e-17
-4.32365049e-17
-4.26705202e-17
-4.2910215e-17
-4.03694502e-17
-3.7751759e-17
-3.97695653e-17
-3.91408558e-17
-4.28066361e-17
-4.07899024e-17
-4.00459538e-17
-4.019939e-17
-4.10958502e-17
-3.98201225e-17
-4.0492649e-17
-4.08933259e-17
-4.35278849e-17
-4.38476064e-17
-4.36310067e-17
-4.41221977e-17
-4.65616372e-17
-4.85670106e-17
-5.02041619e-17
-5.08598589e-17
-4.8700284e-17
-5.21376996e-17
-5.0582324e-17
-5.12880046e-17
-5.09202102e-17
-5.02434211e-17
-5.16310677e-17
-5.08592068e-17
-5.33255406e-17
-5.3426284e-17
-5.43656054e-17
-5.1965072e-17
-5.22362677e-17
-5.23805734e-17
-5.47972095e-17
-5.30117889e-17
-5.41025959e-17
-5.5770218e-17
-5.79516454e-17
-5.75813452e-17
-5.82216041e-17
-5.87743087e-17
-6.04128655e-17
-6.12888371e-17
-6.22657839e-17
-6.17577236e-17
-6.27758954e-17
-6.28313807e-17
-6.17737324e-17
-6.35964977e-17
-6.19133253e-17
-6.10633155e-17
-5.96627418e-17
-6.228376e-17
-6.4747063e-17
-6.78459242e-17
-6.9972391e-17
-7.23112078e-17
-7.12291681e-17
-7.33772096e-17
-7.33231646e-17
-7.21891375e-17
-7.62655763e-17
-7.36881888e-17
-7.39233864e-17
-7.50506897e-17
-7.82600064e-17
-7.51855837e-17
-7.71741131e-17
-7.81268901e-17
-7.63699817e-17
-7.56467099e-17
-7.7337265e-17
-7.77609684e-17
-7.8777352e-17
-7.68148525e-17
-7.98135775e-17
-8.30213557e-17
-8.28077453e-17
-8.42542127e-17
-8.30641583e-17
-8.49261059e-17
-8.38162711e-17
-7.95130526e-17
-7.84859019e-17
-8.04695754e-17
-7.88538565e-17
-7.91854979e-17
-7.87875464e-17
-7.89435413e-17
-7.58350867e-17
-7.42619958e-17
-7.41553305e-17
-7.66065808e-17
-7.93584551e-17
-8.12874853e-17
-7.97039864e-17
-7.8553745e-17
-8.12353501e-17
-7.97986524e-17
-7.99147219e-17
-8.1235517e-17
-7.98343004e-17
-8.23083424e-17
-8.16045249e-17
-8.11130466e-17
-8.05522468e-17
-8.2089937e-17
-8.4235031e-17
-8.61886731e-17
-8.54838939e-17
-8.65252345e-17
-8.76515466e-17
-8.53632981e-17
-8.51814479e-17
-8.51143485e-17
-8.4710726e-17
-8.51262966e-17
-8.49594217e-17
-8.69265864e-17
-8.58175436e-17
-8.73973727e-17
-8.69817552e-17
-8.74671348e-17
-8.64603714e-17
-8.50524782e-17
-8.69853183e-17
-8.53745911e-17
-8.31331662e-17
-8.40797983e-17
-8.56725614e-17
-8.63647805e-17
-8.47478807e-17
-8.71824887e-17
-9.02073522e-17
-8.78414017e-17
-8.62420961e-17
-8.57017086e-17
-8.47243807e-17
-8.97018035e-17
-8.76481353e-17
-8.74636462e-17
-8.84789509e-17
-8.93736316e-17
-8.91989969e-17
-8.52097974e-17
-8.42781664e-17
-8.73837198e-17
-8.47652865e-17
-8.60619298e-17
-8.95831871e-17
-9.13424372e-17
-9.54626544e-17
-9.27315143e-17
-9.22519359e-17
-9.52968029e-17
-9.5724705e-17
-9.56768731e-17
-9.84451684e-17
-9.93621577e-17
-9.97754372e-17
-1.00061549e-16
-1.01338556e-16
-1.03564367e-16
-1.03147214e-16
-1.03864e-16
-1.04349039e-16
-1.05051737e-16
-1.05054944e-16
-1.04157157e-16
-1.04795191e-16
-1.06008236e-16
-1.06347939e-16
-1.05575678e-16
-1.0579842e-16
-1.02323861e-16
-1.02867494e-16
-1.04684604e-16
-1.05829676e-16
-1.07525552e-16
-1.10364789e-16
-1.10767939e-16
-1.09466775e-16
-1.10785857e-16
-1.10318656e-16
-1.10082459e-16
-1.10889244e-16
-1.12335452e-16
-1.13280357e-16
-1.12780109e-16
-1.15673096e-16
-1.12777714e-16
-1.14788408e-16
-1.1174587e-16
-1.09582714e-16
-1.14662213e-16
-1.13612938e-16
-1.12167005e-16
-1.13099189e-16
-1.13667055e-16
-1.12821701e-16
-1.11956881e-16
-1.12289948e-16
-1.08119364e-16
-1.06853487e-16
-1.08238844e-16
-1.05203441e-16
-1.04958781e-16
-1.05750877e-16
-1.07539375e-16
-1.08365546e-16
-1.07746784e-16
-1.07968063e-16
-1.04860041e-16
-1.07311064e-16
-1.06313481e-16
-1.06250366e-16
-1.0395005e-16
-1.04824104e-16
-1.01656626e-16
-1.02602246e-16
-1.03386205e-16
-1.0586815e-16
-1.05087101e-16
-1.06266031e-16
-1.04742548e-16
-1.07198991e-16
-1.08925004e-16
-1.06133857e-16
-1.07438182e-16
-1.05955714e-16
-1.05245751e-16
-1.05757559e-16
-1.04476254e-16
-1.00180766e-16
-1.06118356e-16
-1.04363835e-16
-1.03576469e-16
-1.04231765e-16
-1.0573826e-16
-1.05115426e-16
-1.0341089e-16
-1.05500129e-16
-1.10853967e-16
-1.09427492e-16
-1.04351978e-16
-1.07669241e-16
-1.08884754e-16
-1.06632852e-16
-1.03889081e-16
-1.04108736e-16
-1.06103953e-16
-1.04458391e-16
-1.0471191e-16
-1.06273871e-16
-1.05090091e-16
-1.07991366e-16
-1.07662016e-16
-1.05636025e-16
-1.04349986e-16
-1.0806671e-16
-1.06020757e-16
-1.0627125e-16
-1.08934069e-16
-1.06533611e-16
-1.04714473e-16
-1.06479423e-16
-1.03057638e-16
-9.88296874e-17
-9.64187193e-17
-9.79345149e-17
-9.89739313e-17
-9.75105868e-17
-9.35008112e-17
-9.3902231e-17
-9.17983224e-17
-9.54536385e-17
-9.12644405e-17
-9.09022083e-17
-8.88729122e-17
-8.62734214e-17
-8.56909501e-17
-8.3141911e-17
-8.38569899e-17
-8.13003187e-17
-8.01252768e-17
-7.93526784e-17
-7.52143606e-17
-7.95312281e-17
-7.69727588e-17
-7.66724314e-17
-7.7700563e-17
-7.98926623e-17
-7.81922902e-17
-7.57479095e-17
-7.74155501e-17
-7.4432324e-17
-7.28216017e-17
-7.69880502e-17
-7.59354966e-17
-7.3554736e-17
-6.85918343e-17
-6.90795068e-17
-6.79281312e-17
-7.01661613e-17
-7.19658856e-17
-6.81191816e-17
-6.75057763e-17
-7.25756161e-17
-6.95196441e-17
-6.96090865e-17
-6.91613012e-17
-6.8027343e-17
-6.78458161e-17
-6.81036481e-17
-7.02685465e-17
-7.09879105e-17
-6.93700763e-17
-6.91128842e-17
-6.87776495e-17
-6.60391732e-17
-6.76448645e-17
-6.56925831e-17
-6.50982842e-17
-6.3530096e-17
-6.27692809e-17
-6.37565798e-17
-6.37344614e-17
-6.6050426e-17
-6.308703e-17
-6.08930963e-17
-6.04828882e-17
-5.92360202e-17
-6.1103836e-17
-5.77719851e-17
-5.76975507e-17
-5.62027334e-17
-5.64771978e-17
-5.73270659e-17
-5.44301823e-17
-5.52743999e-17
-5.00319169e-17
-5.10104097e-17
-5.11608949e-17
-4.81527418e-17
-4.97253271e-17
-4.79800361e-17
-4.96289616e-17
-5.26505086e-17
-4.98188607e-17
-5.20439986e-17
-5.17908293e-17
-5.38920935e-17
-5.38661519e-17
-5.62943759e-17
-5.4537552e-17
-5.5340544e-17
-5.55437196e-17
-5.47557325e-17
-5.07596308e-17
-4.9784238e-17
-4.925127e-17
-5.45323405e-17
-5.59138317e-17
-5.13427951e-17
-5.3521446e-17
-5.242055e-17
-5.28595038e-17
-5.16542091e-17
-5.27181466e-17
-5.09867714e-17
-4.80532019e-17
-5.12083922e-17
-4.80467661e-17
-4.91358023e-17
-4.62399432e-17
-4.28848582e-17
-4.41394906e-17
-4.36823222e-17
-4.31065762e-17
-4.417672e-17
-4.19326214e-17
-4.49349463e-17
-3.65855411e-17
-3.681944e-17
-3.66501015e-17
-3.22975329e-17
-3.23434519e-17
-2.81607147e-17
-2.96853996e-17
-3.12020277e-17
-2.68203907e-17
-2.80911643e-17
-2.808224e-17
-2.77191596e-17
-2.41586914e-17
-2.95499123e-17
-2.90292281e-17
-2.70304361e-17
-2.69564972e-17
-2.52552702e-17
-2.18376296e-17
-2.2654948e-17
-2.46529098e-17
-2.36407622e-17
-2.84416202e-17
-2.37498951e-17
-2.28852777e-17
-2.04733015e-17
-1.93559619e-17
-1.9686009e-17
-2.15585958e-17
-2.25154701e-17
-1.8266112e-17
-1.9312508e-17
-1.74883473e-17
-1.84787134e-17
-1.58616896e-17
-1.34721787e-17
-1.41203036e-17
-1.44168447e-17
-1.56002404e-17
-1.57083521e-17
-1.65391538e-17
-1.57076073e-17
-1.48461388e-17
-1.34970695e-17
-1.01946933e-17
-8.85501087e-18
-9.25946408e-18
-8.5180418e-18
-1.04143162e-17
-8.22478656e-18
-1.15213238e-17
-1.38668589e-17
-1.19345731e-17
-1.0625806e-17
-7.9264751e-18
-7.59485538e-18
-8.46797724e-18
-1.07921374e-17
-9.9119512e-18
-1.07534712e-17
-7.4939331e-18
-6.19857919e-18
-1.48847929e-18
-3.50190353e-18
-5.45354652e-18
-4.52564231e-18
-4.95167293e-18
-3.70913765e-18
-6.3300908e-18
-4.89800726e-18
-4.85266786e-18
-6.71028747e-18
-2.34352773e-18
-1.42283326e-18
-4.12612457e-18
6.05460393e-19
-2.44432611e-18
2.84055796e-18
3.38694035e-18
3.24706446e-18
3.37009435e-18
5.96213869e-18
4.64138285e-18
7.80689475e-18
6.8320057e-18
5.98767573e-18
6.28395012e-18
9.88843021e-18
9.30486009e-18
1.10432059e-17
9.48186435e-18
8.67697858e-18
8.8009924e-18
8.68761772e-18
9.82958514e-18
7.34438632e-18
1.02957169e-17
1.24962915e-17
1.20329695e-17
1.29690862e-17
1.12449418e-17
1.38690881e-17
1.39178182e-17
1.69288859e-17
1.66378042e-17
1.9245252e-17
1.72602403e-17
1.81907999e-17
1.49843502e-17
1.4858555e-17
1.5984936e-17
1.52848155e-17
1.40520162e-17
1.4145708e-17
1.51619215e-17
1.42784045e-17
1.41425735e-17
1.36394471e-17
1.1558035e-17
1.14384003e-17
7.64507857e-18
8.99523276e-18
1.03293374e-17
1.27772659e-17
1.19639574e-17
1.39287613e-17
1.62055226e-17
1.38713185e-17
1.44992131e-17
1.55738038e-17
1.57650086e-17
1.79819665e-17
1.65565691e-17
1.53621825e-17
1.54045873e-17
1.63213846e-17
1.39314484e-17
1.21376404e-17
1.23523577e-17
1.07669083e-17
1.31479368e-17
1.489215e-17
1.48185353e-17
1.44305065e-17
1.52550343e-17
1.60423556e-17
1.58456507e-17
1.91941566e-17
1.51130858e-17
1.51595856e-17
1.61935129e-17
2.21021544e-17
2.01885533e-17
2.18841822e-17
2.23655386e-17
2.497158e-17
2.64772447e-17
2.7569565e-17
2.49629292e-17
2.4464321e-17
2.59954748e-17
2.89266628e-17
3.14604206e-17
3.1717281e-17
3.000837e-17
2.86951712e-17
2.87397041e-17
2.86398336e-17
2.90021474e-17
2.75081402e-17
2.77894924e-17
2.65328492e-17
2.95807221e-17
3.22149823e-17
3.13826528e-17
3.40419703e-17
3.60416289e-17
3.84769762e-17
3.62538256e-17
3.58315474e-17
3.89415166e-17
4.19695855e-17
3.70432366e-17
3.79974483e-17
3.81356932e-17
4.126001e-17
3.96936262e-17
4.30383684e-17
4.23155906e-17
4.27208335e-17
4.37574617e-17
4.4691619e-17
4.90970675e-17
4.88780774e-17
4.84688401e-17
4.82075334e-17
5.04005305e-17
5.11199687e-17
5.04383421e-17
5.1421019e-17
4.94932909e-17
5.26238396e-17
5.510097e-17
5.47517732e-17
5.43575912e-17
5.37884777e-17
5.52942389e-17
5.66229613e-17
5.9532579e-17
5.53879171e-17
5.67313365e-17
6.05027467e-17
5.97189511e-17
5.72552122e-17
5.57520216e-17
5.50067348e-17
5.78208513e-17
5.71848163e-17
5.8149656e-17
5.74953112e-17
5.75622613e-17
5.75186358e-17
5.76817838e-17
5.65634147e-17
5.68208866e-17
5.7298897e-17
5.81983349e-17
6.06809969e-17
6.13237801e-17
6.31182815e-17
6.25036552e-17
6.06309462e-17
5.95557705e-17
5.89964544e-17
6.02940846e-17
6.06275484e-17
5.85260956e-17
6.0987987e-17
6.24540605e-17
6.08665735e-17
6.11289098e-17
6.21780633e-17
6.52985744e-17
6.54452719e-17
6.57660624e-17
6.62711946e-17
6.76639389e-17
6.84404632e-17
6.49819334e-17
6.19301484e-17
6.03875168e-17
5.97731796e-17
5.80765629e-17
5.89549256e-17
5.70072382e-17
5.83080266e-17
6.19361933e-17
6.2606543e-17
6.05367811e-17
6.13550261e-17
5.9998631e-17
5.73732222e-17
5.96424241e-17
6.00319823e-17
6.042948e-17
6.02803573e-17
6.17713772e-17
6.17311829e-17
6.29724002e-17
6.03302446e-17
6.15715702e-17
6.28822554e-17
6.19038533e-17
6.51831226e-17
6.36309027e-17
6.0228508e-17
6.08059853e-17
6.0805966e-17
6.27748189e-17
6.35185315e-17
6.50658925e-17
6.35625819e-17
6.4072546e-17
6.46965923e-17
6.0638364e-17
6.16892337e-17
6.13290153e-17
6.27814605e-17
6.27503098e-17
6.42267844e-17
5.79395216e-17
5.97198102e-17
5.95790819e-17
6.13715652e-17
6.36717385e-17
6.17521443e-17
5.91052754e-17
6.25750414e-17
6.31548132e-17
6.36639298e-17
6.38207817e-17
5.88393425e-17
6.21184214e-17
5.9061071e-17
6.3820931e-17
6.07531556e-17
6.09559011e-17
6.04477309e-17
5.7467938e-17
5.62116009e-17
5.85786798e-17
5.81220241e-17
5.64518862e-17
5.93010126e-17
5.9185761e-17
6.00590557e-17
5.90293818e-17
5.92441572e-17
5.65708879e-17
5.54387182e-17
5.40457522e-17
5.39223873e-17
5.41796955e-17
5.58611918e-17
5.66641637e-17
5.86069779e-17
5.65081251e-17
5.79466643e-17
5.6220866e-17
5.49805879e-17
5.42001752e-17
5.60713631e-17
5.58534318e-17
5.5705398e-17
5.78188307e-17
5.9152953e-17
5.97000548e-17
6.03422342e-17
5.90981563e-17
5.84555766e-17
6.08099062e-17
6.1803154e-17
5.84750201e-17
6.20042762e-17
5.73574465e-17
5.85113761e-17
5.75429999e-17
5.98170526e-17
6.25850104e-17
6.45098937e-17
6.58300437e-17
6.51097457e-17
6.82928125e-17
7.15030856e-17
7.0704946e-17
6.84531008e-17
6.70382774e-17
6.54974312e-17
6.60725483e-17
6.45418829e-17
6.63772762e-17
6.24826475e-17
6.17290026e-17
6.59968854e-17
6.30771668e-17
6.16193447e-17
5.9315752e-17
6.08923025e-17
6.17338591e-17
5.95319679e-17
6.10409287e-17
6.37590588e-17
6.19940226e-17
5.86345296e-17
6.00264117e-17
5.83113061e-17
5.56525069e-17
6.00290173e-17
5.77196829e-17
5.67332887e-17
5.41929658e-17
5.60903036e-17
5.70985322e-17
5.72600803e-17
5.76577414e-17
5.77298444e-17
5.79924532e-17
5.55182756e-17
5.61557094e-17
5.53284486e-17
5.84697545e-17
5.62214011e-17
5.65625817e-17
5.9523076e-17
5.79225228e-17
5.69425025e-17
5.61974085e-17
5.56018544e-17
5.57952178e-17
5.61161458e-17
5.79742093e-17
5.43221474e-17
5.26060564e-17
5.44373443e-17
5.39342099e-17
5.82345126e-17
5.82541841e-17
5.73662412e-17
5.64908273e-17
5.71539532e-17
5.83794221e-17
5.54518479e-17
5.50025289e-17
5.26859527e-17
5.3968268e-17
5.56943794e-17
5.73063574e-17
5.62142567e-17
5.14929758e-17
5.29842894e-17
5.4700789e-17
5.48089987e-17
5.4783074e-17
5.67937312e-17
5.4551573e-17
5.50913371e-17
5.11352984e-17
5.26927677e-17
4.86479627e-17
4.71917554e-17
5.11017846e-17
5.02125365e-17
5.09457843e-17
5.13985562e-17
4.9197733e-17
5.17057172e-17
5.18845986e-17
5.08702772e-17
5.3686126e-17
5.3925932e-17
5.29190076e-17
5.43845242e-17
5.45125522e-17
5.10249081e-17
5.16209875e-17
5.48602805e-17
5.54761587e-17
5.67614424e-17
5.69471786e-17
5.74060559e-17
5.65328624e-17
5.69954512e-17
5.62811166e-17
5.70369861e-17
5.66378778e-17
5.79975486e-17
5.77573918e-17
5.61201359e-17
5.67003447e-17
5.8328316e-17
5.44956297e-17
5.53729116e-17
5.57481846e-17
5.264481e-17
5.3812802e-17
5.25383424e-17
5.20782274e-17
4.81872223e-17
4.88261138e-17
4.71187679e-17
4.62348011e-17
4.66802416e-17
4.29220285e-17
4.50609289e-17
4.65264778e-17
4.86530123e-17
4.90496563e-17
5.1166371e-17
5.12504445e-17
5.10154262e-17
5.43962462e-17
5.02565931e-17
5.04291758e-17
4.60565458e-17
4.63653746e-17
4.73678831e-17
4.58213088e-17
4.38139207e-17
4.62291717e-17
4.57278446e-17
4.97703266e-17
4.72517178e-17
4.44065995e-17
4.53827331e-17
4.91098936e-17
4.82086991e-17
4.84867629e-17
4.74186282e-17
4.77092211e-17
4.85860542e-17
4.40498324e-17
4.54323091e-17
4.44971583e-17
4.64209123e-17
4.42855064e-17
4.38845468e-17
4.40215151e-17
4.43170363e-17
4.1744337e-17
4.26743127e-17
4.03070942e-17
4.01307444e-17
3.98549258e-17
3.95924326e-17
4.00504242e-17
3.77007708e-17
3.50163694e-17
3.48634937e-17
3.64560481e-17
3.49347458e-17
3.46499835e-17
3.2511192e-17
3.1330728e-17
2.9518077e-17
2.66412862e-17
2.57369484e-17
2.61817009e-17
2.76185902e-17
2.70071409e-17
2.78049248e-17
2.32423454e-17
2.10174204e-17
2.09222452e-17
2.13926642e-17
2.38415796e-17
2.54772261e-17
2.31166681e-17
2.32306266e-17
2.69975197e-17
2.62370365e-17
2.47204191e-17
2.42768863e-17
2.38590493e-17
2.40951032e-17
2.32103517e-17
1.77960591e-17
2.06591483e-17
2.35059708e-17
1.83768237e-17
1.94990558e-17
2.01066447e-17
1.94160463e-17
1.70048183e-17
2.2939967e-17
2.24906062e-17
1.8917819e-17
2.12109183e-17
2.09606287e-17
2.10127532e-17
2.36771336e-17
2.38562096e-17
2.16221838e-17
2.44514021e-17
2.4134182e-17
2.54009776e-17
2.67565987e-17
2.61022065e-17
2.89780221e-17
2.76192605e-17
2.33829777e-17
2.42555782e-17
2.09536046e-17
2.16088564e-17
2.0061688e-17
2.00658076e-17
1.90595147e-17
2.01282508e-17
1.8388464e-17
1.76108727e-17
1.52311763e-17
1.38061576e-17
1.27997792e-17
9.12574011e-18
6.21606576e-18
6.38648377e-18
4.68950415e-18
5.7068603e-18
4.00460394e-18
2.00245178e-18
2.05383963e-18
1.32086622e-18
-1.49597512e-18
-7.87268882e-19
-1.73322042e-18
-3.54871845e-18
-7.03972959e-18
-6.22284472e-18
-8.44526707e-18
-7.24823561e-18
-1.05410148e-17
-9.57545872e-18
-1.20723849e-17
-1.27657604e-17
-1.4333812e-17
-1.47126663e-17
-1.59990037e-17
-1.8129836e-17
-1.70599573e-17
-1.58162916e-17
-1.58330068e-17
-1.62782828e-17
-1.37664259e-17
-1.53326626e-17
-1.523582e-17
-1.79530651e-17
-2.02807703e-17
-2.02773595e-17
-1.75543066e-17
-2.10994192e-17
-2.34905943e-17
-2.18767796e-17
-2.67033096e-17
-2.46751045e-17
-2.26588122e-17
-2.4181892e-17
-2.48943226e-17
-2.41042312e-17
-2.19827637e-17
-2.17364524e-17
-2.17256083e-17
-1.90126646e-17
-1.67910951e-17
-1.78698255e-17
-1.80145988e-17
-1.93677284e-17
-2.02880856e-17
-1.99459569e-17
-1.86756732e-17
-2.09229627e-17
-2.32469727e-17
-1.9908179e-17
-1.7695904e-17
-1.68611081e-17
-1.81097675e-17
-1.64559454e-17
-1.54534819e-17
-1.91641281e-17
-1.89726046e-17
-1.95266501e-17
-2.17377184e-17
-2.2235108e-17
-1.95640111e-17
-2.06069502e-17
-2.23920016e-17
-2.34060563e-17
-2.44724645e-17
-2.30947671e-17
-2.39218951e-17
-2.18010733e-17
-2.43890338e-17
-2.69056418e-17
-2.51915132e-17
-2.72967514e-17
-3.04316018e-17
-2.6129759e-17
-2.57665091e-17
-2.83698852e-17
-3.01917377e-17
-3.2003639e-17
-3.1805945e-17
-3.38034318e-17
-3.96021993e-17
-3.89266762e-17
-3.88535743e-17
-4.20070495e-17
-4.36989202e-17
-4.0254977e-17
-4.36748298e-17
-3.96318084e-17
-4.4025895e-17
-4.0253256e-17
-4.30344974e-17
-4.37075162e-17
-4.50152391e-17
-4.9467167e-17
-4.8957828e-17
-5.15163625e-17
-5.4418218e-17
-5.24508262e-17
-5.17014121e-17
-5.59352838e-17
-5.78761134e-17
-6.31252884e-17
-6.31228313e-17
-5.86530691e-17
-6.49575117e-17
-6.46447796e-17
-6.64983254e-17
-6.45658828e-17
-6.62561258e-17
-6.7382342e-17
-6.66158156e-17
-6.40641635e-17
-6.20109808e-17
-6.15895407e-17
-6.04240579e-17
-5.94551996e-17
-6.12962327e-17
-6.14541772e-17
-6.2737244e-17
-6.23658049e-17
-6.02790457e-17
-6.2031774e-17
-6.06474525e-17
-5.95070291e-17
-6.0368662e-17
-5.95431822e-17
-5.84751116e-17
-5.75381508e-17
-5.78596618e-17
-5.96718606e-17
-5.82630699e-17
-5.56821954e-17
-5.51431701e-17
-5.43583491e-17
-5.63076677e-17
-5.51559519e-17
-5.76990783e-17
-5.8426881e-17
-5.8583226e-17
-5.9020184e-17
-5.55266864e-17
-5.7652971e-17
-5.62089728e-17
-5.82504304e-17
-5.4399165e-17
-5.36199196e-17
-5.61553557e-17
-5.49148058e-17
-5.44853089e-17
-5.51568544e-17
-5.38883993e-17
-5.25435265e-17
-5.22523674e-17
-5.31130613e-17
-4.91401946e-17
-4.8258732e-17
-5.1345329e-17
-5.11243024e-17
-5.19346087e-17
-5.0360084e-17
-5.16680564e-17
-4.94167822e-17
-4.93165116e-17
-4.92254857e-17
-5.00293926e-17
-4.58731517e-17
-4.8034335e-17
-4.49613646e-17
-4.82097029e-17
-4.51966658e-17
-4.49303711e-17
-4.72740302e-17
-4.88150894e-17
-4.79469939e-17
-5.06326037e-17
-4.97061886e-17
-5.03817297e-17
-4.94473685e-17
-5.14771765e-17
-5.04470357e-17
-5.27919417e-17
-5.13188563e-17
-5.21307894e-17
-5.19758199e-17
-4.81557181e-17
-5.06031298e-17
-5.06332202e-17
-4.85967338e-17
-4.86263587e-17
-5.07135628e-17
-4.95726358e-17
-4.96876099e-17
-5.05050627e-17
-4.85655371e-17
-5.04582046e-17
-4.74021007e-17
-4.88089904e-17
-4.82871803e-17
-4.66633696e-17
-5.03446682e-17
-5.08883661e-17
-4.80175616e-17
-4.90743061e-17
-4.64443921e-17
-4.89164086e-17
-4.82199242e-17
-4.74479718e-17
-5.01330332e-17
-4.88530646e-17
-5.04226011e-17
-4.95119542e-17
-4.95930294e-17
-4.93511407e-17
-5.17301763e-17
-5.00147139e-17
-4.7798623e-17
-5.24844386e-17
-5.5412925e-17
-5.66313423e-17
-5.59592687e-17
-5.51961067e-17
-5.75997102e-17
-5.47264429e-17
-5.73617271e-17
-5.77059477e-17
-6.04267239e-17
-6.41612898e-17
-6.2714767e-17
-6.22312142e-17
-6.22408498e-17
-6.53146266e-17
-6.42591956e-17
-6.55414492e-17
-6.77274161e-17
-6.89760077e-17
-6.80894222e-17
-6.96528984e-17
-6.62513906e-17
-6.77334127e-17
-6.79529609e-17
-6.66786898e-17
-6.86416515e-17
-7.08124279e-17
-7.46229457e-17
-7.43825275e-17
-7.5609999e-17
-7.24552266e-17
-7.2112113e-17
-7.00920503e-17
-7.1429136e-17
-7.27458842e-17
-7.48060129e-17
-7.72287823e-17
-7.65995459e-17
-7.39784721e-17
-7.45738159e-17
-7.61037783e-17
-7.40831932e-17
-7.28458718e-17
-7.43253271e-17
-7.41213602e-17
-7.62460799e-17
-7.43205349e-17
-7.20683949e-17
-7.4684664e-17
-7.42908015e-17
-7.53791595e-17
-7.48433649e-17
-7.65389742e-17
-7.53213218e-17
-7.19547279e-17
-7.54445941e-17
-7.54911953e-17
-7.42732368e-17
-7.19694774e-17
-7.72841931e-17
-7.56241893e-17
-7.71248354e-17
-7.88463596e-17
-7.57010659e-17
-7.63931092e-17
-7.52808088e-17
-7.60796994e-17
-8.08840984e-17
-8.03345011e-17
-8.06794352e-17
-7.83197222e-17
-8.01548474e-17
-7.77702381e-17
-7.69111347e-17
-7.4344126e-17
-7.09795324e-17
-7.40805741e-17
-7.34638216e-17
-7.45705537e-17
-7.54016664e-17
-7.40778626e-17
-7.35904813e-17
-7.42670455e-17
-7.79703043e-17
-7.65701898e-17
-7.66867981e-17
-7.84760249e-17
-7.15298885e-17
-7.45782564e-17
-7.29304665e-17
-6.8932069e-17
-6.94351418e-17
-6.7160441e-17
-6.7956685e-17
-7.11366056e-17
-6.88074638e-17
-6.59931113e-17
-6.64474372e-17
-6.4712038e-17
-6.55892164e-17
-6.3832654e-17
-6.33454141e-17
-6.421493e-17
-6.43919682e-17
-6.64677262e-17
-6.67607738e-17
-6.57859191e-17
-6.49900968e-17
-6.30819571e-17
-6.55131196e-17
-6.49608453e-17
-6.20995061e-17
-6.21776519e-17
-5.88204224e-17
-5.87585501e-17
-6.04154569e-17
-6.21951201e-17
-5.91509398e-17
-6.23590117e-17
-6.08084199e-17
-6.03046969e-17
-5.87385719e-17
-5.86407713e-17
-5.78172479e-17
-5.57516016e-17
-5.70366703e-17
-5.52515282e-17
-5.70457842e-17
-5.64856943e-17
-5.32600149e-17
-5.07397532e-17
-5.13957026e-17
-5.11623187e-17
-5.05944634e-17
-5.28280511e-17
-5.23090875e-17
-5.14286631e-17
-5.4821173e-17
-5.29962058e-17
-5.22195657e-17
-5.25342979e-17
-5.09852825e-17
-4.91351939e-17
-4.68670115e-17
-4.60049184e-17
-4.91871455e-17
-4.87810377e-17
-4.6080395e-17
-4.55897306e-17
-4.88508987e-17
-4.46041486e-17
-4.5566382e-17
-4.55070145e-17
-4.77644194e-17
-4.71830563e-17
-4.49920958e-17
-4.26886445e-17
-4.17039338e-17
-4.37688619e-17
-4.23777461e-17
-4.20005974e-17
-4.14443341e-17
-4.01880395e-17
-3.96238412e-17
-3.88740706e-17
-4.27367292e-17
-3.9979961e-17
-4.18980685e-17
-4.52171965e-17
-4.63569694e-17
-4.95469583e-17
-5.02201022e-17
-5.26317349e-17
-5.2741835e-17
-5.2619284e-17
-5.01613266e-17
-5.05940594e-17
-4.71043053e-17
-4.60567297e-17
-4.8285107e-17
-4.59002447e-17
-4.42494795e-17
-4.23219719e-17
-4.04126428e-17
-4.14969054e-17
-4.3233381e-17
-4.56315535e-17
-4.61388708e-17
-4.59946599e-17
-4.55313447e-17
-4.46582417e-17
-4.63357374e-17
-4.96062374e-17
-4.73160704e-17
-4.6729022e-17
-4.59304224e-17
-4.37365902e-17
-4.52704104e-17
-4.84074515e-17
-4.33414022e-17
-4.35169275e-17
-4.30543834e-17
-4.48091081e-17
-4.90717513e-17
-4.6533383e-17
-4.54709889e-17
-4.63780493e-17
-4.25432745e-17
-4.6430809e-17
-4.89846941e-17
-4.61288489e-17
-4.47821833e-17
-4.02862584e-17
-4.12677421e-17
-4.1751623e-17
-4.08112697e-17
-3.9783792e-17
-4.00614697e-17
-4.04254334e-17
-4.10493371e-17
-4.00658e-17
-3.70052024e-17
-3.66428278e-17
-3.58415674e-17
-2.8634372e-17
-2.99476693e-17
-3.11154661e-17
-3.10443437e-17
-2.86265665e-17
-2.48244363e-17
-2.66192974e-17
-2.55422459e-17
-2.57980089e-17
-2.80237354e-17
-2.58306308e-17
-2.88385891e-17
-2.745105e-17
-2.6074801e-17
-2.76465769e-17
-2.81524072e-17
-2.83518704e-17
-2.52618344e-17
-2.62143866e-17
-2.78145166e-17
-2.48790339e-17
-2.42687552e-17
-2.69225474e-17
-2.79264533e-17
-3.0152112e-17
-2.77629181e-17
-2.745595e-17
-2.60635472e-17
-2.57854775e-17
-2.20431671e-17
-2.25521263e-17
-2.13733759e-17
-2.1626045e-17
-2.10669703e-17
-2.30828595e-17
-2.12347672e-17
-2.37046381e-17
-2.12676412e-17
-2.08633369e-17
-1.85326447e-17
-2.11245287e-17
-2.20097381e-17
-1.9783053e-17
-1.71370236e-17
-1.67315332e-17
-1.5529443e-17
-1.12887229e-17
-1.55667967e-17
-1.46217439e-17
-1.3384817e-17
-1.08461227e-17
-1.26724926e-17
-1.51585006e-17
-1.55232387e-17
-1.79306151e-17
-1.43236303e-17
-1.45158172e-17
-1.35980953e-17
-7.13618752e-18
-1.06917396e-17
-1.25028565e-17
-8.84655677e-18
-8.79057313e-18
-8.85117546e-18
-9.36267296e-18
-9.61656786e-18
-1.14780079e-17
-1.0862396e-17
-9.44964222e-18
-1.30296348e-17
-1.13469447e-17
-9.35668189e-18
-9.68480349e-18
-6.56211392e-18
-5.24295054e-18
-4.41031582e-18
-2.95230946e-18
-4.09500488e-18
-3.33085649e-18
-3.04621971e-18
-2.73297317e-18
-1.79274083e-18
-2.0024385e-18
-7.45610358e-20
-9.86755555e-19
-8.34322104e-19
9.35119975e-19
9.65882953e-19
5.87570932e-19
3.2281383e-18
5.90590557e-18
7.03055738e-18
5.51441919e-18
6.30388345e-18
7.81824771e-18
9.40361011e-18
1.05789432e-17
1.2570614e-17
1.42742932e-17
1.39097088e-17
1.45424857e-17
1.68505713e-17
1.74328368e-17
1.78577144e-17
1.90835227e-17
2.0459992e-17
2.05125535e-17
2.2692341e-17
2.53737481e-17
2.28908919e-17
2.56436126e-17
2.23359879e-17
2.44422436e-17
2.5124872e-17
2.61838246e-17
2.78865646e-17
2.75143735e-17
3.00306456e-17
3.18978759e-17
3.274939e-17
3.08449128e-17
2.98700909e-17
3.00566831e-17
3.44606037e-17
3.40239592e-17
3.66001454e-17
3.74870963e-17
3.60960476e-17
3.73332826e-17
3.79948318e-17
3.67895357e-17
3.6190835e-17
3.83882837e-17
3.75958775e-17
4.19609631e-17
3.89901969e-17
3.82209005e-17
3.76786268e-17
3.3913284e-17
3.30900469e-17
3.20441675e-17
3.82609785e-17
3.90000192e-17
3.74383952e-17
4.00817353e-17
4.34225836e-17
4.50585139e-17
4.44949662e-17
4.68586526e-17
4.61471147e-17
4.54315347e-17
4.53668011e-17
4.74459436e-17
4.6374038e-17
4.79479184e-17
4.96801921e-17
5.08373511e-17
4.83579433e-17
5.07656656e-17
4.89273287e-17
4.96994995e-17
4.88244311e-17
5.03977681e-17
4.97103259e-17
5.1768134e-17
5.08544466e-17
4.90019531e-17
5.26752149e-17
5.29295796e-17
5.51960117e-17
5.54129755e-17
5.66047131e-17
5.83981937e-17
6.08404328e-17
5.87435907e-17
5.91393483e-17
5.87749949e-17
5.53304295e-17
5.68610978e-17
5.84680427e-17
5.7321456e-17
5.83703294e-17
5.82736367e-17
5.68354772e-17
5.57099191e-17
5.78396986e-17
5.67188373e-17
5.93794295e-17
5.77742231e-17
6.00925933e-17
5.65676534e-17
5.9349257e-17
5.81890725e-17
5.78476888e-17
5.90758649e-17
5.76395443e-17
6.0312477e-17
5.98138729e-17
5.80908991e-17
5.74983671e-17
5.85376661e-17
5.8367942e-17
5.94048061e-17
5.96063695e-17
6.07601254e-17
6.65324365e-17
7.11414884e-17
6.98480672e-17
7.26367966e-17
7.43534063e-17
7.2994429e-17
7.43188031e-17
7.39861854e-17
7.61244458e-17
7.76035684e-17
8.03990072e-17
8.05563182e-17
8.01692137e-17
8.04748833e-17
8.13613085e-17
8.21019655e-17
8.0528704e-17
8.09318533e-17
8.37922563e-17
8.09596299e-17
8.53149625e-17
8.36925902e-17
8.23160611e-17
8.46484967e-17
8.7092322e-17
8.83398708e-17
9.42615369e-17
9.63768958e-17
9.95193179e-17
1.02577733e-16
1.03955949e-16
1.10083296e-16
1.13346611e-16
1.20672117e-16
1.22541999e-16
1.25039743e-16
1.2956247e-16
1.3533255e-16
1.35139131e-16
1.41791897e-16
1.46381141e-16
1.53474386e-16
1.60492924e-16
1.63880929e-16
1.72860781e-16
1.828213e-16
1.89304928e-16
1.98744294e-16
2.06003972e-16
2.19825429e-16
2.32907692e-16
2.4323369e-16
2.61403956e-16
2.73833206e-16
2.90567932e-16
3.11052396e-16
3.32019849e-16
3.51299405e-16
3.68649345e-16
3.9378381e-16
4.17098064e-16
4.46374035e-16
4.72163226e-16
5.08186217e-16
5.4384734e-16
5.82499311e-16
6.25169071e-16
6.63252577e-16
7.13991277e-16
7.65378489e-16
8.2502612e-16
8.91548661e-16
9.54252688e-16
1.02924783e-15
1.10953626e-15
1.19227543e-15
1.28257295e-15
1.38592105e-15
1.4906305e-15
1.60436539e-15
1.72951759e-15
1.8613505e-15
2.01252612e-15
2.17164682e-15
2.3436023e-15
2.52512161e-15
2.72444431e-15
2.93845702e-15
3.17699465e-15
3.42754842e-15
3.70140173e-15
4.00152253e-15
4.3206522e-15
4.66451134e-15
5.03739055e-15
5.43936741e-15
5.87709039e-15
6.34622624e-15
6.852236e-15
7.39759606e-15
7.98414789e-15
8.61985259e-15
9.30909697e-15
1.00532368e-14
1.0856092e-14
1.17212782e-14
1.26505893e-14
1.36591172e-14
1.47443697e-14
1.59092426e-14
1.71742894e-14
1.85388207e-14
2.00020061e-14
2.15847139e-14
2.32902146e-14
2.51285897e-14
2.71078263e-14
2.92398076e-14
3.15376522e-14
3.40139539e-14
3.66801726e-14
3.95577813e-14
4.26520264e-14
4.59823013e-14
4.95712433e-14
5.34365158e-14
5.75922478e-14
6.2066069e-14
6.68805086e-14
7.20579992e-14
7.76356252e-14
8.36338639e-14
9.00859328e-14
9.70219203e-14
1.04483152e-13
1.12505609e-13
1.2113146e-13
1.30402716e-13