/*--------------------------------*- C++ -*----------------------------------*\
| =========                 |                                                 |
| \\      /  F ield         | OpenFOAM: The Open Source CFD Toolbox           |
|  \\    /   O peration     | Version:  2206                                  |
|   \\  /    A nd           | Website:  www.openfoam.com                      |
|    \\/     M anipulation  |                                                 |
\*---------------------------------------------------------------------------*/
FoamFile
{
    version     2.0;
    format      ascii;
    arch        "LSB;label=32;scalar=64";
    class       volScalarField;
    location    "1.28e-05";
    object      PVsourcePV;
}
// * * * * * * * * * * * * * * * * * * * * * * * * * * * * * * * * * * * * * //

dimensions      [1 -3 -1 0 0 0 0];

internalField   nonuniform List<scalar> 
3183
(
0
0
0
0
0
0
0
0
0
0
0
0
0
0
0
0
0
0
0
0
0
0
0
0
0
0
0
0
0
0
0
0
0
0
0
0
0
0
0
0
0
0
0
0
0
0
0
0
0
0
0
0
0
0
0
0
0
0
0
0
0
0
0
0
0
0
0
0
0
0
0
0
0
0
0
0
0
0
0
0
0
0
0
0
0
0
0
0
0
0
0
0
0
0
0
0
0
0
0
0
0
0
0
0
0
0
0
0
0
0
0
0
0
0
0
0
0
0
0
0
0
0
0
0
0
0
0
0
0
0
0
0
0
0
0
0
0
0
0
0
0
0
0
0
0
0
0
0
0
0
0
0
0
0
0
0
0
0
0
0
0
0
0
0
0
0
0
0
0
0
0
0
0
0
0
0
0
0
0
0
0
0
0
0
0
0
0
0
0
0
0
0
0
0
0
0
0
0
0
0
0
0
0
0
0
0
0
0
0
0
0
0
0
0
0
0
0
0
0
0
0
0
0
0
0
0
0
0
0
0
0
0
0
0
0
0
0
0
0
0
0
0
0
0
0
0
0
0
0
0
0
0
0
0
0
0
0
0
0
0
0
0
0
0
0
0
0
0
0
0
0
0
0
0
0
0
0
0
0
0
0
0
0
0
0
0
0
0
0
0
0
0
0
0
0
0
0
0
0
0
0
0
0
0
0
0
0
0
0
0
0
0
0
0
0
0
0
0
0
0
0
0
0
0
0
0
0
0
0
0
0
0
0
0
0
0
0
0
0
0
0
0
0
0
0
0
0
0
0
0
0
0
0
0
0
0
0
0
0
0
0
0
0
0
0
0
0
0
0
0
0
0
0
0
0
0
0
0
0
0
0
0
0
0
0
0
0
0
0
0
0
0
0
0
0
0
0
0
0
0
0
0
0
0
0
0
0
0
0
0
0
0
0
0
0
0
0
0
0
0
0
0
0
0
0
0
0
0
0
0
0
0
0
0
0
0
0
0
0
0
0
0
0
0
0
0
0
0
0
0
0
0
0
0
0
0
0
0
0
0
0
0
0
0
0
0
0
0
0
0
0
0
0
0
0
0
0
0
0
0
0
0
0
0
0
0
0
0
0
0
0
0
0
0
0
0
0
0
0
0
0
0
0
0
0
0
0
0
0
0
0
0
0
0
0
0
0
0
0
0
0
0
0
0
0
0
0
0
0
0
0
0
0
0
0
0
0
0
0
0
0
0
0
0
0
0
0
0
0
0
0
0
0
0
0
0
0
0
0
0
0
0
0
0
0
0
0
0
0
0
0
0
0
0
0
0
0
0
0
0
0
0
0
0
0
0
0
0
0
0
0
0
0
0
0
0
0
0
0
0
0
0
0
0
0
0
0
0
0
0
0
0
0
0
0
0
0
0
0
0
0
0
0
0
0
0
0
0
0
0
0
0
0
0
0
0
0
0
0
0
0
0
0
0
0
0
0
0
0
0
0
0
0
0
0
0
0
0
0
0
0
0
0
0
0
0
0
0
0
0
0
0
0
0
0
0
0
0
0
0
0
0
0
0
0
0
0
0
0
0
0
0
0
0
0
0
0
0
0
0
0
0
0
0
0
0
0
0
0
0
0
0
0
0
0
0
0
0
0
0
0
0
0
0
0
0
0
0
0
0
0
0
0
0
0
0
0
0
0
0
0
0
0
0
0
0
0
0
0
0
0
0
0
0
0
0
0
0
0
0
0
0
0
0
0
0
0
0
0
0
0
0
0
0
0
0
0
0
0
0
0
0
0
0
0
0
0
0
0
0
0
0
0
0
0
0
0
0
0
0
0
0
0
0
0
0
0
0
0
0
0
0
0
0
0
0
0
0
0
0
0
0
0
0
0
0
0
0
0
0
0
0
0
0
0
0
0
0
0
0
0
0
0
0
0
0
0
0
0
0
0
0
0
0
0
0
0
0
0
0
0
0
0
0
0
0
0
0
0
0
0
0
0
0
0
0
0
0
0
0
0
0
0
0
0
0
0
0
0
0
0
0
0
0
0
0
0
0
0
0
0
0
0
0
0
0
0
0
0
0
0
0
0
0
0
0
0
0
0
0
0
0
0
0
0
0
0
0
0
0
0
0
0
0
0
0
0
0
0
0
0
0
0
0
0
0
0
0
0
0
0
0
0
0
0
0
0
0
0
0
0
0
0
0
0
0
0
0
0
0
0
0
0
0
0
0
0
0
0
0
0
0
0
0
0
0
0
0
0
0
0
0
0
0
0
0
0
0
0
0
0
0
0
0
0
0
0
0
0
0
0
0
0
0
0
0
0
0
0
0
0
0
0
0
0
0
0
0
0
0
0
0
0
0
0
0
0
0
0
0
0
0
0
0
0
0
0
0
0
0
0
0
0
0
0
0
0
0
0
0
0
0
0
0
0
0
0
0
0
0
0
0
0
0
0
0
0
0
0
0
0
0
0
0
0
0
0
0
0
0
0
0
0
0
0
0
0
0
0
0
0
0
0
0
0
0
0
0
0
0
0
0
0
0
0
0
0
0
0
0
0
0
0
0
0
0
0
0
0
0
0
0
0
0
0
0
0
0
0
0
0
0
0
0
0
0
0
0
0
0
0
0
0
0
0
0
0
0
0
0
0
0
0
0
0
0
0
0
0
0
0
0
0
0
0
0
0
0
0
0
0
0
0
0
0
0
0
0
0
0
0
0
0
0
0
0
0
0
0
0
0
0
0
0
0
0
0
0
0
0
0
0
0
0
0
0
0
0
0
0
0
0
0
0
0
0
0
0
0
0
0
0
0
0
0
0
0
0
0
0
0
0
0
0
0
0
0
0
0
0
0
0
0
0
0
0
0
0
0
0
0
0
0
0
0
0
0
0
0
0
0
0
0
0
0
0
0
0
0
0
0
0
0
0
0
0
0
0
0
0
0
0
0
0
0
0
0
0
0
0
0
0
0
0
0
0
0
0
0
0
0
0
0
0
0
0
0
0
0
0
0
0
0
0
0
0
0
0
0
0
0
0
0
0
0
0
0
0
0
0
0
0
0
0
0
0
0
0
0
0
0
0
0
0
0
0
0
0
0
0
0
0
0
0
0
0
0
0
0
0
0
0
0
0
0
0
0
0
0
0
0
0
0
0
0
0
0
0
0
0
0
0
0
0
0
0
0
0
0
0
0
0
0
0
0
0
0
0
0
0
0
0
0
0
0
0
0
0
0
0
0
0
0
0
0
0
0
0
0
0
0
0
0
0
0
0
0
0
0
0
0
0
0
0
0
0
0
0
0
0
0
0
0
0
0
0
0
0
0
0
0
0
0
0
0
0
0
0
0
0
0
0
0
0
0
0
0
0
0
0
0
0
0
0
0
0
0
0
0
0
0
0
0
0
0
0
0
0
0
0
0
0
0
0
0
0
0
0
0
0
0
0
0
0
0
0
0
0
0
0
0
0
0
0
0
0
0
0
0
0
0
0
0
0
0
0
0
0
0
0
0
0
0
0
0
0
0
0
0
0
0
0
0
0
0
0
0
0
0
0
0
0
0
0
0
0
0
0
0
0
0
0
0
0
0
0
0
0
0
0
0
0
0
0
0
0
0
0
0
0
0
0
0
0
0
0
0
0
0
0
0
0
0
0
0
0
0
0
0
0
0
0
0
0
0
0
0
0
0
0
0
0
0
0
0
0
0
0
0
0
0
0
0
0
0
0
0
0
0
0
0
0
0
0
0
0
0
0
0
0
0
0
0
0
0
0
0
0
0
0
0
0
0
0
0
0
0
0
0
0
0
0
0
0
0
0
0
0
0
0
0
0
0
0
0
0
0
0
0
0
0
0
0
0
0
0
0
0
0
0
0
0
0
0
0
0
0
0
0
0
0
0
0
0
0
0
0
0
0
0
0
0
0
0
0
0
0
0
0
0
0
0
0
0
0
0
0
0
0
0
0
0
0
0
0
0
0
0
0
0
0
0
0
0
0
0
0
0
0
0
0
0
0
0
0
0
0
0
0
0
0
0
0
0
0
0
0
0
0
0
0
0
0
0
0
0
0
0
0
0
0
0
0
0
0
0
0
0
0
0
0
0
0
0
0
0
0
0
0
0
0
0
0
0
0
0
0
0
0
0
0
0
0
0
0
0
0
0
0
0
0
0
0
0
0
0
0
0
0
0
0
0
0
0
0
0
0
0
0
0
0
0
0
0
0
0
0
0
0
0
0
0
0
0
0
0
0
0
0
0
0
0
0
0
0
0
0
0
0
0
0
0
0
0
0
0
0
0
0
0
0
0
0
0
0
0
0
0
0
0
0
0
0
0
0
0
0
0
0
0
0
0
0
0
0
0
0
0
0
0
0
0
0
0
0
0
0
0
0
0
0
0
0
0
0
0
0
0
0
0
0
0
0
0
0
0
0
0
0
0
0
0
0
0
0
0
0
0
0
0
0
0
0
0
0
0
0
0
0
0
0
0
0
0
0
0
0
0
0
0
0
0
0
0
0
0
0
0
0
0
0
0
0
0
0
0
0
0
0
0
0
0
0
0
0
0
0
0
0
0
0
0
0
0
0
0
0
0
0
0
0
0
0
0
0
0
0
0
0
0
0
0
0
0
0
0
0
0
0
0
0
0
0
0
0
0
0
0
0
0
0
0
0
0
0
0
0
0
0
0
0
0
0
0
0
0
0
0
0
0
0
0
0
0
0
0
0
0
0
0
0
0
0
0
0
0
0
0
0
0
0
0
0
0
0
0
0
0
0
0
0
0
0
0
0
0
0
0
0
0
0
0
0
0
0
0
0
0
0
0
0
0
0
0
0
0
0
0
0
0
0
0
0
0
0
0
0
0
0
0
0
0
0
0
0
0
0
0
0
0
0
0
0
0
0
0
0
0
0
0
0
0
0
0
0
0
0
0
0
0
0
0
0
0
0
0
0
0
0
0
0
0
0
0
0
0
0
0
0
0
0
0
0
0
0
0
0
0
0
0
0
0
0
0
0
0
0
0
0
0
0
0
0
0
0
0
0
0
0
0
0
0
0
0
0
0
0
0
0
0
0
0
0
0
0
0
0
0
0
0
0
0
0
0
0
0
0
0
0
0
0
0
0
0
0
0
0
0
0
0
0
0
0
0
0
0
0
0
0
0
0
0
0
0
0
0
0
0
0
0
0
0
0
0
0
0
0
0
0
0
0
0
0
0
0
0
0
0
0
0
0
0
0
0
0
0
0
0
0
0
0
0
0
0
0
0
0
0
0
0
0
0
0
0
0
0
0
0
0
0
0
0
0
0
0
0
0
0
0
0
0
0
0
0
0
0
0
0
0
0
0
0
0
0
0
0
0
0
0
0
0
0
0
0
0
0
0
0
0
0
0
3.46598761e-298
8.7732673e-299
2.49721743e-295
6.54791627e-296
1.7759314e-292
4.81531411e-293
1.24671343e-289
3.48890981e-290
8.63984716e-287
2.49247884e-287
5.91113732e-284
1.75568577e-284
3.99288207e-281
1.2185308e-281
2.66302701e-278
8.35064144e-279
1.75371846e-275
5.64349677e-276
1.1404056e-272
3.76578015e-273
7.32305574e-270
2.47604606e-270
4.64382329e-267
1.60644067e-267
2.90820259e-264
1.02852449e-264
1.79867634e-261
6.49899641e-262
1.09868464e-258
4.05315932e-259
6.62819924e-256
2.49509641e-256
3.94938853e-253
1.51619343e-253
2.32425546e-250
9.09535912e-251
1.35102693e-247
5.38647376e-248
7.75666999e-245
3.14939778e-245
4.39867006e-242
1.81804664e-242
2.46379405e-239
1.0362174e-239
1.36309185e-236
5.83145037e-237
7.44874137e-234
3.24034582e-234
4.02045919e-231
1.77787929e-231
2.14338371e-228
9.63195055e-229
1.12862792e-225
5.15264427e-226
5.86978132e-223
2.72176658e-223
3.01512655e-220
1.41963035e-220
1.52965131e-217
7.31139566e-218
7.66429009e-215
3.71809876e-215
3.79255484e-212
1.86693968e-212
1.85335496e-209
9.25592e-210
8.94410695e-207
4.53083422e-207
4.26236193e-204
2.18974466e-204
2.00576655e-201
1.04484309e-201
9.3198161e-199
4.92192109e-199
4.275725e-196
2.28889558e-196
1.9367099e-193
1.05076342e-193
8.66058066e-191
4.7615625e-191
3.82323157e-188
2.12978416e-188
1.6660465e-185
9.40236847e-186
7.16616024e-183
4.09662775e-183
3.04226403e-180
1.76146186e-180
1.27463102e-177
7.47386666e-178
5.27003488e-175
3.12902131e-175
2.15003801e-172
1.29248735e-172
8.65451122e-170
5.26695943e-170
3.43685075e-167
2.11723232e-167
1.34634461e-164
8.39476485e-165
5.20214725e-162
3.28272268e-162
1.98239812e-159
1.26589339e-159
7.44953965e-157
4.81333809e-157
2.76022325e-154
1.80438087e-154
1.00827356e-151
6.6678555e-152
3.63054895e-149
2.42862715e-149
1.28843755e-146
8.71745594e-147
4.50594546e-144
3.08323977e-144
1.55264106e-141
1.07434689e-141
5.27043547e-139
3.68747486e-139
1.76212373e-136
1.2464788e-136
5.80177942e-134
4.14889281e-134
1.88077769e-131
1.35952509e-131
6.00174521e-129
4.38492277e-129
1.88490528e-126
1.39175882e-126
5.82474406e-124
4.34606559e-124
1.7706719e-121
1.33492498e-121
5.29379014e-119
4.03216755e-119
1.55614735e-116
1.19737098e-116
4.49647604e-114
3.49469135e-114
1.27675468e-111
1.00219939e-111
3.56144074e-109
2.82314593e-109
9.75639918e-107
7.80922697e-107
2.62394053e-104
2.12047133e-104
6.92573745e-102
5.65005257e-102
1.79334616e-99
1.4767459e-99
4.55383785e-97
3.78460446e-97
1.13351094e-94
9.50637553e-95
2.76450463e-92
2.33935856e-92
6.60312673e-90
5.63718184e-90
1.54385844e-87
1.32951826e-87
3.5315245e-85
3.06735214e-85
7.89897289e-83
6.91871442e-83
1.72652756e-80
1.52482144e-80
3.68548269e-78
3.28145397e-78
7.67781589e-76
6.89080927e-76
1.55986539e-73
1.41095327e-73
3.0881856e-71
2.81483147e-71
5.95280917e-69
5.46667166e-69
1.11622123e-66
1.03259436e-66
2.03406448e-64
1.89516394e-64
3.5983797e-62
3.37608506e-62
6.17276912e-60
5.83082298e-60
1.02551784e-57
9.75108013e-58
1.64780855e-55
1.57684498e-55
2.5569668e-53
2.46200785e-53
3.82550851e-51
3.7054451e-51
5.50829449e-49
5.36603741e-49
7.61804055e-47
7.46197025e-47
1.00972821e-44
9.94161245e-45
1.27945207e-42
1.26571762e-42
1.54557969e-40
1.53516118e-40
1.77434372e-38
1.76669398e-38
1.92888265e-36
1.91852268e-36
1.9774788e-34
1.9527519e-34
1.90279993e-32
1.84291262e-32
1.70900841e-30
1.6676501e-30
1.42265861e-28
1.41882101e-28
1.08904513e-26
1.08217081e-26
7.59566026e-25
7.52082839e-25
4.76714416e-23
4.70878162e-23
2.65089983e-21
2.60328681e-21
1.27981629e-19
1.27761263e-19
5.21354147e-18
5.161555e-18
1.72271511e-16
1.71285585e-16
4.32736812e-15
4.33188214e-15
4.79256658e-11
4.88565998e-11
0.00850692322
0.0366455954
0.638381428
0.722464827
0.548227521
0.472268761
0.118901454
0.0964439823
0.0183004158
0.0162850274
0.00347781267
0.00323071146
0.000583508392
0.00056604849
8.91959321e-05
8.9149031e-05
1.31973312e-05
1.32385575e-05
2.3111888e-06
2.31032971e-06
8.68938322e-07
8.6903951e-07
6.93416099e-07
6.93475879e-07
6.73573097e-07
6.73583233e-07
6.71473773e-07
6.71475139e-07
6.71263813e-07
6.71265792e-07
6.71244114e-07
6.71245377e-07
6.71242239e-07
6.71245143e-07
6.7124066e-07
6.71244073e-07
6.71241957e-07
6.7124261e-07
6.71241981e-07
6.71241389e-07
6.71243367e-07
6.71241823e-07
6.71244105e-07
6.71241637e-07
6.71243038e-07
6.71242485e-07
6.71243782e-07
6.71242119e-07
6.71243327e-07
6.71242455e-07
6.71243563e-07
6.71242351e-07
6.71242985e-07
6.71243013e-07
6.71243133e-07
6.71242686e-07
6.71242464e-07
6.7124361e-07
6.71242044e-07
6.71243098e-07
6.71242801e-07
6.71243287e-07
6.71242616e-07
6.71242572e-07
6.71242793e-07
6.71242519e-07
6.7124339e-07
6.71242095e-07
6.712429e-07
6.71241619e-07
6.71242909e-07
6.71242581e-07
6.71241765e-07
6.71242927e-07
6.71241781e-07
6.71243279e-07
6.71242557e-07
6.71243736e-07
6.71242229e-07
6.71243753e-07
6.71241508e-07
6.71243458e-07
6.71242256e-07
6.71242803e-07
6.71242843e-07
6.71241555e-07
6.71243472e-07
6.71241731e-07
6.71243464e-07
6.71241421e-07
6.71243778e-07
6.7124218e-07
6.71243576e-07
6.71242534e-07
6.71243192e-07
6.71242688e-07
6.71243147e-07
6.71242238e-07
6.71243787e-07
6.71243377e-07
6.71242849e-07
6.71242719e-07
6.71242512e-07
6.71243082e-07
6.71243113e-07
6.71243016e-07
6.71242666e-07
6.71243286e-07
6.71242539e-07
6.71243424e-07
6.71242048e-07
6.71243152e-07
6.71242504e-07
6.71242795e-07
6.71242362e-07
6.71242339e-07
6.71242044e-07
6.71243996e-07
6.71241984e-07
6.71243533e-07
6.71242427e-07
6.71243849e-07
6.71241908e-07
6.71242386e-07
6.71243209e-07
6.71242823e-07
6.71242601e-07
6.7124367e-07
6.71242458e-07
6.71244067e-07
6.71243078e-07
6.71242642e-07
6.71244043e-07
6.71243527e-07
6.71243504e-07
6.71243139e-07
6.71243872e-07
6.71242531e-07
6.7124323e-07
6.71242701e-07
6.71242133e-07
6.71243287e-07
6.71241902e-07
6.71242888e-07
6.71242367e-07
6.71243064e-07
6.7124171e-07
6.71243022e-07
6.71243495e-07
6.71241867e-07
6.71243966e-07
6.71241546e-07
6.71244184e-07
6.71242393e-07
6.71243456e-07
6.71242816e-07
6.71243124e-07
6.71243436e-07
6.71243383e-07
6.71242867e-07
6.7124503e-07
6.71242171e-07
6.71244379e-07
6.71242995e-07
6.71244373e-07
6.71242128e-07
6.71244109e-07
6.71242462e-07
6.71242706e-07
6.7124247e-07
6.71242536e-07
6.71242664e-07
6.71241792e-07
6.7124335e-07
6.7124272e-07
6.71243392e-07
6.71243207e-07
6.71244132e-07
6.71242785e-07
6.71244328e-07
6.71244062e-07
6.71244082e-07
6.71244463e-07
6.71243792e-07
6.71243413e-07
6.71242808e-07
6.71243672e-07
6.7124209e-07
6.71244011e-07
6.71243293e-07
6.71243688e-07
6.71242459e-07
6.71244429e-07
6.71242596e-07
6.71244429e-07
6.71242825e-07
6.71242976e-07
6.71242403e-07
6.71243604e-07
6.71242295e-07
6.71244046e-07
6.7124251e-07
6.71244702e-07
6.7124239e-07
6.71243573e-07
6.71243607e-07
6.71243169e-07
6.7124352e-07
6.71244625e-07
6.71243954e-07
6.71243952e-07
6.71243409e-07
6.71244e-07
6.71243413e-07
6.71244175e-07
6.71243279e-07
6.71243423e-07
6.71243525e-07
6.71243253e-07
6.71243634e-07
6.71243633e-07
6.71243077e-07
6.71243252e-07
6.71243361e-07
6.71243727e-07
6.71243065e-07
6.71244248e-07
6.71242624e-07
6.71244237e-07
6.71243794e-07
6.71243645e-07
6.7124362e-07
6.71243314e-07
6.712439e-07
6.71243735e-07
6.71243841e-07
6.71243473e-07
6.71244508e-07
6.71243141e-07
6.71244441e-07
6.71243548e-07
6.71244803e-07
6.7124311e-07
6.71245019e-07
6.71242327e-07
6.71244991e-07
6.71242823e-07
6.7124322e-07
6.712435e-07
6.71243118e-07
6.7124378e-07
6.71244004e-07
6.712435e-07
6.71243596e-07
6.71243474e-07
6.71243747e-07
6.71243495e-07
6.71243718e-07
6.71243475e-07
6.71244263e-07
6.7124411e-07
6.71242902e-07
6.7124516e-07
6.71242778e-07
6.71244795e-07
6.71242866e-07
6.71244165e-07
6.71243389e-07
6.71243587e-07
6.71242588e-07
6.71244322e-07
6.71242768e-07
6.71243328e-07
6.71243943e-07
6.71242761e-07
6.71244825e-07
6.71243489e-07
6.71244263e-07
6.71244063e-07
6.71242729e-07
6.71244618e-07
6.71243092e-07
6.71243751e-07
6.71243954e-07
6.71243649e-07
6.71243273e-07
6.71243343e-07
6.71243918e-07
6.71243578e-07
6.71244119e-07
6.7124378e-07
6.71243759e-07
6.71244438e-07
6.71242831e-07
6.71243367e-07
6.71243954e-07
6.71243736e-07
6.71243921e-07
6.71244197e-07
6.7124418e-07
6.71243482e-07
6.71244284e-07
6.71244556e-07
6.71243394e-07
6.71244702e-07
6.71243682e-07
6.7124328e-07
6.71244e-07
6.71243156e-07
6.71244338e-07
6.71243166e-07
6.71244551e-07
6.71242647e-07
6.71245212e-07
6.71243343e-07
6.71243886e-07
6.71243805e-07
6.71243551e-07
6.71244285e-07
6.71243055e-07
6.71245e-07
6.71242717e-07
6.7124516e-07
6.7124303e-07
6.7124475e-07
6.71243302e-07
6.71243987e-07
6.71244897e-07
6.71243248e-07
6.71244946e-07
6.71243218e-07
6.71244682e-07
6.71243659e-07
6.71243722e-07
6.71243864e-07
6.71243715e-07
6.71244196e-07
6.71244383e-07
6.71243195e-07
6.71244173e-07
6.7124383e-07
6.71244533e-07
6.71244053e-07
6.71244061e-07
6.71244153e-07
6.71244811e-07
6.71243753e-07
6.7124374e-07
6.71244647e-07
6.71243336e-07
6.71244307e-07
6.71244776e-07
6.71243432e-07
6.71243872e-07
6.71244167e-07
6.71243283e-07
6.71244895e-07
6.71243871e-07
6.71244474e-07
6.71244516e-07
6.71244217e-07
6.71243466e-07
6.71244057e-07
6.71244192e-07
6.71244844e-07
6.71244108e-07
6.71244505e-07
6.71244835e-07
6.71245084e-07
6.71244714e-07
6.712451e-07
6.71244781e-07
6.71244386e-07
6.71244438e-07
6.71244386e-07
6.71243878e-07
6.71243831e-07
6.71244579e-07
6.71244088e-07
6.71245138e-07
6.7124436e-07
6.71243921e-07
6.71244903e-07
6.71244252e-07
6.71244586e-07
6.71244035e-07
6.7124411e-07
6.71244395e-07
6.71243339e-07
6.71244909e-07
6.71243606e-07
6.71244421e-07
6.71243516e-07
6.71244427e-07
6.71244527e-07
6.71244096e-07
6.71245119e-07
6.71244766e-07
6.71244908e-07
6.71244028e-07
6.71244231e-07
6.71244347e-07
6.71243844e-07
6.71245619e-07
6.71242992e-07
6.71245157e-07
6.71243524e-07
6.71244732e-07
6.71244914e-07
6.7124433e-07
6.71244331e-07
6.71244869e-07
6.71245095e-07
6.71244689e-07
6.71245059e-07
6.71244466e-07
6.71244764e-07
6.71244266e-07
6.71244862e-07
6.71243831e-07
6.71244931e-07
6.71244777e-07
6.71243771e-07
6.71245798e-07
6.71244533e-07
6.7124519e-07
6.71244318e-07
6.71245654e-07
6.712437e-07
6.71245984e-07
6.7124407e-07
6.71245482e-07
6.7124484e-07
6.71245092e-07
6.71245241e-07
6.71244752e-07
6.71244444e-07
6.7124541e-07
6.71244393e-07
6.71245821e-07
6.71244092e-07
6.71245007e-07
6.71244295e-07
6.71244925e-07
6.71244061e-07
6.71245701e-07
6.71244292e-07
6.71245783e-07
6.71244248e-07
6.7124461e-07
6.71245427e-07
6.71244535e-07
6.7124508e-07
6.71244615e-07
6.71244437e-07
6.71245784e-07
6.71243832e-07
6.71244788e-07
6.71244973e-07
6.7124423e-07
6.71245266e-07
6.71245154e-07
6.7124394e-07
6.71245873e-07
6.71243724e-07
6.71246484e-07
6.71244461e-07
6.71245295e-07
6.71244487e-07
6.71245074e-07
6.71244511e-07
6.71244652e-07
6.71244863e-07
6.71244686e-07
6.71244285e-07
6.71245584e-07
6.71243964e-07
6.71245705e-07
6.71243791e-07
6.71245196e-07
6.71243756e-07
6.71245047e-07
6.71244139e-07
6.71244809e-07
6.71244076e-07
6.71244377e-07
6.71244609e-07
6.71244048e-07
6.7124628e-07
6.71243321e-07
6.71245466e-07
6.71243959e-07
6.71246102e-07
6.71244239e-07
6.71246175e-07
6.71242982e-07
6.71246836e-07
6.71243117e-07
6.71246095e-07
6.71243702e-07
6.7124571e-07
6.71244365e-07
6.71244826e-07
6.71245645e-07
6.71245652e-07
6.71244505e-07
6.71245423e-07
6.71244578e-07
6.71245012e-07
6.71244897e-07
6.71245253e-07
6.7124466e-07
6.71245159e-07
6.7124503e-07
6.71245391e-07
6.71245201e-07
6.71245038e-07
6.71245377e-07
6.71245061e-07
6.71244982e-07
6.71245305e-07
6.71245335e-07
6.71245285e-07
6.71245271e-07
6.71245315e-07
6.71245267e-07
6.71245408e-07
6.7124544e-07
6.71245461e-07
6.71245559e-07
6.71245566e-07
6.7124571e-07
6.71245795e-07
6.71245797e-07
6.71245939e-07
6.71246048e-07
6.71246106e-07
6.71246238e-07
6.71246397e-07
6.71246573e-07
6.71246697e-07
6.7124686e-07
6.71247073e-07
6.71247216e-07
6.71247406e-07
6.71247597e-07
6.71247755e-07
6.71247844e-07
6.71247995e-07
6.71248069e-07
6.71248122e-07
6.7124817e-07
6.7124819e-07
6.712482e-07
6.71248218e-07
6.71248215e-07
6.71248213e-07
6.71248192e-07
6.71248183e-07
6.71248219e-07
6.71248202e-07
6.71248206e-07
6.71248209e-07
6.71248211e-07
6.71248219e-07
6.71248219e-07
6.71248211e-07
6.71248231e-07
6.71248206e-07
6.71248213e-07
6.71248203e-07
6.71248213e-07
6.71248213e-07
6.71248209e-07
6.71248213e-07
6.71248204e-07
6.71248191e-07
6.71248233e-07
)
;

boundaryField
{
    closed
    {
        type            calculated;
        value           uniform 0;
    }
    open
    {
        type            calculated;
        value           uniform 0;
    }
    sides
    {
        type            empty;
    }
}


// ************************************************************************* //
