/*--------------------------------*- C++ -*----------------------------------*\
| =========                 |                                                 |
| \\      /  F ield         | OpenFOAM: The Open Source CFD Toolbox           |
|  \\    /   O peration     | Version:  2206                                  |
|   \\  /    A nd           | Website:  www.openfoam.com                      |
|    \\/     M anipulation  |                                                 |
\*---------------------------------------------------------------------------*/
FoamFile
{
    version     2.0;
    format      ascii;
    arch        "LSB;label=32;scalar=64";
    class       volVectorField;
    location    "1.28e-05";
    object      U;
}
// * * * * * * * * * * * * * * * * * * * * * * * * * * * * * * * * * * * * * //

dimensions      [0 1 -1 0 0 0 0];

internalField   nonuniform List<vector> 
3183
(
(3.66427021e-13 0 0)
(7.92884495e-14 0 0)
(-2.50278581e-13 0 0)
(-2.49403034e-13 0 0)
(-1.36462523e-13 0 0)
(-7.21486582e-18 0 0)
(-5.61595137e-19 0 0)
(-4.33684035e-23 0 0)
(4.75986335e-23 0 0)
(6.53302164e-19 0 0)
(1.20395527e-17 0 0)
(1.88977411e-13 0 0)
(5.52188743e-13 0 0)
(1.69364803e-13 0 0)
(1.04875164e-13 0 0)
(7.35496769e-14 0 0)
(-2.59324176e-13 0 0)
(-6.06679798e-13 0 0)
(-7.70811285e-13 0 0)
(-8.57491002e-14 0 0)
(3.60234937e-13 0 0)
(1.43036762e-16 0 0)
(5.25865293e-14 0 0)
(2.8188918e-13 0 0)
(3.60613559e-13 0 0)
(4.95742668e-13 0 0)
(5.40678692e-13 0 0)
(6.50321057e-13 0 0)
(3.14228072e-13 0 0)
(4.04728901e-13 0 0)
(-6.27522033e-14 0 0)
(-3.57531781e-13 0 0)
(-7.34328015e-13 0 0)
(-9.65313873e-13 0 0)
(-9.29259451e-13 0 0)
(-6.52617998e-13 0 0)
(-6.64297772e-13 0 0)
(-5.18211922e-13 0 0)
(-2.50056821e-13 0 0)
(-3.12810914e-13 0 0)
(-5.77377053e-13 0 0)
(-4.68713133e-13 0 0)
(-1.91281363e-13 0 0)
(-4.88106429e-13 0 0)
(4.78052245e-14 0 0)
(3.04465578e-13 0 0)
(2.13599201e-13 0 0)
(5.06485121e-13 0 0)
(4.36318317e-13 0 0)
(7.48351442e-13 0 0)
(8.53842848e-13 0 0)
(1.49311318e-12 0 0)
(1.26371233e-12 0 0)
(1.81015794e-12 0 0)
(2.11129074e-12 0 0)
(2.12292295e-12 0 0)
(2.07581627e-12 0 0)
(2.06105465e-12 0 0)
(1.71039482e-12 0 0)
(1.72646909e-12 0 0)
(1.27466415e-12 0 0)
(6.92771688e-13 0 0)
(6.77486981e-13 0 0)
(1.83861855e-13 0 0)
(1.31088267e-13 0 0)
(3.44642236e-14 0 0)
(-5.7891529e-13 0 0)
(-5.71546616e-13 0 0)
(-8.03670269e-13 0 0)
(-1.44590085e-12 0 0)
(-1.11248174e-12 0 0)
(-1.35375122e-12 0 0)
(-1.45677474e-12 0 0)
(-1.8594503e-12 0 0)
(-2.24525775e-12 0 0)
(-2.36831254e-12 0 0)
(-2.28637629e-12 0 0)
(-2.9008505e-12 0 0)
(-3.18168955e-12 0 0)
(-3.45873683e-12 0 0)
(-4.01231531e-12 0 0)
(-4.01759037e-12 0 0)
(-3.4318824e-12 0 0)
(-4.98962902e-12 0 0)
(-4.15146153e-12 0 0)
(-4.0627879e-12 0 0)
(-4.89952379e-12 0 0)
(-4.36864474e-12 0 0)
(-4.36649406e-12 0 0)
(-4.2943454e-12 0 0)
(-5.50116185e-12 0 0)
(-5.44144309e-12 0 0)
(-4.78401876e-12 0 0)
(-5.62964727e-12 0 0)
(-5.81011947e-12 0 0)
(-5.42145224e-12 0 0)
(-6.54873894e-12 0 0)
(-5.32048497e-12 0 0)
(-5.91874428e-12 0 0)
(-6.19209836e-12 0 0)
(-5.2360164e-12 0 0)
(-5.6587762e-12 0 0)
(-5.70184084e-12 0 0)
(-6.00048218e-12 0 0)
(-5.58055635e-12 0 0)
(-5.97280325e-12 0 0)
(-5.85263891e-12 0 0)
(-5.65642201e-12 0 0)
(-6.78704165e-12 0 0)
(-7.10422868e-12 0 0)
(-5.66377035e-12 0 0)
(-6.24648126e-12 0 0)
(-5.75640395e-12 0 0)
(-6.98820176e-12 0 0)
(-6.04029993e-12 0 0)
(-6.2532609e-12 0 0)
(-5.76640138e-12 0 0)
(-5.8198816e-12 0 0)
(-5.44240645e-12 0 0)
(-6.60615661e-12 0 0)
(-6.9659762e-12 0 0)
(-6.07729539e-12 0 0)
(-6.67540079e-12 0 0)
(-6.62039634e-12 0 0)
(-6.65620119e-12 0 0)
(-6.84825545e-12 0 0)
(-5.78694166e-12 0 0)
(-7.01502988e-12 0 0)
(-5.5653318e-12 0 0)
(-6.07672279e-12 0 0)
(-5.79510253e-12 0 0)
(-6.42458542e-12 0 0)
(-6.3089151e-12 0 0)
(-6.5015644e-12 0 0)
(-6.14941427e-12 0 0)
(-6.0873585e-12 0 0)
(-5.84130297e-12 0 0)
(-6.52312337e-12 0 0)
(-6.63932682e-12 0 0)
(-6.76064829e-12 0 0)
(-6.19632819e-12 0 0)
(-7.0644746e-12 0 0)
(-7.00335415e-12 0 0)
(-7.72134999e-12 0 0)
(-7.29874354e-12 0 0)
(-7.80867107e-12 0 0)
(-7.32569627e-12 0 0)
(-8.16406812e-12 0 0)
(-7.53856536e-12 0 0)
(-7.79749093e-12 0 0)
(-7.56930115e-12 0 0)
(-8.19853269e-12 0 0)
(-7.78300638e-12 0 0)
(-7.47893357e-12 0 0)
(-8.59183893e-12 0 0)
(-7.47544618e-12 0 0)
(-8.71511397e-12 0 0)
(-8.77722713e-12 0 0)
(-7.38873917e-12 0 0)
(-7.766686e-12 0 0)
(-8.7978099e-12 0 0)
(-8.37311072e-12 0 0)
(-7.44567835e-12 0 0)
(-8.54608765e-12 0 0)
(-9.0420097e-12 0 0)
(-9.33259511e-12 0 0)
(-8.88429501e-12 0 0)
(-8.55620963e-12 0 0)
(-8.68502711e-12 0 0)
(-9.56190209e-12 0 0)
(-1.01092929e-11 0 0)
(-8.82109723e-12 0 0)
(-9.17583545e-12 0 0)
(-9.35106236e-12 0 0)
(-1.09909641e-11 0 0)
(-8.99643821e-12 0 0)
(-1.01490376e-11 0 0)
(-8.91521804e-12 0 0)
(-9.95485376e-12 0 0)
(-8.91245318e-12 0 0)
(-9.02757958e-12 0 0)
(-1.14926276e-11 0 0)
(-9.63930571e-12 0 0)
(-1.03395271e-11 0 0)
(-1.16608708e-11 0 0)
(-1.20202467e-11 0 0)
(-1.0728582e-11 0 0)
(-1.1146934e-11 0 0)
(-1.12766719e-11 0 0)
(-1.08090145e-11 0 0)
(-1.15331645e-11 0 0)
(-1.15068854e-11 0 0)
(-1.20006098e-11 0 0)
(-1.18235897e-11 0 0)
(-1.27050098e-11 0 0)
(-1.13213895e-11 0 0)
(-1.13214417e-11 0 0)
(-1.10214647e-11 0 0)
(-1.2202835e-11 0 0)
(-1.34849224e-11 0 0)
(-1.19128813e-11 0 0)
(-1.17931473e-11 0 0)
(-1.15748041e-11 0 0)
(-1.28537239e-11 0 0)
(-1.28807075e-11 0 0)
(-1.22189053e-11 0 0)
(-1.27273597e-11 0 0)
(-1.30161346e-11 0 0)
(-1.38401652e-11 0 0)
(-1.14439433e-11 0 0)
(-1.18616783e-11 0 0)
(-1.36026942e-11 0 0)
(-1.15070243e-11 0 0)
(-1.31161861e-11 0 0)
(-1.22921878e-11 0 0)
(-1.19601473e-11 0 0)
(-1.18267433e-11 0 0)
(-1.17192165e-11 0 0)
(-1.08838769e-11 0 0)
(-1.17546674e-11 0 0)
(-1.24975416e-11 0 0)
(-1.21953171e-11 0 0)
(-1.37930438e-11 0 0)
(-1.15400064e-11 0 0)
(-1.14908091e-11 0 0)
(-1.28148606e-11 0 0)
(-1.14644748e-11 0 0)
(-1.24807295e-11 0 0)
(-1.30535841e-11 0 0)
(-1.23019611e-11 0 0)
(-1.29054189e-11 0 0)
(-1.23231842e-11 0 0)
(-1.2250581e-11 0 0)
(-1.30203326e-11 0 0)
(-1.28440228e-11 0 0)
(-1.23285288e-11 0 0)
(-1.34111014e-11 0 0)
(-1.26605674e-11 0 0)
(-1.35430317e-11 0 0)
(-1.33219671e-11 0 0)
(-1.30495139e-11 0 0)
(-1.41379462e-11 0 0)
(-1.26013426e-11 0 0)
(-1.28464338e-11 0 0)
(-1.28314401e-11 0 0)
(-1.41286549e-11 0 0)
(-1.32119306e-11 0 0)
(-1.25229698e-11 0 0)
(-1.29811257e-11 0 0)
(-1.38262934e-11 0 0)
(-1.26733955e-11 0 0)
(-1.27668199e-11 0 0)
(-1.36335383e-11 0 0)
(-1.33621398e-11 0 0)
(-1.3467345e-11 0 0)
(-1.30547118e-11 0 0)
(-1.32822735e-11 0 0)
(-1.25933162e-11 0 0)
(-1.29687769e-11 0 0)
(-1.33075881e-11 0 0)
(-1.3862783e-11 0 0)
(-1.35361573e-11 0 0)
(-1.38055005e-11 0 0)
(-1.30428869e-11 0 0)
(-1.34643768e-11 0 0)
(-1.31663774e-11 0 0)
(-1.38042401e-11 0 0)
(-1.41217116e-11 0 0)
(-1.28586868e-11 0 0)
(-1.40409414e-11 0 0)
(-1.38223701e-11 0 0)
(-1.3131042e-11 0 0)
(-1.27929699e-11 0 0)
(-1.3386147e-11 0 0)
(-1.31608714e-11 0 0)
(-1.32093107e-11 0 0)
(-1.32505978e-11 0 0)
(-1.45812864e-11 0 0)
(-1.43243478e-11 0 0)
(-1.3948974e-11 0 0)
(-1.42461542e-11 0 0)
(-1.46657697e-11 0 0)
(-1.49824066e-11 0 0)
(-1.45969273e-11 0 0)
(-1.46518281e-11 0 0)
(-1.56861462e-11 0 0)
(-1.47108256e-11 0 0)
(-1.5742608e-11 0 0)
(-1.55646571e-11 0 0)
(-1.60433026e-11 0 0)
(-1.57343953e-11 0 0)
(-1.59190869e-11 0 0)
(-1.60297479e-11 0 0)
(-1.62442161e-11 0 0)
(-1.53295893e-11 0 0)
(-1.59713055e-11 0 0)
(-1.6214789e-11 0 0)
(-1.65145343e-11 0 0)
(-1.61757685e-11 0 0)
(-1.65237122e-11 0 0)
(-1.62240515e-11 0 0)
(-1.52533379e-11 0 0)
(-1.59661606e-11 0 0)
(-1.56167197e-11 0 0)
(-1.7008547e-11 0 0)
(-1.697817e-11 0 0)
(-1.59406859e-11 0 0)
(-1.71765601e-11 0 0)
(-1.72180797e-11 0 0)
(-1.74082471e-11 0 0)
(-1.73975896e-11 0 0)
(-1.66863384e-11 0 0)
(-1.62682653e-11 0 0)
(-1.63395834e-11 0 0)
(-1.74005208e-11 0 0)
(-1.72189523e-11 0 0)
(-1.83815212e-11 0 0)
(-1.71247902e-11 0 0)
(-1.69038008e-11 0 0)
(-1.8470687e-11 0 0)
(-1.70991234e-11 0 0)
(-1.72112936e-11 0 0)
(-1.72026075e-11 0 0)
(-1.73619792e-11 0 0)
(-1.74633416e-11 0 0)
(-1.70604375e-11 0 0)
(-1.77683116e-11 0 0)
(-1.72536759e-11 0 0)
(-1.74131454e-11 0 0)
(-1.70092819e-11 0 0)
(-1.59099836e-11 0 0)
(-1.72047627e-11 0 0)
(-1.68895942e-11 0 0)
(-1.62169561e-11 0 0)
(-1.55536675e-11 0 0)
(-1.58650348e-11 0 0)
(-1.64509945e-11 0 0)
(-1.74898794e-11 0 0)
(-1.68583649e-11 0 0)
(-1.67400379e-11 0 0)
(-1.56191869e-11 0 0)
(-1.69706459e-11 0 0)
(-1.63120043e-11 0 0)
(-1.54362137e-11 0 0)
(-1.59753184e-11 0 0)
(-1.62706792e-11 0 0)
(-1.60840191e-11 0 0)
(-1.61169489e-11 0 0)
(-1.5985848e-11 0 0)
(-1.68259609e-11 0 0)
(-1.56900974e-11 0 0)
(-1.61966912e-11 0 0)
(-1.68292044e-11 0 0)
(-1.61305316e-11 0 0)
(-1.55337336e-11 0 0)
(-1.64175414e-11 0 0)
(-1.72153263e-11 0 0)
(-1.58094513e-11 0 0)
(-1.66155389e-11 0 0)
(-1.60217129e-11 0 0)
(-1.57365501e-11 0 0)
(-1.61665141e-11 0 0)
(-1.63994775e-11 0 0)
(-1.63318741e-11 0 0)
(-1.55419965e-11 0 0)
(-1.60217986e-11 0 0)
(-1.59503567e-11 0 0)
(-1.68514417e-11 0 0)
(-1.60642343e-11 0 0)
(-1.68896062e-11 0 0)
(-1.65400209e-11 0 0)
(-1.71169846e-11 0 0)
(-1.59080218e-11 0 0)
(-1.67657743e-11 0 0)
(-1.60300009e-11 0 0)
(-1.73751267e-11 0 0)
(-1.56569815e-11 0 0)
(-1.61692047e-11 0 0)
(-1.63388487e-11 0 0)
(-1.58182343e-11 0 0)
(-1.64611779e-11 0 0)
(-1.56818965e-11 0 0)
(-1.69097947e-11 0 0)
(-1.67969556e-11 0 0)
(-1.64391796e-11 0 0)
(-1.63241115e-11 0 0)
(-1.5781521e-11 0 0)
(-1.64577068e-11 0 0)
(-1.70976741e-11 0 0)
(-1.61290609e-11 0 0)
(-1.62500461e-11 0 0)
(-1.67556153e-11 0 0)
(-1.58768289e-11 0 0)
(-1.6148959e-11 0 0)
(-1.63580787e-11 0 0)
(-1.42899615e-11 0 0)
(-1.537906e-11 0 0)
(-1.61930583e-11 0 0)
(-1.53380384e-11 0 0)
(-1.38945018e-11 0 0)
(-1.39521511e-11 0 0)
(-1.39361138e-11 0 0)
(-1.47913521e-11 0 0)
(-1.50333532e-11 0 0)
(-1.37781038e-11 0 0)
(-1.41232818e-11 0 0)
(-1.28792858e-11 0 0)
(-1.36810416e-11 0 0)
(-1.28872627e-11 0 0)
(-1.35455232e-11 0 0)
(-1.24663106e-11 0 0)
(-1.16183783e-11 0 0)
(-1.21547565e-11 0 0)
(-1.25932653e-11 0 0)
(-1.24152441e-11 0 0)
(-1.197838e-11 0 0)
(-1.16171374e-11 0 0)
(-1.15255338e-11 0 0)
(-1.25571691e-11 0 0)
(-1.28384285e-11 0 0)
(-1.12386751e-11 0 0)
(-1.07000137e-11 0 0)
(-1.18515339e-11 0 0)
(-1.12397927e-11 0 0)
(-1.19541689e-11 0 0)
(-1.23004484e-11 0 0)
(-1.16837449e-11 0 0)
(-1.08435425e-11 0 0)
(-1.05338131e-11 0 0)
(-1.02474599e-11 0 0)
(-1.04948584e-11 0 0)
(-1.12240098e-11 0 0)
(-1.08933265e-11 0 0)
(-1.0009365e-11 0 0)
(-1.05326937e-11 0 0)
(-1.09803658e-11 0 0)
(-1.09310048e-11 0 0)
(-1.15954388e-11 0 0)
(-9.40603029e-12 0 0)
(-1.00606326e-11 0 0)
(-1.06660703e-11 0 0)
(-1.14540811e-11 0 0)
(-1.02710743e-11 0 0)
(-1.03665209e-11 0 0)
(-1.06516558e-11 0 0)
(-1.08373239e-11 0 0)
(-1.07896285e-11 0 0)
(-1.03365952e-11 0 0)
(-1.08261526e-11 0 0)
(-9.4873871e-12 0 0)
(-9.6443562e-12 0 0)
(-9.62145452e-12 0 0)
(-1.01757594e-11 0 0)
(-9.45252493e-12 0 0)
(-1.03342104e-11 0 0)
(-9.62686622e-12 0 0)
(-9.30161494e-12 0 0)
(-1.01600463e-11 0 0)
(-9.01506443e-12 0 0)
(-7.46116771e-12 0 0)
(-9.34411439e-12 0 0)
(-1.00568475e-11 0 0)
(-8.87681196e-12 0 0)
(-7.95730602e-12 0 0)
(-9.55548794e-12 0 0)
(-8.59682941e-12 0 0)
(-7.89391239e-12 0 0)
(-8.13050519e-12 0 0)
(-7.13846092e-12 0 0)
(-8.08004511e-12 0 0)
(-7.69664262e-12 0 0)
(-7.51749856e-12 0 0)
(-7.51398798e-12 0 0)
(-7.41710002e-12 0 0)
(-7.76533717e-12 0 0)
(-8.77223769e-12 0 0)
(-7.68490833e-12 0 0)
(-7.92852428e-12 0 0)
(-7.96386967e-12 0 0)
(-8.40562824e-12 0 0)
(-8.35111466e-12 0 0)
(-8.85526594e-12 0 0)
(-8.13133021e-12 0 0)
(-8.61405049e-12 0 0)
(-8.47432155e-12 0 0)
(-8.72581509e-12 0 0)
(-7.58283136e-12 0 0)
(-8.25971306e-12 0 0)
(-8.41747981e-12 0 0)
(-7.59955164e-12 0 0)
(-8.41527283e-12 0 0)
(-8.05113744e-12 0 0)
(-8.61251151e-12 0 0)
(-7.6890984e-12 0 0)
(-8.72835387e-12 0 0)
(-7.8327264e-12 0 0)
(-7.67844351e-12 0 0)
(-8.05333304e-12 0 0)
(-7.15861948e-12 0 0)
(-7.77299119e-12 0 0)
(-7.96624585e-12 0 0)
(-7.37592385e-12 0 0)
(-6.49396556e-12 0 0)
(-6.51774359e-12 0 0)
(-6.33180559e-12 0 0)
(-6.90539757e-12 0 0)
(-6.97383217e-12 0 0)
(-6.21306736e-12 0 0)
(-6.9337381e-12 0 0)
(-6.58182158e-12 0 0)
(-5.44906078e-12 0 0)
(-5.88547899e-12 0 0)
(-5.15556392e-12 0 0)
(-4.55038477e-12 0 0)
(-5.24244359e-12 0 0)
(-3.69227323e-12 0 0)
(-5.07743796e-12 0 0)
(-3.87484927e-12 0 0)
(-4.67003617e-12 0 0)
(-4.34609062e-12 0 0)
(-4.66177175e-12 0 0)
(-4.5554845e-12 0 0)
(-3.41116112e-12 0 0)
(-4.31854506e-12 0 0)
(-4.73203086e-12 0 0)
(-3.81345769e-12 0 0)
(-4.62799036e-12 0 0)
(-3.66298998e-12 0 0)
(-3.6933143e-12 0 0)
(-3.36641101e-12 0 0)
(-4.01437538e-12 0 0)
(-3.51106229e-12 0 0)
(-4.46185725e-12 0 0)
(-3.64960392e-12 0 0)
(-3.26098643e-12 0 0)
(-2.85264796e-12 0 0)
(-3.40745771e-12 0 0)
(-2.78885361e-12 0 0)
(-3.3408681e-12 0 0)
(-2.78469298e-12 0 0)
(-3.00547126e-12 0 0)
(-2.44439548e-12 0 0)
(-4.14180105e-12 0 0)
(-2.00600104e-12 0 0)
(-1.61913731e-12 0 0)
(-2.81098162e-12 0 0)
(-2.22706048e-12 0 0)
(-2.15839653e-12 0 0)
(-2.44147287e-12 0 0)
(-3.00504461e-12 0 0)
(-2.51733265e-12 0 0)
(-2.32285659e-12 0 0)
(-1.66440774e-12 0 0)
(-2.3100595e-12 0 0)
(-1.77416161e-12 0 0)
(-7.17752292e-13 0 0)
(-1.25112031e-12 0 0)
(-1.33377347e-12 0 0)
(-1.4220759e-12 0 0)
(-1.65937075e-12 0 0)
(-1.74776789e-12 0 0)
(-2.05675463e-12 0 0)
(-1.34528315e-12 0 0)
(-1.57583139e-12 0 0)
(-1.36301236e-12 0 0)
(-1.29047266e-12 0 0)
(-1.51816079e-12 0 0)
(-1.62052676e-12 0 0)
(-7.39605046e-13 0 0)
(-1.67684428e-12 0 0)
(-1.09839187e-12 0 0)
(-1.11221407e-12 0 0)
(-2.39751224e-13 0 0)
(-5.0333397e-13 0 0)
(-1.55979965e-13 0 0)
(-1.25774984e-12 0 0)
(-7.10521575e-13 0 0)
(-6.71024996e-13 0 0)
(-1.20740114e-12 0 0)
(-4.02856914e-13 0 0)
(-1.92893855e-12 0 0)
(-7.83824255e-14 0 0)
(-2.98578403e-14 0 0)
(2.29664115e-13 0 0)
(-8.34978764e-13 0 0)
(4.00722448e-14 0 0)
(2.17025884e-13 0 0)
(4.01342322e-13 0 0)
(4.60607429e-14 0 0)
(2.47004221e-13 0 0)
(9.34262557e-13 0 0)
(1.63370768e-12 0 0)
(2.10113203e-14 0 0)
(1.45413652e-12 0 0)
(1.01189902e-12 0 0)
(7.64170651e-13 0 0)
(1.63154462e-12 0 0)
(1.22680343e-12 0 0)
(1.90824636e-12 0 0)
(1.65100701e-12 0 0)
(1.22269148e-12 0 0)
(9.85222615e-13 0 0)
(1.69981258e-12 0 0)
(1.09612527e-12 0 0)
(1.72096269e-12 0 0)
(1.07922873e-12 0 0)
(2.04928762e-12 0 0)
(2.01485523e-12 0 0)
(2.34346e-12 0 0)
(1.48128685e-12 0 0)
(2.26005072e-12 0 0)
(2.47992182e-12 0 0)
(2.32226243e-12 0 0)
(1.84915967e-12 0 0)
(2.65498246e-12 0 0)
(2.99694428e-12 0 0)
(2.85570702e-12 0 0)
(3.23485062e-12 0 0)
(2.1271738e-12 0 0)
(2.88890443e-12 0 0)
(1.98516793e-12 0 0)
(1.67733639e-12 0 0)
(2.39318294e-12 0 0)
(2.1678134e-12 0 0)
(1.98586956e-12 0 0)
(2.50645872e-12 0 0)
(2.26477527e-12 0 0)
(1.18191423e-12 0 0)
(2.31131395e-12 0 0)
(1.87158982e-12 0 0)
(1.54092191e-12 0 0)
(1.55460874e-12 0 0)
(1.3338094e-12 0 0)
(2.01907241e-12 0 0)
(1.91122883e-12 0 0)
(2.37955293e-12 0 0)
(2.31181535e-12 0 0)
(1.96613533e-12 0 0)
(2.22621357e-12 0 0)
(2.34748685e-12 0 0)
(2.218983e-12 0 0)
(2.69042465e-12 0 0)
(2.96762308e-12 0 0)
(2.18656268e-12 0 0)
(2.89073724e-12 0 0)
(2.74946153e-12 0 0)
(1.60777255e-12 0 0)
(2.0314541e-12 0 0)
(1.55260709e-12 0 0)
(2.32724962e-12 0 0)
(2.01210826e-12 0 0)
(2.69866409e-12 0 0)
(1.26489741e-12 0 0)
(2.88014818e-12 0 0)
(2.60813006e-12 0 0)
(2.77708298e-12 0 0)
(2.2309029e-12 0 0)
(3.35839646e-12 0 0)
(2.12705874e-12 0 0)
(1.39557375e-12 0 0)
(3.41133877e-12 0 0)
(3.70774892e-12 0 0)
(2.98411295e-12 0 0)
(3.48959368e-12 0 0)
(4.53764375e-12 0 0)
(3.26969011e-12 0 0)
(4.44206749e-12 0 0)
(3.86988886e-12 0 0)
(4.26545274e-12 0 0)
(3.71174935e-12 0 0)
(4.82551772e-12 0 0)
(4.37691379e-12 0 0)
(5.06459213e-12 0 0)
(4.10117958e-12 0 0)
(4.7613852e-12 0 0)
(4.42206924e-12 0 0)
(5.3957073e-12 0 0)
(4.19467373e-12 0 0)
(3.17704504e-12 0 0)
(5.17488912e-12 0 0)
(3.92911333e-12 0 0)
(5.26498398e-12 0 0)
(4.10398899e-12 0 0)
(4.76507444e-12 0 0)
(4.86287574e-12 0 0)
(5.56557777e-12 0 0)
(5.27558924e-12 0 0)
(5.81892068e-12 0 0)
(5.8358392e-12 0 0)
(5.79667763e-12 0 0)
(6.51914737e-12 0 0)
(6.36586512e-12 0 0)
(5.9533026e-12 0 0)
(5.72904272e-12 0 0)
(7.00645542e-12 0 0)
(6.01517439e-12 0 0)
(6.20109667e-12 0 0)
(5.94190158e-12 0 0)
(6.7534181e-12 0 0)
(6.59479221e-12 0 0)
(7.56868256e-12 0 0)
(6.27577913e-12 0 0)
(7.84190907e-12 0 0)
(7.79166082e-12 0 0)
(8.06742849e-12 0 0)
(7.65492949e-12 0 0)
(8.26452572e-12 0 0)
(7.58850436e-12 0 0)
(7.40483642e-12 0 0)
(7.62887018e-12 0 0)
(8.20469972e-12 0 0)
(8.45558416e-12 0 0)
(8.71362021e-12 0 0)
(8.61145288e-12 0 0)
(8.47819779e-12 0 0)
(7.91065403e-12 0 0)
(8.82706924e-12 0 0)
(8.98796414e-12 0 0)
(9.34228596e-12 0 0)
(8.20337181e-12 0 0)
(8.74375074e-12 0 0)
(9.20111217e-12 0 0)
(9.13259787e-12 0 0)
(8.97053911e-12 0 0)
(8.85986033e-12 0 0)
(8.61196317e-12 0 0)
(8.13768802e-12 0 0)
(8.3775739e-12 0 0)
(9.81980623e-12 0 0)
(8.74773201e-12 0 0)
(9.26927212e-12 0 0)
(8.21829216e-12 0 0)
(9.42606927e-12 0 0)
(8.68905199e-12 0 0)
(8.17072457e-12 0 0)
(9.47824701e-12 0 0)
(9.00856526e-12 0 0)
(9.29603823e-12 0 0)
(8.97508412e-12 0 0)
(9.93821033e-12 0 0)
(9.66063207e-12 0 0)
(8.77358122e-12 0 0)
(9.44653132e-12 0 0)
(9.27821787e-12 0 0)
(9.63392654e-12 0 0)
(8.75686903e-12 0 0)
(9.63352254e-12 0 0)
(9.66755146e-12 0 0)
(9.52519579e-12 0 0)
(9.44125683e-12 0 0)
(9.52023683e-12 0 0)
(9.66409088e-12 0 0)
(9.97966767e-12 0 0)
(1.01314061e-11 0 0)
(9.99829774e-12 0 0)
(1.01470267e-11 0 0)
(1.14618584e-11 0 0)
(1.0777331e-11 0 0)
(9.38403848e-12 0 0)
(9.31795422e-12 0 0)
(9.60013634e-12 0 0)
(8.9913391e-12 0 0)
(9.11198333e-12 0 0)
(8.75621288e-12 0 0)
(8.91374476e-12 0 0)
(9.17412079e-12 0 0)
(8.99286116e-12 0 0)
(9.89731442e-12 0 0)
(9.26507203e-12 0 0)
(9.01934903e-12 0 0)
(1.03703701e-11 0 0)
(8.71164787e-12 0 0)
(8.59834518e-12 0 0)
(9.62935973e-12 0 0)
(9.36131278e-12 0 0)
(9.72557988e-12 0 0)
(9.36898256e-12 0 0)
(9.80618947e-12 0 0)
(9.60877117e-12 0 0)
(8.8868619e-12 0 0)
(9.74187743e-12 0 0)
(9.79023618e-12 0 0)
(9.53555969e-12 0 0)
(1.0287522e-11 0 0)
(9.40319549e-12 0 0)
(9.68993151e-12 0 0)
(9.15220198e-12 0 0)
(9.39108365e-12 0 0)
(9.5850074e-12 0 0)
(9.37953381e-12 0 0)
(1.05342067e-11 0 0)
(1.00791663e-11 0 0)
(1.03172293e-11 0 0)
(9.48145053e-12 0 0)
(9.11918785e-12 0 0)
(8.91670404e-12 0 0)
(1.04151397e-11 0 0)
(9.11880782e-12 0 0)
(1.04199752e-11 0 0)
(9.2017819e-12 0 0)
(9.2811813e-12 0 0)
(9.56364483e-12 0 0)
(9.52905006e-12 0 0)
(9.18360234e-12 0 0)
(9.38618113e-12 0 0)
(8.71998398e-12 0 0)
(9.91206676e-12 0 0)
(9.83437847e-12 0 0)
(9.5028914e-12 0 0)
(9.44345439e-12 0 0)
(1.05443383e-11 0 0)
(8.91523667e-12 0 0)
(9.45300996e-12 0 0)
(8.73339036e-12 0 0)
(9.83526398e-12 0 0)
(9.19506567e-12 0 0)
(9.4299081e-12 0 0)
(9.44801702e-12 0 0)
(8.8917814e-12 0 0)
(9.17108167e-12 0 0)
(8.71141391e-12 0 0)
(8.54674519e-12 0 0)
(9.16879433e-12 0 0)
(9.11139837e-12 0 0)
(9.0337373e-12 0 0)
(8.90562262e-12 0 0)
(8.12542452e-12 0 0)
(9.72258134e-12 0 0)
(9.5100153e-12 0 0)
(8.18324445e-12 0 0)
(7.66205201e-12 0 0)
(8.49568407e-12 0 0)
(8.05205001e-12 0 0)
(8.85612652e-12 0 0)
(9.17709533e-12 0 0)
(8.41766676e-12 0 0)
(8.50420956e-12 0 0)
(8.35003018e-12 0 0)
(8.6728727e-12 0 0)
(8.2251447e-12 0 0)
(8.37181188e-12 0 0)
(8.58097578e-12 0 0)
(8.78580773e-12 0 0)
(8.5578944e-12 0 0)
(8.4523677e-12 0 0)
(9.4950694e-12 0 0)
(9.24713091e-12 0 0)
(9.43391793e-12 0 0)
(8.63027054e-12 0 0)
(9.43212462e-12 0 0)
(9.62092983e-12 0 0)
(9.15615634e-12 0 0)
(9.5795971e-12 0 0)
(9.14674913e-12 0 0)
(8.84465102e-12 0 0)
(8.69765964e-12 0 0)
(8.04320622e-12 0 0)
(1.11745782e-11 0 0)
(9.82953618e-12 0 0)
(1.01946238e-11 0 0)
(9.52343107e-12 0 0)
(1.00074796e-11 0 0)
(1.07046753e-11 0 0)
(1.13867042e-11 0 0)
(1.01057491e-11 0 0)
(9.90185391e-12 0 0)
(1.11800342e-11 0 0)
(1.0269143e-11 0 0)
(1.0451874e-11 0 0)
(9.62591484e-12 0 0)
(9.14622667e-12 0 0)
(9.87623003e-12 0 0)
(1.01334736e-11 0 0)
(9.74163629e-12 0 0)
(1.05387126e-11 0 0)
(8.31548534e-12 0 0)
(9.11159047e-12 0 0)
(9.71823187e-12 0 0)
(9.52112836e-12 0 0)
(9.20427351e-12 0 0)
(9.80936214e-12 0 0)
(9.85374121e-12 0 0)
(8.39165594e-12 0 0)
(9.44250821e-12 0 0)
(9.07684773e-12 0 0)
(8.6542844e-12 0 0)
(8.50680787e-12 0 0)
(9.00899946e-12 0 0)
(9.01698801e-12 0 0)
(8.64738534e-12 0 0)
(8.76902106e-12 0 0)
(8.7785139e-12 0 0)
(7.97992058e-12 0 0)
(8.63897103e-12 0 0)
(9.29345367e-12 0 0)
(9.08431286e-12 0 0)
(8.60359421e-12 0 0)
(8.91312441e-12 0 0)
(8.84873228e-12 0 0)
(8.56367971e-12 0 0)
(8.41260764e-12 0 0)
(9.32665854e-12 0 0)
(8.9278557e-12 0 0)
(8.13474734e-12 0 0)
(9.74574329e-12 0 0)
(8.89850637e-12 0 0)
(8.0192216e-12 0 0)
(8.83129558e-12 0 0)
(8.86951578e-12 0 0)
(8.54286474e-12 0 0)
(8.46729893e-12 0 0)
(7.81603485e-12 0 0)
(8.8566016e-12 0 0)
(8.0224293e-12 0 0)
(7.78261028e-12 0 0)
(9.5793681e-12 0 0)
(9.83510627e-12 0 0)
(8.40855419e-12 0 0)
(8.67946096e-12 0 0)
(8.49541205e-12 0 0)
(9.58531647e-12 0 0)
(8.23834109e-12 0 0)
(8.18435461e-12 0 0)
(8.71227741e-12 0 0)
(8.62413438e-12 0 0)
(8.51224875e-12 0 0)
(9.05829559e-12 0 0)
(7.60954632e-12 0 0)
(8.44589723e-12 0 0)
(8.14553084e-12 0 0)
(8.4877964e-12 0 0)
(7.84630388e-12 0 0)
(8.65795718e-12 0 0)
(8.41355269e-12 0 0)
(8.51458245e-12 0 0)
(8.58776859e-12 0 0)
(8.49274734e-12 0 0)
(7.91843067e-12 0 0)
(6.45886607e-12 0 0)
(7.25162184e-12 0 0)
(8.06499689e-12 0 0)
(7.38900129e-12 0 0)
(8.28998195e-12 0 0)
(7.83057213e-12 0 0)
(8.13950937e-12 0 0)
(7.82061391e-12 0 0)
(7.47336047e-12 0 0)
(7.69780642e-12 0 0)
(8.30255381e-12 0 0)
(9.01840709e-12 0 0)
(7.48858912e-12 0 0)
(8.06942705e-12 0 0)
(8.61854677e-12 0 0)
(8.1914432e-12 0 0)
(8.04121864e-12 0 0)
(8.56504248e-12 0 0)
(9.06977211e-12 0 0)
(8.39281067e-12 0 0)
(8.59751603e-12 0 0)
(8.37386301e-12 0 0)
(7.93776864e-12 0 0)
(9.59322425e-12 0 0)
(9.36330061e-12 0 0)
(8.35998573e-12 0 0)
(9.26731733e-12 0 0)
(8.16339188e-12 0 0)
(9.1265798e-12 0 0)
(8.44777486e-12 0 0)
(8.96199904e-12 0 0)
(8.4279204e-12 0 0)
(8.51831844e-12 0 0)
(8.78251069e-12 0 0)
(8.99669678e-12 0 0)
(8.25390373e-12 0 0)
(7.94083318e-12 0 0)
(8.27848546e-12 0 0)
(7.66327222e-12 0 0)
(6.83343042e-12 0 0)
(7.40422973e-12 0 0)
(6.83330737e-12 0 0)
(7.66016412e-12 0 0)
(6.40454763e-12 0 0)
(6.69821687e-12 0 0)
(7.44449448e-12 0 0)
(6.76539161e-12 0 0)
(8.06653923e-12 0 0)
(7.38710975e-12 0 0)
(8.454643e-12 0 0)
(8.14862733e-12 0 0)
(7.33965464e-12 0 0)
(8.16731983e-12 0 0)
(8.36766559e-12 0 0)
(6.90102909e-12 0 0)
(7.43353273e-12 0 0)
(6.74909024e-12 0 0)
(7.823411e-12 0 0)
(6.57089305e-12 0 0)
(6.8691634e-12 0 0)
(7.04171327e-12 0 0)
(7.2066775e-12 0 0)
(7.8821366e-12 0 0)
(6.57989474e-12 0 0)
(6.70757156e-12 0 0)
(7.67328479e-12 0 0)
(7.75724821e-12 0 0)
(7.16408099e-12 0 0)
(7.28935948e-12 0 0)
(7.15170708e-12 0 0)
(7.14291761e-12 0 0)
(7.71217529e-12 0 0)
(6.76433391e-12 0 0)
(7.23762505e-12 0 0)
(7.39501165e-12 0 0)
(6.25155808e-12 0 0)
(7.02243829e-12 0 0)
(5.85457283e-12 0 0)
(7.41460771e-12 0 0)
(6.85021546e-12 0 0)
(6.61241157e-12 0 0)
(5.81574366e-12 0 0)
(6.79340211e-12 0 0)
(6.33749871e-12 0 0)
(6.08927011e-12 0 0)
(5.11156201e-12 0 0)
(6.92809866e-12 0 0)
(4.94801541e-12 0 0)
(5.52073924e-12 0 0)
(5.97964964e-12 0 0)
(5.27470597e-12 0 0)
(5.44108271e-12 0 0)
(4.81589376e-12 0 0)
(4.88218555e-12 0 0)
(4.57899042e-12 0 0)
(4.9907995e-12 0 0)
(3.67399388e-12 0 0)
(3.97657158e-12 0 0)
(4.37717708e-12 0 0)
(4.60390348e-12 0 0)
(3.39726109e-12 0 0)
(3.95540767e-12 0 0)
(3.00922942e-12 0 0)
(3.62568996e-12 0 0)
(3.40490569e-12 0 0)
(3.52909212e-12 0 0)
(3.46582299e-12 0 0)
(3.50752471e-12 0 0)
(3.83641733e-12 0 0)
(4.0898578e-12 0 0)
(3.79068157e-12 0 0)
(3.78929233e-12 0 0)
(4.29055022e-12 0 0)
(3.27766114e-12 0 0)
(3.74459641e-12 0 0)
(3.94516743e-12 0 0)
(2.85890394e-12 0 0)
(2.34814499e-12 0 0)
(3.36071031e-12 0 0)
(3.58157325e-12 0 0)
(2.99765279e-12 0 0)
(3.62628853e-12 0 0)
(3.05421735e-12 0 0)
(2.6526017e-12 0 0)
(3.32141735e-12 0 0)
(3.72048462e-12 0 0)
(2.96715553e-12 0 0)
(3.1531517e-12 0 0)
(3.22185055e-12 0 0)
(3.00167154e-12 0 0)
(3.76914093e-12 0 0)
(2.71449764e-12 0 0)
(4.03201697e-12 0 0)
(3.77127869e-12 0 0)
(3.7745648e-12 0 0)
(4.0772298e-12 0 0)
(4.0697399e-12 0 0)
(3.8768596e-12 0 0)
(3.81072858e-12 0 0)
(4.91704015e-12 0 0)
(4.25865091e-12 0 0)
(3.5042654e-12 0 0)
(2.54687219e-12 0 0)
(3.99863587e-12 0 0)
(2.61604848e-12 0 0)
(2.95425223e-12 0 0)
(2.73219526e-12 0 0)
(3.39142962e-12 0 0)
(3.43245206e-12 0 0)
(2.24595257e-12 0 0)
(3.14095158e-12 0 0)
(2.1192284e-12 0 0)
(1.98650323e-12 0 0)
(1.55044528e-12 0 0)
(7.17657013e-13 0 0)
(5.21550226e-13 0 0)
(1.43545961e-12 0 0)
(4.44579767e-13 0 0)
(6.87971424e-13 0 0)
(5.46190785e-13 0 0)
(6.68783265e-13 0 0)
(3.00283984e-13 0 0)
(3.5958328e-13 0 0)
(-2.54070399e-13 0 0)
(-4.06930366e-13 0 0)
(-3.77371509e-13 0 0)
(-5.39069208e-13 0 0)
(-1.60104037e-12 0 0)
(-5.38241918e-13 0 0)
(-1.20264044e-12 0 0)
(-1.05972869e-12 0 0)
(-1.37580747e-12 0 0)
(-1.45700222e-12 0 0)
(-1.89340123e-12 0 0)
(-1.98633001e-12 0 0)
(-2.76045164e-12 0 0)
(-2.80205589e-12 0 0)
(-2.69137789e-12 0 0)
(-2.17566253e-12 0 0)
(-2.3914442e-12 0 0)
(-2.34496561e-12 0 0)
(-2.50555821e-12 0 0)
(-2.97393649e-12 0 0)
(-1.86987262e-12 0 0)
(-2.26869106e-12 0 0)
(-3.25544089e-12 0 0)
(-2.28032853e-12 0 0)
(-3.30382398e-12 0 0)
(-2.25973919e-12 0 0)
(-3.375205e-12 0 0)
(-3.93424109e-12 0 0)
(-2.999334e-12 0 0)
(-3.51946031e-12 0 0)
(-4.28396445e-12 0 0)
(-4.12321925e-12 0 0)
(-3.55021218e-12 0 0)
(-3.71064782e-12 0 0)
(-3.75562927e-12 0 0)
(-2.62521945e-12 0 0)
(-4.10823749e-12 0 0)
(-2.76094169e-12 0 0)
(-3.93008963e-12 0 0)
(-2.23639629e-12 0 0)
(-2.78533629e-12 0 0)
(-3.00544544e-12 0 0)
(-2.390314e-12 0 0)
(-2.84099377e-12 0 0)
(-3.03182619e-12 0 0)
(-2.83366427e-12 0 0)
(-3.45811412e-12 0 0)
(-2.53436187e-12 0 0)
(-3.40447414e-12 0 0)
(-2.9073587e-12 0 0)
(-2.91878363e-12 0 0)
(-2.91163646e-12 0 0)
(-3.25678773e-12 0 0)
(-2.63512181e-12 0 0)
(-2.73587735e-12 0 0)
(-2.73583806e-12 0 0)
(-3.01737932e-12 0 0)
(-2.88109803e-12 0 0)
(-3.28832038e-12 0 0)
(-3.32625908e-12 0 0)
(-2.75498506e-12 0 0)
(-3.44962268e-12 0 0)
(-3.51942283e-12 0 0)
(-4.11464855e-12 0 0)
(-3.31164388e-12 0 0)
(-4.19311632e-12 0 0)
(-3.23251356e-12 0 0)
(-3.02480508e-12 0 0)
(-4.55033519e-12 0 0)
(-3.85189674e-12 0 0)
(-3.60339218e-12 0 0)
(-4.34733032e-12 0 0)
(-4.33973846e-12 0 0)
(-3.80527958e-12 0 0)
(-4.28810851e-12 0 0)
(-4.02915312e-12 0 0)
(-4.92746388e-12 0 0)
(-5.15484187e-12 0 0)
(-5.16641283e-12 0 0)
(-4.98384388e-12 0 0)
(-5.77621664e-12 0 0)
(-6.32375655e-12 0 0)
(-6.609497e-12 0 0)
(-6.38549551e-12 0 0)
(-6.03054188e-12 0 0)
(-6.44028224e-12 0 0)
(-6.64232395e-12 0 0)
(-5.98846816e-12 0 0)
(-6.55517099e-12 0 0)
(-6.92176512e-12 0 0)
(-6.57810035e-12 0 0)
(-7.60686359e-12 0 0)
(-6.87529006e-12 0 0)
(-5.64976466e-12 0 0)
(-7.40506588e-12 0 0)
(-8.72211962e-12 0 0)
(-8.48063938e-12 0 0)
(-7.15350977e-12 0 0)
(-9.07638369e-12 0 0)
(-8.08552127e-12 0 0)
(-8.86608497e-12 0 0)
(-9.46993747e-12 0 0)
(-1.04729705e-11 0 0)
(-9.08673945e-12 0 0)
(-9.85164978e-12 0 0)
(-9.51120668e-12 0 0)
(-1.12254429e-11 0 0)
(-1.02379454e-11 0 0)
(-1.00240372e-11 0 0)
(-9.58045832e-12 0 0)
(-1.1266354e-11 0 0)
(-8.36979606e-12 0 0)
(-1.01946102e-11 0 0)
(-9.75455025e-12 0 0)
(-9.16820787e-12 0 0)
(-9.34687295e-12 0 0)
(-9.27052561e-12 0 0)
(-1.05821242e-11 0 0)
(-9.00925668e-12 0 0)
(-9.18654914e-12 0 0)
(-8.96043197e-12 0 0)
(-1.00654086e-11 0 0)
(-9.36452108e-12 0 0)
(-8.86946822e-12 0 0)
(-9.40278606e-12 0 0)
(-9.71052396e-12 0 0)
(-8.4736353e-12 0 0)
(-9.80042048e-12 0 0)
(-8.61225485e-12 0 0)
(-9.26137998e-12 0 0)
(-8.20477043e-12 0 0)
(-8.85508309e-12 0 0)
(-8.72682259e-12 0 0)
(-8.81413213e-12 0 0)
(-8.37858555e-12 0 0)
(-9.22801427e-12 0 0)
(-8.84342864e-12 0 0)
(-9.30567489e-12 0 0)
(-8.52815005e-12 0 0)
(-8.86922351e-12 0 0)
(-9.3920691e-12 0 0)
(-8.39219367e-12 0 0)
(-9.66191664e-12 0 0)
(-7.88314602e-12 0 0)
(-8.5783804e-12 0 0)
(-8.18383075e-12 0 0)
(-8.29655407e-12 0 0)
(-9.06503333e-12 0 0)
(-8.65832064e-12 0 0)
(-7.65674936e-12 0 0)
(-7.75593089e-12 0 0)
(-8.2792844e-12 0 0)
(-7.99082652e-12 0 0)
(-8.27958602e-12 0 0)
(-6.89268555e-12 0 0)
(-7.81430574e-12 0 0)
(-9.01501517e-12 0 0)
(-6.89578273e-12 0 0)
(-8.03115574e-12 0 0)
(-7.87531167e-12 0 0)
(-7.75857126e-12 0 0)
(-7.61530248e-12 0 0)
(-7.60859245e-12 0 0)
(-7.7292227e-12 0 0)
(-7.87872055e-12 0 0)
(-6.92494415e-12 0 0)
(-7.22122168e-12 0 0)
(-6.95515967e-12 0 0)
(-7.08167672e-12 0 0)
(-7.21186026e-12 0 0)
(-6.9527717e-12 0 0)
(-7.5647232e-12 0 0)
(-7.60167525e-12 0 0)
(-7.54410464e-12 0 0)
(-7.20612169e-12 0 0)
(-8.13112483e-12 0 0)
(-7.56380287e-12 0 0)
(-7.80919386e-12 0 0)
(-7.77468579e-12 0 0)
(-7.88888759e-12 0 0)
(-7.68533687e-12 0 0)
(-8.28434056e-12 0 0)
(-8.26146482e-12 0 0)
(-7.92157996e-12 0 0)
(-7.71602805e-12 0 0)
(-7.99998806e-12 0 0)
(-7.85738701e-12 0 0)
(-7.16768352e-12 0 0)
(-7.22073037e-12 0 0)
(-7.71349302e-12 0 0)
(-7.95478841e-12 0 0)
(-7.46892191e-12 0 0)
(-7.52210005e-12 0 0)
(-7.51289176e-12 0 0)
(-7.67891659e-12 0 0)
(-7.64669464e-12 0 0)
(-7.59735599e-12 0 0)
(-7.40049232e-12 0 0)
(-7.2577058e-12 0 0)
(-7.55350661e-12 0 0)
(-7.91323065e-12 0 0)
(-7.20554603e-12 0 0)
(-7.32250055e-12 0 0)
(-7.94567553e-12 0 0)
(-7.10929646e-12 0 0)
(-7.360152e-12 0 0)
(-7.58084253e-12 0 0)
(-7.36001134e-12 0 0)
(-7.78492308e-12 0 0)
(-7.80870584e-12 0 0)
(-8.41406804e-12 0 0)
(-6.86015966e-12 0 0)
(-8.11286585e-12 0 0)
(-7.66292669e-12 0 0)
(-7.64494915e-12 0 0)
(-7.65597487e-12 0 0)
(-7.68528032e-12 0 0)
(-8.92358716e-12 0 0)
(-8.11899689e-12 0 0)
(-8.5451679e-12 0 0)
(-8.74912177e-12 0 0)
(-9.04110504e-12 0 0)
(-9.04576362e-12 0 0)
(-8.85907299e-12 0 0)
(-8.80807403e-12 0 0)
(-9.69259784e-12 0 0)
(-9.85748012e-12 0 0)
(-9.30207924e-12 0 0)
(-9.12392426e-12 0 0)
(-1.01762421e-11 0 0)
(-9.86263253e-12 0 0)
(-9.56993393e-12 0 0)
(-1.07687738e-11 0 0)
(-1.05276899e-11 0 0)
(-1.00206676e-11 0 0)
(-1.06573632e-11 0 0)
(-1.09180384e-11 0 0)
(-1.01671965e-11 0 0)
(-1.0296605e-11 0 0)
(-9.66852174e-12 0 0)
(-1.07043922e-11 0 0)
(-1.08379379e-11 0 0)
(-1.23442455e-11 0 0)
(-1.06413096e-11 0 0)
(-1.17804208e-11 0 0)
(-1.04809951e-11 0 0)
(-1.1982795e-11 0 0)
(-1.16862826e-11 0 0)
(-1.07350805e-11 0 0)
(-1.00799403e-11 0 0)
(-1.15276903e-11 0 0)
(-1.30290487e-11 0 0)
(-1.1188636e-11 0 0)