/*--------------------------------*- C++ -*----------------------------------*\
| =========                 |                                                 |
| \\      /  F ield         | OpenFOAM: The Open Source CFD Toolbox           |
|  \\    /   O peration     | Version:  2206                                  |
|   \\  /    A nd           | Website:  www.openfoam.com                      |
|    \\/     M anipulation  |                                                 |
\*---------------------------------------------------------------------------*/
FoamFile
{
    version     2.0;
    format      ascii;
    arch        "LSB;label=32;scalar=64";
    class       volScalarField;
    location    "5.4e-06";
    object      p;
}
// * * * * * * * * * * * * * * * * * * * * * * * * * * * * * * * * * * * * * //

dimensions      [1 -1 -2 0 0 0 0];

internalField   nonuniform List<scalar> 
3183
(
101325
101325
101325
101325
101325
101325
101325
101325
101325
101325
101325
101325
101325
101325
101325
101325
101325
101325
101325
101325
101325
101325
101325
101325
101325
101325
101325
101325
101325
101325
101325
101325
101325
101325
101325
101325
101325
101325
101325
101325
101325
101325
101325
101325
101325
101325
101325
101325
101325
101325
101325
101325
101325
101325
101325
101325
101325
101325
101325
101325
101325
101325
101325
101325
101325
101325
101325
101325
101325
101325
101325
101325
101325
101325
101325
101325
101325
101325
101325
101325
101325
101325
101325
101325
101325
101325
101325
101325
101325
101325
101325
101325
101325
101325
101325
101325
101325
101325
101325
101325
101325
101325
101325
101325
101325
101325
101325
101325
101325
101325
101325
101325
101325
101325
101325
101325
101325
101325
101325
101325
101325
101325
101325
101325
101325
101325
101325
101325
101325
101325
101325
101325
101325
101325
101325
101325
101325
101325
101325
101325
101325
101325
101325
101325
101325
101325
101325
101325
101325
101325
101325
101325
101325
101325
101325
101325
101325
101325
101325
101325
101325
101325
101325
101325
101325
101325
101325
101325
101325
101325
101325
101325
101325
101325
101325
101325
101325
101325
101325
101325
101325
101325
101325
101325
101325
101325
101325
101325
101325
101325
101325
101325
101325
101325
101325
101325
101325
101325
101325
101325
101325
101325
101325
101325
101325
101325
101325
101325
101325
101325
101325
101325
101325
101325
101325
101325
101325
101325
101325
101325
101325
101325
101325
101325
101325
101325
101325
101325
101325
101325
101325
101325
101325
101325
101325
101325
101325
101325
101325
101325
101325
101325
101325
101325
101325
101325
101325
101325
101325
101325
101325
101325
101325
101325
101325
101325
101325
101325
101325
101325
101325
101325
101325
101325
101325
101325
101325
101325
101325
101325
101325
101325
101325
101325
101325
101325
101325
101325
101325
101325
101325
101325
101325
101325
101325
101325
101325
101325
101325
101325
101325
101325
101325
101325
101325
101325
101325
101325
101325
101325
101325
101325
101325
101325
101325
101325
101325
101325
101325
101325
101325
101325
101325
101325
101325
101325
101325
101325
101325
101325
101325
101325
101325
101325
101325
101325
101325
101325
101325
101325
101325
101325
101325
101325
101325
101325
101325
101325
101325
101325
101325
101325
101325
101325
101325
101325
101325
101325
101325
101325
101325
101325
101325
101325
101325
101325
101325
101325
101325
101325
101325
101325
101325
101325
101325
101325
101325
101325
101325
101325
101325
101325
101325
101325
101325
101325
101325
101325
101325
101325
101325
101325
101325
101325
101325
101325
101325
101325
101325
101325
101325
101325
101325
101325
101325
101325
101325
101325
101325
101325
101325
101325
101325
101325
101325
101325
101325
101325
101325
101325
101325
101325
101325
101325
101325
101325
101325
101325
101325
101325
101325
101325
101325
101325
101325
101325
101325
101325
101325
101325
101325
101325
101325
101325
101325
101325
101325
101325
101325
101325
101325
101325
101325
101325
101325
101325
101325
101325
101325
101325
101325
101325
101325
101325
101325
101325
101325
101325
101325
101325
101325
101325
101325
101325
101325
101325
101325
101325
101325
101325
101325
101325
101325
101325
101325
101325
101325
101325
101325
101325
101325
101325
101325
101325
101325
101325
101325
101325
101325
101325
101325
101325
101325
101325
101325
101325
101325
101325
101325
101325
101325
101325
101325
101325
101325
101325
101325
101325
101325
101325
101325
101325
101325
101325
101325
101325
101325
101325
101325
101325
101325
101325
101325
101325
101325
101325
101325
101325
101325
101325
101325
101325
101325
101325
101325
101325
101325
101325
101325
101325
101325
101325
101325
101325
101325
101325
101325
101325
101325
101325
101325
101325
101325
101325
101325
101325
101325
101325
101325
101325
101325
101325
101325
101325
101325
101325
101325
101325
101325
101325
101325
101325
101325
101325
101325
101325
101325
101325
101325
101325
101325
101325
101325
101325
101325
101325
101325
101325
101325
101325
101325
101325
101325
101325
101325
101325
101325
101325
101325
101325
101325
101325
101325
101325
101325
101325
101325
101325
101325
101325
101325
101325
101325
101325
101325
101325
101325
101325
101325
101325
101325
101325
101325
101325
101325
101325
101325
101325
101325
101325
101325
101325
101325
101325
101325
101325
101325
101325
101325
101325
101325
101325
101325
101325
101325
101325
101325
101325
101325
101325
101325
101325
101325
101325
101325
101325
101325
101325
101325
101325
101325
101325
101325
101325
101325
101325
101325
101325
101325
101325
101325
101325
101325
101325
101325
101325
101325
101325
101325
101325
101325
101325
101325
101325
101325
101325
101325
101325
101325
101325
101325
101325
101325
101325
101325
101325
101325
101325
101325
101325
101325
101325
101325
101325
101325
101325
101325
101325
101325
101325
101325
101325
101325
101325
101325
101325
101325
101325
101325
101325
101325
101325
101325
101325
101325
101325
101325
101325
101325
101325
101325
101325
101325
101325
101325
101325
101325
101325
101325
101325
101325
101325
101325
101325
101325
101325
101325
101325
101325
101325
101325
101325
101325
101325
101325
101325
101325
101325
101325
101325
101325
101325
101325
101325
101325
101325
101325
101325
101325
101325
101325
101325
101325
101325
101325
101325
101325
101325
101325
101325
101325
101325
101325
101325
101325
101325
101325
101325
101325
101325
101325
101325
101325
101325
101325
101325
101325
101325
101325
101325
101325
101325
101325
101325
101325
101325
101325
101325
101325
101325
101325
101325
101325
101325
101325
101325
101325
101325
101325
101325
101325
101325
101325
101325
101325
101325
101325
101325
101325
101325
101325
101325
101325
101325
101325
101325
101325
101325
101325
101325
101325
101325
101325
101325
101325
101325
101325
101325
101325
101325
101325
101325
101325
101325
101325
101325
101325
101325
101325
101325
101325
101325
101325
101325
101325
101325
101325
101325
101325
101325
101325
101325
101325
101325
101325
101325
101325
101325
101325
101325
101325
101325
101325
101325
101325
101325
101325
101325
101325
101325
101325
101325
101325
101325
101325
101325
101325
101325
101325
101325
101325
101325
101325
101325
101325
101325
101325
101325
101325
101325
101325
101325
101325
101325
101325
101325
101325
101325
101325
101325
101325
101325
101325
101325
101325
101325
101325
101325
101325
101325
101325
101325
101325
101325
101325
101325
101325
101325
101325
101325
101325
101325
101325
101325
101325
101325
101325
101325
101325
101325
101325
101325
101325
101325
101325
101325
101325
101325
101325
101325
101325
101325
101325
101325
101325
101325
101325
101325
101325
101325
101325
101325
101325
101325
101325
101325
101325
101325
101325
101325
101325
101325
101325
101325
101325
101325
101325
101325
101325
101325
101325
101325
101325
101325
101325
101325
101325
101325
101325
101325
101325
101325
101325
101325
101325
101325
101325
101325
101325
101325
101325
101325
101325
101325
101325
101325
101325
101325
101325
101325
101325
101325
101325
101325
101325
101325
101325
101325
101325
101325
101325
101325
101325
101325
101325
101325
101325
101325
101325
101325
101325
101325
101325
101325
101325
101325
101325
101325
101325
101325
101325
101325
101325
101325
101325
101325
101325
101325
101325
101325
101325
101325
101325
101325
101325
101325
101325
101325
101325
101325
101325
101325
101325
101325
101325
101325
101325
101325
101325
101325
101325
101325
101325
101325
101325
101325
101325
101325
101325
101325
101325
101325
101325
101325
101325
101325
101325
101325
101325
101325
101325
101325
101325
101325
101325
101325
101325
101325
101325
101325
101325
101325
101325
101325
101325
101325
101325
101325
101325
101325
101325
101325
101325
101325
101325
101325
101325
101325
101325
101325
101325
101325
101325
101325
101325
101325
101325
101325
101325
101325
101325
101325
101325
101325
101325
101325
101325
101325
101325
101325
101325
101325
101325
101325
101325
101325
101325
101325
101325
101325
101325
101325
101325
101325
101325
101325
101325
101325
101325
101325
101325
101325
101325
101325
101325
101325
101325
101325
101325
101325
101325
101325
101325
101325
101325
101325
101325
101325
101325
101325
101325
101325
101325
101325
101325
101325
101325
101325
101325
101325
101325
101325
101325
101325
101325
101325
101325
101325
101325
101325
101325
101325
101325
101325
101325
101325
101325
101325
101325
101325
101325
101325
101325
101325
101325
101325
101325
101325
101325
101325
101325
101325
101325
101325
101325
101325
101325
101325
101325
101325
101325
101325
101325
101325
101325
101325
101325
101325
101325
101325
101325
101325
101325
101325
101325
101325
101325
101325
101325
101325
101325
101325
101325
101325
101325
101325
101325
101325
101325
101325
101325
101325
101325
101325
101325
101325
101325
101325
101325
101325
101325
101325
101325
101325
101325
101325
101325
101325
101325
101325
101325
101325
101325
101325
101325
101325
101325
101325
101325
101325
101325
101325
101325
101325
101325
101325
101325
101325
101325
101325
101325
101325
101325
101325
101325
101325
101325
101325
101325
101325
101325
101325
101325
101325
101325
101325
101325
101325
101325
101325
101325
101325
101325
101325
101325
101325
101325
101325
101325
101325
101325
101325
101325
101325
101325
101325
101325
101325
101325
101325
101325
101325
101325
101325
101325
101325
101325
101325
101325
101325
101325
101325
101325
101325
101325
101325
101325
101325
101325
101325
101325
101325
101325
101325
101325
101325
101325
101325
101325
101325
101325
101325
101325
101325
101325
101325
101325
101325
101325
101325
101325
101325
101325
101325
101325
101325
101325
101325
101325
101325
101325
101325
101325
101325
101325
101325
101325
101325
101325
101325
101325
101325
101325
101325
101325
101325
101325
101325
101325
101325
101325
101325
101325
101325
101325
101325
101325
101325
101325
101325
101325
101325
101325
101325
101325
101325
101325
101325
101325
101325
101325
101325
101325
101325
101325
101325
101325
101325
101325
101325
101325
101325
101325
101325
101325
101325
101325
101325
101325
101325
101325
101325
101325
101325
101325
101325
101325
101325
101325
101325
101325
101325
101325
101325
101325
101325
101325
101325
101325
101325
101325
101325
101325
101325
101325
101325
101325
101325
101325
101325
101325
101325
101325
101325
101325
101325
101325
101325
101325
101325
101325
101325
101325
101325
101325
101325
101325
101325
101325
101325
101325
101325
101325
101325
101325
101325
101325
101325
101325
101325
101325
101325
101325
101325
101325
101325
101325
101325
101325
101325
101325
101325
101325
101325
101325
101325
101325
101325
101325
101325
101325
101325
101325
101325
101325
101325
101325
101325
101325
101325
101325
101325
101325
101325
101325
101325
101325
101325
101325
101325
101325
101325
101325
101325
101325
101325
101325
101325
101325
101325
101325
101325
101325
101325
101325
101325
101325
101325
101325
101325
101325
101325
101325
101325
101325
101325
101325
101325
101325
101325
101325
101325
101325
101325
101325
101325
101325
101325
101325
101325
101325
101325
101325
101325
101325
101325
101325
101325
101325
101325
101325
101325
101325
101325
101325
101325
101325
101325
101325
101325
101325
101325
101325
101325
101325
101325
101325
101325
101325
101325
101325
101325
101325
101325
101325
101325
101325
101325
101325
101325
101325
101325
101325
101325
101325
101325
101325
101325
101325
101325
101325
101325
101325
101325
101325
101325
101325
101325
101325
101325
101325
101325
101325
101325
101325
101325
101325
101325
101325
101325
101325
101325
101325
101325
101325
101325
101325
101325
101325
101325
101325
101325
101325
101325
101325
101325
101325
101325
101325
101325
101325
101325
101325
101325
101325
101325
101325
101325
101325
101325
101325
101325
101325
101325
101325
101325
101325
101325
101325
101325
101325
101325
101325
101325
101325
101325
101325
101325
101325
101325
101325
101325
101325
101325
101325
101325
101325
101325
101325
101325
101325
101325
101325
101325
101325
101325
101325
101325
101325
101325
101325
101325
101325
101325
101325
101325
101325
101325
101325
101325
101325
101325
101325
101325
101325
101325
101325
101325
101325
101325
101325
101325
101325
101325
101325
101325
101325
101325
101325
101325
101325
101325
101325
101325
101325
101325
101325
101325
101325
101325
101325
101325
101325
101325
101325
101325
101325
101325
101325
101325
101325
101325
101325
101325
101325
101325
101325
101325
101325
101325
101325
101325
101325
101325
101325
101325
101325
101325
101325
101325
101325
101325
101325
101325
101325
101325
101325
101325
101325
101325
101325
101325
101325
101325
101325
101325
101325
101325
101325
101325
101325
101325
101325
101325
101325
101325
101325
101325
101325
101325
101325
101325
101325
101325
101325
101325
101325
101325
101325
101325
101325
101325
101325
101325
101325
101325
101325
101325
101325
101325
101325
101325
101325
101325
101325
101325
101325
101325
101325
101325
101325
101325
101325
101325
101325
101325
101325
101325
101325
101325
101325
101325
101325
101325
101325
101325
101325
101325
101325
101325
101325
101325
101325
101325
101325
101325
101325
101325
101325
101325
101325
101325
101325
101325
101325
101325
101325
101325
101325
101325
101325
101325
101325
101325
101325
101325
101325
101325
101325
101325
101325
101325
101325
101325
101325
101325
101325
101325
101325
101325
101325
101325
101325
101325
101325
101325
101325
101325
101325
101325
101325
101325
101325
101325
101325
101325
101325
101325
101325
101325
101325
101325
101325
101325
101325
101325
101325
101325
101325
101325
101325
101325
101325
101325
101325
101325
101325
101325
101325
101325
101325
101325
101325
101325
101325
101325
101325
101325
101325
101325
101325
101325
101325
101325
101325
101325
101325
101325
101325
101325
101325
101325
101325
101325
101325
101325
101325
101325
101325
101325
101325
101325
101325
101325
101325
101325
101325
101325
101325
101325
101325
101325
101325
101325
101325
101325
101325
101325
101325
101325
101325
101325
101325
101325
101325
101325
101325
101325
101325
101325
101325
101325
101325
101325
101325
101325
101325
101325
101325
101325
101325
101325
101325
101325
101325
101325
101325
101325
101325
101325
101325
101325
101325
101325
101325
101325
101325
101325
101325
101325
101325
101325
101325
101325
101325
101325
101325
101325
101325
101325
101325
101325
101325
101325
101325
101325
101325
101325
101325
101325
101325
101325
101325
101325
101325
101325
101325
101325
101325
101325
101325
101325
101325
101325
101325
101325
101325
101325
101325
101325
101325
101325
101325
101325
101325
101325
101325
101325
101325
101325
101325
101325
101325
101325
101325
101325
101325
101325
101325
101325
101325
101325
101325
101325
101325
101325
101325
101325
101325
101325
101325
101325
101325
101325
101325
101325
101325
101325
101325
101325
101325
101325
101325
101325
101325
101325
101325
101325
101325
101325
101325
101325
101325
101325
101325
101325
101325
101325
101325
101325
101325
101325
101325
101325
101325
101325
101325
101325
101325
101325
101325
101325
101325
101325
101325
101325
101325
101325
101325
101325
101325
101325
101325
101325
101325
101325
101325
101325
101325
101325
101325
101325
101325
101325
101325
101325
101325
101325
101325
101325
101325
101325
101325
101325
101325
101325
101325
101325
101325
101325
101325
101325
101325
101325
101325
101325
101325
101325
101325
101325
101325
101325
101325
101325
101325
101325
101325
101325
101325
101325
101325
101325
101325
101325
101325
101325
101325
101325
101325
101325
101325
101325
101325
101325
101325
101325
101325
101325
101325
101325
101325
101325
101324.999
101324.999
101324.999
101324.999
101324.999
101324.999
101324.999
101324.999
101324.999
101324.999
101324.999
101324.999
101324.999
101324.998
101324.998
101324.998
101324.998
101324.998
101324.998
101324.997
101324.997
101324.997
101324.997
101324.996
101324.996
101324.996
101324.995
101324.995
101324.994
101324.994
101324.993
101324.993
101324.992
101324.992
101324.991
101324.99
101324.989
101324.988
101324.987
101324.986
101324.985
101324.984
101324.983
101324.981
101324.98
101324.978
101324.976
101324.974
101324.972
101324.97
101324.968
101324.965
101324.963
101324.96
101324.956
101324.953
101324.949
101324.946
101324.941
101324.937
101324.932
101324.927
101324.921
101324.915
101324.909
101324.902
101324.895
101324.887
101324.878
101324.87
101324.86
101324.85
101324.839
101324.827
101324.815
101324.801
101324.787
101324.772
101324.756
101324.739
101324.72
101324.701
101324.68
101324.658
101324.634
101324.609
101324.583
101324.555
101324.525
101324.493
101324.459
101324.423
101324.385
101324.345
101324.302
101324.257
101324.209
101324.159
101324.105
101324.049
101323.989
101323.926
101323.859
101323.789
101323.715
101323.637
101323.555
101323.468
101323.377
101323.28
101323.179
101323.073
101322.962
101322.845
101322.722
101322.593
101322.457
101322.316
101322.167
101322.012
101321.849
101321.679
101321.501
101321.316
101321.122
101320.92
101320.709
101320.489
101320.261
101320.022
101319.775
101319.517
101319.25
101318.972
101318.683
101318.384
101318.075
101317.754
101317.422
101317.078
101316.723
101316.357
101315.979
101315.588
101315.186
101314.772
101314.346
101313.908
101313.458
101312.996
101312.523
101312.037
101311.54
101311.031
101310.51
101309.979
101309.437
101308.884
101308.32
101307.747
101307.164
101306.572
101305.972
101305.363
101304.746
101304.122
101303.492
101302.856
101302.215
101301.569
101300.92
101300.268
101299.613
101298.958
101298.302
101297.646
101296.993
101296.341
101295.693
101295.05
101294.412
101293.781
101293.157
101292.543
101291.937
101291.343
101290.761
101290.192
101289.636
101289.096
101288.572
101288.066
101287.577
101287.108
101286.659
101286.231
101285.824
101285.441
101285.08
101284.744
101284.433
101284.147
101283.887
101283.654
101283.447
101283.268
101283.116
101282.992
101282.896
101282.827
101282.787
101282.774
101282.789
101282.831
101282.9
101282.996
101283.118
101283.265
101283.438
101283.635
101283.855
101284.098
101284.363
101284.65
101284.956
101285.282
101285.625
101285.986
101286.363
101286.754
101287.159
101287.577
101288.006
101288.445
101288.893
101289.35
101289.812
101290.281
101290.754
101291.23
101291.708
101292.188
101292.668
101293.147
101293.624
101294.098
101294.568
101295.034
101295.494
101295.949
101296.396
101296.835
101297.266
101297.688
101298.1
101298.502
101298.893
101299.273
101299.641
101299.997
101300.34
101300.67
101300.986
101301.289
101301.578
101301.853
101302.113
101302.358
101302.589
101302.804
101303.005
101303.191
101303.362
101303.517
101303.659
101303.785
101303.898
101303.996
101304.08
101304.152
101304.211
101304.257
101304.292
101304.317
101304.331
101304.336
101304.333
101304.323
101304.306
101304.285
101304.26
101304.232
101304.203
101304.175
101304.147
101304.123
101304.102
101304.087
101304.079
101304.08
101304.09
101304.11
101304.143
101304.188
101304.247
101304.32
101304.409
101304.513
101304.633
101304.769
101304.92
101305.087
101305.268
101305.462
101305.67
101305.888
101306.116
101306.351
101306.592
101306.836
101307.081
101307.323
101307.561
101307.792
101308.012
101308.219
101308.411
101308.584
101308.736
101308.867
101308.973
101309.054
101309.11
101309.141
101309.147
101309.13
101309.093
101309.037
101308.968
101308.887
101308.802
101308.715
101308.632
101308.558
101308.497
101308.452
101308.426
101308.422
101308.437
101308.461
101308.505
101308.874
101309.095
101308.943
101307.419
101307.479
101307.587
101307.896
101307.908
101307.955
101307.925
101307.897
101307.86
101307.831
101307.81
101307.797
101307.794
101307.799
101307.812
101307.834
101307.862
101307.897
101307.937
101307.982
101308.031
101308.083
101308.136
101308.189
101308.242
101308.294
101308.343
101308.389
101308.431
101308.467
101308.498
101308.523
101308.541
101308.552
101308.556
101308.551
101308.539
101308.519
101308.491
101308.455
101308.411
101308.359
101308.3
101308.234
101308.161
101308.082
101307.996
101307.905
101307.808
101307.706
101307.6
101307.49
101307.376
101307.26
101307.14
101307.019
101306.895
101306.77
101306.645
101306.518
101306.392
101306.266
101306.141
101306.016
101305.893
101305.772
101305.652
101305.535
101305.42
101305.307
101305.198
101305.092
101304.989
101304.889
101304.794
101304.701
101304.613
101304.529
101304.448
101304.372
101304.3
101304.231
101304.167
101304.107
101304.052
101304
101303.952
101303.908
101303.868
101303.832
101303.799
101303.77
101303.745
101303.723
101303.704
101303.688
101303.675
101303.665
101303.658
101303.653
101303.651
101303.65
101303.652
101303.656
101303.661
101303.668
101303.676
101303.686
101303.696
101303.708
101303.72
101303.732
101303.745
101303.758
101303.771
101303.784
101303.797
101303.809
101303.82
101303.831
101303.841
101303.85
101303.858
101303.864
101303.869
101303.873
101303.874
101303.874
101303.872
101303.869
101303.862
101303.854
101303.844
101303.831
101303.815
101303.797
101303.777
101303.753
101303.727
101303.698
101303.667
101303.632
101303.594
101303.553
101303.509
101303.462
101303.412
101303.359
101303.302
101303.242
101303.179
101303.112
101303.042
101302.969
101302.892
101302.812
101302.728
101302.641
101302.551
101302.457
101302.36
101302.259
101302.155
101302.047
101301.936
101301.822
101301.704
101301.583
101301.458
101301.33
101301.198
101301.063
101300.925
101300.783
101300.638
101300.49
101300.338
101300.183
101300.025
101299.863
101299.699
101299.531
101299.36
101299.185
101299.008
101298.828
101298.644
101298.457
101298.268
101298.075
101297.88
101297.682
101297.481
101297.277
101297.07
101296.861
101296.649
101296.435
101296.218
101295.998
101295.776
101295.552
101295.326
101295.098
101294.867
101294.634
101294.4
101294.163
101293.925
101293.685
101293.444
101293.201
101292.957
101292.711
101292.464
101292.217
101291.968
101291.718
101291.468
101291.217
101290.966
101290.714
101290.462
101290.21
101289.958
101289.706
101289.455
101289.204
101288.954
101288.704
101288.456
101288.208
101287.962
101287.717
101287.474
101287.232
101286.992
101286.755
101286.519
101286.286
101286.055
101285.827
101285.602
101285.379
101285.16
101284.944
101284.732
101284.523
101284.318
101284.117
101283.92
101283.728
101283.539
101283.356
101283.177
101283.003
101282.834
101282.67
101282.511
101282.358
101282.21
101282.068
101281.932
101281.802
101281.678
101281.56
101281.448
101281.343
101281.244
101281.152
101281.066
101280.988
101280.916
101280.851
101280.793
101280.742
101280.698
101280.662
101280.633
101280.611
101280.596
101280.589
101280.589
101280.597
101280.612
101280.635
101280.665
101280.703
101280.748
101280.801
101280.861
101280.929
101281.005
101281.087
101281.177
101281.275
101281.38
101281.492
101281.612
101281.738
101281.872
101282.013
101282.161
101282.315
101282.477
101282.645
101282.821
101283.002
101283.19
101283.385
101283.586
101283.793
101284.006
101284.225
101284.451
101284.681
101284.918
101285.16
101285.407
101285.66
101285.917
101286.18
101286.448
101286.72
101286.997
101287.278
101287.564
101287.854
101288.147
101288.445
101288.747
101289.052
101289.36
101289.672
101289.987
101290.305
101290.625
101290.949
101291.275
101291.603
101291.934
101292.267
101292.602
101292.939
101293.277
101293.617
101293.958
101294.301
101294.645
101294.989
101295.335
101295.681
101296.028
101296.376
101296.723
101297.071
101297.419
101297.767
101298.115
101298.463
101298.81
101299.156
101299.502
101299.847
101300.192
101300.535
101300.877
101301.218
101301.558
101301.897
101302.234
101302.569
101302.903
101303.236
101303.566
101303.894
101304.221
101304.545
101304.868
101305.188
101305.506
101305.822
101306.135
101306.446
101306.754
101307.06
101307.363
101307.663
101307.961
101308.256
101308.548
101308.838
101309.124
101309.408
101309.689
101309.966
101310.241
101310.513
101310.781
101311.047
101311.309
101311.569
101311.825
101312.078
101312.328
101312.574
101312.818
101313.058
101313.295
101313.529
101313.76
101313.987
101314.212
101314.433
101314.65
101314.865
101315.077
101315.285
101315.49
101315.692
101315.891
101316.087
101316.279
101316.469
101316.655
101316.839
101317.019
101317.196
101317.371
101317.542
101317.71
101317.876
101318.038
101318.198
101318.355
101318.509
101318.66
101318.808
101318.953
101319.096
101319.236
101319.374
101319.509
101319.641
101319.771
101319.898
101320.022
101320.144
101320.264
101320.381
101320.496
101320.608
101320.718
101320.826
101320.932
101321.035
101321.136
101321.235
101321.332
101321.427
101321.519
101321.61
101321.699
101321.785
101321.87
101321.953
101322.034
101322.113
101322.19
101322.266
101322.339
101322.411
101322.482
101322.55
101322.617
101322.683
101322.747
101322.809
101322.87
101322.929
101322.987
101323.044
101323.099
101323.152
101323.205
101323.256
101323.306
101323.354
101323.401
101323.448
101323.492
101323.536
101323.579
101323.621
101323.661
101323.701
101323.739
101323.777
101323.813
101323.849
101323.884
101323.922
101323.96
101324
101324.041
101324.083
101324.127
101324.171
101324.217
101324.263
101324.31
101324.357
101324.404
101324.451
101324.497
101324.543
101324.588
101324.632
101324.673
101324.713
101324.751
101324.786
101324.819
101324.848
101324.875
101324.899
101324.919
101324.937
101324.952
101324.964
101324.974
101324.981
101324.987
101324.992
101324.995
101324.997
101324.998
101324.999
101325
101325
101325
101325
101325
101325
101325
101325
101325
101325
101325
101325
101325
101325
101325
101325
101325
101325
101325
101325
101325
101325
101325
101325
101325
101325
101325
101325
101325
101325
101325
101325
101325
101325
101325
101325
101325
101325
101325
)
;

boundaryField
{
    closed
    {
        type            zeroGradient;
    }
    open
    {
        type            waveTransmissive;
        gamma           1.25;
        fieldInf        101325;
        lInf            1;
        value           uniform 101325;
    }
    sides
    {
        type            empty;
    }
}


// ************************************************************************* //
