/*--------------------------------*- C++ -*----------------------------------*\
| =========                 |                                                 |
| \\      /  F ield         | OpenFOAM: The Open Source CFD Toolbox           |
|  \\    /   O peration     | Version:  2206                                  |
|   \\  /    A nd           | Website:  www.openfoam.com                      |
|    \\/     M anipulation  |                                                 |
\*---------------------------------------------------------------------------*/
FoamFile
{
    version     2.0;
    format      ascii;
    arch        "LSB;label=32;scalar=64";
    class       surfaceScalarField;
    location    "5.4e-06";
    object      phi;
}
// * * * * * * * * * * * * * * * * * * * * * * * * * * * * * * * * * * * * * //

dimensions      [1 0 -1 0 0 0 0];

oriented        oriented;

internalField   nonuniform List<scalar> 
3182
(
1.78795882e-18
-1.51981392e-18
3.61421365e-19
-7.44061335e-19
-2.80811196e-22
-4.36092941e-24
-3.17954962e-25
-7.12289704e-30
1.18219423e-28
2.44695926e-24
3.33807168e-23
4.92148245e-21
3.00406491e-18
-1.15805577e-18
-1.67302141e-18
2.70531167e-20
1.68536842e-18
-2.30190468e-18
-3.52899763e-18
4.29923666e-18
1.07201496e-20
1.30991956e-22
3.34302629e-23
3.27752884e-22
1.03150411e-18
1.84519374e-18
3.41576555e-18
-5.17629591e-19
-2.22112705e-18
-2.11334563e-18
-2.31919262e-18
2.62178203e-19
-9.21212566e-19
-1.56190446e-18
3.24308262e-19
4.81426017e-19
-4.87767243e-19
-6.9973986e-19
1.58185543e-19
-3.96589514e-19
-2.49189231e-18
-2.79457356e-18
-8.68859714e-19
1.07643758e-19
6.55384931e-19
1.9441692e-18
1.29911564e-18
3.21890729e-19
-1.07657648e-19
-5.40986977e-19
-9.79980607e-19
-6.36375628e-19
-8.65480208e-19
5.40095887e-19
1.76392494e-21
-4.25265726e-19
2.20612007e-19
-2.74765931e-22
6.53175389e-19
1.9533856e-18
1.95956757e-18
3.47423271e-18
3.24968856e-18
3.47457379e-18
3.50092274e-18
3.92314531e-18
3.70038769e-18
4.3318164e-18
3.48636951e-18
3.8863696e-18
3.89484631e-18
3.95695888e-18
5.20754885e-18
4.76934458e-18
5.21831091e-18
5.66543786e-18
6.50415471e-18
6.98519326e-18
7.47730687e-18
7.10250029e-18
8.3656064e-18
8.63427789e-18
7.72130399e-18
7.72839219e-18
1.10117553e-17
9.43248751e-18
8.81905562e-18
9.54066418e-18
9.46786961e-18
1.11158964e-17
9.53687986e-18
8.05742256e-18
8.18968265e-18
1.00168279e-17
1.05047373e-17
1.07813959e-17
1.25398814e-17
1.037809e-17
1.46410104e-17
1.23658984e-17
1.31101438e-17
1.57722388e-17
1.94372213e-17
1.97225523e-17
1.78013606e-17
1.86702932e-17
1.93687082e-17
1.91678421e-17
1.89824632e-17
2.06864797e-17
1.81033833e-17
1.49667577e-17
1.78002149e-17
1.87255847e-17
1.89263733e-17
1.52902991e-17
1.5748218e-17
1.02590306e-17
1.11564184e-17
1.28516524e-17
1.12917827e-17
1.25189129e-17
1.28702051e-17
1.24665123e-17
9.94362019e-18
8.9378202e-18
9.19057903e-18
5.01661198e-18
3.80796049e-18
3.40563265e-18
1.07478268e-18
1.23502629e-18
3.4221888e-18
4.66460736e-18
8.29720397e-18
5.99834977e-18
5.74823406e-18
5.52550816e-18
4.6243276e-18
5.73854776e-18
2.46182504e-18
4.74688144e-18
6.239494e-18
7.15262543e-18
5.00550428e-18
9.51140205e-18
1.06590543e-17
7.90294954e-18
7.28529815e-18
9.03182766e-18
6.93550269e-18
5.5909903e-18
4.07898538e-18
4.02859209e-18
6.87780685e-18
5.60985393e-18
6.12412437e-18
8.39017016e-19
3.15482071e-19
-7.36379137e-19
3.08590332e-19
2.89143095e-18
9.10683341e-19
-2.58355437e-18
-3.65890757e-18
-4.61060265e-18
3.73039974e-19
-5.9404906e-19
1.40931144e-18
-3.39377295e-18
-2.18785565e-18
-9.3233151e-19
-2.37143174e-18
1.03510607e-18
-5.12560146e-19
-5.36254948e-18
-5.83480443e-18
-3.86539584e-18
-4.67559383e-18
2.75395627e-19
-3.39336284e-18
-7.05759237e-19
-4.35021238e-18
-2.94317099e-18
-4.30862897e-18
-4.32878616e-18
-5.459176e-18
-4.79538155e-18
-6.99822574e-18
-5.01906046e-18
-7.76414125e-18
-8.23846453e-18
-1.00356688e-17
-1.33881972e-17
-1.22148689e-17
-1.3588923e-17
-1.44066045e-17
-1.04025839e-17
-1.11159021e-17
-1.40103272e-17
-1.58490724e-17
-1.66885868e-17
-1.67231935e-17
-1.75292794e-17
-1.495607e-17
-1.68211695e-17
-1.74605622e-17
-1.93584967e-17
-2.01583229e-17
-1.77885564e-17
-1.8004764e-17
-1.89731685e-17
-2.15827278e-17
-2.17057455e-17
-2.78763372e-17
-2.42690871e-17
-2.26306041e-17
-2.20875382e-17
-2.27773538e-17
-2.19157128e-17
-1.74955882e-17
-2.08851323e-17
-2.32768713e-17
-2.11799484e-17
-2.19688604e-17
-2.32274464e-17
-2.71356559e-17
-2.63196531e-17
-2.34942172e-17
-2.50345821e-17
-2.30552298e-17
-2.52726315e-17
-2.70834322e-17
-2.98873927e-17
-2.68043638e-17
-2.84151183e-17
-2.77099506e-17
-3.15335364e-17
-3.11589834e-17
-3.386655e-17
-3.36858865e-17
-3.36653411e-17
-3.586971e-17
-3.17117286e-17
-3.0426748e-17
-3.04715372e-17
-3.11313985e-17
-3.10338777e-17
-3.06810883e-17
-3.46238057e-17
-3.19095584e-17
-3.33996468e-17
-3.06485952e-17
-3.1780163e-17
-3.01412056e-17
-3.20671523e-17
-3.43722795e-17
-3.10282298e-17
-3.46802126e-17
-3.20323453e-17
-3.22468962e-17
-3.11450555e-17
-3.12145776e-17
-3.25273971e-17
-3.36308601e-17
-3.16913598e-17
-3.52117046e-17
-3.30763221e-17
-3.18512142e-17
-3.4172294e-17
-3.39925396e-17
-3.33005623e-17
-3.64702744e-17
-3.53469536e-17
-3.72737273e-17
-3.81545581e-17
-3.58488671e-17
-3.33994266e-17
-3.67449687e-17
-3.9357731e-17
-4.03395037e-17
-3.88347106e-17
-4.21766148e-17
-4.20856735e-17
-4.28967313e-17
-4.29064318e-17
-4.62501187e-17
-4.61173413e-17
-4.88909276e-17
-4.73433585e-17
-4.55151909e-17
-4.84969032e-17
-4.92329595e-17
-4.84981091e-17
-4.92666154e-17
-4.86305913e-17
-4.93021152e-17
-5.14635582e-17
-5.35451463e-17
-5.10271524e-17
-5.32114844e-17
-5.19106252e-17
-5.27413541e-17
-5.39874759e-17
-5.3999158e-17
-5.68241117e-17
-5.47351468e-17
-5.68050066e-17
-5.38255277e-17
-5.41124778e-17
-5.62508017e-17
-5.8957636e-17
-5.51926919e-17
-5.71683651e-17
-5.6100019e-17
-5.61313645e-17
-5.70946788e-17
-5.92959636e-17
-5.67391538e-17
-5.82192165e-17
-5.48127632e-17
-5.91550942e-17
-5.8445782e-17
-5.6337845e-17
-5.55928239e-17
-5.46594913e-17
-5.34410235e-17
-5.11951002e-17
-5.27100075e-17
-5.34900418e-17
-5.35683432e-17
-5.15300142e-17
-5.51751593e-17
-5.29826869e-17
-5.09378223e-17
-4.95400036e-17
-4.80452124e-17
-4.78536194e-17
-4.78455726e-17
-4.6056702e-17
-4.75817492e-17
-4.7939838e-17
-4.59987392e-17
-4.59982914e-17
-4.44825274e-17
-4.658468e-17
-4.65872497e-17
-4.77145766e-17
-5.04922562e-17
-4.67346529e-17
-4.80943028e-17
-4.86622574e-17
-4.90808451e-17
-4.91048761e-17
-4.89008671e-17
-5.08168117e-17
-4.88365809e-17
-5.15757404e-17
-5.3481782e-17
-5.31340905e-17
-4.99998909e-17
-5.07280414e-17
-4.79078863e-17
-4.69130191e-17
-4.98927923e-17
-4.82012281e-17
-5.17454938e-17
-4.64739701e-17
-4.56539313e-17
-4.65642719e-17
-4.51269071e-17
-4.40125308e-17
-4.44933687e-17
-4.17037399e-17
-4.38264491e-17
-4.3311487e-17
-4.30816673e-17
-4.42164468e-17
-4.3071107e-17
-4.21246147e-17
-4.48856169e-17
-4.35060733e-17
-4.51223977e-17
-4.5546735e-17
-3.88930484e-17
-4.20937178e-17
-4.32628866e-17
-3.92298039e-17
-3.8471966e-17
-3.74307569e-17
-3.48967117e-17
-3.33070609e-17
-3.68428676e-17
-3.43128398e-17
-3.80536467e-17
-3.39606312e-17
-3.64136517e-17
-3.39744229e-17
-3.08472598e-17
-3.02219789e-17
-3.0248417e-17
-3.51173406e-17
-3.16123885e-17
-2.71867951e-17
-2.8697645e-17
-2.3301235e-17
-2.62416808e-17
-2.48104506e-17
-2.6779875e-17
-2.31600693e-17
-2.28412678e-17
-2.09276771e-17
-2.06376574e-17
-2.31529501e-17
-2.27465376e-17
-2.44611078e-17
-2.23565348e-17
-2.56394052e-17
-2.3215858e-17
-2.7163092e-17
-2.7378259e-17
-2.62690052e-17
-2.4844456e-17
-2.33461519e-17
-2.54823403e-17
-2.51129931e-17
-2.47400785e-17
-2.05433719e-17
-2.11010834e-17
-1.9346686e-17
-2.15700044e-17
-2.19257814e-17
-2.17814011e-17
-2.20716329e-17
-1.9396051e-17
-1.81948144e-17
-1.85816546e-17
-1.65289896e-17
-1.36968016e-17
-1.46384711e-17
-1.48861582e-17
-1.40683294e-17
-1.6669011e-17
-1.51693966e-17
-1.74306182e-17
-1.39817934e-17
-1.28254496e-17
-1.28178137e-17
-1.33389677e-17
-1.38495638e-17
-1.34279972e-17
-1.36663656e-17
-1.40577707e-17
-1.26366525e-17
-1.15196919e-17
-8.30355423e-18
-8.18322527e-18
-1.25539566e-17
-1.00926248e-17
-1.06239339e-17
-9.62950873e-18
-7.53128192e-18
-8.08713456e-18
-6.29118339e-18
-8.98651365e-18
-9.76993006e-18
-5.02803604e-18
-5.26741161e-18
-2.92163924e-18
-8.44309066e-19
-7.48719758e-19
2.29854908e-18
1.71844357e-18
4.25688316e-18
8.87187752e-19
8.6080849e-19
3.5022624e-18
1.63847941e-18
4.27278162e-18
4.27497771e-18
1.16505528e-18
-6.15095138e-19
-3.39921416e-19
3.87065344e-18
3.20946404e-18
6.63838849e-18
4.2151074e-18
3.00172098e-18
1.47856776e-18
-1.16538462e-18
1.49432171e-18
-2.17286075e-18
-1.62461697e-19
-1.41140596e-18
-2.24014033e-18
-1.05209913e-18
-2.39309178e-18
-4.14985892e-20
2.64862358e-18
1.20975301e-18
1.60262727e-18
-5.87548173e-19
-2.15594968e-18
-4.84918411e-19
1.26551728e-19
-1.60448876e-19
-2.22871348e-18
-1.10766969e-18
-3.25526061e-18
-2.78552503e-18
-2.40084884e-18
4.267879e-20
-2.12798421e-18
-4.05702518e-19
-9.01463085e-19
-5.08586415e-19
-8.51008063e-19
-7.29556971e-19
-5.12642833e-19
-1.23998822e-18
2.67510617e-18
1.52310521e-18
4.02586918e-18
3.20105521e-18
4.13901906e-18
3.5561927e-18
5.39843408e-18
4.28130837e-18
5.25269302e-18
3.9834773e-18
4.39497573e-18
2.37632596e-18
2.78259755e-18
3.78593154e-19
5.11498834e-18
9.58403118e-18
4.47980254e-18
7.37603915e-18
6.12803259e-18
7.28829159e-18
8.86180826e-18
7.21442275e-18
8.79742163e-18
8.80997574e-18
7.197131e-18
6.61285843e-18
6.30448235e-18
5.0120513e-18
8.92655236e-18
5.57157199e-18
5.07518807e-18
9.31490523e-18
1.16505019e-17
8.65780966e-18
8.27344392e-18
9.21020986e-18
1.15912589e-17
8.01147629e-18
5.40576403e-18
5.54794579e-18
3.13885107e-18
3.03786672e-18
5.62822982e-18
5.96550893e-18
4.20286663e-18
6.93183403e-18
8.87895868e-18
1.11323184e-17
1.10283841e-17
1.0453371e-17
8.79511824e-18
9.98058988e-18
1.34498507e-17
1.28218101e-17
1.43195584e-17
1.11421454e-17
1.10889155e-17
8.87951632e-18
1.21192735e-17
1.33229128e-17
1.25609008e-17
1.60337173e-17
1.48820531e-17
1.72362137e-17
1.48347596e-17
1.45066969e-17
1.65146773e-17
1.86562177e-17
1.47489342e-17
1.90855984e-17
1.59114658e-17
1.94215169e-17
1.81493928e-17
1.61769989e-17
1.49691051e-17
1.20867482e-17
1.46942612e-17
1.56017388e-17
1.70652996e-17
1.9450692e-17
1.73283971e-17
1.95516016e-17
1.89473329e-17
1.93591397e-17
1.70460724e-17
1.91512468e-17
1.85007308e-17
1.64634452e-17
1.64859313e-17
1.65675421e-17
1.3946303e-17
1.2972181e-17
1.43360978e-17
1.39265487e-17
1.26908677e-17
1.34208854e-17
1.37587217e-17
1.72195507e-17
1.62629685e-17
1.88882382e-17
1.83889867e-17
1.62236059e-17
1.5387849e-17
1.64007582e-17
1.53882453e-17
1.03269961e-17
1.29536044e-17
1.27145515e-17
1.07666022e-17
1.02725672e-17
1.11474467e-17
1.0312781e-17
1.29291898e-17
8.35141346e-18
8.87157844e-18
1.35403174e-17
1.04771745e-17
9.83692048e-18
1.02569365e-17
7.94735303e-18
1.03411588e-17
1.16789832e-17
1.12740409e-17
1.21235707e-17
9.88280106e-18
9.76972865e-18
1.18211997e-17
1.17174283e-17
1.2460717e-17
1.26073352e-17
9.46386222e-18
9.77238193e-18
1.14504311e-17
9.73952093e-18
1.21305406e-17
1.00136212e-17
1.3131172e-17
8.0103934e-18
7.71687101e-18
8.67905205e-18
9.2798765e-18
8.47252923e-18
9.48678742e-18
9.96432097e-18
1.20035214e-17
1.00485167e-17
1.12080705e-17
1.08697494e-17
1.02626391e-17
1.06632751e-17
8.02700118e-18
8.50832803e-18
8.73685449e-18
6.98721625e-18
8.51035253e-18
1.14519718e-17
1.31356206e-17
1.38676288e-17
1.23950319e-17
1.61122084e-17
1.49198391e-17
1.53888476e-17
1.50841437e-17
1.79996374e-17
1.66195337e-17
1.39566844e-17
1.41985267e-17
1.33429155e-17
1.3901271e-17
1.42267708e-17
1.24654931e-17
1.45377564e-17
1.50260525e-17
1.38512467e-17
1.45627375e-17
1.2496385e-17
1.51353173e-17
1.29063423e-17
1.46972113e-17
1.25208336e-17
1.17503345e-17
1.18354855e-17
1.16305891e-17
1.17912744e-17
1.11687615e-17
1.17478024e-17
1.62245319e-17
1.49996687e-17
1.59732881e-17
1.2029417e-17
1.44545961e-17
1.45805378e-17
1.08437755e-17
1.34926549e-17
1.26285353e-17
1.5963349e-17
1.65546483e-17
1.55446342e-17
1.38946229e-17
1.4156273e-17
1.26098784e-17
1.6160308e-17
1.53692184e-17
1.33080917e-17
1.49370951e-17
1.15274546e-17
1.07541798e-17
1.12758006e-17
8.37944376e-18
8.68659389e-18
8.41285951e-18
8.4576955e-18
7.79478937e-18
1.15706729e-17
1.55395404e-17
1.05570379e-17
1.21149761e-17
1.21874762e-17
1.37022296e-17
1.25961873e-17
1.084192e-17
1.12233419e-17
8.80383078e-18
1.0947686e-17
1.047018e-17
1.20397408e-17
7.61870154e-18
1.35791326e-17
1.39681889e-17
1.3245129e-17
1.75706457e-17
1.54001588e-17
1.43510327e-17
1.34078531e-17
1.40041517e-17
1.37968064e-17
1.57998492e-17
1.26024681e-17
1.30602738e-17
1.09709848e-17
9.6321539e-18
9.06115527e-18
1.01779512e-17
9.52828154e-18
7.91681651e-18
8.74090147e-18
9.50763777e-18
1.08179872e-17
1.08482982e-17
1.0890423e-17
1.24750127e-17
1.34135451e-17
1.61721297e-17
1.43924658e-17
1.60471751e-17
1.57358232e-17
1.40250577e-17
1.4584107e-17
1.40654869e-17
1.48531501e-17
1.59548565e-17
1.75371454e-17
1.56495452e-17
1.64650553e-17
1.48711033e-17
1.89056519e-17
2.09176988e-17
1.9826452e-17
2.12272516e-17
1.74435587e-17
2.0857435e-17
2.0192215e-17
2.01367659e-17
1.86297191e-17
1.52964677e-17
1.65341762e-17
1.55936886e-17
1.62093275e-17
1.48793216e-17
1.34879862e-17
1.31960539e-17
1.43480227e-17
1.82137691e-17
1.84821809e-17
1.6252567e-17
1.58513933e-17
1.56021999e-17
1.75619186e-17
1.65681959e-17
1.53525432e-17
1.44176738e-17
1.63648739e-17
1.71562287e-17
1.39366679e-17
1.414279e-17
1.41935631e-17
1.4594052e-17
1.26140699e-17
1.10546815e-17
1.12552315e-17
1.26628839e-17
1.17362798e-17
1.3730966e-17
1.30327757e-17
1.55828205e-17
1.40536347e-17
1.40196099e-17
1.52439066e-17
1.02224163e-17
1.07368392e-17
1.21574468e-17
8.50919275e-18
8.31812852e-18
8.59460722e-18
7.37279469e-18
4.30216599e-18
6.15637709e-18
5.35294793e-18
3.72161273e-18
4.2390463e-18
4.45449032e-18
2.33612585e-18
4.93355541e-18
2.41102345e-18
4.26673244e-18
5.33886259e-18
4.09073227e-18
5.99138473e-18
5.95889221e-18
4.88106379e-18
8.1412799e-18
6.32508486e-18
8.09722464e-18
7.92625678e-18
6.87012968e-18
4.80465565e-18
5.11084181e-18
4.96100489e-18
2.41262705e-18
5.32040088e-18
7.18304866e-19
1.52302315e-18
3.64896798e-18
4.42251816e-18
8.6541518e-18
9.34800635e-18
8.06508732e-18
3.78701009e-18
6.44435613e-18
8.99548828e-18
8.0292989e-18
9.46760676e-18
8.10637097e-18
7.88549574e-18
8.92590403e-18
7.58415002e-18
9.00424969e-18
8.52392875e-18
1.18107442e-17
1.31534619e-17
1.18219769e-17
1.1148594e-17
1.00603248e-17
7.16822951e-18
7.34585675e-18
6.67280925e-18
7.33216437e-18
8.07166777e-18
8.18171468e-18
1.16150959e-17
1.12289893e-17
1.24835152e-17
1.4688024e-17
9.56761773e-18
1.24023614e-17
1.02532291e-17
1.17941695e-17
8.443478e-18
8.27669216e-18
9.86404592e-18
7.49832881e-18
8.27248906e-18
1.06467688e-17
1.15756068e-17
1.12985969e-17
1.47148097e-17
1.25999464e-17
1.59512537e-17
1.48982943e-17
1.45980909e-17
1.36082767e-17
1.1201216e-17
1.40379635e-17
1.08101694e-17
1.27919563e-17
1.02379906e-17
1.31893707e-17
1.59479342e-17
1.6948832e-17
2.10336997e-17
2.41647705e-17
2.231145e-17
2.17778825e-17
2.03329435e-17
1.96888788e-17
2.29778136e-17
2.17734114e-17
1.93929828e-17
2.10051631e-17
1.96797699e-17
2.3417915e-17
2.28544135e-17
2.11145591e-17
2.20915578e-17
2.290565e-17
1.91999689e-17
2.06577909e-17
2.25824234e-17
2.12645641e-17
2.18130335e-17
2.46333638e-17
2.35724404e-17
2.67806733e-17
2.72503392e-17
2.50688498e-17
2.6707733e-17
2.64261618e-17
2.40165988e-17
2.46470774e-17
2.36631415e-17
2.39001179e-17
2.57320172e-17
2.23532659e-17
2.34270864e-17
2.2414217e-17
2.31461085e-17
2.35777169e-17
2.36118061e-17
2.58677674e-17
2.72643176e-17
2.52772798e-17
2.56130297e-17
2.69530007e-17
2.62340817e-17
3.04557585e-17
3.1680406e-17
2.90290066e-17
2.85265959e-17
2.70973893e-17
3.02717651e-17
3.11994491e-17
3.07124082e-17
2.61562336e-17
2.63962783e-17
2.89418812e-17
2.99350251e-17
2.82615197e-17
2.77921078e-17
3.12927473e-17
3.34406329e-17
2.84791586e-17
2.87717316e-17
2.93367658e-17
2.9587045e-17
2.88689261e-17
2.64164087e-17
2.84789824e-17
2.79926146e-17
3.12312207e-17
3.60579793e-17
3.44738944e-17
3.35694263e-17
3.18904829e-17
3.05619054e-17
3.24845386e-17
2.90782239e-17
3.01618814e-17
2.94164999e-17
3.10133528e-17
2.97813278e-17
3.16091896e-17
3.25344861e-17
3.35346869e-17
3.39163658e-17
3.29741927e-17
3.45881963e-17
3.59053768e-17
3.68057648e-17
3.72940723e-17
3.56388798e-17
3.43733264e-17
3.16536935e-17
2.97722125e-17
2.88822573e-17
3.04218506e-17
2.85087968e-17
3.12546641e-17
2.96653845e-17
3.12273413e-17
2.68868453e-17
2.97786821e-17
2.7465475e-17
2.63255603e-17
2.39427638e-17
2.63009759e-17
2.1828376e-17
2.28959668e-17
1.93656065e-17
2.19677061e-17
2.09381245e-17
1.831478e-17
1.80620416e-17
1.44526006e-17
1.39159465e-17
1.44236087e-17
1.16551067e-17
1.25881052e-17
1.31171016e-17
1.26462734e-17
8.86741646e-18
9.91246045e-18
1.13395046e-17
1.12202999e-17
1.23825282e-17
1.22333297e-17
1.61257178e-17
1.66662663e-17
1.39529641e-17
1.51103114e-17
1.37162853e-17
1.27437127e-17
1.41811003e-17
1.342737e-17
1.38454779e-17
1.51571589e-17
1.33134882e-17
1.21456992e-17
1.2871375e-17
1.23919557e-17
1.33450812e-17
1.6031022e-17
1.65819436e-17
1.77129905e-17
1.64672953e-17
1.61847456e-17
1.60444243e-17
1.82945184e-17
1.91677751e-17
2.01702319e-17
1.94425391e-17
2.51960729e-17
2.47453263e-17
2.55493694e-17
2.60342674e-17
2.36667873e-17
2.51490131e-17
1.96824307e-17
1.90314091e-17
2.25370691e-17
2.24268182e-17
2.10839678e-17
2.19942391e-17
2.03790766e-17
2.08134548e-17
2.05281448e-17
2.12544521e-17
2.07233519e-17
2.07016831e-17
2.23754153e-17
2.28645647e-17
2.40921495e-17
2.00717045e-17
1.83868057e-17
1.56946962e-17
1.58572024e-17
1.45835495e-17
1.52019079e-17
1.21197723e-17
9.70973968e-18
1.14242179e-17
9.14459086e-18
8.93678201e-18
5.95970396e-18
7.54669518e-18
5.15670001e-18
4.15973124e-18
5.8601899e-18
3.79280134e-18
4.02512159e-18
4.42277367e-18
-5.83475466e-19
-2.45194546e-18
1.07138094e-18
-2.64469898e-18
-1.45461811e-18
-3.25841676e-18
-4.35137863e-18
-5.43637955e-18
-8.92675015e-18
-8.70288193e-18
-1.10912918e-17
-1.16426603e-17
-1.33416099e-17
-1.41915444e-17
-1.56201261e-17
-1.56857511e-17
-1.51751968e-17
-2.04383325e-17
-2.11397675e-17
-1.95397725e-17
-1.61208103e-17
-1.84810386e-17
-2.03293735e-17
-2.16547033e-17
-2.24843099e-17
-2.21951841e-17
-2.48840718e-17
-2.26335603e-17
-2.68917951e-17
-2.24445732e-17
-2.43042164e-17
-2.45800898e-17
-2.62356945e-17
-2.85387681e-17
-2.98506918e-17
-2.92265727e-17
-2.93079922e-17
-2.84012927e-17
-2.62994557e-17
-2.30141118e-17
-2.40280363e-17
-2.19663377e-17
-2.25398865e-17
-2.10770743e-17
-2.42675279e-17
-2.52254988e-17
-2.50662868e-17
-2.53467449e-17
-2.49787257e-17
-2.59660063e-17
-2.79422685e-17
-2.72603786e-17
-2.81148904e-17
-3.10003317e-17
-3.11242924e-17
-3.00375764e-17
-3.19068659e-17
-2.64984067e-17
-2.56975895e-17
-2.58230159e-17
-2.51609981e-17
-3.01759927e-17
-3.2227714e-17
-3.18477842e-17
-3.31657464e-17
-3.30273346e-17
-3.2762912e-17
-3.49257776e-17
-3.26444229e-17
-3.19057369e-17
-3.4241664e-17
-3.48089217e-17
-3.4118204e-17
-3.17658218e-17
-3.68344798e-17
-2.81870947e-17
-2.97025188e-17
-3.39133298e-17
-2.67714073e-17
-2.99825645e-17
-3.2148614e-17
-3.06639668e-17
-3.20135333e-17
-3.55697083e-17
-3.16629281e-17
-3.11238303e-17
-3.14208031e-17
-2.98667472e-17
-2.60610631e-17
-3.18975607e-17
-3.42284214e-17
-3.03569785e-17
-3.20756181e-17
-3.38754446e-17
-3.17327008e-17
-3.49393936e-17
-3.36765407e-17
-3.42109199e-17
-3.1079985e-17
-3.31904835e-17
-3.33186705e-17
-3.41659494e-17
-3.09925574e-17
-3.14607833e-17
-3.30568887e-17
-3.50859552e-17
-3.48349957e-17
-3.34536165e-17
-3.39942204e-17
-3.31161657e-17
-2.98045416e-17
-2.93801239e-17
-2.89210093e-17
-2.76642733e-17
-2.57359461e-17
-2.68626924e-17
-2.5727579e-17
-2.4518586e-17
-2.76992919e-17
-2.78959391e-17
-2.82728425e-17
-2.93938058e-17
-2.94154536e-17
-3.05474746e-17
-3.23947123e-17
-2.89514071e-17
-2.72095339e-17
-3.01940852e-17
-3.34235003e-17
-3.37452522e-17
-3.18205634e-17
-2.76161363e-17
-2.43370665e-17
-2.61948526e-17
-2.47589389e-17
-2.50479598e-17
-2.39034681e-17
-2.37501859e-17
-2.39310001e-17
-1.914813e-17
-1.76764887e-17
-2.03072982e-17
-1.68822816e-17
-1.87566071e-17
-2.1044645e-17
-1.91894112e-17
-2.03343481e-17
-2.5227479e-17
-2.15834102e-17
-2.3597038e-17
-2.40822157e-17
-2.46432257e-17
-2.54612633e-17
-2.58161737e-17
-2.3304258e-17
-2.24878369e-17
-2.31403423e-17
-2.16748503e-17
-2.24956446e-17
-2.01585758e-17
-2.15904752e-17
-1.65828778e-17
-1.59224344e-17
-1.48046926e-17
-1.59030518e-17
-1.84599554e-17
-1.88086186e-17
-1.77457718e-17
-1.7559776e-17
-1.46224122e-17
-1.15906806e-17
-8.71242879e-18
-1.0395473e-17
-9.56355709e-18
-9.32362467e-18
-9.17174016e-18
-9.38540077e-18
-1.0655431e-17
-1.41956848e-17
-1.20522382e-17
-1.33607711e-17
-1.06505207e-17
-1.04624635e-17
-1.50755169e-17
-1.60968571e-17
-1.57258213e-17
-1.76859429e-17
-1.45107248e-17
-1.73177817e-17
-1.76853405e-17
-1.97129058e-17
-1.74003747e-17
-1.78236352e-17
-1.75981905e-17
-1.79779204e-17
-1.77333838e-17
-1.95074636e-17
-1.55908958e-17
-1.48826431e-17
-1.34481139e-17
-1.65576117e-17
-2.05399006e-17
-1.82816097e-17
-1.72445804e-17
-1.61601467e-17
-1.28375403e-17
-1.15715718e-17
-1.1767229e-17
-1.19895978e-17
-1.1894717e-17
-9.97628446e-18
-1.55567961e-17
-1.38468011e-17
-1.23186765e-17
-1.13764096e-17
-1.3655878e-17
-1.17418639e-17
-1.19150531e-17
-1.07928814e-17
-1.15681273e-17
-1.08468859e-17
-1.12202273e-17
-1.09969723e-17
-1.07197049e-17
-1.35541732e-17
-9.77272215e-18
-9.56488559e-18
-5.85478652e-18
-4.5464281e-18
-6.46121329e-18
-6.88563599e-18
-6.76690278e-18
-6.84857203e-18
-6.40466136e-18
-4.93369234e-18
-4.03774453e-18
-5.76933233e-18
-6.12368357e-18
-6.35220942e-18
-3.39405637e-18
-3.93898348e-18
-5.01907811e-18
-6.70756292e-18
-2.23490348e-18
-3.37679263e-18
-3.27902934e-18
-2.46372606e-18
-1.29877302e-19
5.55409485e-19
2.08791012e-18
-2.48660432e-18
7.8613675e-19
1.56414665e-18
-3.06284487e-19
2.89539938e-18
4.35959521e-18
4.65530175e-18
3.82252339e-18
2.11755125e-18
3.06265594e-18
-6.12920061e-19
1.35160123e-18
1.21785517e-18
2.26325747e-18
4.0237157e-18
5.10004794e-18
5.7318733e-18
5.78697149e-18
3.76034629e-18
-1.72567848e-19
-2.8581081e-18
3.17571306e-18
1.49212645e-18
-1.86772997e-18
-4.09453797e-18
-3.10747051e-18
-2.78858545e-18
-4.15706432e-18
-3.47395066e-19
-1.66052755e-18
-4.8768794e-19
-1.42426917e-18
-3.25132749e-19
1.21992217e-18
2.01557681e-18
-1.15707312e-19
1.42646207e-18
2.97420392e-18
5.05559164e-18
-6.93572878e-19
-2.64157462e-18
-1.27198598e-18
-5.24439878e-18
-5.1074235e-18
-4.50330784e-18
-5.5625453e-18
-6.60882571e-18
-7.73142735e-18
-9.11285982e-18
-1.03019025e-17
-9.03997651e-18
-1.02700206e-17
-9.60592497e-18
-1.22036423e-17
-5.87121391e-18
-5.01245684e-18
-5.52951139e-18
-5.68185196e-18
-6.61928228e-18
-4.97222645e-18
-6.82135716e-18
-7.75831118e-18
-7.84639832e-18
-6.47065972e-18
-5.08961161e-18
-6.33513098e-18
-6.17663332e-18
-4.01728019e-18
-6.72657768e-18
-7.27536844e-18
-8.0730074e-18
-9.87140347e-18
-1.15381438e-17
-1.00316603e-17
-9.48225255e-18
-7.61054331e-18
-8.67921567e-18
-9.06401673e-18
-9.89258712e-18
-8.21524102e-18
-8.9618878e-18
-1.24578207e-17
-1.12384072e-17
-1.10510747e-17
-1.1184407e-17
-1.19613282e-17
-1.14020945e-17
-1.23393375e-17
-9.84082285e-18
-1.14633748e-17
-1.11433785e-17
-1.43356552e-17
-1.42722423e-17
-1.42521688e-17
-1.61598758e-17
-1.56482655e-17
-1.56245958e-17
-1.66490727e-17
-1.52614438e-17
-1.49245201e-17
-1.51481677e-17
-1.73171095e-17
-1.61863266e-17
-1.24196203e-17
-1.03920848e-17
-1.17431276e-17
-9.70767897e-18
-9.32931029e-18
-1.62032831e-17
-1.43103707e-17
-1.38077799e-17
-1.38499351e-17
-1.07895281e-17
-9.61476555e-18
-1.38939068e-17
-1.49156903e-17
-1.42913058e-17
-1.34879262e-17
-9.24345955e-18
-1.30358082e-17
-9.5743929e-18
-1.1014867e-17
-1.10994715e-17
-1.2081988e-17
-1.40470048e-17
-1.72312803e-17
-1.87997383e-17
-1.64226025e-17
-1.97393042e-17
-1.82438818e-17
-1.66079364e-17
-2.01120496e-17
-1.75900095e-17
-1.88306076e-17
-1.74338094e-17
-1.97032502e-17
-1.98192352e-17
-2.0302418e-17
-2.18259579e-17
-1.93656943e-17
-2.34093391e-17
-2.31207107e-17
-2.41168394e-17
-2.18443669e-17
-2.11808239e-17
-2.40447292e-17
-2.27814385e-17
-2.47081747e-17
-2.44717015e-17
-2.62254136e-17
-2.56531267e-17
-2.31890948e-17
-2.36560356e-17
-2.32847224e-17
-2.30993344e-17
-2.52284537e-17
-2.27068243e-17
-2.76379237e-17
-2.84133863e-17
-2.68617354e-17
-2.59751328e-17
-2.07343142e-17
-2.4651839e-17
-2.36949039e-17
-2.57919131e-17
-2.67711721e-17
-2.37189268e-17
-2.44520841e-17
-2.52541015e-17
-2.30506381e-17
-2.09941099e-17
-2.16569464e-17
-1.83558959e-17
-1.57903929e-17
-1.8324002e-17
-1.85276311e-17
-2.1120655e-17
-2.01335588e-17
-2.00398229e-17
-1.91808919e-17
-1.80093541e-17
-1.85185104e-17
-1.68373692e-17
-1.94675555e-17
-1.65540027e-17
-1.56805228e-17
-1.70574849e-17
-1.52841199e-17
-1.60390363e-17
-1.57042208e-17
-1.65590704e-17
-1.28054868e-17
-1.55364098e-17
-1.67256952e-17
-1.63232849e-17
-1.65076292e-17
-1.55389722e-17
-1.47597246e-17
-1.47065801e-17
-1.43928689e-17
-1.61909983e-17
-1.47294044e-17
-1.80993329e-17
-2.0622695e-17
-2.23937419e-17
-2.12926922e-17
-1.89985272e-17
-2.18143514e-17
-2.01260457e-17
-2.01386477e-17
-2.01043786e-17
-1.99462558e-17
-2.00261748e-17
-1.75383655e-17
-1.5911004e-17
-1.4800326e-17
-1.5558445e-17
-1.52762365e-17
-1.69954845e-17
-1.63251701e-17
-1.77908246e-17
-2.06153236e-17
-2.15982236e-17
-2.04625232e-17
-1.91000658e-17
-2.01351504e-17
-1.83615523e-17
-2.08071431e-17
-2.02549894e-17
-2.14607361e-17
-2.20667512e-17
-1.48267879e-17
-1.66227453e-17
-1.61706698e-17
-1.43509497e-17
-1.52123756e-17
-1.46517573e-17
-1.0582784e-17
-1.66615127e-17
-1.93468392e-17
-1.40247622e-17
-1.64348729e-17
-1.24329389e-17
-1.25985395e-17
-1.57941285e-17
-1.31737065e-17
-1.55672779e-17
-1.25919203e-17
-1.06346352e-17
-1.10614468e-17
-1.3124816e-17
-1.38806355e-17
-1.03420819e-17
-7.31216711e-18
-9.2315506e-18
-1.27409616e-17
-1.08158592e-17
-1.28113553e-17
-1.29170111e-17
-1.46927503e-17
-1.18663405e-17
-1.40389341e-17
-1.12251623e-17
-1.34535332e-17
-1.21267251e-17
-1.38582269e-17
-1.56937763e-17
-1.65842916e-17
-1.30929911e-17
-1.5157104e-17
-1.42512442e-17
-1.34153207e-17
-1.5713346e-17
-1.71164845e-17
-1.66582112e-17
-1.57039365e-17
-1.386403e-17
-1.60130038e-17
-1.61014496e-17
-1.37466086e-17
-1.1645728e-17
-1.01139444e-17
-7.61307669e-18
-6.3392602e-18
-6.29828426e-18
-7.02922527e-18
-8.03667515e-18
-5.249135e-18
-3.87765044e-18
-3.1551131e-18
-4.59733997e-18
-8.44650109e-18
-8.45196575e-18
-1.03629295e-17
-8.03653355e-18
-6.25410413e-18
-6.63900657e-18
-6.31690499e-18
-1.99326167e-18
-3.07863408e-18
-4.0827214e-18
-4.80470821e-18
-3.20655266e-18
-7.95619032e-19
-6.82541261e-19
-2.38601572e-18
1.57737502e-18
3.8241031e-19
1.4562568e-18
7.22732404e-19
1.27916359e-18
-8.38193014e-19
-7.43457919e-19
-1.87252007e-18
-2.50029289e-18
5.27943452e-19
1.35457556e-18
1.48385591e-18
-1.24670639e-18
-2.66145749e-18
-3.14270752e-18
-4.31404597e-18
-3.67172655e-18
-4.85206844e-18
-3.78063264e-18
-2.18755047e-18
-3.48163029e-18
-6.47220043e-18
-4.8523968e-18
-6.85775542e-18
-7.27925956e-18
-6.70088679e-18
-6.9379125e-18
-6.66930319e-18
-1.23003695e-18
-2.13219249e-18
-2.12705577e-18
-1.48070032e-18
1.66742491e-18
4.32086381e-18
3.27926e-18
4.7263763e-18
3.61250889e-18
8.82952136e-18
8.91465196e-18
7.71194528e-18
8.73912535e-18
8.16400672e-18
8.84205702e-18
7.47007195e-18
8.18993643e-18
6.9112819e-18
6.37130422e-18
7.30267493e-18
6.03228639e-18
8.56486667e-18
7.25531527e-18
5.14739914e-18
3.67905976e-18
5.49662689e-18
4.58433538e-18
4.48580581e-19
2.80507299e-18
3.06861727e-18
2.31670506e-18
4.89450764e-18
7.60271061e-18
6.30891495e-18
7.80589929e-18
1.04057639e-17
1.21775602e-17
1.32304066e-17
1.0711787e-17
9.31319408e-18
5.56163398e-18
6.82031414e-18
8.19104855e-18
5.7712341e-18
5.33890985e-18
4.75442931e-18
4.54401198e-18
5.13595128e-18
5.23629682e-18
5.55676605e-18
8.45291084e-18
8.15344045e-18
9.10882935e-18
7.29362624e-18
9.78026892e-18
1.17864614e-17
1.20279052e-17
1.2371081e-17
1.26662437e-17
1.36426124e-17
1.4439445e-17
1.38091106e-17
1.34870355e-17
1.21450614e-17
1.44192429e-17
1.34852516e-17
1.3753367e-17
1.39805555e-17
1.38453947e-17
1.3566712e-17
1.38384994e-17
1.58951439e-17
1.60745283e-17
1.77787299e-17
1.68368617e-17
1.49899646e-17
1.95744331e-17
2.17123978e-17
2.34073502e-17
2.45975262e-17
2.74297958e-17
2.533636e-17
2.71238261e-17
2.80578891e-17
2.82665922e-17
2.58926099e-17
2.64776909e-17
2.87052275e-17
3.18770319e-17
3.3400111e-17
2.99889352e-17
2.87026224e-17
2.73021079e-17
3.0931481e-17
2.9524984e-17
3.00209489e-17
3.04263159e-17
3.19144019e-17
3.11889732e-17
3.03325289e-17
3.49094377e-17
3.40365995e-17
3.62560151e-17
3.67477466e-17
3.60830439e-17
3.78167065e-17
4.00277284e-17
4.04507894e-17
4.13942054e-17
4.02936734e-17
4.13049318e-17
4.02588355e-17
4.09846508e-17
3.86595179e-17
4.04756119e-17
3.78589565e-17
3.85137155e-17
4.00586692e-17
3.74908417e-17
4.03478745e-17
4.08408534e-17
3.86686114e-17
4.09083377e-17
4.38190237e-17
4.248342e-17
4.76142568e-17
4.60625097e-17
4.67554357e-17
4.74087147e-17
4.62723932e-17
4.54670842e-17
4.5066359e-17
4.26520356e-17
4.60607124e-17
4.67826729e-17
4.64983415e-17
4.40316836e-17
4.71680268e-17
4.63932397e-17
4.52705578e-17
4.69398031e-17
4.38211284e-17
4.44365259e-17
4.54117955e-17
4.61357925e-17
5.16295497e-17
5.08261722e-17
5.53630275e-17
5.36283701e-17
5.55931829e-17
5.70917992e-17
5.93764378e-17
6.10326768e-17
6.04625502e-17
5.8875643e-17
5.94501175e-17
5.89546049e-17
5.91789826e-17
5.53362534e-17
5.64531021e-17
5.6445165e-17
5.92827483e-17
6.10038575e-17
5.72499582e-17
5.75541532e-17
5.41616213e-17
5.77484517e-17
5.71205473e-17
5.77351106e-17
5.56997094e-17
5.51511048e-17
5.16301208e-17
5.14066264e-17
5.59389152e-17
5.81250016e-17
5.44500651e-17
5.19641595e-17
5.4284277e-17
5.58391145e-17
5.52245356e-17
5.5917392e-17
5.84244502e-17
5.7512134e-17
5.95429414e-17
6.31338531e-17
6.05706293e-17
6.18423174e-17
6.30878868e-17
5.9542276e-17
6.22080244e-17
6.26070731e-17
6.336867e-17
6.50309898e-17
6.39164086e-17
6.5462293e-17
6.20281502e-17
6.14525223e-17