/*--------------------------------*- C++ -*----------------------------------*\
| =========                 |                                                 |
| \\      /  F ield         | OpenFOAM: The Open Source CFD Toolbox           |
|  \\    /   O peration     | Version:  2206                                  |
|   \\  /    A nd           | Website:  www.openfoam.com                      |
|    \\/     M anipulation  |                                                 |
\*---------------------------------------------------------------------------*/
FoamFile
{
    version     2.0;
    format      ascii;
    arch        "LSB;label=32;scalar=64";
    class       volScalarField;
    location    "5.4e-06";
    object      PVsourcePV;
}
// * * * * * * * * * * * * * * * * * * * * * * * * * * * * * * * * * * * * * //

dimensions      [1 -3 -1 0 0 0 0];

internalField   nonuniform List<scalar> 
3183
(
0
0
0
0
0
0
0
0
0
0
0
0
0
0
0
0
0
0
0
0
0
0
0
0
0
0
0
0
0
0
0
0
0
0
0
0
0
0
0
0
0
0
0
0
0
0
0
0
0
0
0
0
0
0
0
0
0
0
0
0
0
0
0
0
0
0
0
0
0
0
0
0
0
0
0
0
0
0
0
0
0
0
0
0
0
0
0
0
0
0
0
0
0
0
0
0
0
0
0
0
0
0
0
0
0
0
0
0
0
0
0
0
0
0
0
0
0
0
0
0
0
0
0
0
0
0
0
0
0
0
0
0
0
0
0
0
0
0
0
0
0
0
0
0
0
0
0
0
0
0
0
0
0
0
0
0
0
0
0
0
0
0
0
0
0
0
0
0
0
0
0
0
0
0
0
0
0
0
0
0
0
0
0
0
0
0
0
0
0
0
0
0
0
0
0
0
0
0
0
0
0
0
0
0
0
0
0
0
0
0
0
0
0
0
0
0
0
0
0
0
0
0
0
0
0
0
0
0
0
0
0
0
0
0
0
0
0
0
0
0
0
0
0
0
0
0
0
0
0
0
0
0
0
0
0
0
0
0
0
0
0
0
0
0
0
0
0
0
0
0
0
0
0
0
0
0
0
0
0
0
0
0
0
0
0
0
0
0
0
0
0
0
0
0
0
0
0
0
0
0
0
0
0
0
0
0
0
0
0
0
0
0
0
0
0
0
0
0
0
0
0
0
0
0
0
0
0
0
0
0
0
0
0
0
0
0
0
0
0
0
0
0
0
0
0
0
0
0
0
0
0
0
0
0
0
0
0
0
0
0
0
0
0
0
0
0
0
0
0
0
0
0
0
0
0
0
0
0
0
0
0
0
0
0
0
0
0
0
0
0
0
0
0
0
0
0
0
0
0
0
0
0
0
0
0
0
0
0
0
0
0
0
0
0
0
0
0
0
0
0
0
0
0
0
0
0
0
0
0
0
0
0
0
0
0
0
0
0
0
0
0
0
0
0
0
0
0
0
0
0
0
0
0
0
0
0
0
0
0
0
0
0
0
0
0
0
0
0
0
0
0
0
0
0
0
0
0
0
0
0
0
0
0
0
0
0
0
0
0
0
0
0
0
0
0
0
0
0
0
0
0
0
0
0
0
0
0
0
0
0
0
0
0
0
0
0
0
0
0
0
0
0
0
0
0
0
0
0
0
0
0
0
0
0
0
0
0
0
0
0
0
0
0
0
0
0
0
0
0
0
0
0
0
0
0
0
0
0
0
0
0
0
0
0
0
0
0
0
0
0
0
0
0
0
0
0
0
0
0
0
0
0
0
0
0
0
0
0
0
0
0
0
0
0
0
0
0
0
0
0
0
0
0
0
0
0
0
0
0
0
0
0
0
0
0
0
0
0
0
0
0
0
0
0
0
0
0
0
0
0
0
0
0
0
0
0
0
0
0
0
0
0
0
0
0
0
0
0
0
0
0
0
0
0
0
0
0
0
0
0
0
0
0
0
0
0
0
0
0
0
0
0
0
0
0
0
0
0
0
0
0
0
0
0
0
0
0
0
0
0
0
0
0
0
0
0
0
0
0
0
0
0
0
0
0
0
0
0
0
0
0
0
0
0
0
0
0
0
0
0
0
0
0
0
0
0
0
0
0
0
0
0
0
0
0
0
0
0
0
0
0
0
0
0
0
0
0
0
0
0
0
0
0
0
0
0
0
0
0
0
0
0
0
0
0
0
0
0
0
0
0
0
0
0
0
0
0
0
0
0
0
0
0
0
0
0
0
0
0
0
0
0
0
0
0
0
0
0
0
0
0
0
0
0
0
0
0
0
0
0
0
0
0
0
0
0
0
0
0
0
0
0
0
0
0
0
0
0
0
0
0
0
0
0
0
0
0
0
0
0
0
0
0
0
0
0
0
0
0
0
0
0
0
0
0
0
0
0
0
0
0
0
0
0
0
0
0
0
0
0
0
0
0
0
0
0
0
0
0
0
0
0
0
0
0
0
0
0
0
0
0
0
0
0
0
0
0
0
0
0
0
0
0
0
0
0
0
0
0
0
0
0
0
0
0
0
0
0
0
0
0
0
0
0
0
0
0
0
0
0
0
0
0
0
0
0
0
0
0
0
0
0
0
0
0
0
0
0
0
0
0
0
0
0
0
0
0
0
0
0
0
0
0
0
0
0
0
0
0
0
0
0
0
0
0
0
0
0
0
0
0
0
0
0
0
0
0
0
0
0
0
0
0
0
0
0
0
0
0
0
0
0
0
0
0
0
0
0
0
0
0
0
0
0
0
0
0
0
0
0
0
0
0
0
0
0
0
0
0
0
0
0
0
0
0
0
0
0
0
0
0
0
0
0
0
0
0
0
0
0
0
0
0
0
0
0
0
0
0
0
0
0
0
0
0
0
0
0
0
0
0
0
0
0
0
0
0
0
0
0
0
0
0
0
0
0
0
0
0
0
0
0
0
0
0
0
0
0
0
0
0
0
0
0
0
0
0
0
0
0
0
0
0
0
0
0
0
0
0
0
0
0
0
0
0
0
0
0
0
0
0
0
0
0
0
0
0
0
0
0
0
0
0
0
0
0
0
0
0
0
0
0
0
0
0
0
0
0
0
0
0
0
0
0
0
0
0
0
0
0
0
0
0
0
0
0
0
0
0
0
0
0
0
0
0
0
0
0
0
0
0
0
0
0
0
0
0
0
0
0
0
0
0
0
0
0
0
0
0
0
0
0
0
0
0
0
0
0
0
0
0
0
0
0
0
0
0
0
0
0
0
0
0
0
0
0
0
0
0
0
0
0
0
0
0
0
0
0
0
0
0
0
0
0
0
0
0
0
0
0
0
0
0
0
0
0
0
0
0
0
0
0
0
0
0
0
0
0
0
0
0
0
0
0
0
0
0
0
0
0
0
0
0
0
0
0
0
0
0
0
0
0
0
0
0
0
0
0
0
0
0
0
0
0
0
0
0
0
0
0
0
0
0
0
0
0
0
0
0
0
0
0
0
0
0
0
0
0
0
0
0
0
0
0
0
0
0
0
0
0
0
0
0
0
0
0
0
0
0
0
0
0
0
0
0
0
0
0
0
0
0
0
0
0
0
0
0
0
0
0
0
0
0
0
0
0
0
0
0
0
0
0
0
0
0
0
0
0
0
0
0
0
0
0
0
0
0
0
0
0
0
0
0
0
0
0
0
0
0
0
0
0
0
0
0
0
0
0
0
0
0
0
0
0
0
0
0
0
0
0
0
0
0
0
0
0
0
0
0
0
0
0
0
0
0
0
0
0
0
0
0
0
0
0
0
0
0
0
0
0
0
0
0
0
0
0
0
0
0
0
0
0
0
0
0
0
0
0
0
0
0
0
0
0
0
0
0
0
0
0
0
0
0
0
0
0
0
0
0
0
0
0
0
0
0
0
0
0
0
0
0
0
0
0
0
0
0
0
0
0
0
0
0
0
0
0
0
0
0
0
0
0
0
0
0
0
0
0
0
0
0
0
0
0
0
0
0
0
0
0
0
0
0
0
0
0
0
0
0
0
0
0
0
0
0
0
0
0
0
0
0
0
0
0
0
0
0
0
0
0
0
0
0
0
0
0
0
0
0
0
0
0
0
0
0
0
0
0
0
0
0
0
0
0
0
0
0
0
0
0
0
0
0
0
0
0
0
0
0
0
0
0
0
0
0
0
0
0
0
0
0
0
0
0
0
0
0
0
0
0
0
0
0
0
0
0
0
0
0
0
0
0
0
0
0
0
0
0
0
0
0
0
0
0
0
0
0
0
0
0
0
0
0
0
0
0
0
0
0
0
0
0
0
0
0
0
0
0
0
0
0
0
0
0
0
0
0
0
0
0
0
0
0
0
0
0
0
0
0
0
0
0
0
0
0
0
0
0
0
0
0
0
0
0
0
0
0
0
0
0
0
0
0
0
0
0
0
0
0
0
0
0
0
0
0
0
0
0
0
0
0
0
0
0
0
0
0
0
0
0
0
0
0
0
0
0
0
0
0
0
0
0
0
0
0
0
0
0
0
0
0
0
0
0
0
0
0
0
0
0
0
0
0
0
0
0
0
0
0
0
0
0
0
0
0
0
0
0
0
0
0
0
0
0
0
0
0
0
0
0
0
0
0
0
0
0
0
0
0
0
0
0
0
0
0
0
0
0
0
0
0
0
0
0
0
0
0
0
0
0
0
0
0
0
0
0
0
0
0
0
0
0
0
0
0
0
0
0
0
0
0
0
0
0
0
0
0
0
0
0
0
0
0
0
0
0
0
0
0
0
0
0
0
0
0
0
0
0
0
0
0
0
0
0
0
0
0
0
0
0
0
0
0
0
0
0
0
0
0
0
0
0
0
0
0
0
0
0
0
0
0
0
0
0
0
0
0
0
0
0
0
0
0
0
0
0
0
0
0
0
0
0
0
0
0
0
0
0
0
0
0
0
0
0
0
0
0
0
0
0
0
0
0
0
0
0
0
0
0
0
0
0
0
0
0
0
0
0
0
0
0
0
0
0
0
0
0
0
0
0
0
0
0
0
0
0
0
0
0
0
0
0
0
0
0
0
0
0
0
0
0
0
0
0
0
0
0
0
0
0
0
0
0
0
0
0
0
0
0
0
0
0
0
0
0
0
0
0
0
0
0
0
0
0
0
0
0
0
0
0
0
0
0
0
0
0
0
0
0
0
0
0
0
0
0
0
0
0
0
0
0
0
0
0
0
0
0
0
0
0
0
0
0
0
0
0
0
0
0
0
0
0
0
0
0
0
0
0
0
0
0
0
0
0
0
0
0
0
0
0
0
0
0
0
0
0
0
0
0
0
0
0
0
0
0
0
0
0
0
0
0
0
0
0
0
0
0
0
0
0
0
0
0
0
0
0
0
0
0
0
0
0
0
0
0
0
0
0
0
0
0
0
0
0
0
0
0
0
0
0
0
0
0
0
0
0
0
0
0
0
0
0
0
0
0
0
0
0
0
0
0
0
0
0
0
0
0
0
0
0
0
0
0
0
0
0
0
0
0
0
0
0
0
0
0
0
0
0
0
0
0
0
0
0
0
0
0
0
0
0
0
0
0
0
0
0
0
0
0
0
0
0
0
0
0
0
0
0
0
0
0
0
0
0
0
0
0
0
0
0
0
0
0
0
0
0
0
0
0
0
0
0
0
0
0
0
0
0
0
0
0
0
0
0
0
0
0
0
0
0
0
0
0
0
0
0
0
0
0
0
0
0
0
0
0
0
0
0
0
0
0
0
0
0
0
0
0
0
0
0
0
0
0
0
0
0
0
0
0
0
0
0
0
0
0
0
0
0
0
0
0
0
0
0
0
0
0
0
0
0
0
0
0
0
0
0
0
0
0
0
0
0
0
0
0
0
0
0
0
0
0
0
0
0
0
0
0
0
0
0
0
0
0
0
0
0
0
0
0
0
0
0
0
0
0
0
0
0
0
0
0
0
0
0
0
2.40698371e-295
0
1.66083743e-287
0
5.90328067e-280
0
1.08093668e-272
0
1.01979506e-265
0
4.95870343e-259
0
1.24348399e-252
0
1.61015471e-246
0
1.07918095e-240
0
3.7611459e-235
0
5.45036407e-231
0
4.1568705e-227
0
2.19928639e-223
0
9.04140596e-220
0
3.07075688e-216
0
8.94988184e-213
0
2.29668211e-209
0
5.28543078e-206
0
1.10591886e-202
0
2.12636459e-199
0
3.78856857e-196
0
6.2978071e-193
0
9.82224909e-190
0
1.44400441e-186
0
2.0089793e-183
0
2.65395516e-180
0
3.33872643e-177
0
4.00984633e-174
0
4.60771452e-171
0
5.07561468e-168
0
5.36873537e-165
0
5.4611691e-162
0
5.34941282e-159
0
5.05180026e-156
0
4.60428812e-153
0
4.0538001e-150
0
3.45071406e-147
8.00880741e-149
2.84201506e-144
1.4973449e-145
2.26622503e-141
1.82009573e-142
1.7506337e-138
1.86154926e-139
1.31078086e-135
1.71668784e-136
9.51716047e-133
1.4694416e-133
6.70350741e-130
1.18520832e-130
4.58211245e-127
9.08794572e-128
3.0403804e-124
6.66237822e-125
1.95883304e-121
4.68769887e-122
1.22564066e-118
3.17427236e-119
7.44894839e-116
2.07276559e-116
4.39788778e-113
1.3071466e-113
2.52257392e-110
7.96991534e-111
1.40575495e-107
4.70225372e-108
7.61095206e-105
2.6863101e-105
4.00324319e-102
1.48663486e-102
2.04545859e-99
7.9724055e-100
1.01512399e-96
4.14379114e-97
4.89240626e-94
2.08771193e-94
2.28932298e-91
1.01954737e-91
1.03982167e-88
4.82581456e-89
4.58292792e-86
2.21353871e-86
1.95930703e-83
9.83670738e-84
8.12188064e-81
4.23367945e-81
3.26286678e-78
1.76407793e-78
1.26968899e-75
7.11280616e-76
4.78285833e-73
2.77360109e-73
1.74290661e-70
1.04531194e-70
6.13939397e-68
3.80474742e-68
2.0886715e-65
1.33634817e-65
6.85633349e-63
4.52496982e-63
2.16932518e-60
1.47553591e-60
6.60762409e-58
4.62805662e-58
1.93493427e-55
1.39435149e-55
5.43907703e-53
4.0290637e-53
1.46512285e-50
1.11465293e-50
3.77453839e-48
2.94660218e-48
9.27955564e-46
7.42628233e-46
2.17147808e-43
1.77978526e-43
4.82247694e-41
4.04403903e-41
1.01294482e-38
8.68180289e-39
2.00429214e-36
1.75383004e-36
3.71820669e-34
3.31787205e-34
6.43029331e-32
5.84418192e-32
1.02954464e-29
9.51781232e-30
1.51305198e-27
1.42080507e-27
2.01906173e-25
1.92289001e-25
2.41224686e-23
2.32599672e-23
2.53202211e-21
2.46724235e-21
2.27394716e-19
2.23436047e-19
1.67963427e-17
1.6625115e-17
9.56804249e-16
9.46847856e-16
2.36638986e-12
2.43002057e-12
0.140964684
0.307678379
0.641336823
0.55659711
0.0790433796
0.0654961476
0.00755713912
0.0070840125
0.00079476256
0.000784111084
7.59971383e-05
7.57219213e-05
7.02754457e-06
7.0465527e-06
1.17281918e-06
1.17216289e-06
7.19332216e-07
7.19685294e-07
6.8798777e-07
6.87988637e-07
6.85942243e-07
6.85942819e-07
6.85819715e-07
6.85820681e-07
6.85813801e-07
6.85813617e-07
6.85813244e-07
6.85813746e-07
6.85812433e-07
6.85813985e-07
6.85812466e-07
6.85812977e-07
6.85812563e-07
6.85814255e-07
6.85811945e-07
6.85813505e-07
6.85813449e-07
6.85812662e-07
6.85812746e-07
6.85812913e-07
6.85813462e-07
6.8581292e-07
6.85813555e-07
6.85812041e-07
6.85813566e-07
6.85812684e-07
6.85813795e-07
6.85812899e-07
6.85813458e-07
6.8581232e-07
6.85813659e-07
6.85813118e-07
6.85812914e-07
6.85813219e-07
6.85813371e-07
6.85812676e-07
6.85812849e-07
6.85813174e-07
6.85813326e-07
6.85812477e-07
6.85813136e-07
6.85813298e-07
6.85813081e-07
6.85812901e-07
6.85813182e-07
6.85812792e-07
6.85813486e-07
6.85812372e-07
6.85813385e-07
6.85811645e-07
6.85814042e-07
6.85811529e-07
6.85813885e-07
6.85812757e-07
6.85812619e-07
6.85813911e-07
6.85812642e-07
6.8581354e-07
6.85813244e-07
6.8581401e-07
6.85813191e-07
6.85813188e-07
6.85813418e-07
6.85813215e-07
6.85813826e-07
6.85812849e-07
6.85813101e-07
6.85813464e-07
6.85813277e-07
6.85812845e-07
6.85813597e-07
6.85813442e-07
6.85812926e-07
6.85814658e-07
6.8581308e-07
6.85813471e-07
6.85813436e-07
6.85813823e-07
6.85813655e-07
6.85812862e-07
6.85814372e-07
6.8581329e-07
6.85813711e-07
6.85813504e-07
6.8581348e-07
6.85812708e-07
6.85813724e-07
6.8581424e-07
6.85812968e-07
6.85813133e-07
6.85813795e-07
6.85812104e-07
6.85813766e-07
6.85813044e-07
6.85813417e-07
6.85813173e-07
6.8581339e-07
6.85813057e-07
6.85813264e-07
6.85813519e-07
6.85813666e-07
6.85813274e-07
6.85813501e-07
6.85813288e-07
6.85813912e-07
6.8581298e-07
6.85813509e-07
6.85813063e-07
6.8581399e-07
6.85813693e-07
6.85813588e-07
6.85813046e-07
6.85814313e-07
6.85814703e-07
6.85812826e-07
6.85814849e-07
6.85813197e-07
6.8581333e-07
6.85814375e-07
6.85812763e-07
6.85814229e-07
6.85813425e-07
6.85813499e-07
6.85813257e-07
6.85813579e-07
6.85813811e-07
6.85813465e-07
6.85813536e-07
6.85813747e-07
6.85813927e-07
6.85813289e-07
6.85813867e-07
6.85813939e-07
6.85813683e-07
6.85813862e-07
6.85814149e-07
6.8581386e-07
6.85814367e-07
6.85813335e-07
6.85813762e-07
6.85814126e-07
6.85813574e-07
6.8581388e-07
6.85813753e-07
6.85814283e-07
6.85814058e-07
6.85814707e-07
6.8581343e-07
6.8581398e-07
6.85813769e-07
6.85813842e-07
6.85813327e-07
6.85813596e-07
6.85813519e-07
6.85812971e-07
6.85813978e-07
6.85814231e-07
6.85813849e-07
6.8581379e-07
6.85815268e-07
6.85814294e-07
6.85814869e-07
6.85814171e-07
6.85814108e-07
6.85813875e-07
6.85814421e-07
6.85814348e-07
6.85813891e-07
6.8581491e-07
6.85813831e-07
6.85814428e-07
6.85814432e-07
6.85813997e-07
6.85814657e-07
6.85814424e-07
6.85813855e-07
6.85815022e-07
6.85813464e-07
6.85814863e-07
6.8581297e-07
6.85814757e-07
6.85813646e-07
6.85813997e-07
6.85814334e-07
6.85814084e-07
6.85813871e-07
6.85814481e-07
6.85814143e-07
6.85814848e-07
6.85813829e-07
6.85815286e-07
6.85813219e-07
6.85815286e-07
6.85814083e-07
6.85814785e-07
6.85814039e-07
6.85814299e-07
6.85814414e-07
6.8581457e-07
6.85815372e-07
6.85813481e-07
6.85815468e-07
6.8581379e-07
6.85814512e-07
6.85814324e-07
6.85814015e-07
6.85814769e-07
6.8581441e-07
6.85814762e-07
6.85814468e-07
6.85814573e-07
6.85814294e-07
6.8581536e-07
6.85814275e-07
6.85815122e-07
6.85814434e-07
6.85814936e-07
6.85815399e-07
6.85814102e-07
6.85815479e-07
6.85815072e-07
6.85814565e-07
6.8581455e-07
6.85814888e-07
6.85814863e-07
6.85814977e-07
6.85814253e-07
6.85814647e-07
6.8581431e-07
6.85814576e-07
6.85814471e-07
6.85815813e-07
6.85814563e-07
6.85814886e-07
6.85814373e-07
6.85815186e-07
6.85814861e-07
6.85814978e-07
6.85815566e-07
6.85814129e-07
6.8581583e-07
6.85815475e-07
6.85815575e-07
6.85814748e-07
6.8581621e-07
6.85814773e-07
6.85814881e-07
6.85814565e-07
6.85814657e-07
6.85814761e-07
6.85815519e-07
6.85815134e-07
6.85815001e-07
6.85816334e-07
6.85814471e-07
6.85815961e-07
6.85814372e-07
6.85815879e-07
6.85815017e-07
6.85815276e-07
6.85816069e-07
6.85813967e-07
6.85815581e-07
6.85815333e-07
6.8581642e-07
6.85815018e-07
6.85814825e-07
6.85815308e-07
6.85815198e-07
6.85815536e-07
6.85814826e-07
6.85815262e-07
6.85814978e-07
6.85814992e-07
6.85815733e-07
6.85814573e-07
6.85815293e-07
6.85815735e-07
6.85816358e-07
6.85815386e-07
6.85815804e-07
6.85815351e-07
6.85815567e-07
6.85815837e-07
6.858154e-07
6.85815911e-07
6.85816747e-07
6.85815092e-07
6.85816056e-07
6.8581606e-07
6.8581576e-07
6.85815901e-07
6.85814748e-07
6.85816683e-07
6.85815384e-07
6.85815966e-07
6.85816881e-07
6.85814513e-07
6.85816027e-07
6.858158e-07
6.85816061e-07
6.85816417e-07
6.85815574e-07
6.85815774e-07
6.85815716e-07
6.85816086e-07
6.85815707e-07
6.85816016e-07
6.85815508e-07
6.85815962e-07
6.85815896e-07
6.85816373e-07
6.85815264e-07
6.85815364e-07
6.85815841e-07
6.85815395e-07
6.85816632e-07
6.85815129e-07
6.85816549e-07
6.85815385e-07
6.85816356e-07
6.85816233e-07
6.85815705e-07
6.85816589e-07
6.85815638e-07
6.85816575e-07
6.85815354e-07
6.85816844e-07
6.85815989e-07
6.85816032e-07
6.85815554e-07
6.8581628e-07
6.85816112e-07
6.85815432e-07
6.85816915e-07
6.85815404e-07
6.85816978e-07
6.85815614e-07
6.85816535e-07
6.85816197e-07
6.85815951e-07
6.85815606e-07
6.85816948e-07
6.85815731e-07
6.85815784e-07
6.85817003e-07
6.85816481e-07
6.85816835e-07
6.85816683e-07
6.85816471e-07
6.85816933e-07
6.85817074e-07
6.85816058e-07
6.8581695e-07
6.85815924e-07
6.85816527e-07
6.858164e-07
6.85815819e-07
6.85816463e-07
6.85815839e-07
6.85816886e-07
6.85816065e-07
6.8581637e-07
6.85816374e-07
6.85816001e-07
6.85815953e-07
6.85816169e-07
6.85816229e-07
6.85815927e-07
6.85816492e-07
6.85815974e-07
6.85816584e-07
6.8581593e-07
6.85816249e-07
6.85815731e-07
6.85817107e-07
6.8581651e-07
6.85816681e-07
6.85816221e-07
6.85816579e-07
6.85815754e-07
6.8581672e-07
6.85816196e-07
6.8581763e-07
6.85815891e-07
6.85817203e-07
6.85814883e-07
6.85817099e-07
6.8581661e-07
6.8581707e-07
6.85816587e-07
6.85816977e-07
6.85816225e-07
6.85815949e-07
6.85816985e-07
6.85815722e-07
6.85816828e-07
6.85816218e-07
6.85815905e-07
6.85816382e-07
6.85816705e-07
6.85815949e-07
6.85816544e-07
6.85816192e-07
6.85816998e-07
6.85816046e-07
6.85816521e-07
6.85817026e-07
6.85815965e-07
6.85817625e-07
6.85816547e-07
6.8581712e-07
6.85816184e-07
6.85816783e-07
6.85816674e-07
6.858171e-07
6.85816236e-07
6.85817248e-07
6.85816637e-07
6.85816667e-07
6.85816641e-07
6.85816442e-07
6.85816351e-07
6.85816384e-07
6.85816887e-07
6.85816325e-07
6.85817034e-07
6.85816609e-07
6.85816676e-07
6.85817462e-07
6.8581585e-07
6.85816239e-07
6.8581693e-07
6.85815685e-07
6.85817178e-07
6.85816862e-07
6.85816423e-07
6.85816421e-07
6.85816813e-07
6.8581659e-07
6.85815788e-07
6.85816948e-07
6.85816499e-07
6.85816187e-07
6.85816473e-07
6.85816357e-07
6.8581724e-07
6.8581572e-07
6.85817555e-07
6.85816232e-07
6.85817264e-07
6.85816094e-07
6.858162e-07
6.8581685e-07
6.85816061e-07
6.85817082e-07
6.85816482e-07
6.85816566e-07
6.85815912e-07
6.8581656e-07
6.85815684e-07
6.85816496e-07
6.85816565e-07
6.85816631e-07
6.85816416e-07
6.85816024e-07
6.85816918e-07
6.85816424e-07
6.85816704e-07
6.85815991e-07
6.85816413e-07
6.85817064e-07
6.85816554e-07
6.85816745e-07
6.8581686e-07
6.85816053e-07
6.85816762e-07
6.85816192e-07
6.85817079e-07
6.85816069e-07
6.85817415e-07
6.85815494e-07
6.85816767e-07
6.8581662e-07
6.85816398e-07
6.85816998e-07
6.85816562e-07
6.85816668e-07
6.85816295e-07
6.85816348e-07
6.85816786e-07
6.85816171e-07
6.8581668e-07
6.85816351e-07
6.85816691e-07
6.85816633e-07
6.85816365e-07
6.85816425e-07
6.85816549e-07
6.85816371e-07
6.85816455e-07
6.85816535e-07
6.85816514e-07
6.85816427e-07
6.85816427e-07
6.85816399e-07
6.85816446e-07
6.85816472e-07
6.85816464e-07
6.85816478e-07
6.85816453e-07
6.85816453e-07
6.85816466e-07
6.85816454e-07
6.85816492e-07
6.85816472e-07
6.85816435e-07
6.85816448e-07
6.85816472e-07
6.85816465e-07
6.85816464e-07
6.85816466e-07
6.85816461e-07
6.85816461e-07
6.85816466e-07
6.8581646e-07
6.85816468e-07
6.85816443e-07
6.85816467e-07
6.85816454e-07
6.85816456e-07
6.85816458e-07
6.85816459e-07
6.85816459e-07
6.85816473e-07
6.85816455e-07
6.85816459e-07
6.85816453e-07
6.85816453e-07
6.85816464e-07
6.85816463e-07
6.85816465e-07
6.85816463e-07
6.85816446e-07
6.85816465e-07
6.85816461e-07
6.85816458e-07
6.85816467e-07
6.85816455e-07
6.85816474e-07
6.85816459e-07
6.85816468e-07
6.85816455e-07
6.85816455e-07
6.85816469e-07
6.85816455e-07
6.85816452e-07
6.85816465e-07
)
;

boundaryField
{
    closed
    {
        type            calculated;
        value           uniform 0;
    }
    open
    {
        type            calculated;
        value           uniform 0;
    }
    sides
    {
        type            empty;
    }
}


// ************************************************************************* //
