/*--------------------------------*- C++ -*----------------------------------*\
| =========                 |                                                 |
| \\      /  F ield         | OpenFOAM: The Open Source CFD Toolbox           |
|  \\    /   O peration     | Version:  2206                                  |
|   \\  /    A nd           | Website:  www.openfoam.com                      |
|    \\/     M anipulation  |                                                 |
\*---------------------------------------------------------------------------*/
FoamFile
{
    version     2.0;
    format      ascii;
    arch        "LSB;label=32;scalar=64";
    class       volScalarField;
    location    "5.4e-06";
    object      sourcePV;
}
// * * * * * * * * * * * * * * * * * * * * * * * * * * * * * * * * * * * * * //

dimensions      [1 -3 -1 0 0 0 0];

internalField   nonuniform List<scalar> 
3183
(
0
0
0
0
0
0
0
0
0
0
0
0
0
0
0
0
0
0
0
0
0
0
0
0
0
0
0
0
0
0
0
0
0
0
0
0
0
0
0
0
0
0
0
0
0
0
0
0
0
0
0
0
0
0
0
0
0
0
0
0
0
0
0
0
0
0
0
0
0
0
0
0
0
0
0
0
0
0
0
0
0
0
0
0
0
0
0
0
0
0
0
0
0
0
0
0
0
0
0
0
0
0
0
0
0
0
0
0
0
0
0
0
0
0
0
0
0
0
0
0
0
0
0
0
0
0
0
0
0
0
0
0
0
0
0
0
0
0
0
0
0
0
0
0
0
0
0
0
0
0
0
0
0
0
0
0
0
0
0
0
0
0
0
0
0
0
0
0
0
0
0
0
0
0
0
0
0
0
0
0
0
0
0
0
0
0
0
0
0
0
0
0
0
0
0
0
0
0
0
0
0
0
0
0
0
0
0
0
0
0
0
0
0
0
0
0
0
0
0
0
0
0
0
0
0
0
0
0
0
0
0
0
0
0
0
0
0
0
0
0
0
0
0
0
0
0
0
0
0
0
0
0
0
0
0
0
0
0
0
0
0
0
0
0
0
0
0
0
0
0
0
0
0
0
0
0
0
0
0
0
0
0
0
0
0
0
0
0
0
0
0
0
0
0
0
0
0
0
0
0
0
0
0
0
0
0
0
0
0
0
0
0
0
0
0
0
0
0
0
0
0
0
0
0
0
0
0
0
0
0
0
0
0
0
0
0
0
0
0
0
0
0
0
0
0
0
0
0
0
0
0
0
0
0
0
0
0
0
0
0
0
0
0
0
0
0
0
0
0
0
0
0
0
0
0
0
0
0
0
0
0
0
0
0
0
0
0
0
0
0
0
0
0
0
0
0
0
0
0
0
0
0
0
0
0
0
0
0
0
0
0
0
0
0
0
0
0
0
0
0
0
0
0
0
0
0
0
0
0
0
0
0
0
0
0
0
0
0
0
0
0
0
0
0
0
0
0
0
0
0
0
0
0
0
0
0
0
0
0
0
0
0
0
0
0
0
0
0
0
0
0
0
0
0
0
0
0
0
0
0
0
0
0
0
0
0
0
0
0
0
0
0
0
0
0
0
0
0
0
0
0
0
0
0
0
0
0
0
0
0
0
0
0
0
0
0
0
0
0
0
0
0
0
0
0
0
0
0
0
0
0
0
0
0
0
0
0
0
0
0
0
0
0
0
0
0
0
0
0
0
0
0
0
0
0
0
0
0
0
0
0
0
0
0
0
0
0
0
0
0
0
0
0
0
0
0
0
0
0
0
0
0
0
0
0
0
0
0
0
0
0
0
0
0
0
0
0
0
0
0
0
0
0
0
0
0
0
0
0
0
0
0
0
0
0
0
0
0
0
0
0
0
0
0
0
0
0
0
0
0
0
0
0
0
0
0
0
0
0
0
0
0
0
0
0
0
0
0
0
0
0
0
0
0
0
0
0
0
0
0
0
0
0
0
0
0
0
0
0
0
0
0
0
0
0
0
0
0
0
0
0
0
0
0
0
0
0
0
0
0
0
0
0
0
0
0
0
0
0
0
0
0
0
0
0
0
0
0
0
0
0
0
0
0
0
0
0
0
0
0
0
0
0
0
0
0
0
0
0
0
0
0
0
0
0
0
0
0
0
0
0
0
0
0
0
0
0
0
0
0
0
0
0
0
0
0
0
0
0
0
0
0
0
0
0
0
0
0
0
0
0
0
0
0
0
0
0
0
0
0
0
0
0
0
0
0
0
0
0
0
0
0
0
0
0
0
0
0
0
0
0
0
0
0
0
0
0
0
0
0
0
0
0
0
0
0
0
0
0
0
0
0
0
0
0
0
0
0
0
0
0
0
0
0
0
0
0
0
0
0
0
0
0
0
0
0
0
0
0
0
0
0
0
0
0
0
0
0
0
0
0
0
0
0
0
0
0
0
0
0
0
0
0
0
0
0
0
0
0
0
0
0
0
0
0
0
0
0
0
0
0
0
0
0
0
0
0
0
0
0
0
0
0
0
0
0
0
0
0
0
0
0
0
0
0
0
0
0
0
0
0
0
0
0
0
0
0
0
0
0
0
0
0
0
0
0
0
0
0
0
0
0
0
0
0
0
0
0
0
0
0
0
0
0
0
0
0
0
0
0
0
0
0
0
0
0
0
0
0
0
0
0
0
0
0
0
0
0
0
0
0
0
0
0
0
0
0
0
0
0
0
0
0
0
0
0
0
0
0
0
0
0
0
0
0
0
0
0
0
0
0
0
0
0
0
0
0
0
0
0
0
0
0
0
0
0
0
0
0
0
0
0
0
0
0
0
0
0
0
0
0
0
0
0
0
0
0
0
0
0
0
0
0
0
0
0
0
0
0
0
0
0
0
0
0
0
0
0
0
0
0
0
0
0
0
0
0
0
0
0
0
0
0
0
0
0
0
0
0
0
0
0
0
0
0
0
0
0
0
0
0
0
0
0
0
0
0
0
0
0
0
0
0
0
0
0
0
0
0
0
0
0
0
0
0
0
0
0
0
0
0
0
0
0
0
0
0
0
0
0
0
0
0
0
0
0
0
0
0
0
0
0
0
0
0
0
0
0
0
0
0
0
0
0
0
0
0
0
0
0
0
0
0
0
0
0
0
0
0
0
0
0
0
0
0
0
0
0
0
0
0
0
0
0
0
0
0
0
0
0
0
0
0
0
0
0
0
0
0
0
0
0
0
0
0
0
0
0
0
0
0
0
0
0
0
0
0
0
0
0
0
0
0
0
0
0
0
0
0
0
0
0
0
0
0
0
0
0
0
0
0
0
0
0
0
0
0
0
0
0
0
0
0
0
0
0
0
0
0
0
0
0
0
0
0
0
0
0
0
0
0
0
0
0
0
0
0
0
0
0
0
0
0
0
0
0
0
0
0
0
0
0
0
0
0
0
0
0
0
0
0
0
0
0
0
0
0
0
0
0
0
0
0
0
0
0
0
0
0
0
0
0
0
0
0
0
0
0
0
0
0
0
0
0
0
0
0
0
0
0
0
0
0
0
0
0
0
0
0
0
0
0
0
0
0
0
0
0
0
0
0
0
0
0
0
0
0
0
0
0
0
0
0
0
0
0
0
0
0
0
0
0
0
0
0
0
0
0
0
0
0
0
0
0
0
0
0
0
0
0
0
0
0
0
0
0
0
0
0
0
0
0
0
0
0
0
0
0
0
0
0
0
0
0
0
0
0
0
0
0
0
0
0
0
0
0
0
0
0
0
0
0
0
0
0
0
0
0
0
0
0
0
0
0
0
0
0
0
0
0
0
0
0
0
0
0
0
0
0
0
0
0
0
0
0
0
0
0
0
0
0
0
0
0
0
0
0
0
0
0
0
0
0
0
0
0
0
0
0
0
0
0
0
0
0
0
0
0
0
0
0
0
0
0
0
0
0
0
0
0
0
0
0
0
0
0
0
0
0
0
0
0
0
0
0
0
0
0
0
0
0
0
0
0
0
0
0
0
0
0
0
0
0
0
0
0
0
0
0
0
0
0
0
0
0
0
0
0
0
0
0
0
0
0
0
0
0
0
0
0
0
0
0
0
0
0
0
0
0
0
0
0
0
0
0
0
0
0
0
0
0
0
0
0
0
0
0
0
0
0
0
0
0
0
0
0
0
0
0
0
0
0
0
0
0
0
0
0
0
0
0
0
0
0
0
0
0
0
0
0
0
0
0
0
0
0
0
0
0
0
0
0
0
0
0
0
0
0
0
0
0
0
0
0
0
0
0
0
0
0
0
0
0
0
0
0
0
0
0
0
0
0
0
0
0
0
0
0
0
0
0
0
0
0
0
0
0
0
0
0
0
0
0
0
0
0
0
0
0
0
0
0
0
0
0
0
0
0
0
0
0
0
0
0
0
0
0
0
0
0
0
0
0
0
0
0
0
0
0
0
0
0
0
0
0
0
0
0
0
0
0
0
0
0
0
0
0
0
0
0
0
0
0
0
0
0
0
0
0
0
0
0
0
0
0
0
0
0
0
0
0
0
0
0
0
0
0
0
0
0
0
0
0
0
0
0
0
0
0
0
0
0
0
0
0
0
0
0
0
0
0
0
0
0
0
0
0
0
0
0
0
0
0
0
0
0
0
0
0
0
0
0
0
0
0
0
0
0
0
0
0
0
0
0
0
0
0
0
0
0
0
0
0
0
0
0
0
0
0
0
0
0
0
0
0
0
0
0
0
0
0
0
0
0
0
0
0
0
0
0
0
0
0
0
0
0
0
0
0
0
0
0
0
0
0
0
0
0
0
0
0
0
0
0
0
0
0
0
0
0
0
0
0
0
0
0
0
0
0
0
0
0
0
0
0
0
0
0
0
0
0
0
0
0
0
0
0
0
0
0
0
0
0
0
0
0
0
0
0
0
0
0
0
0
0
0
0
0
0
0
0
0
0
0
0
0
0
0
0
0
0
0
0
0
0
0
0
0
0
0
0
0
0
0
0
0
0
0
0
0
0
0
0
0
0
0
0
0
0
0
0
0
0
0
0
0
0
0
0
0
0
0
0
0
0
0
0
0
0
0
0
0
0
0
0
0
0
0
0
0
0
0
0
0
0
0
0
0
0
0
0
0
0
0
0
0
0
0
0
0
0
0
0
0
0
0
0
0
0
0
0
0
0
0
0
0
0
0
0
0
0
0
0
0
0
0
0
0
0
0
0
0
0
0
0
0
0
0
0
0
0
0
0
0
0
0
0
0
0
0
0
0
0
0
0
0
0
0
0
0
0
0
0
0
0
0
0
0
0
0
0
0
0
0
0
0
0
0
0
0
0
0
0
0
0
0
0
0
0
0
0
0
0
0
0
0
0
0
0
0
0
0
0
0
0
0
0
0
0
0
0
0
0
0
0
0
0
0
0
0
0
0
0
0
0
0
0
0
0
0
0
0
0
0
0
0
0
0
0
0
0
0
0
0
0
0
0
0
0
0
0
0
0
0
0
0
0
0
0
0
0
0
0
0
0
0
0
0
0
0
0
0
0
0
0
0
0
0
0
0
0
0
0
0
0
0
0
0
0
0
0
0
0
0
0
0
0
0
0
0
0
0
0
0
0
0
0
0
0
0
0
0
0
0
0
0
0
0
0
0
0
0
0
0
0
0
0
0
0
0
0
0
0
0
0
0
0
0
0
0
0
0
0
0
0
0
0
0
0
0
0
0
0
0
0
0
0
0
0
0
0
0
0
0
0
0
0
0
0
0
0
0
0
0
0
0
0
0
0
0
0
0
0
0
0
0
0
0
0
0
0
0
0
0
0
0
0
0
0
0
0
0
0
0
0
0
0
0
0
0
0
0
0
0
0
0
0
0
0
0
0
0
0
0
0
0
0
0
0
0
0
0
0
0
0
0
0
0
0
0
0
0
0
0
0
0
0
0
0
0
0
0
0
0
0
0
0
0
0
0
0
0
0
3.13719781e-300
0
4.20235169e-292
0
2.89965527e-284
0
1.03065349e-276
0
1.88720683e-269
0
1.7804597e-262
0
8.65739793e-256
0
2.17099811e-249
0
2.81116834e-243
0
1.8841415e-237
0
6.56658282e-232
0
9.515788e-228
0
7.2574782e-224
0
3.83973305e-220
0
1.57853863e-216
0
5.36123297e-213
0
1.56255944e-209
0
4.0097762e-206
0
9.22783106e-203
0
1.9308232e-199
0
3.71241892e-196
0
6.61446004e-193
0
1.09953384e-189
0
1.714866e-186
0
2.52108661e-183
0
3.50747599e-180
0
4.63353904e-177
0
5.82908086e-174
0
7.00078878e-171
0
8.04460656e-168
0
8.86151323e-165
0
9.37327249e-162
0
9.5346525e-159
0
9.33953726e-156
0
8.81993564e-153
0
8.03862441e-150
0
7.07752764e-147
0
6.02460002e-144
1.3982573e-145
4.96187273e-141
2.61421374e-142
3.9566012e-138
3.17770426e-139
3.05643053e-135
3.25007797e-136
2.28849167e-132
2.99716447e-133
1.66160059e-129
2.56549739e-130
1.17036504e-126
2.06925463e-127
7.99990791e-124
1.58666401e-124
5.30819867e-121
1.16318429e-121
3.41992566e-118
8.1842512e-119
2.13984544e-115
5.54196059e-116
1.30051154e-112
3.61884044e-113
7.67827016e-110
2.28214663e-110
4.40416059e-107
1.39146714e-107
2.45430688e-104
8.2096625e-105
1.32879575e-101
4.69002752e-102
6.98926036e-99
2.59551509e-99
3.57116518e-96
1.39190189e-96
1.77230449e-93
7.23464296e-94
8.54164973e-91
3.64493526e-91
3.99692789e-88
1.78002727e-88
1.81542416e-85
8.42538732e-86
8.00133165e-83
3.86461618e-83
3.42075321e-80
1.71739027e-80
1.41799875e-77
7.39157891e-78
5.69663754e-75
3.07990281e-75
2.2167494e-72
1.24182448e-72
8.35039006e-70
4.84242882e-70
3.04293981e-67
1.82500961e-67
1.0718765e-64
6.64270669e-65
3.64661057e-62
2.33312962e-62
1.19704693e-59
7.90014262e-60
3.78742379e-57
2.57613743e-57
1.15362477e-54
8.08012183e-55
3.37820082e-52
2.43439759e-52
9.49608197e-50
7.03434037e-50
2.55795728e-47
1.94607201e-47
6.58996476e-45
5.14447132e-45
1.62011717e-42
1.29655427e-42
3.79118253e-40
3.10732623e-40
8.41956017e-38
7.06048579e-38
1.76849988e-35
1.51575555e-35
3.49929269e-33
3.06201102e-33
6.49161527e-31
5.79267121e-31
1.1226646e-28
1.02033544e-28
1.79748149e-26
1.66171439e-26
2.64163672e-24
2.48058289e-24
3.5250789e-22
3.35717275e-22
4.21154063e-20
4.06095656e-20
4.42065618e-18
4.30755724e-18
3.97008325e-16
3.90096887e-16
2.93247267e-14
2.90257803e-14
1.67048408e-12
1.65310122e-12
7.08550173e-10
7.23592019e-10
2.48644827
4.95012909
8.05551932
6.89672768
0.933620166
0.772810722
0.0887595842
0.0832026501
0.00933458639
0.00920948341
0.000892592435
0.000889359975
8.25355284e-05
8.27587814e-05
1.37710123e-05
1.37633041e-05
8.44474864e-06
8.44889559e-06
8.07660402e-06
8.0766142e-06
8.05257904e-06
8.0525858e-06
8.05113993e-06
8.05115128e-06
8.05107047e-06
8.0510683e-06
8.05106393e-06
8.05106982e-06
8.0510544e-06
8.05107263e-06
8.05105479e-06
8.0510608e-06
8.05105592e-06
8.0510758e-06
8.05104867e-06
8.05106699e-06
8.05106633e-06
8.05105709e-06
8.05105807e-06
8.05106004e-06
8.05106648e-06
8.05106012e-06
8.05106757e-06
8.05104979e-06
8.05106771e-06
8.05105735e-06
8.0510704e-06
8.05105987e-06
8.05106644e-06
8.05105307e-06
8.0510688e-06
8.05106245e-06
8.05106005e-06
8.05106363e-06
8.05106541e-06
8.05105726e-06
8.05105929e-06
8.0510631e-06
8.05106489e-06
8.05105492e-06
8.05106266e-06
8.05106456e-06
8.05106201e-06
8.0510599e-06
8.0510632e-06
8.05105861e-06
8.05106677e-06
8.05105369e-06
8.05106558e-06
8.05104514e-06
8.0510733e-06
8.05104379e-06
8.05107145e-06
8.0510582e-06
8.05105659e-06
8.05107176e-06
8.05105686e-06
8.0510674e-06
8.05106393e-06
8.05107292e-06
8.05106331e-06
8.05106327e-06
8.05106597e-06
8.05106358e-06
8.05107076e-06
8.05105929e-06
8.05106225e-06
8.05106651e-06
8.05106431e-06
8.05105924e-06
8.05106807e-06
8.05106625e-06
8.05106019e-06
8.05108054e-06
8.051062e-06
8.05106659e-06
8.05106618e-06
8.05107073e-06
8.05106875e-06
8.05105944e-06
8.05107718e-06
8.05106447e-06
8.05106941e-06
8.05106698e-06
8.05106669e-06
8.05105763e-06
8.05106956e-06
8.05107562e-06
8.05106069e-06
8.05106262e-06
8.0510704e-06
8.05105053e-06
8.05107005e-06
8.05106158e-06
8.05106595e-06
8.05106309e-06
8.05106564e-06
8.05106173e-06
8.05106416e-06
8.05106715e-06
8.05106889e-06
8.05106428e-06
8.05106695e-06
8.05106444e-06
8.05107177e-06
8.05106083e-06
8.05106703e-06
8.0510618e-06
8.05107269e-06
8.05106919e-06
8.05106797e-06
8.0510616e-06
8.05107648e-06
8.05108107e-06
8.05105902e-06
8.05108278e-06
8.05106338e-06
8.05106494e-06
8.05107721e-06
8.05105827e-06
8.0510755e-06
8.05106605e-06
8.05106692e-06
8.05106408e-06
8.05106786e-06
8.05107058e-06
8.05106653e-06
8.05106735e-06
8.05106983e-06
8.05107195e-06
8.05106445e-06
8.05107124e-06
8.05107209e-06
8.05106908e-06
8.05107119e-06
8.05107455e-06
8.05107116e-06
8.05107712e-06
8.051065e-06
8.05107001e-06
8.05107429e-06
8.0510678e-06
8.0510714e-06
8.0510699e-06
8.05107613e-06
8.05107348e-06
8.05108111e-06
8.05106611e-06
8.05107257e-06
8.05107009e-06
8.05107095e-06
8.0510649e-06
8.05106806e-06
8.05106715e-06
8.05106072e-06
8.05107255e-06
8.05107552e-06
8.05107103e-06
8.05107034e-06
8.0510877e-06
8.05107626e-06
8.05108302e-06
8.05107482e-06
8.05107408e-06
8.05107133e-06
8.05107775e-06
8.05107689e-06
8.05107152e-06
8.05108349e-06
8.05107081e-06
8.05107784e-06
8.05107788e-06
8.05107277e-06
8.05108052e-06
8.05107778e-06
8.0510711e-06
8.05108481e-06
8.05106651e-06
8.05108294e-06
8.05106071e-06
8.05108169e-06
8.05106864e-06
8.05107277e-06
8.05107672e-06
8.05107379e-06
8.05107129e-06
8.05107845e-06
8.05107449e-06
8.05108276e-06
8.05107079e-06
8.05108791e-06
8.05106363e-06
8.05108791e-06
8.05107378e-06
8.05108203e-06
8.05107326e-06
8.05107632e-06
8.05107767e-06
8.0510795e-06
8.05108893e-06
8.05106671e-06
8.05109005e-06
8.05107034e-06
8.05107882e-06
8.05107661e-06
8.05107299e-06
8.05108184e-06
8.05107762e-06
8.05108176e-06
8.0510783e-06
8.05107953e-06
8.05107626e-06
8.05108878e-06
8.05107604e-06
8.05108598e-06
8.0510779e-06
8.0510838e-06
8.05108923e-06
8.051074e-06
8.05109018e-06
8.0510854e-06
8.05107945e-06
8.05107927e-06
8.05108324e-06
8.05108294e-06
8.05108428e-06
8.05107577e-06
8.05108041e-06
8.05107645e-06
8.05107957e-06
8.05107833e-06
8.0510941e-06
8.05107941e-06
8.05108321e-06
8.05107719e-06
8.05108673e-06
8.05108292e-06
8.0510843e-06
8.0510912e-06
8.05107432e-06
8.0510943e-06
8.05109013e-06
8.05109131e-06
8.0510816e-06
8.05109876e-06
8.05108188e-06
8.05108315e-06
8.05107945e-06
8.05108053e-06
8.05108174e-06
8.05109065e-06
8.05108612e-06
8.05108456e-06
8.05110022e-06
8.05107833e-06
8.05109584e-06
8.05107718e-06
8.05109488e-06
8.05108475e-06
8.05108779e-06
8.0510971e-06
8.05107241e-06
8.05109137e-06
8.05108846e-06
8.05110123e-06
8.05108476e-06
8.0510825e-06
8.05108816e-06
8.05108687e-06
8.05109084e-06
8.05108251e-06
8.05108762e-06
8.05108429e-06
8.05108446e-06
8.05109316e-06
8.05107953e-06
8.05108799e-06
8.05109318e-06
8.0511005e-06
8.05108908e-06
8.051094e-06
8.05108867e-06
8.05109121e-06
8.05109438e-06
8.05108925e-06
8.05109525e-06
8.05110507e-06
8.05108563e-06
8.05109695e-06
8.051097e-06
8.05109348e-06
8.05109513e-06
8.0510816e-06
8.05110431e-06
8.05108906e-06
8.05109589e-06
8.05110664e-06
8.05107883e-06
8.05109661e-06
8.05109395e-06
8.05109702e-06
8.05110119e-06
8.0510913e-06
8.05109364e-06
8.05109296e-06
8.0510973e-06
8.05109285e-06
8.05109649e-06
8.05109051e-06
8.05109585e-06
8.05109508e-06
8.05110067e-06
8.05108765e-06
8.05108883e-06
8.05109442e-06
8.05108919e-06
8.05110372e-06
8.05108607e-06
8.05110275e-06
8.05108907e-06
8.05110048e-06
8.05109903e-06
8.05109283e-06
8.05110321e-06
8.05109204e-06
8.05110304e-06
8.0510887e-06
8.05110621e-06
8.05109617e-06
8.05109667e-06
8.05109105e-06
8.05109958e-06
8.05109761e-06
8.05108962e-06
8.05110705e-06
8.0510893e-06
8.05110778e-06
8.05109176e-06
8.05110258e-06
8.05109861e-06
8.05109571e-06
8.05109167e-06
8.05110743e-06
8.05109314e-06
8.05109376e-06
8.05110807e-06
8.05110194e-06
8.0511061e-06
8.05110431e-06
8.05110183e-06
8.05110726e-06
8.05110891e-06
8.05109697e-06
8.05110745e-06
8.05109541e-06
8.05110248e-06
8.051101e-06
8.05109417e-06
8.05110173e-06
8.0510944e-06
8.0511067e-06
8.05109706e-06
8.05110064e-06
8.05110069e-06
8.05109631e-06
8.05109575e-06
8.05109828e-06
8.05109899e-06
8.05109544e-06
8.05110208e-06
8.05109599e-06
8.05110316e-06
8.05109547e-06
8.05109922e-06
8.05109314e-06
8.0511093e-06
8.05110229e-06
8.05110429e-06
8.05109889e-06
8.0511031e-06
8.05109341e-06
8.05110475e-06
8.0510986e-06
8.05111545e-06
8.05109502e-06
8.05111043e-06
8.05108317e-06
8.05110921e-06
8.05110346e-06
8.05110887e-06
8.05110319e-06
8.05110777e-06
8.05109893e-06
8.05109569e-06
8.05110786e-06
8.05109303e-06
8.05110602e-06
8.05109886e-06
8.05109517e-06
8.05110079e-06
8.05110458e-06
8.05109569e-06
8.05110268e-06
8.05109855e-06
8.05110802e-06
8.05109684e-06
8.05110242e-06
8.05110835e-06
8.05109588e-06
8.05111538e-06
8.05110272e-06
8.05110945e-06
8.05109846e-06
8.05110549e-06
8.05110421e-06
8.05110922e-06
8.05109907e-06
8.05111096e-06
8.05110377e-06
8.05110412e-06
8.05110383e-06
8.05110149e-06
8.05110042e-06
8.05110081e-06
8.05110672e-06
8.05110011e-06
8.05110843e-06
8.05110345e-06
8.05110423e-06
8.05111347e-06
8.05109454e-06
8.0510991e-06
8.05110722e-06
8.0510926e-06
8.05111013e-06
8.05110642e-06
8.05110126e-06
8.05110124e-06
8.05110584e-06
8.05110322e-06
8.05109381e-06
8.05110743e-06
8.05110215e-06
8.05109849e-06
8.05110185e-06
8.05110049e-06
8.05111086e-06
8.051093e-06
8.05111456e-06
8.05109902e-06
8.05111115e-06
8.0510974e-06
8.05109865e-06
8.05110628e-06
8.05109702e-06
8.05110901e-06
8.05110195e-06
8.05110295e-06
8.05109526e-06
8.05110287e-06
8.05109259e-06
8.05110212e-06
8.05110293e-06
8.05110371e-06
8.05110118e-06
8.05109658e-06
8.05110708e-06
8.05110127e-06
8.05110457e-06
8.05109619e-06
8.05110115e-06
8.05110879e-06
8.0511028e-06
8.05110505e-06
8.0511064e-06
8.05109692e-06
8.05110525e-06
8.05109855e-06
8.05110896e-06
8.0510971e-06
8.05111291e-06
8.05109036e-06
8.0511053e-06
8.05110357e-06
8.05110097e-06
8.05110802e-06
8.0511029e-06
8.05110415e-06
8.05109976e-06
8.05110039e-06
8.05110553e-06
8.0510983e-06
8.05110428e-06
8.05110042e-06
8.05110441e-06
8.05110373e-06
8.05110059e-06
8.05110129e-06
8.05110275e-06
8.05110065e-06
8.05110163e-06
8.05110258e-06
8.05110233e-06
8.05110131e-06
8.05110131e-06
8.05110098e-06
8.05110153e-06
8.05110184e-06
8.05110174e-06
8.05110191e-06
8.05110161e-06
8.05110161e-06
8.05110177e-06
8.05110162e-06
8.05110207e-06
8.05110184e-06
8.0511014e-06
8.05110156e-06
8.05110184e-06
8.05110176e-06
8.05110174e-06
8.05110177e-06
8.05110171e-06
8.05110171e-06
8.05110177e-06
8.0511017e-06
8.05110179e-06
8.0511015e-06
8.05110178e-06
8.05110162e-06
8.05110166e-06
8.05110168e-06
8.05110169e-06
8.05110169e-06
8.05110185e-06
8.05110165e-06
8.05110169e-06
8.05110161e-06
8.05110161e-06
8.05110174e-06
8.05110173e-06
8.05110175e-06
8.05110173e-06
8.05110154e-06
8.05110175e-06
8.05110171e-06
8.05110168e-06
8.05110178e-06
8.05110165e-06
8.05110187e-06
8.05110169e-06
8.05110179e-06
8.05110165e-06
8.05110165e-06
8.0511018e-06
8.05110163e-06
8.0511016e-06
8.05110175e-06
)
;

boundaryField
{
    closed
    {
        type            calculated;
        value           uniform 0;
    }
    open
    {
        type            calculated;
        value           uniform 0;
    }
    sides
    {
        type            empty;
    }
}


// ************************************************************************* //
