/*--------------------------------*- C++ -*----------------------------------*\
| =========                 |                                                 |
| \\      /  F ield         | OpenFOAM: The Open Source CFD Toolbox           |
|  \\    /   O peration     | Version:  2206                                  |
|   \\  /    A nd           | Website:  www.openfoam.com                      |
|    \\/     M anipulation  |                                                 |
\*---------------------------------------------------------------------------*/
FoamFile
{
    version     2.0;
    format      ascii;
    arch        "LSB;label=32;scalar=64";
    class       volVectorField;
    location    "5.4e-06";
    object      U;
}
// * * * * * * * * * * * * * * * * * * * * * * * * * * * * * * * * * * * * * //

dimensions      [0 1 -1 0 0 0 0];

internalField   nonuniform List<vector> 
3183
(
(1.16441263e-13 0 0)
(-5.40505103e-15 0 0)
(-7.20520725e-14 0 0)
(-5.38709778e-14 0 0)
(-5.66854646e-14 0 0)
(-1.27215749e-18 0 0)
(-1.0045628e-19 0 0)
(-3.48667012e-24 0 0)
(1.17474572e-24 0 0)
(3.43805409e-23 0 0)
(7.34699061e-19 0 0)
(9.32479258e-18 0 0)
(2.24049811e-13 0 0)
(1.09578349e-13 0 0)
(-1.53736208e-13 0 0)
(-1.47055835e-13 0 0)
(1.50855121e-13 0 0)
(-4.07375182e-14 0 0)
(-5.18293726e-13 0 0)
(2.70268461e-14 0 0)
(3.13013684e-13 0 0)
(3.69838129e-17 0 0)
(4.18521011e-18 0 0)
(6.06054329e-18 0 0)
(9.30768611e-14 0 0)
(2.20359326e-13 0 0)
(4.44179529e-13 0 0)
(1.96486343e-13 0 0)
(-2.63652929e-13 0 0)
(-2.25175667e-13 0 0)
(-3.78808906e-13 0 0)
(-7.48908729e-14 0 0)
(-8.89712462e-15 0 0)
(-2.02165704e-13 0 0)
(-2.9054581e-14 0 0)
(9.14350607e-14 0 0)
(-9.63044787e-14 0 0)
(-1.46403755e-13 0 0)
(3.5213573e-14 0 0)
(-8.75349643e-14 0 0)
(-3.5446847e-13 0 0)
(-4.14343749e-13 0 0)
(-5.86863971e-14 0 0)
(-1.52931254e-13 0 0)
(1.12476485e-13 0 0)
(2.0358086e-13 0 0)
(3.74174836e-13 0 0)
(7.49979197e-14 0 0)
(-5.87322117e-14 0 0)
(-8.29051413e-14 0 0)
(-8.80469766e-14 0 0)
(-6.90273533e-14 0 0)
(-1.44389461e-13 0 0)
(-5.08697512e-14 0 0)
(2.39478369e-13 0 0)
(-1.39009284e-13 0 0)
(1.17797015e-13 0 0)
(-1.91442171e-17 0 0)
(1.63970362e-13 0 0)
(2.75773926e-13 0 0)
(2.93392575e-13 0 0)
(4.21114856e-13 0 0)
(5.23751095e-13 0 0)
(3.83171205e-13 0 0)
(5.80608909e-13 0 0)
(7.03490623e-13 0 0)
(5.93822047e-13 0 0)
(6.25333712e-13 0 0)
(8.10038988e-13 0 0)
(3.01465599e-13 0 0)
(5.37636363e-13 0 0)
(1.01589781e-12 0 0)
(5.50399951e-13 0 0)
(8.96894259e-13 0 0)
(6.7298021e-13 0 0)
(6.41769783e-13 0 0)
(6.7315718e-13 0 0)
(1.35625788e-12 0 0)
(1.11344189e-12 0 0)
(1.32997615e-12 0 0)
(1.20471083e-12 0 0)
(1.58685772e-12 0 0)
(1.37163391e-12 0 0)
(6.94449207e-13 0 0)
(1.61505191e-12 0 0)
(1.50168583e-12 0 0)
(1.3977103e-12 0 0)
(1.23979391e-12 0 0)
(1.42914417e-12 0 0)
(1.80544949e-12 0 0)
(1.4553636e-12 0 0)
(1.22084568e-12 0 0)
(1.69553904e-12 0 0)
(7.99757279e-13 0 0)
(1.45671095e-12 0 0)
(2.15582333e-12 0 0)
(4.8021359e-13 0 0)
(2.07974018e-12 0 0)
(2.19893977e-12 0 0)
(1.493858e-12 0 0)
(2.84972995e-12 0 0)
(2.30773279e-12 0 0)
(3.37574024e-12 0 0)
(2.84656607e-12 0 0)
(2.43589777e-12 0 0)
(2.72765158e-12 0 0)
(2.27388526e-12 0 0)
(3.26697881e-12 0 0)
(3.58552811e-12 0 0)
(3.04565424e-12 0 0)
(2.89537611e-12 0 0)
(2.68349458e-12 0 0)
(2.06626299e-12 0 0)
(4.078418e-12 0 0)
(2.17257141e-12 0 0)
(3.22107903e-12 0 0)
(2.17779424e-12 0 0)
(1.79987843e-12 0 0)
(1.96693054e-12 0 0)
(2.08273622e-12 0 0)
(1.66443517e-12 0 0)
(1.32313269e-12 0 0)
(2.13349214e-12 0 0)
(2.28315081e-12 0 0)
(1.17233168e-12 0 0)
(1.24736823e-12 0 0)
(2.36364596e-12 0 0)
(8.69768203e-13 0 0)
(7.17876314e-13 0 0)
(9.09339381e-14 0 0)
(-2.51280085e-14 0 0)
(6.27558094e-13 0 0)
(-2.54213661e-14 0 0)
(1.97071064e-13 0 0)
(1.28998794e-12 0 0)
(1.19583055e-12 0 0)
(1.67807695e-12 0 0)
(1.37606873e-13 0 0)
(4.61960318e-13 0 0)
(8.00590734e-13 0 0)
(8.6288522e-13 0 0)
(8.75525039e-13 0 0)
(3.65131666e-13 0 0)
(1.2159924e-12 0 0)
(8.65911994e-13 0 0)
(1.27348204e-12 0 0)
(1.31173355e-12 0 0)
(1.60668801e-12 0 0)
(9.54297863e-13 0 0)
(1.08268015e-12 0 0)
(1.82247027e-12 0 0)
(5.89068049e-13 0 0)
(8.18025181e-13 0 0)
(1.00540022e-12 0 0)
(4.44184736e-13 0 0)
(8.50564286e-13 0 0)
(6.85882453e-13 0 0)
(8.93048307e-13 0 0)
(7.50624687e-13 0 0)
(-3.74591448e-13 0 0)
(-4.65634305e-14 0 0)
(4.07226459e-13 0 0)
(4.41903492e-14 0 0)
(-8.3189493e-13 0 0)
(8.0386068e-14 0 0)
(5.19857302e-14 0 0)
(-4.74657229e-13 0 0)
(-2.21265616e-13 0 0)
(3.26912549e-13 0 0)
(-6.48307056e-13 0 0)
(-6.28210859e-13 0 0)
(2.85160496e-13 0 0)
(-1.75583977e-13 0 0)
(-4.13583699e-13 0 0)
(2.78479216e-13 0 0)
(-1.15438739e-13 0 0)
(-1.02355659e-12 0 0)
(-1.05789119e-12 0 0)
(-4.07965099e-13 0 0)
(-6.09222164e-13 0 0)
(3.44640695e-13 0 0)
(-1.34623108e-12 0 0)
(1.52550016e-13 0 0)
(-5.94543435e-13 0 0)
(-8.27488491e-13 0 0)
(-6.99976679e-13 0 0)
(-9.86724099e-14 0 0)
(-9.41561808e-13 0 0)
(-1.34188612e-12 0 0)
(-9.8122783e-13 0 0)
(-7.2552448e-13 0 0)
(-1.10992178e-12 0 0)
(-1.72058839e-12 0 0)
(-2.12565687e-12 0 0)
(-2.40708461e-12 0 0)
(-1.08135789e-12 0 0)
(-2.19333507e-12 0 0)
(-1.75175214e-12 0 0)
(-1.57087414e-12 0 0)
(-2.55840396e-12 0 0)
(-2.23016598e-12 0 0)
(-2.65057764e-12 0 0)
(-2.16833801e-12 0 0)
(-2.24207347e-12 0 0)
(-2.55764868e-12 0 0)
(-2.92947007e-12 0 0)
(-3.00773114e-12 0 0)
(-2.43457581e-12 0 0)
(-2.96423437e-12 0 0)
(-2.40325783e-12 0 0)
(-2.99339675e-12 0 0)
(-2.89410137e-12 0 0)
(-2.59664746e-12 0 0)
(-4.53821155e-12 0 0)
(-3.17299006e-12 0 0)
(-4.46044223e-12 0 0)
(-3.23705594e-12 0 0)
(-4.57929132e-12 0 0)
(-2.05896349e-12 0 0)
(-3.01641467e-12 0 0)
(-4.12821929e-12 0 0)
(-3.07452569e-12 0 0)
(-3.11564464e-12 0 0)
(-3.38188823e-12 0 0)
(-3.80765644e-12 0 0)
(-2.87407146e-12 0 0)
(-3.95515511e-12 0 0)
(-4.22413497e-12 0 0)
(-4.48131957e-12 0 0)
(-3.43875717e-12 0 0)
(-3.97512804e-12 0 0)
(-3.26249537e-12 0 0)
(-3.94165722e-12 0 0)
(-4.91662518e-12 0 0)
(-3.81390114e-12 0 0)
(-3.94181018e-12 0 0)
(-4.88141226e-12 0 0)
(-4.16430705e-12 0 0)
(-4.53176624e-12 0 0)
(-4.9420337e-12 0 0)
(-6.09305632e-12 0 0)
(-5.47433677e-12 0 0)
(-5.51050339e-12 0 0)
(-4.58072444e-12 0 0)
(-4.65571016e-12 0 0)
(-5.52047699e-12 0 0)
(-4.99041739e-12 0 0)
(-4.074199e-12 0 0)
(-5.22434169e-12 0 0)
(-5.12041619e-12 0 0)
(-4.52027381e-12 0 0)
(-4.63835731e-12 0 0)
(-4.98190853e-12 0 0)
(-5.12393225e-12 0 0)
(-4.95981946e-12 0 0)
(-4.78870646e-12 0 0)
(-5.25331883e-12 0 0)
(-4.96588196e-12 0 0)
(-4.83956029e-12 0 0)
(-5.30106892e-12 0 0)
(-4.55088568e-12 0 0)
(-5.6217122e-12 0 0)
(-5.54124881e-12 0 0)
(-4.27103452e-12 0 0)
(-5.62502833e-12 0 0)
(-4.41652901e-12 0 0)
(-5.35285176e-12 0 0)
(-5.36586627e-12 0 0)
(-4.94041443e-12 0 0)
(-5.10450704e-12 0 0)
(-4.35660572e-12 0 0)
(-5.10791304e-12 0 0)
(-5.65120647e-12 0 0)
(-5.22577259e-12 0 0)
(-5.79178258e-12 0 0)
(-5.42516934e-12 0 0)
(-6.17389991e-12 0 0)
(-5.36883676e-12 0 0)
(-5.8799354e-12 0 0)
(-4.9646438e-12 0 0)
(-5.90423916e-12 0 0)
(-6.7764874e-12 0 0)
(-5.92277858e-12 0 0)
(-5.85293443e-12 0 0)
(-6.23928364e-12 0 0)
(-7.13835552e-12 0 0)
(-6.74243726e-12 0 0)
(-7.5391706e-12 0 0)
(-7.78878199e-12 0 0)
(-7.63484528e-12 0 0)
(-7.19077403e-12 0 0)
(-6.90501596e-12 0 0)
(-7.18789211e-12 0 0)
(-7.58354779e-12 0 0)
(-7.1213012e-12 0 0)
(-7.40056923e-12 0 0)
(-7.56726063e-12 0 0)
(-8.13336606e-12 0 0)
(-7.64703106e-12 0 0)
(-8.96581147e-12 0 0)
(-7.49872908e-12 0 0)
(-8.00929623e-12 0 0)
(-7.73455751e-12 0 0)
(-8.55840079e-12 0 0)
(-8.76358478e-12 0 0)
(-1.0089889e-11 0 0)
(-7.40844099e-12 0 0)
(-8.53334253e-12 0 0)
(-9.09855318e-12 0 0)
(-7.41337993e-12 0 0)
(-9.23394816e-12 0 0)
(-8.99687251e-12 0 0)
(-7.91298512e-12 0 0)
(-7.99865995e-12 0 0)
(-8.20715484e-12 0 0)
(-9.28819479e-12 0 0)
(-9.51255743e-12 0 0)
(-8.86429958e-12 0 0)
(-8.36137269e-12 0 0)
(-9.7506278e-12 0 0)
(-8.18167823e-12 0 0)
(-9.14255653e-12 0 0)
(-9.61332138e-12 0 0)
(-8.00488154e-12 0 0)
(-8.83866388e-12 0 0)
(-7.7022347e-12 0 0)
(-8.94919486e-12 0 0)
(-7.79353344e-12 0 0)
(-8.25529154e-12 0 0)
(-8.4516306e-12 0 0)
(-7.41155813e-12 0 0)
(-8.75865749e-12 0 0)
(-8.43823927e-12 0 0)
(-7.69865745e-12 0 0)
(-7.48056532e-12 0 0)
(-7.94349185e-12 0 0)
(-6.45408499e-12 0 0)
(-8.42985837e-12 0 0)
(-7.50538597e-12 0 0)
(-7.13265358e-12 0 0)
(-7.02141e-12 0 0)
(-7.68488523e-12 0 0)
(-7.07488166e-12 0 0)
(-6.81586154e-12 0 0)
(-6.83891574e-12 0 0)
(-7.08753573e-12 0 0)
(-7.56116587e-12 0 0)
(-6.80465723e-12 0 0)
(-7.74201923e-12 0 0)
(-8.03302637e-12 0 0)
(-7.03295743e-12 0 0)
(-6.90615206e-12 0 0)
(-8.72284643e-12 0 0)
(-7.59635311e-12 0 0)
(-6.24224344e-12 0 0)
(-7.20773344e-12 0 0)
(-8.39627522e-12 0 0)
(-8.27528067e-12 0 0)
(-8.71607491e-12 0 0)
(-7.68158122e-12 0 0)
(-7.94933623e-12 0 0)
(-7.78588771e-12 0 0)
(-7.63550141e-12 0 0)
(-7.4569047e-12 0 0)
(-7.24587805e-12 0 0)
(-7.75882974e-12 0 0)
(-7.29830505e-12 0 0)
(-7.87002544e-12 0 0)
(-7.06193247e-12 0 0)
(-6.91244006e-12 0 0)
(-6.5502636e-12 0 0)
(-7.71321915e-12 0 0)
(-6.6610114e-12 0 0)
(-7.01221236e-12 0 0)
(-6.54845072e-12 0 0)
(-6.86794401e-12 0 0)
(-6.55370637e-12 0 0)
(-6.11604883e-12 0 0)
(-6.74862684e-12 0 0)
(-7.17562321e-12 0 0)
(-6.99747801e-12 0 0)
(-6.0928332e-12 0 0)
(-7.10772301e-12 0 0)
(-7.33337373e-12 0 0)
(-5.74117638e-12 0 0)
(-6.90815103e-12 0 0)
(-7.18133057e-12 0 0)
(-5.91150245e-12 0 0)
(-6.23199297e-12 0 0)
(-5.10743295e-12 0 0)
(-5.42881564e-12 0 0)
(-5.67480438e-12 0 0)
(-4.95938115e-12 0 0)
(-6.42922047e-12 0 0)
(-5.2091218e-12 0 0)
(-5.36615206e-12 0 0)
(-5.28694511e-12 0 0)
(-6.14847763e-12 0 0)
(-4.54363245e-12 0 0)
(-4.5557545e-12 0 0)
(-4.13274921e-12 0 0)
(-5.24783887e-12 0 0)
(-5.0007538e-12 0 0)
(-5.03167447e-12 0 0)
(-4.37003242e-12 0 0)
(-3.87255922e-12 0 0)
(-3.24077764e-12 0 0)
(-4.08404922e-12 0 0)
(-4.4517678e-12 0 0)
(-3.83218692e-12 0 0)
(-3.59503884e-12 0 0)
(-2.84304971e-12 0 0)
(-2.47339846e-12 0 0)
(-4.02250007e-12 0 0)
(-3.9349007e-12 0 0)
(-3.23466698e-12 0 0)
(-3.95505248e-12 0 0)
(-3.645157e-12 0 0)
(-3.63635428e-12 0 0)
(-3.9830977e-12 0 0)
(-4.63216598e-12 0 0)
(-3.45982446e-12 0 0)
(-3.95112301e-12 0 0)
(-3.59341908e-12 0 0)
(-4.53561709e-12 0 0)
(-3.88936693e-12 0 0)
(-3.28192201e-12 0 0)
(-3.57460778e-12 0 0)
(-3.40681379e-12 0 0)
(-2.77901498e-12 0 0)
(-2.40688148e-12 0 0)
(-4.40146576e-12 0 0)
(-3.70131559e-12 0 0)
(-3.19877826e-12 0 0)
(-2.93240338e-12 0 0)
(-3.091876e-12 0 0)
(-2.96510296e-12 0 0)
(-2.41661611e-12 0 0)
(-2.20325743e-12 0 0)
(-2.7244522e-12 0 0)
(-1.43151689e-12 0 0)
(-2.96894671e-12 0 0)
(-2.71974186e-12 0 0)
(-2.06530518e-12 0 0)
(-2.02703679e-12 0 0)
(-2.44861373e-12 0 0)
(-2.53133274e-12 0 0)
(-2.1073055e-12 0 0)
(-2.40251009e-12 0 0)
(-1.63703505e-12 0 0)
(-2.10252683e-12 0 0)
(-1.91199909e-12 0 0)
(-2.09193537e-12 0 0)
(-2.4401111e-12 0 0)
(-1.88895556e-12 0 0)
(-8.80394885e-13 0 0)
(-1.4640443e-12 0 0)
(-1.82798976e-12 0 0)
(-1.94371538e-12 0 0)
(-1.03294061e-12 0 0)
(-1.67900683e-12 0 0)
(-1.7066408e-12 0 0)
(-1.37138382e-12 0 0)
(-4.08244381e-13 0 0)
(-1.44123614e-12 0 0)
(-1.11926041e-12 0 0)
(-1.15689196e-12 0 0)
(-6.79631307e-13 0 0)
(-8.55871128e-13 0 0)
(-9.81836063e-13 0 0)
(8.38036485e-14 0 0)
(7.62099291e-13 0 0)
(1.6376325e-13 0 0)
(-2.54300396e-14 0 0)
(4.84203114e-13 0 0)
(7.16174773e-14 0 0)
(1.07060668e-13 0 0)
(4.7618809e-13 0 0)
(8.32866754e-13 0 0)
(1.04017218e-13 0 0)
(6.15245399e-13 0 0)
(3.44295868e-13 0 0)
(-3.3000462e-13 0 0)
(4.42787917e-14 0 0)
(9.6893465e-13 0 0)
(5.40205169e-13 0 0)
(7.7069545e-13 0 0)
(1.12433271e-12 0 0)
(7.20523846e-13 0 0)
(-4.84270223e-13 0 0)
(-4.34371461e-13 0 0)
(8.62455571e-14 0 0)
(-8.24348987e-14 0 0)
(2.89526075e-13 0 0)
(2.02476011e-14 0 0)
(-4.42696351e-13 0 0)
(-3.53609156e-13 0 0)
(-1.0490431e-13 0 0)
(-1.39890779e-13 0 0)
(3.39054336e-14 0 0)
(1.09394535e-13 0 0)
(7.27955229e-13 0 0)
(2.29690074e-13 0 0)
(-6.26038503e-13 0 0)
(-2.50817258e-13 0 0)
(-6.50495559e-13 0 0)
(4.07995848e-13 0 0)
(-1.40094616e-13 0 0)
(-4.29239381e-13 0 0)
(-4.56935049e-13 0 0)
(-4.43384174e-13 0 0)
(1.03816919e-14 0 0)
(-8.05560738e-13 0 0)
(7.36658223e-14 0 0)
(-3.75383545e-13 0 0)
(5.09789709e-14 0 0)
(-3.63077868e-13 0 0)
(-7.84022906e-14 0 0)
(1.88218975e-13 0 0)
(-2.56759415e-13 0 0)
(3.5034737e-13 0 0)
(3.3970025e-13 0 0)
(-5.06040999e-14 0 0)
(7.24678441e-13 0 0)
(1.15985907e-12 0 0)
(6.199118e-13 0 0)
(8.03268892e-13 0 0)
(1.34299543e-12 0 0)
(6.8888888e-13 0 0)
(-7.78624593e-14 0 0)
(1.15782948e-12 0 0)
(2.22483372e-13 0 0)
(1.00546745e-12 0 0)
(-1.78138633e-13 0 0)
(4.48920596e-13 0 0)
(8.67011124e-13 0 0)
(1.32887765e-12 0 0)
(1.07562932e-12 0 0)
(1.19152163e-12 0 0)
(1.59381023e-12 0 0)
(8.00691795e-13 0 0)
(9.17518153e-13 0 0)
(1.34797903e-12 0 0)
(1.56245262e-12 0 0)
(1.09426883e-12 0 0)
(1.57848917e-12 0 0)
(1.242771e-13 0 0)
(6.85502165e-13 0 0)
(1.79139032e-12 0 0)
(1.30049892e-12 0 0)
(5.0370732e-13 0 0)
(1.01921816e-12 0 0)
(1.02553639e-12 0 0)
(2.37191135e-12 0 0)
(6.57991114e-13 0 0)
(1.51027793e-12 0 0)
(1.96634473e-12 0 0)
(1.6404737e-12 0 0)
(1.02903432e-12 0 0)
(8.35786268e-13 0 0)
(1.3568538e-12 0 0)
(-6.7088815e-13 0 0)
(9.20614177e-13 0 0)
(7.36942568e-13 0 0)
(1.09417915e-12 0 0)
(5.24471649e-13 0 0)
(1.23971008e-12 0 0)
(1.93321773e-12 0 0)
(1.63562935e-12 0 0)
(1.29497848e-12 0 0)
(1.1614872e-12 0 0)
(1.44244369e-12 0 0)
(1.5732611e-12 0 0)
(2.28862815e-12 0 0)
(2.09295528e-12 0 0)
(2.35647876e-12 0 0)
(1.24149359e-12 0 0)
(1.12326513e-12 0 0)
(2.36887557e-12 0 0)
(2.03377379e-12 0 0)
(1.177743e-12 0 0)
(1.5613325e-12 0 0)
(2.51660909e-12 0 0)
(2.60122241e-12 0 0)
(3.01498152e-12 0 0)
(2.0867755e-12 0 0)
(2.48912526e-12 0 0)
(3.04737722e-12 0 0)
(1.86964978e-12 0 0)
(3.1458218e-12 0 0)
(2.55871339e-12 0 0)
(2.28773884e-12 0 0)
(3.24267703e-12 0 0)
(2.61862414e-12 0 0)
(2.77616686e-12 0 0)
(2.18220036e-12 0 0)
(1.58469861e-12 0 0)
(2.04156768e-12 0 0)
(3.01843287e-12 0 0)
(2.47203854e-12 0 0)
(2.93979959e-12 0 0)
(3.0582916e-12 0 0)
(2.80163745e-12 0 0)
(2.32531764e-12 0 0)
(2.67802481e-12 0 0)
(2.42035521e-12 0 0)
(3.2699604e-12 0 0)
(2.99406922e-12 0 0)
(2.82767124e-12 0 0)
(2.52714859e-12 0 0)
(1.99421424e-12 0 0)
(1.85383353e-12 0 0)
(2.70763388e-12 0 0)
(2.02914633e-12 0 0)
(2.32900181e-12 0 0)
(1.84883239e-12 0 0)
(2.64365174e-12 0 0)
(1.85506315e-12 0 0)
(2.69775818e-12 0 0)
(2.52830652e-12 0 0)
(3.58410277e-12 0 0)
(2.35924613e-12 0 0)
(2.06794094e-12 0 0)
(2.22567589e-12 0 0)
(2.40008979e-12 0 0)
(2.39415559e-12 0 0)
(1.655036e-12 0 0)
(2.41424543e-12 0 0)
(1.86141127e-12 0 0)
(1.85090141e-12 0 0)
(1.54108071e-12 0 0)
(1.61757578e-12 0 0)
(2.09909756e-12 0 0)
(1.0885916e-12 0 0)
(1.33541522e-12 0 0)
(1.69039999e-12 0 0)
(1.46889255e-12 0 0)
(1.73742698e-12 0 0)
(2.45928729e-12 0 0)
(9.03553285e-13 0 0)
(9.25391134e-13 0 0)
(1.38789841e-12 0 0)
(2.2621784e-12 0 0)
(1.44518145e-12 0 0)
(2.05895517e-12 0 0)
(1.39650317e-12 0 0)
(1.8979405e-12 0 0)
(1.15399058e-12 0 0)
(1.66067731e-12 0 0)
(2.42509649e-12 0 0)
(1.93363661e-12 0 0)
(8.17299161e-13 0 0)
(1.91483278e-12 0 0)
(1.61223349e-12 0 0)
(1.81416641e-12 0 0)
(1.9452806e-12 0 0)
(1.53595335e-12 0 0)
(2.05317533e-12 0 0)
(8.77620062e-13 0 0)
(8.90142946e-13 0 0)
(1.14927638e-12 0 0)
(8.27857055e-13 0 0)
(1.95173231e-12 0 0)
(1.53906775e-12 0 0)
(1.11491623e-12 0 0)
(1.94677722e-12 0 0)
(1.59440066e-12 0 0)
(2.08298543e-12 0 0)
(1.5706552e-12 0 0)
(2.31690013e-12 0 0)
(5.84867093e-13 0 0)
(1.69015613e-12 0 0)
(1.45941946e-12 0 0)
(1.23592841e-12 0 0)
(1.31266829e-12 0 0)
(9.32524922e-13 0 0)
(1.5439893e-12 0 0)
(1.8088368e-12 0 0)
(2.39306001e-12 0 0)
(2.03871955e-12 0 0)
(3.10416086e-12 0 0)
(1.63638453e-12 0 0)
(2.08885669e-12 0 0)
(2.45009108e-12 0 0)
(2.8915091e-12 0 0)
(2.98951457e-12 0 0)
(2.1584536e-12 0 0)
(1.36229229e-12 0 0)
(2.0193017e-12 0 0)
(2.16327926e-12 0 0)
(1.98262638e-12 0 0)
(2.3881756e-12 0 0)
(2.74993692e-12 0 0)
(1.91115725e-12 0 0)
(2.29052138e-12 0 0)
(2.59907867e-12 0 0)
(2.05046482e-12 0 0)
(2.4945707e-12 0 0)
(1.43411611e-12 0 0)
(1.46325912e-12 0 0)
(2.29037525e-12 0 0)
(2.22358381e-12 0 0)
(1.00301386e-12 0 0)
(2.08107813e-12 0 0)
(2.19659378e-12 0 0)
(1.29357197e-12 0 0)
(2.59187354e-12 0 0)
(2.51812176e-12 0 0)
(2.13881237e-12 0 0)
(2.04103291e-12 0 0)
(1.34317389e-12 0 0)
(3.01795501e-12 0 0)
(2.01514562e-12 0 0)
(1.81275267e-12 0 0)
(1.71406861e-12 0 0)
(2.9099755e-12 0 0)
(2.45895445e-12 0 0)
(2.24066685e-12 0 0)
(2.23729101e-12 0 0)
(1.89867069e-12 0 0)
(1.79153879e-12 0 0)
(1.82318742e-12 0 0)
(3.38769998e-12 0 0)
(1.5310691e-12 0 0)
(2.00466438e-12 0 0)
(2.62095797e-12 0 0)
(1.74970377e-12 0 0)
(1.30228386e-12 0 0)
(2.28349438e-12 0 0)
(1.54993577e-12 0 0)
(9.26690978e-13 0 0)
(1.4753569e-12 0 0)
(7.5445889e-13 0 0)
(1.6716292e-12 0 0)
(2.60722252e-12 0 0)
(1.44757537e-12 0 0)
(2.34479144e-12 0 0)
(1.59720828e-12 0 0)
(2.2784647e-12 0 0)
(2.14202375e-12 0 0)
(1.7595661e-12 0 0)
(9.86152537e-13 0 0)
(1.82071169e-12 0 0)
(1.74196482e-12 0 0)
(1.98953136e-12 0 0)
(2.0020167e-12 0 0)
(1.45284484e-12 0 0)
(1.05003474e-12 0 0)
(1.78069261e-12 0 0)
(2.51065683e-12 0 0)
(1.78003071e-12 0 0)
(2.85658269e-12 0 0)
(2.45084956e-12 0 0)
(2.11675772e-12 0 0)
(1.88547399e-12 0 0)
(1.84398643e-12 0 0)
(3.4826724e-12 0 0)
(1.92704728e-12 0 0)
(1.70788961e-12 0 0)
(1.53167464e-12 0 0)
(1.55279873e-12 0 0)
(1.80185768e-12 0 0)
(1.49513433e-12 0 0)
(1.47850044e-12 0 0)
(1.27136865e-12 0 0)
(6.75090799e-13 0 0)
(1.86513243e-12 0 0)
(5.2641139e-13 0 0)
(1.82406905e-12 0 0)
(1.57082692e-12 0 0)
(2.58204324e-12 0 0)
(1.56627638e-12 0 0)
(2.54955879e-12 0 0)
(2.71733822e-12 0 0)
(2.43680857e-12 0 0)
(2.65519762e-12 0 0)
(1.87057272e-12 0 0)
(2.43348579e-12 0 0)
(2.13905529e-12 0 0)
(1.88690132e-12 0 0)
(2.17346498e-12 0 0)
(2.67171082e-12 0 0)
(2.35743343e-12 0 0)
(2.49621797e-12 0 0)
(3.23285508e-12 0 0)
(2.29051286e-12 0 0)
(2.46418671e-12 0 0)
(3.37094153e-12 0 0)
(3.39918337e-12 0 0)
(3.26925886e-12 0 0)
(2.82916005e-12 0 0)
(2.92818434e-12 0 0)
(4.08360676e-12 0 0)
(2.97130285e-12 0 0)
(1.89736051e-12 0 0)
(1.76387277e-12 0 0)
(2.38952422e-12 0 0)
(3.06609031e-12 0 0)
(3.08434534e-12 0 0)
(2.12344509e-12 0 0)
(1.54405643e-12 0 0)
(3.00542888e-12 0 0)
(2.82480798e-12 0 0)
(2.28305386e-12 0 0)
(2.53914363e-12 0 0)
(2.24949525e-12 0 0)
(3.0339725e-12 0 0)
(2.42077721e-12 0 0)
(2.4097696e-12 0 0)
(2.73278523e-12 0 0)
(2.7787385e-12 0 0)
(2.36389546e-12 0 0)
(2.22001128e-12 0 0)
(2.41503497e-12 0 0)
(2.00824243e-12 0 0)
(2.46601971e-12 0 0)
(2.58000045e-12 0 0)
(2.02930094e-12 0 0)
(1.35718093e-12 0 0)
(1.39715015e-12 0 0)
(1.72379789e-12 0 0)
(2.2395825e-12 0 0)
(2.12335319e-12 0 0)
(2.33287297e-12 0 0)
(1.66312616e-12 0 0)
(2.26533397e-12 0 0)
(1.51370883e-12 0 0)
(2.60238695e-12 0 0)
(1.89821088e-12 0 0)
(1.48811986e-12 0 0)
(2.64085649e-12 0 0)
(1.3715061e-12 0 0)
(7.08557292e-13 0 0)
(1.9755193e-12 0 0)
(1.41731643e-12 0 0)
(1.29920685e-13 0 0)
(4.91478019e-13 0 0)
(1.28591109e-12 0 0)
(5.18349253e-13 0 0)
(1.20863571e-12 0 0)
(2.48276674e-14 0 0)
(1.20840782e-13 0 0)
(6.83449734e-13 0 0)
(2.82504921e-13 0 0)
(5.37578683e-13 0 0)
(4.15553074e-13 0 0)
(1.34606446e-12 0 0)
(4.24164329e-13 0 0)
(4.47556784e-13 0 0)
(1.45335808e-12 0 0)
(1.34806477e-12 0 0)
(1.01387081e-12 0 0)
(9.12952649e-13 0 0)
(1.30153187e-12 0 0)
(1.68011944e-12 0 0)
(-2.93399121e-14 0 0)
(1.92186001e-13 0 0)
(1.11991182e-12 0 0)
(3.84646892e-13 0 0)
(1.15522707e-12 0 0)
(7.53805117e-13 0 0)
(-1.42459581e-13 0 0)
(2.03171431e-13 0 0)
(9.02162166e-13 0 0)
(1.63419036e-12 0 0)
(5.78461734e-13 0 0)
(2.28159178e-12 0 0)
(8.07994859e-13 0 0)
(6.74682102e-13 0 0)
(8.87954386e-13 0 0)
(1.5357308e-12 0 0)
(1.47100161e-12 0 0)
(1.09870352e-12 0 0)
(1.24741472e-12 0 0)
(1.81073316e-12 0 0)
(1.14492427e-12 0 0)
(1.66167426e-12 0 0)
(6.66930226e-13 0 0)
(1.42690873e-12 0 0)
(3.00883752e-12 0 0)
(1.8970468e-12 0 0)
(1.22273888e-12 0 0)
(1.31208461e-12 0 0)
(1.9494916e-12 0 0)
(1.57301143e-12 0 0)
(1.0005648e-12 0 0)
(8.85539575e-13 0 0)
(6.04366976e-13 0 0)
(1.55019248e-12 0 0)
(1.30818228e-12 0 0)
(2.21956937e-12 0 0)
(1.47176867e-12 0 0)
(1.79497515e-12 0 0)
(2.27238268e-12 0 0)
(1.94762789e-12 0 0)
(1.45347766e-12 0 0)
(1.39664879e-12 0 0)
(1.23744632e-12 0 0)
(1.31593281e-12 0 0)
(1.31175764e-12 0 0)
(1.59015997e-12 0 0)
(1.07208212e-12 0 0)
(2.04056036e-12 0 0)
(1.23205838e-12 0 0)
(1.91919081e-12 0 0)
(1.46693086e-12 0 0)
(2.2848549e-12 0 0)
(2.03996797e-12 0 0)
(2.49311257e-12 0 0)
(2.7006014e-12 0 0)
(1.19868086e-12 0 0)
(1.92778559e-12 0 0)
(2.2974417e-12 0 0)
(1.93708596e-12 0 0)
(1.23600694e-12 0 0)
(1.88682222e-12 0 0)
(2.49921788e-12 0 0)
(1.56699347e-12 0 0)
(2.4168567e-12 0 0)
(2.94329564e-12 0 0)
(3.36335205e-12 0 0)
(3.73453694e-12 0 0)
(4.48104986e-12 0 0)
(2.56972162e-12 0 0)
(2.96739154e-12 0 0)
(3.63877543e-12 0 0)
(3.91917239e-12 0 0)
(2.74098475e-12 0 0)
(3.48086009e-12 0 0)
(2.77577487e-12 0 0)
(2.90413093e-12 0 0)
(3.31575736e-12 0 0)
(3.64386348e-12 0 0)
(3.12082252e-12 0 0)
(3.81123635e-12 0 0)
(3.1078169e-12 0 0)
(3.2538956e-12 0 0)
(4.02278545e-12 0 0)
(2.97882916e-12 0 0)
(3.32410666e-12 0 0)
(3.74144247e-12 0 0)
(3.9771393e-12 0 0)
(4.12780495e-12 0 0)
(3.55495879e-12 0 0)
(4.69902649e-12 0 0)
(3.53068242e-12 0 0)
(4.34082946e-12 0 0)
(4.01059165e-12 0 0)
(3.73722385e-12 0 0)
(3.73584466e-12 0 0)
(3.47283735e-12 0 0)
(4.36984209e-12 0 0)
(3.51303275e-12 0 0)
(3.69240874e-12 0 0)
(3.28881889e-12 0 0)
(3.31788114e-12 0 0)
(4.14126043e-12 0 0)
(3.66671261e-12 0 0)
(3.87390369e-12 0 0)
(3.05375291e-12 0 0)
(4.12183376e-12 0 0)
(4.77205246e-12 0 0)
(4.27386667e-12 0 0)
(4.11217808e-12 0 0)
(3.64345458e-12 0 0)
(4.42104069e-12 0 0)
(5.16411771e-12 0 0)
(4.09383048e-12 0 0)
(4.21908473e-12 0 0)
(4.69633921e-12 0 0)
(4.34360498e-12 0 0)
(4.89879817e-12 0 0)
(4.50432526e-12 0 0)
(4.03407431e-12 0 0)
(4.17243997e-12 0 0)
(4.55772905e-12 0 0)
(4.15820872e-12 0 0)
(4.86233288e-12 0 0)
(4.45997311e-12 0 0)
(5.27453586e-12 0 0)
(4.38828365e-12 0 0)
(4.2267045e-12 0 0)
(4.58117941e-12 0 0)
(5.02460544e-12 0 0)
(4.21768907e-12 0 0)
(3.92161189e-12 0 0)
(4.21588146e-12 0 0)
(4.86440017e-12 0 0)
(4.47286915e-12 0 0)
(4.95793168e-12 0 0)
(4.90865819e-12 0 0)
(5.38086202e-12 0 0)
(5.71779031e-12 0 0)
(4.33810936e-12 0 0)
(4.78039545e-12 0 0)
(4.596404e-12 0 0)
(5.08250908e-12 0 0)
(4.42203174e-12 0 0)
(4.16848397e-12 0 0)
(4.85675799e-12 0 0)
(4.98972686e-12 0 0)
(4.66045089e-12 0 0)
(5.44239307e-12 0 0)
(5.03874886e-12 0 0)
(4.68645196e-12 0 0)
(6.0942421e-12 0 0)
(4.71800164e-12 0 0)
(5.5134245e-12 0 0)
(5.42641637e-12 0 0)
(5.74484197e-12 0 0)
(6.53173683e-12 0 0)
(4.9052112e-12 0 0)
(4.77582104e-12 0 0)
(4.7825926e-12 0 0)
(3.73320484e-12 0 0)
(4.0900424e-12 0 0)
(5.09946723e-12 0 0)
(4.56785532e-12 0 0)
(4.96481033e-12 0 0)
(5.05031798e-12 0 0)
(4.04279785e-12 0 0)
(3.36072715e-12 0 0)
(4.86291208e-12 0 0)
(4.08770656e-12 0 0)
(3.6798201e-12 0 0)
(3.09437876e-12 0 0)
(3.51670843e-12 0 0)
(3.06561289e-12 0 0)
(2.98927154e-12 0 0)
(3.70779389e-12 0 0)
(2.69102729e-12 0 0)
(2.84585818e-12 0 0)
(2.7768945e-12 0 0)
(1.8876115e-12 0 0)
(1.95311926e-12 0 0)
(2.14412244e-12 0 0)
(2.16631485e-12 0 0)
(2.34476182e-12 0 0)
(1.84803357e-12 0 0)
(1.40525116e-12 0 0)
(1.56476043e-12 0 0)
(1.23254398e-12 0 0)
(2.14811591e-12 0 0)
(1.65679683e-12 0 0)
(1.97341599e-12 0 0)
(2.59508686e-12 0 0)
(2.72295504e-12 0 0)
(2.03912709e-12 0 0)
(2.56532467e-12 0 0)
(2.0144017e-12 0 0)
(2.05499997e-12 0 0)
(2.10894697e-12 0 0)
(1.61193849e-12 0 0)
(2.96445943e-12 0 0)
(1.78833327e-12 0 0)
(2.23506809e-12 0 0)
(1.60304824e-12 0 0)
(2.51095595e-12 0 0)
(1.87304697e-12 0 0)
(2.24688264e-12 0 0)
(2.42162307e-12 0 0)
(1.90428684e-12 0 0)
(2.80106348e-12 0 0)
(3.14374568e-12 0 0)
(1.92430441e-12 0 0)
(2.27566321e-12 0 0)
(3.15158518e-12 0 0)
(2.81247912e-12 0 0)
(3.53898122e-12 0 0)
(2.44793793e-12 0 0)
(3.94099489e-12 0 0)
(3.79200808e-12 0 0)
(3.14453335e-12 0 0)
(4.75837383e-12 0 0)
(3.93807228e-12 0 0)
(3.47702986e-12 0 0)
(3.90305968e-12 0 0)
(3.08010689e-12 0 0)
(2.6303757e-12 0 0)
(2.93990476e-12 0 0)
(3.3896987e-12 0 0)
(3.58333639e-12 0 0)
(3.13893647e-12 0 0)
(3.15782986e-12 0 0)
(3.23708377e-12 0 0)
(3.20920593e-12 0 0)
(3.42344846e-12 0 0)
(3.46015548e-12 0 0)
(3.71772755e-12 0 0)
(3.57489743e-12 0 0)
(2.69642437e-12 0 0)
(4.52303671e-12 0 0)
(2.34080729e-12 0 0)
(2.79612579e-12 0 0)
(2.51469107e-12 0 0)
(1.89348877e-12 0 0)
(2.5491316e-12 0 0)
(1.63830975e-12 0 0)
(2.29477131e-12 0 0)
(1.89403444e-12 0 0)
(2.15052162e-12 0 0)
(1.31499167e-12 0 0)
(1.77894441e-12 0 0)
(2.17736927e-13 0 0)
(5.98592618e-13 0 0)
(4.74800255e-13 0 0)
(5.38252814e-13 0 0)
(8.27229339e-13 0 0)
(7.16453038e-13 0 0)
(9.92134386e-13 0 0)
(-1.80472709e-13 0 0)
(-1.88975381e-13 0 0)
(-2.01474407e-14 0 0)
(-2.47058346e-13 0 0)
(-2.27100747e-13 0 0)
(-7.52697316e-13 0 0)
(-8.06123616e-13 0 0)
(-5.80817467e-13 0 0)
(-6.21415426e-13 0 0)
(-1.1079889e-12 0 0)
(-1.43654223e-12 0 0)
(-2.02296721e-12 0 0)
(-1.67410775e-12 0 0)
(-1.35416709e-12 0 0)
(-2.75808947e-12 0 0)
(-2.75977517e-12 0 0)
(-2.31680337e-12 0 0)
(-1.93835476e-12 0 0)
(-3.07704015e-12 0 0)
(-3.94939488e-12 0 0)
(-2.8307223e-12 0 0)
(-2.59559504e-12 0 0)
(-2.68825295e-12 0 0)
(-3.69841029e-12 0 0)
(-3.33096041e-12 0 0)
(-3.44367573e-12 0 0)
(-3.65471836e-12 0 0)
(-3.33465387e-12 0 0)
(-3.69595383e-12 0 0)
(-4.04284625e-12 0 0)
(-3.91896788e-12 0 0)
(-3.2331205e-12 0 0)
(-3.76355075e-12 0 0)
(-4.79442379e-12 0 0)
(-3.41933408e-12 0 0)
(-4.15443037e-12 0 0)
(-5.04426435e-12 0 0)
(-5.94009659e-12 0 0)
(-4.05489324e-12 0 0)
(-2.67920432e-12 0 0)
(-3.27602235e-12 0 0)
(-3.71479271e-12 0 0)
(-3.83722007e-12 0 0)
(-3.38660252e-12 0 0)
(-4.08570869e-12 0 0)
(-3.09879691e-12 0 0)
(-3.65181516e-12 0 0)
(-3.81969494e-12 0 0)
(-2.95198571e-12 0 0)
(-4.38987962e-12 0 0)
(-4.55029516e-12 0 0)
(-3.67380719e-12 0 0)
(-4.27977806e-12 0 0)
(-4.75276973e-12 0 0)
(-5.1370247e-12 0 0)
(-5.042702e-12 0 0)
(-4.71166919e-12 0 0)
(-3.95592121e-12 0 0)
(-4.60082022e-12 0 0)
(-4.23374887e-12 0 0)
(-3.13224037e-12 0 0)
(-4.50289748e-12 0 0)
(-4.33925676e-12 0 0)
(-5.0922194e-12 0 0)
(-4.84582456e-12 0 0)
(-5.15321383e-12 0 0)
(-5.86219024e-12 0 0)
(-5.5533753e-12 0 0)
(-4.6323176e-12 0 0)
(-4.83465078e-12 0 0)
(-5.45786047e-12 0 0)
(-4.91667532e-12 0 0)
(-5.96708874e-12 0 0)
(-4.90354677e-12 0 0)
(-4.97913338e-12 0 0)
(-5.8360181e-12 0 0)
(-3.216721e-12 0 0)
(-5.05217162e-12 0 0)
(-4.98987698e-12 0 0)
(-4.77841215e-12 0 0)
(-4.59782501e-12 0 0)
(-4.749206e-12 0 0)
(-5.24032579e-12 0 0)
(-4.11691231e-12 0 0)
(-3.24027249e-12 0 0)
(-4.98687755e-12 0 0)
(-5.30416837e-12 0 0)
(-4.59310924e-12 0 0)
(-4.10125997e-12 0 0)
(-4.87265894e-12 0 0)
(-5.04902397e-12 0 0)
(-4.74960851e-12 0 0)
(-5.94030453e-12 0 0)
(-4.83399556e-12 0 0)
(-5.0323185e-12 0 0)
(-5.46759303e-12 0 0)
(-5.04814827e-12 0 0)
(-5.39130861e-12 0 0)
(-5.24201159e-12 0 0)
(-3.66404651e-12 0 0)
(-4.97630007e-12 0 0)
(-6.10653337e-12 0 0)
(-4.66401505e-12 0 0)
(-4.86389143e-12 0 0)
(-4.09019193e-12 0 0)
(-5.11363314e-12 0 0)
(-4.58343885e-12 0 0)
(-6.09804059e-12 0 0)
(-5.77606621e-12 0 0)
(-4.45054302e-12 0 0)
(-4.88693964e-12 0 0)
(-4.02660808e-12 0 0)
(-5.12109213e-12 0 0)
(-4.53461795e-12 0 0)
(-3.87098497e-12 0 0)
(-3.81798965e-12 0 0)
(-3.68960903e-12 0 0)
(-4.20836913e-12 0 0)
(-4.56911141e-12 0 0)
(-4.12267556e-12 0 0)
(-4.61269575e-12 0 0)
(-4.87410917e-12 0 0)
(-3.76886392e-12 0 0)
(-4.23089469e-12 0 0)
(-5.41836827e-12 0 0)
(-4.74300957e-12 0 0)
(-4.32476056e-12 0 0)
(-3.87517949e-12 0 0)
(-5.02389009e-12 0 0)
(-4.93684182e-12 0 0)
(-5.87458475e-12 0 0)
(-4.41188307e-12 0 0)
(-4.26557727e-12 0 0)
(-4.095784e-12 0 0)
(-3.56141235e-12 0 0)
(-3.74638136e-12 0 0)
(-3.41145673e-12 0 0)
(-4.3146832e-12 0 0)
(-3.8562723e-12 0 0)
(-3.52787189e-12 0 0)
(-1.98240562e-12 0 0)
(-3.10044554e-12 0 0)
(-3.21592006e-12 0 0)
(-3.26078397e-12 0 0)
(-3.08733506e-12 0 0)
(-2.54130647e-12 0 0)
(-2.70117524e-12 0 0)
(-3.97960475e-12 0 0)
(-3.43333003e-12 0 0)
(-3.22960845e-12 0 0)
(-3.85638262e-12 0 0)
(-3.85494296e-12 0 0)
(-4.08033452e-12 0 0)
(-3.67920549e-12 0 0)
(-4.03108931e-12 0 0)
(-3.60442501e-12 0 0)
(-3.19130509e-12 0 0)
(-4.3620884e-12 0 0)
(-2.42034031e-12 0 0)
(-3.11981253e-12 0 0)
(-3.30139636e-12 0 0)
(-3.68613154e-12 0 0)
(-2.26328738e-12 0 0)
(-2.74099394e-12 0 0)
(-2.81380855e-12 0 0)
(-2.41251498e-12 0 0)
(-2.91123261e-12 0 0)
(-3.41005185e-12 0 0)
(-1.98449081e-12 0 0)
(-2.23035947e-12 0 0)
(-2.44348006e-12 0 0)
(-2.38787999e-12 0 0)
(-1.07376091e-12 0 0)
(-1.28066527e-12 0 0)
(-1.74461866e-12 0 0)
(-1.31242977e-12 0 0)
(-1.57017644e-12 0 0)
(-1.35495656e-12 0 0)
(-1.92142024e-12 0 0)
(-1.91110023e-12 0 0)
(-2.55245984e-12 0 0)
(-1.5480801e-12 0 0)
(-1.46968829e-12 0 0)
(-1.56767169e-12 0 0)
(-2.66094421e-12 0 0)
(-2.77622216e-12 0 0)
(-2.82051916e-12 0 0)
(-1.84503375e-12 0 0)
(-2.88403006e-12 0 0)
(-2.11411688e-12 0 0)
(-3.26566699e-12 0 0)
(-2.28709042e-12 0 0)
(-3.48356282e-12 0 0)
(-2.08023037e-12 0 0)
(-3.08810894e-12 0 0)
(-2.20217495e-12 0 0)
(-2.60978291e-12 0 0)
(-3.52446729e-12 0 0)
(-2.10315449e-12 0 0)
(-2.00774854e-12 0 0)
(-2.09616252e-12 0 0)
(-3.22074167e-12 0 0)
(-3.07389585e-12 0 0)
(-3.14006815e-12 0 0)
(-2.01956422e-12 0 0)
(-2.34503852e-12 0 0)
(-1.75746687e-12 0 0)
(-2.32998007e-12 0 0)
(-1.13199483e-12 0 0)
(-1.84599843e-12 0 0)
(-2.01784665e-12 0 0)
(-1.94384986e-12 0 0)
(-2.1836494e-12 0 0)
(-2.33681374e-12 0 0)
(-1.71347265e-12 0 0)
(-2.38891704e-12 0 0)
(-1.72366806e-12 0 0)
(-1.8643922e-12 0 0)
(-1.69799418e-12 0 0)
(-1.31476235e-12 0 0)
(-1.71993032e-12 0 0)
(-2.24240195e-12 0 0)
(-1.96473069e-12 0 0)
(-1.72498399e-12 0 0)
(-2.15156823e-12 0 0)
(-1.57491081e-12 0 0)
(-1.72902357e-12 0 0)
(-7.2512998e-13 0 0)
(-1.39471189e-12 0 0)
(-5.01935504e-13 0 0)
(-9.41816091e-13 0 0)
(-7.84182089e-13 0 0)
(-1.42848505e-12 0 0)
(-1.02909198e-12 0 0)
(-1.25237785e-12 0 0)
(-2.01798973e-13 0 0)
(-8.09466253e-13 0 0)
(-1.19782612e-12 0 0)
(-9.23622258e-13 0 0)
(-1.12746822e-12 0 0)
(-2.22031462e-13 0 0)
(-5.45670827e-13 0 0)
(-1.12001533e-12 0 0)
(-2.86846176e-13 0 0)
(-5.7981366e-13 0 0)
(-3.61563817e-13 0 0)
(-3.69278642e-13 0 0)
(-4.85384246e-13 0 0)
(2.42227922e-14 0 0)
(1.74249365e-13 0 0)
(-2.54226464e-13 0 0)
(-2.67950311e-13 0 0)
(1.059313e-12 0 0)
(-4.55967622e-13 0 0)