/*--------------------------------*- C++ -*----------------------------------*\
| =========                 |                                                 |
| \\      /  F ield         | OpenFOAM: The Open Source CFD Toolbox           |
|  \\    /   O peration     | Version:  2206                                  |
|   \\  /    A nd           | Website:  www.openfoam.com                      |
|    \\/     M anipulation  |                                                 |
\*---------------------------------------------------------------------------*/
FoamFile
{
    version     2.0;
    format      ascii;
    arch        "LSB;label=32;scalar=64";
    class       volScalarField;
    location    "1.34e-05";
    object      p;
}
// * * * * * * * * * * * * * * * * * * * * * * * * * * * * * * * * * * * * * //

dimensions      [1 -1 -2 0 0 0 0];

internalField   nonuniform List<scalar> 
3183
(
101325
101325
101325
101325
101325
101325
101325
101325
101325
101325
101325
101325
101325
101325
101325
101325
101325
101325
101325
101325
101325
101325
101325
101325
101325
101325
101325
101325
101325
101325
101325
101325
101325
101325
101325
101325
101325
101325
101325
101325
101325
101325
101325
101325
101325
101325
101325
101325
101325
101325
101325
101325
101325
101325
101325
101325
101325
101325
101325
101325
101325
101325
101325
101325
101325
101325
101325
101325
101325
101325
101325
101325
101325
101325
101325
101325
101325
101325
101325
101325
101325
101325
101325
101325
101325
101325
101325
101325
101325
101325
101325
101325
101325
101325
101325
101325
101325
101325
101325
101325
101325
101325
101325
101325
101325
101325
101325
101325
101325
101325
101325
101325
101325
101325
101325
101325
101325
101325
101325
101325
101325
101325
101325
101325
101325
101325
101325
101325
101325
101325
101325
101325
101325
101325
101325
101325
101325
101325
101325
101325
101325
101325
101325
101325
101325
101325
101325
101325
101325
101325
101325
101325
101325
101325
101325
101325
101325
101325
101325
101325
101325
101325
101325
101325
101325
101325
101325
101325
101325
101325
101325
101325
101325
101325
101325
101325
101325
101325
101325
101325
101325
101325
101325
101325
101325
101325
101325
101325
101325
101325
101325
101325
101325
101325
101325
101325
101325
101325
101325
101325
101325
101325
101325
101325
101325
101325
101325
101325
101325
101325
101325
101325
101325
101325
101325
101325
101325
101325
101325
101325
101325
101325
101325
101325
101325
101325
101325
101325
101325
101325
101325
101325
101325
101325
101325
101325
101325
101325
101325
101325
101325
101325
101325
101325
101325
101325
101325
101325
101325
101325
101325
101325
101325
101325
101325
101325
101325
101325
101325
101325
101325
101325
101325
101325
101325
101325
101325
101325
101325
101325
101325
101325
101325
101325
101325
101325
101325
101325
101325
101325
101325
101325
101325
101325
101325
101325
101325
101325
101325
101325
101325
101325
101325
101325
101325
101325
101325
101325
101325
101325
101325
101325
101325
101325
101325
101325
101325
101325
101325
101325
101325
101325
101325
101325
101325
101325
101325
101325
101325
101325
101325
101325
101325
101325
101325
101325
101325
101325
101325
101325
101325
101325
101325
101325
101325
101325
101325
101325
101325
101325
101325
101325
101325
101325
101325
101325
101325
101325
101325
101325
101325
101325
101325
101325
101325
101325
101325
101325
101325
101325
101325
101325
101325
101325
101325
101325
101325
101325
101325
101325
101325
101325
101325
101325
101325
101325
101325
101325
101325
101325
101325
101325
101325
101325
101325
101325
101325
101325
101325
101325
101325
101325
101325
101325
101325
101325
101325
101325
101325
101325
101325
101325
101325
101325
101325
101325
101325
101325
101325
101325
101325
101325
101325
101325
101325
101325
101325
101325
101325
101325
101325
101325
101325
101325
101325
101325
101325
101325
101325
101325
101325
101325
101325
101325
101325
101325
101325
101325
101325
101325
101325
101325
101325
101325
101325
101325
101325
101325
101325
101325
101325
101325
101325
101325
101325
101325
101325
101325
101325
101325
101325
101325
101325
101325
101325
101325
101325
101325
101325
101325
101325
101325
101325
101325
101325
101325
101325
101325
101325
101325
101325
101325
101325
101325
101325
101325
101325
101325
101325
101325
101325
101325
101325
101325
101325
101325
101325
101325
101325
101325
101325
101325
101325
101325
101325
101325
101325
101325
101325
101325
101325
101325
101325
101325
101325
101325
101325
101325
101325
101325
101325
101325
101325
101325
101325
101325
101325
101325
101325
101325
101325
101325
101325
101325
101325
101325
101325
101325
101325
101325
101325
101325
101325
101325
101325
101325
101325
101325
101325
101325
101325
101325
101325
101325
101325
101325
101325
101325
101325
101325
101325
101325
101325
101325
101325
101325
101325
101325
101325
101325
101325
101325
101325
101325
101325
101325
101325
101325
101325
101325
101325
101325
101325
101325
101325
101325
101325
101325
101325
101325
101325
101325
101325
101325
101325
101325
101325
101325
101325
101325
101325
101325
101325
101325
101325
101325
101325
101325
101325
101325
101325
101325
101325
101325
101325
101325
101325
101325
101325
101325
101325
101325
101325
101325
101325
101325
101325
101325
101325
101325
101325
101325
101325
101325
101325
101325
101325
101325
101325
101325
101325
101325
101325
101325
101325
101325
101325
101325
101325
101325
101325
101325
101325
101325
101325
101325
101325
101325
101325
101325
101325
101325
101325
101325
101325
101325
101325
101325
101325
101325
101325
101325
101325
101325
101325
101325
101325
101325
101325
101325
101325
101325
101325
101325
101325
101325
101325
101325
101325
101325
101325
101325
101325
101325
101325
101325
101325
101325
101325
101325
101325
101325
101325
101325
101325
101325
101325
101325
101325
101325
101325
101325
101325
101325
101325
101325
101325
101325
101325
101325
101325
101325
101325
101325
101325
101325
101325
101325
101325
101325
101325
101325
101325
101325
101325
101325
101325
101325
101325
101325
101325
101325
101325
101325
101325
101325
101325
101325
101325
101325
101325
101325
101325
101325
101325
101325
101325
101325
101325
101325
101325
101325
101325
101325
101325
101325
101325
101325
101325
101325
101325
101325
101325
101325
101325
101325
101325
101325
101325
101325
101325
101325
101325
101325
101325
101325
101325
101325
101325
101325
101325
101325
101325
101325
101325
101325
101325
101325
101325
101325
101325
101325
101325
101325
101325
101325
101325
101325
101325
101325
101325
101325
101325
101325
101325
101325
101325
101325
101325
101325
101325
101325
101325
101325
101325
101325
101325
101325
101325
101325
101325
101325
101325
101325
101325
101325
101325
101325
101325
101325
101325
101325
101325
101325
101325
101325
101325
101325
101325
101325
101325
101325
101325
101325
101325
101325
101325
101325
101325
101325
101325
101325
101325
101325
101325
101325
101325
101325
101325
101325
101325
101325
101325
101325
101325
101325
101325
101325
101325
101325
101325
101325
101325
101325
101325
101325
101325
101325
101325
101325
101325
101325
101325
101325
101325
101325
101325
101325
101325
101325
101325
101325
101325
101325
101325
101325
101325
101325
101325
101325
101325
101325
101325
101325
101325
101325
101325
101325
101325
101325
101325
101325
101325
101325
101325
101325
101325
101325
101325
101325
101325
101325
101325
101325
101325
101325
101325
101325
101325
101325
101325
101325
101325
101325
101325
101325
101325
101325
101325
101325
101325
101325
101325
101325
101325
101325
101325
101325
101325
101325
101325
101325
101325
101325
101325
101325
101325
101325
101325
101325
101325
101325
101325
101325
101325
101325
101325
101325
101325
101325
101325
101325
101325
101325
101325
101325
101325
101325
101325
101325
101325
101325
101325
101325
101325
101325
101325
101325
101325
101325
101325
101325
101325
101325
101325
101325
101325
101325
101325
101325
101325
101325
101325
101325
101325
101325
101325
101325
101325
101325
101325
101325
101325
101325
101325
101325
101325
101325
101325
101325
101325
101325
101325
101325
101325
101325
101325
101325
101325
101325
101325
101325
101325
101325
101325
101325
101325
101325
101325
101325
101325
101325
101325
101325
101325
101325
101325
101325
101325
101325
101325
101325
101325
101325
101325
101325
101325
101325
101325
101325
101325
101325
101325
101325
101325
101325
101325
101325
101325
101325
101325
101325
101325
101325
101325
101325
101325
101325
101325
101325
101325
101325
101325
101325
101325
101325
101325
101325
101325
101325
101325
101325
101325
101325
101325
101325
101325
101325
101325
101325
101325
101325
101325
101325
101325
101325
101325
101325
101325
101325
101325
101325
101325
101325
101325
101325
101325
101325
101325
101325
101325
101325
101325
101325
101325
101325
101325
101325
101325
101325
101325
101325
101325
101325
101325
101325
101325
101325
101325
101325
101325
101325
101325
101325
101325
101325
101325
101325
101325
101325
101325
101325
101325
101325
101325
101325
101325
101325
101325
101325
101325
101325
101325
101325
101325
101325
101325
101325
101325
101325
101325
101325
101325
101325
101325
101325
101325
101325
101325
101325
101325
101325
101325
101325
101325
101325
101325
101325
101325
101325
101325
101325
101325
101325
101325
101325
101325
101325
101325
101325
101325
101325
101325
101325
101325
101325
101325
101325
101325
101325
101325
101325
101325
101325
101325
101325
101325
101325
101325
101325
101325
101325
101325
101325
101325
101325
101325
101325
101325
101325
101325
101325
101325
101325
101325
101325
101325
101325
101325
101325
101325
101325
101325
101325
101325
101325
101325
101325
101325
101325
101325
101325
101325
101325
101325
101325
101325
101325
101325
101325
101325
101325
101325
101325
101325
101325
101325
101325
101325
101325
101325
101325
101325
101325
101325
101325
101325
101325
101325
101325
101325
101325
101325
101325
101325
101325
101325
101325
101325
101325
101325
101325
101325
101325
101325
101325
101325
101325
101325
101325
101325
101325
101325
101325
101325
101325
101325
101325
101325
101325
101325
101325
101325
101325
101325
101325
101325
101325
101325
101325
101325
101325
101325
101325
101325
101325
101325
101325
101325
101325
101325
101325
101325
101325
101325
101325
101325
101325
101325
101325
101325
101325
101325
101325
101325
101325
101325
101325
101325
101325
101325
101325
101325
101325
101325
101325
101325
101325
101325
101325
101325
101325
101325
101325
101325
101325
101325
101325
101325
101325
101325
101325
101325
101325
101325
101325
101325
101325
101325
101325
101325
101325
101325
101325
101325
101325
101325
101325
101325
101325
101325
101325
101325
101325
101325
101325
101325
101325
101325
101325
101325
101325
101325
101325
101325
101325
101325
101325
101325
101325
101325
101325
101325
101325
101325
101325
101325
101325
101325
101325
101325
101325
101325
101325
101325
101325
101325
101325
101325
101325
101325
101325
101325
101325
101325
101325
101325
101325
101325
101325
101325
101325
101325
101325
101325
101325
101325
101325
101325
101325
101325
101325
101325
101325
101325
101325
101325
101325
101325
101325
101325
101325
101325
101325
101325
101325
101325
101325
101325
101325
101325
101325
101325
101325
101325
101325
101325
101325
101325
101325
101325
101325
101325
101325
101325
101325
101325
101325
101325
101325
101325
101325
101325
101325
101325
101325
101325
101325
101325
101325
101325
101325
101325
101325
101325
101325
101325
101325
101325
101325
101325
101325
101325
101325
101325
101325
101325
101325
101325
101325
101325
101325
101325
101325
101325
101325
101325
101325
101325
101325
101325
101325
101325
101325
101325
101325
101325
101325
101325
101325
101325
101325
101325
101325
101325
101325
101325
101325
101325
101325
101325
101325
101325
101325
101325
101325
101325
101325
101325
101325
101325
101325
101325
101325
101325
101325
101325
101325
101325
101325
101325
101325
101325
101325
101325
101325
101325
101325
101325
101325
101325
101325
101325
101325
101325
101325
101325
101325
101325
101325
101325
101325
101325
101325
101325
101325
101325
101325
101325
101325
101325
101325
101325
101325
101325
101325
101325
101325
101325
101325
101325
101325
101325
101325
101325
101325
101325
101325
101325
101325
101325
101325
101325
101325
101325
101325
101325
101325
101325
101325
101325
101325
101325
101325
101325
101325
101325
101325
101325
101325
101325
101325
101325
101325
101325
101325
101325
101325
101325
101325
101325
101325
101325
101325
101325
101325
101325
101325
101325
101325
101325
101325
101325
101325
101325
101325
101325
101325
101325
101325
101325
101325
101325
101325
101325
101325
101325
101325
101325
101325
101325
101325
101325
101325
101325
101325
101325
101325
101325
101325
101325
101325
101325
101325
101325
101325
101325
101325
101325
101325
101325
101325
101325
101325
101325
101325
101325
101325
101325
101325
101325
101325
101325
101325
101325
101325
101325
101325
101325
101325
101325
101325
101325
101325
101325
101325
101325
101325
101325
101325
101325
101325
101325
101325
101325
101325
101325
101325
101325
101325
101325
101325
101325
101325
101325
101325
101325
101325
101325
101325
101325
101325
101325
101325
101325
101325
101325
101325
101325
101325
101325
101325
101325
101325
101325
101325
101325
101325
101325
101325
101325
101325
101325
101325
101325
101325
101325
101325
101325
101325
101325
101325
101325
101325
101325
101325
101325
101325
101325
101325
101325
101325
101325
101325
101325
101325
101325
101325
101325
101325
101325
101325
101325
101325
101325
101325
101325
101325
101325
101325
101325
101325
101325
101325
101325
101325
101325
101325
101325
101325
101325
101325
101325
101325
101325
101325
101325
101325
101325
101325
101325
101325
101325
101325
101325
101325
101325
101325
101325
101325
101325
101325
101325
101325
101325
101325
101325
101325
101325
101325
101325
101325
101325
101325
101325
101325
101325
101325
101325
101325
101325
101325
101325
101325
101325
101325
101325
101325
101325
101325
101325
101325
101325
101325
101325
101325
101325
101325
101325
101325
101325
101325
101325
101325
101325
101325
101325
101325
101325
101325
101325
101325
101325
101325
101325
101325
101325
101325
101325
101325
101325
101325
101325
101325
101325
101325
101325
101325
101325
101325
101325
101324.999
101324.999
101324.999
101324.999
101324.999
101324.999
101324.999
101324.999
101324.999
101324.999
101324.999
101324.999
101324.999
101324.999
101324.999
101324.999
101324.999
101324.999
101324.998
101324.998
101324.998
101324.998
101324.998
101324.998
101324.998
101324.998
101324.997
101324.997
101324.997
101324.997
101324.997
101324.996
101324.996
101324.996
101324.996
101324.996
101324.995
101324.995
101324.995
101324.994
101324.994
101324.994
101324.993
101324.993
101324.992
101324.992
101324.991
101324.991
101324.99
101324.99
101324.989
101324.989
101324.988
101324.987
101324.986
101324.986
101324.985
101324.984
101324.983
101324.982
101324.981
101324.98
101324.979
101324.978
101324.976
101324.975
101324.974
101324.972
101324.971
101324.969
101324.967
101324.965
101324.963
101324.961
101324.959
101324.957
101324.955
101324.952
101324.95
101324.947
101324.944
101324.941
101324.938
101324.934
101324.931
101324.927
101324.923
101324.919
101324.915
101324.911
101324.906
101324.901
101324.896
101324.891
101324.885
101324.879
101324.873
101324.867
101324.86
101324.853
101324.845
101324.838
101324.829
101324.821
101324.812
101324.803
101324.793
101324.783
101324.772
101324.761
101324.75
101324.738
101324.725
101324.712
101324.698
101324.684
101324.669
101324.654
101324.637
101324.62
101324.603
101324.585
101324.565
101324.546
101324.525
101324.503
101324.481
101324.458
101324.433
101324.408
101324.382
101324.355
101324.326
101324.297
101324.266
101324.234
101324.201
101324.167
101324.132
101324.095
101324.057
101324.017
101323.976
101323.933
101323.889
101323.844
101323.796
101323.747
101323.697
101323.644
101323.59
101323.534
101323.476
101323.416
101323.354
101323.29
101323.224
101323.155
101323.085
101323.012
101322.937
101322.859
101322.78
101322.697
101322.612
101322.525
101322.435
101322.342
101322.246
101322.148
101322.047
101321.943
101321.836
101321.726
101321.613
101321.496
101321.377
101321.255
101321.129
101321
101320.867
101320.732
101320.592
101320.45
101320.303
101320.154
101320
101319.843
101319.683
101319.518
101319.35
101319.179
101319.003
101318.824
101318.64
101318.453
101318.262
101318.068
101317.869
101317.666
101317.46
101317.25
101317.035
101316.817
101316.595
101316.369
101316.14
101315.906
101315.669
101315.428
101315.183
101314.934
101314.682
101314.426
101314.167
101313.904
101313.637
101313.368
101313.094
101312.818
101312.539
101312.256
101311.97
101311.682
101311.39
101311.096
101310.8
101310.5
101310.199
101309.895
101309.589
101309.281
101308.971
101308.66
101308.347
101308.032
101307.716
101307.399
101307.081
101306.762
101306.443
101306.123
101305.803
101305.482
101305.162
101304.842
101304.522
101304.203
101303.885
101303.568
101303.252
101302.938
101302.625
101302.314
101302.005
101301.698
101301.394
101301.092
101300.793
101300.498
101300.205
101299.916
101299.631
101299.349
101299.072
101298.798
101298.53
101298.265
101298.006
101297.752
101297.503
101297.259
101297.021
101296.789
101296.562
101296.342
101296.127
101295.92
101295.718
101295.523
101295.335
101295.154
101294.98
101294.814
101294.654
101294.502
101294.357
101294.219
101294.09
101293.967
101293.853
101293.746
101293.647
101293.556
101293.473
101293.398
101293.33
101293.271
101293.219
101293.175
101293.139
101293.111
101293.09
101293.077
101293.072
101293.074
101293.084
101293.101
101293.125
101293.157
101293.195
101293.241
101293.293
101293.352
101293.418
101293.49
101293.568
101293.652
101293.742
101293.839
101293.94
101294.047
101294.159
101294.277
101294.399
101294.526
101294.657
101294.793
101294.932
101295.076
101295.223
101295.374
101295.528
101295.685
101295.844
101296.007
101296.172
101296.339
101296.508
101296.679
101296.851
101297.025
101297.2
101297.376
101297.553
101297.731
101297.909
101298.088
101298.266
101298.445
101298.623
101298.801
101298.979
101299.155
101299.331
101299.506
101299.68
101299.853
101300.024
101300.194
101300.362
101300.529
101300.694
101300.857
101301.018
101301.177
101301.333
101301.488
101301.641
101301.791
101301.938
101302.084
101302.227
101302.367
101302.505
101302.641
101302.774
101302.904
101303.032
101303.157
101303.279
101303.399
101303.517
101303.632
101303.744
101303.854
101303.961
101304.066
101304.168
101304.268
101304.366
101304.461
101304.554
101304.644
101304.733
101304.819
101304.903
101304.985
101305.065
101305.143
101305.219
101305.293
101305.366
101305.436
101305.505
101305.572
101305.638
101305.702
101305.765
101305.826
101305.886
101305.944
101306.001
101306.057
101306.112
101306.166
101306.218
101306.27
101306.321
101306.37
101306.419
101306.468
101306.515
101306.562
101306.608
101306.653
101306.698
101306.743
101306.787
101306.83
101306.873
101306.916
101306.959
101307.001
101307.043
101307.084
101307.126
101307.167
101307.209
101307.25
101307.291
101307.332
101307.373
101307.414
101307.455
101307.496
101307.538
101307.579
101307.62
101307.661
101307.703
101307.745
101307.786
101307.828
101307.87
101307.912
101307.954
101307.996
101308.039
101308.081
101308.124
101308.166
101308.209
101308.251
101308.294
101308.337
101308.38
101308.422
101308.465
101308.507
101308.55
101308.592
101308.634
101308.676
101308.718
101308.76
101308.801
101308.842
101308.883
101308.923
101308.963
101309.002
101309.042
101309.08
101309.119
101309.156
101309.193
101309.23
101309.266
101309.302
101309.336
101309.371
101309.404
101309.437
101309.469
101309.5
101309.531
101309.561
101309.59
101309.618
101309.646
101309.673
101309.699
101309.724
101309.748
101309.772
101309.795
101309.817
101309.838
101309.859
101309.879
101309.898
101309.916
101309.934
101309.951
101309.967
101309.983
101309.998
101310.012
101310.026
101310.039
101310.051
101310.064
101310.075
101310.086
101310.097
101310.107
101310.117
101310.127
101310.136
101310.145
101310.154
101310.162
101310.17
101310.179
101310.187
101310.195
101310.203
101310.211
101310.219
101310.227
101310.235
101310.243
101310.252
101310.261
101310.27
101310.279
101310.289
101310.299
101310.309
101310.32
101310.332
101310.344
101310.357
101310.37
101310.384
101310.398
101310.413
101310.429
101310.446
101310.463
101310.481
101310.5
101310.519
101310.54
101310.561
101310.583
101310.605
101310.629
101310.653
101310.678
101310.703
101310.729
101310.756
101310.784
101310.812
101310.84
101310.869
101310.899
101310.928
101310.958
101310.989
101311.019
101311.05
101311.08
101311.111
101311.141
101311.172
101311.202
101311.231
101311.261
101311.29
101311.318
101311.346
101311.373
101311.4
101311.426
101311.451
101311.475
101311.499
101311.521
101311.543
101311.564
101311.584
101311.603
101311.621
101311.639
101311.656
101311.671
101311.686
101311.701
101311.714
101311.727
101311.74
101311.752
101311.763
101311.774
101311.784
101311.794
101311.804
101311.814
101311.823
101311.832
101311.841
101311.85
101311.859
101311.868
101311.877
101311.886
101311.895
101311.904
101311.913
101311.922
101311.931
101311.94
101311.95
101311.959
101311.969
101311.978
101311.988
101311.998
101312.007
101312.017
101312.027
101312.037
101312.047
101312.057
101312.067
101312.077
101312.087
101312.097
101312.107
101312.118
101312.128
101312.139
101312.149
101312.16
101312.171
101312.182
101312.193
101312.205
101312.217
101312.229
101312.242
101312.255
101312.268
101312.283
101312.297
101312.313
101312.328
101312.345
101312.362
101312.38
101312.398
101312.417
101312.435
101312.454
101312.472
101312.49
101312.504
101312.501
101312.48
101312.825
101312.989
101312.906
101312.255
101312.15
101312.131
101312.241
101312.283
101312.393
101312.422
101312.47
101312.479
101312.489
101312.482
101312.475
101312.463
101312.452
101312.439
101312.427
101312.415
101312.403
101312.392
101312.381
101312.37
101312.36
101312.35
101312.34
101312.331
101312.323
101312.314
101312.306
101312.298
101312.29
101312.283
101312.276
101312.269
101312.262
101312.255
101312.249
101312.243
101312.236
101312.23
101312.224
101312.218
101312.212
101312.206
101312.201
101312.195
101312.189
101312.183
101312.178
101312.172
101312.166
101312.161
101312.155
101312.149
101312.144
101312.138
101312.132
101312.127
101312.121
101312.115
101312.11
101312.104
101312.098
101312.093
101312.087
101312.082
101312.076
101312.07
101312.065
101312.059
101312.053
101312.047
101312.042
101312.036
101312.03
101312.025
101312.019
101312.013
101312.007
101312.002
101311.996
101311.99
101311.985
101311.979
101311.973
101311.967
101311.962
101311.956
101311.95
101311.944
101311.939
101311.933
101311.927
101311.922
101311.916
101311.91
101311.905
101311.899
101311.894
101311.888
101311.883
101311.877
101311.872
101311.866
101311.861
101311.855
101311.85
101311.845
101311.839
101311.834
101311.829
101311.823
101311.818
101311.813
101311.807
101311.802
101311.797
101311.791
101311.786
101311.781
101311.775
101311.77
101311.765
101311.759
101311.754
101311.748
101311.743
101311.737
101311.731
101311.725
101311.719
101311.713
101311.707
101311.701
101311.695
101311.688
101311.682
101311.675
101311.668
101311.661
101311.654
101311.647
101311.639
101311.632
101311.624
101311.616
101311.608
101311.599
101311.591
101311.582
101311.573
101311.563
101311.554
101311.544
101311.534
101311.524
101311.514
101311.503
101311.493
101311.482
101311.47
101311.459
101311.447
101311.436
101311.424
101311.411
101311.399
101311.386
101311.373
101311.36
101311.347
101311.334
101311.32
101311.306
101311.292
101311.278
101311.264
101311.249
101311.235
101311.22
101311.205
101311.19
101311.175
101311.159
101311.144
101311.129
101311.114
101311.098
101311.083
101311.068
101311.052
101311.037
101311.021
101311.006
101310.99
101310.975
101310.959
101310.944
101310.929
101310.913
101310.898
101310.883
101310.868
101310.853
101310.838
101310.823
101310.808
101310.794
101310.779
101310.765
101310.751
101310.736
101310.723
101310.709
101310.695
101310.682
101310.668
101310.655
101310.642
101310.629
101310.617
101310.604
101310.592
101310.58
101310.568
101310.556
101310.545
101310.534
101310.522
101310.511
101310.501
101310.49
101310.48
101310.47
101310.46
101310.45
101310.44
101310.431
101310.422
101310.412
101310.404
101310.395
101310.386
101310.378
101310.37
101310.362
101310.354
101310.346
101310.339
101310.331
101310.324
101310.317
101310.31
101310.303
101310.296
101310.29
101310.283
101310.277
101310.271
101310.265
101310.259
101310.253
101310.247
101310.241
101310.235
101310.23
101310.224
101310.219
101310.213
101310.208
101310.203
101310.198
101310.193
101310.187
101310.182
101310.177
101310.172
101310.167
101310.162
101310.157
101310.152
101310.147
101310.142
101310.137
101310.133
101310.128
101310.123
101310.117
101310.112
101310.107
101310.102
101310.097
101310.092
101310.087
101310.081
101310.076
101310.07
101310.065
101310.059
101310.054
101310.048
101310.042
101310.036
101310.03
101310.024
101310.018
101310.012
101310.005
101309.999
101309.992
101309.986
101309.979
101309.972
101309.965
101309.958
101309.95
101309.943
101309.935
101309.928
101309.92
101309.912
101309.904
101309.895
101309.887
101309.878
101309.87
101309.861
101309.852
101309.843
101309.833
101309.824
101309.814
101309.804
101309.794
101309.784
101309.774
101309.763
101309.752
101309.741
101309.73
101309.719
101309.708
101309.696
101309.684
101309.672
101309.66
101309.648
101309.635
101309.622
101309.609
101309.596
101309.583
101309.57
101309.556
101309.542
101309.528
101309.514
101309.499
101309.485
101309.47
101309.455
101309.44
101309.424
101309.409
101309.393
101309.377
101309.361
101309.345
101309.329
101309.312
101309.295
101309.278
101309.261
101309.244
101309.226
101309.209
101309.191
101309.173
101309.155
101309.137
101309.118
101309.1
101309.081
101309.062
101309.043
101309.024
101309.005
101308.986
101308.966
101308.946
101308.927
101308.907
101308.887
101308.867
101308.846
101308.826
101308.806
101308.785
101308.764
101308.744
101308.723
101308.702
101308.681
101308.66
101308.639
101308.617
101308.596
101308.575
101308.553
101308.532
101308.51
101308.489
101308.467
101308.445
101308.423
101308.402
101308.38
101308.358
101308.336
101308.314
101308.292
101308.27
101308.248
101308.226
101308.204
101308.182
101308.159
101308.137
101308.115
101308.093
101308.071
101308.049
101308.027
101308.005
101307.982
101307.96
101307.938
101307.916
101307.894
101307.872
101307.85
101307.828
101307.806
101307.784
101307.762
101307.74
101307.718
101307.696
101307.674
101307.652
101307.63
101307.609
101307.587
101307.565
101307.543
101307.521
101307.5
101307.478
101307.456
101307.435
101307.413
101307.391
101307.37
101307.348
101307.327
101307.305
101307.284
101307.262
101307.241
101307.219
101307.198
101307.176
101307.155
101307.133
101307.112
101307.09
101307.069
101307.047
101307.025
101307.004
101306.982
101306.961
101306.939
101306.918
101306.896
101306.874
101306.852
101306.831
101306.809
101306.787
101306.765
101306.743
101306.721
101306.699
101306.677
101306.655
101306.633
101306.61
101306.588
101306.565
101306.543
101306.519
101306.494
101306.466
101306.437
101306.405
101306.371
101306.334
101306.294
101306.25
101306.203
101306.152
101306.096
101306.036
101305.969
101305.897
101305.817
101305.729
101305.631
101305.523
101305.402
101305.267
101305.115
101304.943
101304.748
101304.525
101304.269
101303.973
101303.631
101303.233
101302.769
101302.227
101301.596
101300.863
101300.017
101299.05
101297.964
101296.771
101295.507
101294.232
101293.044
101292.084
101291.531
101291.592
101292.47
101294.323
101297.201
101300.999
101305.438
101310.091
101314.477
101318.184
101320.983
101322.862
101323.979
101324.564
101324.834
101324.944
101324.983
101324.996
101324.999
101325
101325
101325
101325
101325
101325
101325
101325
101325
101325
101325
101325
101325
101325
101325
101325
101325
)
;

boundaryField
{
    closed
    {
        type            zeroGradient;
    }
    open
    {
        type            waveTransmissive;
        gamma           1.25;
        fieldInf        101325;
        lInf            1;
        value           uniform 101325;
    }
    sides
    {
        type            empty;
    }
}


// ************************************************************************* //
