/*--------------------------------*- C++ -*----------------------------------*\
| =========                 |                                                 |
| \\      /  F ield         | OpenFOAM: The Open Source CFD Toolbox           |
|  \\    /   O peration     | Version:  2206                                  |
|   \\  /    A nd           | Website:  www.openfoam.com                      |
|    \\/     M anipulation  |                                                 |
\*---------------------------------------------------------------------------*/
FoamFile
{
    version     2.0;
    format      ascii;
    arch        "LSB;label=32;scalar=64";
    class       surfaceScalarField;
    location    "1.34e-05";
    object      phi;
}
// * * * * * * * * * * * * * * * * * * * * * * * * * * * * * * * * * * * * * //

dimensions      [1 0 -1 0 0 0 0];

oriented        oriented;

internalField   nonuniform List<scalar> 
3182
(
4.78289235e-18
-2.51699273e-18
-1.20256571e-18
-1.82929341e-18
-4.43479425e-21
-2.71895167e-23
-1.94809542e-24
4.18941861e-29
2.60258923e-24
4.91149467e-23
5.4039246e-21
3.21090529e-18
3.52312997e-18
-1.0024925e-19
1.64233784e-18
-9.40425343e-19
-3.41012156e-18
-5.10621337e-18
-3.64859502e-18
4.39576027e-18
5.82801677e-20
9.30256673e-22
6.87527052e-19
2.11803833e-18
3.64922707e-18
2.0658327e-18
5.44688866e-18
2.52838668e-18
1.31831047e-18
1.19514047e-18
-1.32097393e-18
-4.61842422e-18
-4.67613514e-18
-6.92868003e-18
-6.34897944e-18
-4.25691381e-18
-3.8628829e-18
-2.4347656e-18
-2.83096232e-18
-3.42127247e-18
-3.67995921e-18
-2.15756973e-18
-2.27625079e-18
6.24742017e-19
1.42966295e-18
1.62579671e-18
3.89483961e-18
4.87103103e-18
6.28709705e-18
6.84521801e-18
9.12173656e-18
1.05584183e-17
1.16137286e-17
1.226572e-17
1.21557917e-17
1.17391265e-17
9.77251503e-18
8.26294839e-18
6.73590301e-18
5.64232384e-18
2.1796411e-18
1.97713282e-19
-2.44254371e-18
-4.14327027e-18
-5.16051929e-18
-5.60254335e-18
-7.78506821e-18
-9.94399213e-18
-1.12514505e-17
-1.34848419e-17
-1.5619733e-17
-1.76474792e-17
-1.94442125e-17
-2.00296095e-17
-2.1327471e-17
-2.35063167e-17
-2.44972521e-17
-2.53241056e-17
-2.52589768e-17
-2.68922011e-17
-2.82142075e-17
-3.10519721e-17
-2.99060589e-17
-3.17425699e-17
-3.22154354e-17
-3.27275503e-17
-3.41107873e-17
-3.24308094e-17
-3.29842451e-17
-3.43904096e-17
-3.40232343e-17
-3.51199777e-17
-3.66636585e-17
-3.70173162e-17
-3.72056432e-17
-3.79503762e-17
-4.02472811e-17
-4.0071791e-17
-4.05671998e-17
-4.21925697e-17
-4.32690715e-17
-4.37916833e-17
-4.63445885e-17
-4.18637539e-17
-4.7999724e-17
-4.65596985e-17
-4.39838293e-17
-4.52637509e-17
-4.20455113e-17
-3.95962852e-17
-4.04641332e-17
-3.94454137e-17
-3.7190881e-17
-3.91688823e-17
-3.7835152e-17
-3.92237376e-17
-3.81543862e-17
-3.875729e-17
-4.36586392e-17
-4.43473219e-17
-4.32706671e-17
-4.60507664e-17
-4.47876131e-17
-4.50370221e-17
-4.3991253e-17
-4.53211221e-17
-4.60066757e-17
-4.53886468e-17
-4.56608534e-17
-4.4498554e-17
-4.47564257e-17
-4.42942328e-17
-4.3947405e-17
-4.73707446e-17
-4.65746813e-17
-4.73498038e-17
-4.97605003e-17
-4.66760864e-17
-4.89240528e-17
-4.9220588e-17
-4.76070548e-17
-4.47563946e-17
-4.54563638e-17
-4.5288939e-17
-4.66529558e-17
-4.54901225e-17
-4.66328608e-17
-4.62757994e-17
-4.49783164e-17
-4.56583006e-17
-4.70846166e-17
-4.65953846e-17
-5.0012108e-17
-4.90346466e-17
-5.15851105e-17
-5.34475395e-17
-5.39728244e-17
-5.7290314e-17
-5.76197148e-17
-5.76830259e-17
-6.00310431e-17
-6.04794148e-17
-6.12959376e-17
-6.11700974e-17
-6.00289398e-17
-6.30572463e-17
-6.18037585e-17
-6.40522481e-17
-6.59792689e-17
-6.49563566e-17
-6.43423931e-17
-6.90715873e-17
-6.70002105e-17
-6.69342385e-17
-6.43568025e-17
-6.77100008e-17
-6.73471987e-17
-6.99238419e-17
-6.65077318e-17
-6.97211312e-17
-6.80654375e-17
-7.10685367e-17
-6.86197495e-17
-6.88185275e-17
-6.95960411e-17
-7.37295411e-17
-7.53687275e-17
-7.74706865e-17
-7.62855629e-17
-7.73472167e-17
-7.75732356e-17
-7.77158712e-17
-7.88335528e-17
-7.73166773e-17
-8.09026303e-17
-8.00362314e-17
-8.33903818e-17
-8.31168864e-17
-8.1288014e-17
-8.36405182e-17
-8.11423426e-17
-8.24648611e-17
-8.32111657e-17
-8.42948135e-17
-8.57249688e-17
-8.56276506e-17
-8.27178161e-17
-8.27649669e-17
-8.69289402e-17
-8.49079999e-17
-8.50766013e-17
-8.61250613e-17
-8.6731279e-17
-8.84731366e-17
-9.03204889e-17
-8.99180121e-17
-9.01921208e-17
-8.89352023e-17
-8.70953555e-17
-8.95119013e-17
-8.92933946e-17
-8.90473724e-17
-8.73320543e-17
-8.97365516e-17
-8.81867846e-17
-8.87814346e-17
-8.7572677e-17
-8.69829723e-17
-8.80135569e-17
-8.84267029e-17
-8.59887967e-17
-8.56297663e-17
-8.66008852e-17
-8.95781107e-17
-8.84637015e-17
-9.18160203e-17
-9.09726645e-17
-9.0298977e-17
-8.94505307e-17
-9.10289855e-17
-9.20884678e-17
-9.37737358e-17
-9.36584772e-17
-9.24264068e-17
-9.36129969e-17
-9.03743084e-17
-9.11401253e-17
-9.42942539e-17
-9.04555496e-17
-9.08696021e-17
-9.17945579e-17
-9.04354927e-17
-9.06343535e-17
-9.08308055e-17
-9.26745195e-17
-8.97281097e-17
-8.98538471e-17
-8.84418455e-17
-8.89940097e-17
-8.76078605e-17
-9.07268006e-17
-9.01718659e-17
-9.36638529e-17
-9.32559124e-17
-9.2054642e-17
-9.01054533e-17
-9.45779227e-17
-9.49891581e-17
-9.21408031e-17
-9.44706905e-17
-9.44285863e-17
-9.3027831e-17
-9.21369843e-17
-9.70303188e-17
-9.65161338e-17
-9.77784969e-17
-9.73670043e-17
-9.5474361e-17
-9.56031024e-17
-9.62138727e-17
-9.92665192e-17
-9.68620806e-17
-9.72527298e-17
-9.88833071e-17
-9.61892618e-17
-9.74653602e-17
-9.93425608e-17
-9.81349357e-17
-9.76014365e-17
-9.61243489e-17
-9.94966669e-17
-9.85541094e-17
-9.56502929e-17
-9.99910407e-17
-9.84328977e-17
-1.00896352e-16
-1.0140577e-16
-1.02275694e-16
-1.04389232e-16
-1.07165774e-16
-1.07532144e-16
-1.07692481e-16
-1.08388263e-16
-1.08481217e-16
-1.07926784e-16
-1.09355466e-16
-1.08264991e-16
-1.08706282e-16
-1.11531747e-16
-1.10741857e-16
-1.09980606e-16
-1.0952839e-16
-1.13712049e-16
-1.15078975e-16
-1.14641986e-16
-1.16105171e-16
-1.18616034e-16
-1.16765593e-16
-1.18398045e-16
-1.21251154e-16
-1.21160699e-16
-1.18433103e-16
-1.18955456e-16
-1.17518851e-16
-1.18212204e-16
-1.18810376e-16
-1.18217482e-16
-1.15950185e-16
-1.15646164e-16
-1.12486008e-16
-1.15124628e-16
-1.14119334e-16
-1.13098673e-16
-1.12716818e-16
-1.09515423e-16
-1.09541909e-16
-1.08791785e-16
-1.07939051e-16
-1.06245105e-16
-1.08684835e-16
-1.10842814e-16
-1.0950068e-16
-1.09999128e-16
-1.09370914e-16
-1.08465001e-16
-1.09643121e-16
-1.08914626e-16
-1.13302964e-16
-1.13699848e-16
-1.11070185e-16
-1.12297253e-16
-1.12311577e-16
-1.12473485e-16
-1.13948562e-16
-1.11788574e-16
-1.09286363e-16
-1.11899536e-16
-1.12698907e-16
-1.14152436e-16
-1.11767225e-16
-1.12696572e-16
-1.17306857e-16
-1.13379576e-16
-1.12916675e-16
-1.1537429e-16
-1.1467702e-16
-1.14510278e-16
-1.15948782e-16
-1.14583036e-16
-1.13977837e-16
-1.09413696e-16
-1.09826957e-16
-1.09433268e-16
-1.07010306e-16
-1.06699015e-16
-1.07728697e-16
-1.09888077e-16
-1.07717997e-16
-1.04504517e-16
-1.09576617e-16
-1.11358103e-16
-1.0890721e-16
-1.08114078e-16
-1.09650903e-16
-1.05698964e-16
-1.04073826e-16
-1.02423573e-16
-1.02042133e-16
-1.02236008e-16
-1.0128499e-16
-1.02364553e-16
-1.00786895e-16
-9.62786682e-17
-9.6347912e-17
-9.62306754e-17
-9.74125772e-17
-9.33717152e-17
-9.38956854e-17
-9.06844171e-17
-9.14701632e-17
-9.02968163e-17
-8.65429628e-17
-8.67656327e-17
-8.66444685e-17
-8.44963106e-17
-8.44346279e-17
-8.67669993e-17
-8.94523952e-17
-8.90418653e-17
-9.26684694e-17
-9.2342189e-17
-9.46838362e-17
-9.58196067e-17
-9.34545899e-17
-9.07594207e-17
-8.99344832e-17
-8.62245045e-17
-8.716767e-17
-8.73876332e-17
-8.90927166e-17
-8.67192247e-17
-8.9882143e-17
-8.76292994e-17
-8.99714278e-17
-9.18757757e-17
-9.23678816e-17
-9.01183161e-17
-8.66251142e-17
-8.3897631e-17
-8.60923056e-17
-8.51181092e-17
-8.50108129e-17
-8.31153223e-17
-8.41239962e-17
-8.84472156e-17
-8.40934697e-17
-8.16849556e-17
-7.64114212e-17
-7.68779803e-17
-7.4895526e-17
-7.3634579e-17
-7.38719578e-17
-7.48369208e-17
-7.14330128e-17
-7.29297917e-17
-7.61525166e-17
-7.23448854e-17
-7.46496549e-17
-7.41958293e-17
-7.04328146e-17
-6.91342301e-17
-6.84539874e-17
-6.58968846e-17
-6.41342462e-17
-6.22734738e-17
-6.13237742e-17
-5.9165481e-17
-5.99467796e-17
-6.11223634e-17
-6.11302018e-17
-6.00474109e-17
-6.37046752e-17
-6.05643165e-17
-6.35287592e-17
-5.88211673e-17
-5.65414706e-17
-5.52721798e-17
-5.18764914e-17
-4.92461308e-17
-5.11879517e-17
-5.36257608e-17
-4.97683669e-17
-5.29478894e-17
-4.99916963e-17
-4.91120022e-17
-4.83200268e-17
-5.36494423e-17
-5.17848054e-17
-5.02300454e-17
-5.33246954e-17
-4.90218554e-17
-4.73469314e-17
-4.77887179e-17
-4.47466858e-17
-4.39989161e-17
-4.39792883e-17
-4.2939958e-17
-4.19533053e-17
-3.99884581e-17
-4.09026516e-17
-4.02596935e-17
-4.21650318e-17
-4.31825188e-17
-4.17353239e-17
-4.24948464e-17
-4.37272264e-17
-4.20822814e-17
-3.92089147e-17
-3.8835201e-17
-3.73117797e-17
-3.81768656e-17
-4.10562106e-17
-4.09098097e-17
-4.20021315e-17
-4.196863e-17
-4.12865125e-17
-4.04217975e-17
-4.1691655e-17
-4.26046095e-17
-4.20884e-17
-4.19424805e-17
-4.33579788e-17
-4.45719549e-17
-4.24917785e-17
-3.91541379e-17
-4.05254673e-17
-4.00914231e-17
-3.80195745e-17
-3.5867255e-17
-3.40985074e-17
-2.99935767e-17
-2.82559283e-17
-2.93814435e-17
-3.01992744e-17
-3.0669052e-17
-2.76965332e-17
-2.92659482e-17
-2.62784058e-17
-2.51651574e-17
-2.49073949e-17
-2.57814822e-17
-2.51027963e-17
-2.54145901e-17
-2.3031831e-17
-2.28592121e-17
-2.31610017e-17
-2.51851211e-17
-2.88164076e-17
-2.62173437e-17
-2.37855377e-17
-2.69355053e-17
-2.68746374e-17
-2.39810432e-17
-2.32043971e-17
-2.23851636e-17
-1.93541745e-17
-2.02650405e-17
-1.78193695e-17
-1.79965737e-17
-1.85980816e-17
-1.79344951e-17
-2.03915847e-17
-1.89328678e-17
-1.93368956e-17
-2.16786059e-17
-1.84498708e-17
-1.93849518e-17
-1.9525943e-17
-2.06894789e-17
-1.87958071e-17
-1.69509582e-17
-1.89240798e-17
-1.45232468e-17
-1.3520006e-17
-1.36322841e-17
-1.27200417e-17
-1.24213955e-17
-1.16672098e-17
-8.7791928e-18
-7.44957672e-18
-8.17304427e-18
-5.36666524e-18
-3.42266663e-18
-2.14463171e-18
-2.86097894e-18
-1.05494049e-18
-5.55286336e-18
-6.15611022e-18
-1.62464482e-18
-1.08613346e-18
-9.16834131e-19
1.43300309e-18
1.01202896e-18
-1.38222612e-18
2.70689916e-18
-3.44251521e-19
2.82706317e-18
1.89024054e-18
1.91591698e-18
3.70038412e-18
5.96849314e-18
2.99324888e-18
2.2045515e-18
2.50846186e-18
3.83695852e-18
9.56733427e-18
7.95430657e-18
5.70915488e-18
5.44531944e-18
4.14611573e-18
7.19095559e-18
8.77313653e-18
7.31410594e-18
6.30477688e-18
5.84255491e-18
6.8664064e-18
6.9578523e-18
4.78799592e-18
5.43276636e-18
4.0206289e-18
4.32091439e-18
1.48623126e-18
2.36741633e-18
5.4879739e-18
6.13536722e-18
4.70077395e-18
6.52400794e-19
2.90511975e-18
5.75651994e-18
9.95414561e-18
1.12362921e-17
1.13031402e-17
1.13789173e-17
1.24186033e-17
1.50377208e-17
1.50296487e-17
1.29531666e-17
1.28788724e-17
1.10464837e-17
9.95668612e-18
1.10329714e-17
1.08518815e-17
1.12422878e-17
1.25519366e-17
1.2526581e-17
1.40646484e-17
1.02035793e-17
1.22102055e-17
1.33432633e-17
1.21149678e-17
1.4392256e-17
1.29121474e-17
1.19807831e-17
1.3887182e-17
1.3113576e-17
1.254338e-17
1.24810807e-17
1.7835621e-17
1.98178676e-17
2.20280075e-17
2.16612069e-17
2.00562961e-17
1.77589109e-17
1.69483367e-17
1.62659006e-17
1.60071212e-17
1.57077609e-17
1.51974435e-17
1.59227675e-17
1.52794959e-17
1.52550216e-17
1.57670194e-17
1.70633619e-17
1.55979468e-17
1.81078935e-17
2.10893526e-17
2.20384125e-17
1.82068388e-17
2.14384894e-17
2.42841045e-17
2.35213494e-17
2.39520953e-17
2.58006351e-17
2.76030686e-17
2.53403101e-17
2.71709119e-17
3.00170173e-17
3.09624002e-17
3.09060139e-17
3.49884379e-17
3.39415929e-17
3.4701667e-17
3.87051093e-17
3.97170971e-17
3.90718425e-17
3.95407906e-17
4.05423794e-17
3.82026447e-17
4.00031702e-17
3.74661935e-17
3.70565816e-17
3.55145665e-17
3.8430866e-17
3.81942376e-17
4.4262173e-17
4.25966699e-17
4.40102225e-17
4.37059408e-17
4.61914061e-17
4.51980999e-17
4.45750183e-17
4.68115361e-17
4.35889285e-17
4.69272058e-17
4.31497324e-17
4.68582548e-17
4.69697278e-17
4.60941003e-17
4.73066483e-17
4.59733216e-17
4.71644966e-17
4.67403482e-17
4.9821615e-17
4.91930806e-17
5.05004352e-17
5.32755703e-17
4.92364659e-17
4.88352858e-17
4.67169862e-17
5.14598192e-17
5.49988463e-17
5.4618973e-17
5.39942352e-17
5.59202844e-17
5.34025932e-17
5.41742846e-17
5.53168861e-17
5.30917025e-17
5.60581554e-17
5.96595815e-17
6.09136122e-17
6.14518462e-17
6.18303631e-17
6.45334471e-17
6.64445006e-17
6.38026066e-17
6.6446894e-17
6.71938903e-17
6.69987466e-17
6.94122336e-17
6.97201092e-17
6.90331355e-17
6.83174566e-17
7.0118255e-17
7.17755966e-17
6.85022988e-17
7.20806477e-17
7.01969944e-17
7.04106334e-17
6.71211932e-17
6.96780503e-17
7.09092094e-17
7.05935761e-17
7.26182656e-17
7.50529229e-17
7.49721039e-17
7.01849977e-17
6.87639307e-17
6.74703344e-17
6.964941e-17
7.05084177e-17
7.24265592e-17
7.11767852e-17
7.42511271e-17
7.03068392e-17
7.21799614e-17
6.76660675e-17
6.91638669e-17
6.55911437e-17
6.72955131e-17
6.52819247e-17
6.59755159e-17
6.77312845e-17
6.65600737e-17
6.46054385e-17
6.7630583e-17
6.62738624e-17
6.69812431e-17
6.82987977e-17
6.78179497e-17
6.98961877e-17
6.59148989e-17
6.90083497e-17
6.77641359e-17
6.48309826e-17
6.7052256e-17
6.85671209e-17
6.30153226e-17
6.55392922e-17
6.16802649e-17
6.39072306e-17
6.45857979e-17
6.13680763e-17
6.27372314e-17
6.3715974e-17
7.17363578e-17
7.18431888e-17
6.96571578e-17
6.95040017e-17
6.74051309e-17
6.7176478e-17
6.7075627e-17
6.66925774e-17
6.68377818e-17
6.69324049e-17
6.09018068e-17
6.26116948e-17
5.97491867e-17
5.68613278e-17
5.83077501e-17
5.37649593e-17
5.65700731e-17
5.49902195e-17
5.74507434e-17
6.14244468e-17
5.84767996e-17
5.78943058e-17
5.90581976e-17
5.82000585e-17
6.20722409e-17
6.02397581e-17
6.3571551e-17
6.28370653e-17
6.27261562e-17
6.13602343e-17
6.2284122e-17
6.15099312e-17
6.05311822e-17
6.11934141e-17
5.98141905e-17
6.08522313e-17
5.78601478e-17
5.62327917e-17
5.67156777e-17
5.87088751e-17
5.81876887e-17
6.11138087e-17
5.61801935e-17
5.8630734e-17
5.83670293e-17
5.99950109e-17
5.81366191e-17
5.9495322e-17
5.80557453e-17
6.11726546e-17
5.82878882e-17
5.88457443e-17
6.12103494e-17
5.89798876e-17
6.11995119e-17
5.85311372e-17
6.07261004e-17
6.3891596e-17
6.15627984e-17
6.23407694e-17
6.35892622e-17
6.36374668e-17
6.27456768e-17
6.29196039e-17
6.5373393e-17
6.62297861e-17
6.78511282e-17
6.5692246e-17
6.81101011e-17
6.82320185e-17
7.17524957e-17
7.04959354e-17
6.9319365e-17
6.75977884e-17
6.90176977e-17
6.56358686e-17
6.51149244e-17
6.79651183e-17
6.63299401e-17
6.52069314e-17
6.51473891e-17
6.64194694e-17
6.40789728e-17
6.5611797e-17
6.36641018e-17
6.35295346e-17
6.25108438e-17
6.43882365e-17
6.0081995e-17
6.03821379e-17
6.27780559e-17
6.33871063e-17
6.1621842e-17
5.90625294e-17
6.2150112e-17
6.1580046e-17
6.2443121e-17
6.11297668e-17
6.30946942e-17
6.30501351e-17
6.17409661e-17
6.09734899e-17
5.96058e-17
6.0285569e-17
5.94901425e-17
5.56775793e-17
5.61193646e-17
5.2265469e-17
5.09263283e-17
5.36463321e-17
4.98448576e-17
5.24214396e-17
5.05267184e-17
4.9237187e-17
5.04411428e-17
4.94053928e-17
4.5508307e-17
4.69326431e-17
4.88134292e-17
5.08691366e-17
5.09295686e-17
5.21992897e-17
5.50177597e-17
5.35780335e-17
5.61909297e-17
5.84282671e-17
5.69232326e-17
5.80719688e-17
5.75863295e-17
5.80494672e-17
5.54393454e-17
5.61964962e-17
5.33335849e-17
5.26527803e-17
5.08311324e-17
5.24770772e-17
5.41966535e-17
5.42101249e-17
5.47235317e-17
5.72096022e-17
5.50744684e-17
5.65706162e-17
5.40994271e-17
5.28417472e-17
5.45249729e-17
5.60348056e-17
5.52551558e-17
5.72463394e-17
5.72831816e-17
5.92063457e-17
5.58926408e-17
5.83423428e-17
5.72226379e-17
5.72041651e-17
5.97749011e-17
5.96597843e-17
5.74399347e-17
6.00019376e-17
5.6955235e-17
5.99554524e-17
5.49612048e-17
5.60360249e-17
5.63580586e-17
5.49850122e-17
5.48044954e-17
5.33881397e-17
5.44396883e-17
5.39015256e-17
5.62867654e-17
5.39278336e-17
5.37396311e-17
5.24413315e-17
5.30898142e-17
5.43873354e-17
5.27607152e-17
5.23588909e-17
5.26493858e-17
5.3300176e-17
5.26542223e-17
5.60423162e-17
5.17742518e-17
5.19794182e-17
5.24135632e-17
4.89939387e-17
4.82254309e-17
4.85993987e-17
5.04011176e-17
4.85343308e-17
5.14430614e-17
5.14508724e-17
4.86969347e-17
4.92444693e-17
4.72475625e-17
4.59458297e-17
4.57094147e-17
4.80035098e-17
4.49387662e-17
4.93984318e-17
4.62148823e-17
4.73693354e-17
4.77115382e-17
4.77015969e-17
4.78705805e-17
4.58498101e-17
4.44512156e-17
4.55016906e-17
4.50966367e-17
4.57574386e-17
4.55349811e-17
4.65830212e-17
4.68393709e-17
5.05516132e-17
4.61294084e-17
4.5051959e-17
4.60953565e-17
4.60070228e-17
4.14840521e-17
3.79237634e-17
3.90008063e-17
3.96453785e-17
3.86211631e-17
4.22684691e-17
4.02135622e-17
3.93043537e-17
4.03878453e-17
3.84021708e-17
3.76228065e-17
3.59346259e-17
3.621612e-17
3.72313158e-17
3.52869235e-17
3.30828925e-17
3.49646756e-17
3.64473695e-17
3.1068873e-17
3.07644435e-17
3.01524243e-17
3.16049234e-17
3.05125872e-17
2.97635792e-17
2.83044565e-17
2.705666e-17
3.00582314e-17
2.90854724e-17
2.51940341e-17
2.86449974e-17
2.85859693e-17
3.27594733e-17
3.13132491e-17
3.11603635e-17
3.04559692e-17
3.06588208e-17
2.87394879e-17
2.54838874e-17
2.37818661e-17
2.37676042e-17
2.53080063e-17
2.52042122e-17
2.57670301e-17
2.32396705e-17
2.7714022e-17
2.70862451e-17
2.30149372e-17
2.59033837e-17
2.26909181e-17
2.21668434e-17
2.14343095e-17
2.31026064e-17
2.58012531e-17
2.44109632e-17
2.15811484e-17
2.14069411e-17
2.25302988e-17
2.14286078e-17
1.84619451e-17
2.15714536e-17
2.48084378e-17
2.27464748e-17
2.20690061e-17
2.35254892e-17
2.12648339e-17
2.55454221e-17
2.57422051e-17
2.32073862e-17
2.71824568e-17
2.7282266e-17
2.27219395e-17
2.15141308e-17
1.78743087e-17
2.08139256e-17
1.94503376e-17
1.67621084e-17
1.40367653e-17
1.51511359e-17
1.5510973e-17
1.94787235e-17
1.9451641e-17
1.73853642e-17
1.53329291e-17
1.55383183e-17
1.69545217e-17
1.16653768e-17
1.47990593e-17
9.68363828e-18
1.02409139e-17
9.23330373e-18
6.27374427e-18
2.30870816e-18
6.74451149e-19
9.1448478e-19
-1.2045542e-19
-2.17337019e-18
-4.32659347e-18
-5.70482249e-18
-8.54306582e-18
-7.88576827e-18
-7.155787e-18
-1.24237323e-17
-1.10198341e-17
-1.06206986e-17
-1.4165498e-17
-1.33689476e-17
-1.2220645e-17
-1.40847701e-17
-1.43196543e-17
-1.54000817e-17
-1.51618793e-17
-1.31225515e-17
-1.76720244e-17
-1.47602759e-17
-1.6258432e-17
-1.58612569e-17
-1.41269331e-17
-1.27884609e-17
-1.47836629e-17
-1.79613556e-17
-1.96398423e-17
-1.93357699e-17
-2.04016736e-17
-2.42142084e-17
-2.32428956e-17
-2.10820457e-17
-1.97143967e-17
-1.99408958e-17
-1.73345782e-17
-1.91799981e-17
-1.97852766e-17
-1.98987707e-17
-1.76890818e-17
-1.66142057e-17
-1.79046712e-17
-1.660726e-17
-1.84923448e-17
-2.08583064e-17
-1.79162935e-17
-1.61688661e-17
-1.88183689e-17
-1.82748188e-17
-1.67458383e-17
-1.73579458e-17
-1.91454739e-17
-2.03482826e-17
-1.89407297e-17
-2.13123115e-17
-2.50582833e-17
-2.28284627e-17
-2.57275783e-17
-2.7427579e-17
-2.66609593e-17
-2.45960866e-17
-2.5006339e-17
-2.55466842e-17
-2.59005802e-17
-2.80163603e-17
-2.71302484e-17
-2.94305205e-17
-3.10705432e-17
-3.02805017e-17
-2.84806066e-17
-2.96464942e-17
-3.3695958e-17
-3.54046732e-17
-3.42509955e-17
-3.54004063e-17
-3.39288356e-17
-3.78313384e-17
-3.71188436e-17
-4.03597818e-17
-4.39126525e-17
-4.51663434e-17
-4.57427933e-17
-4.74779406e-17
-5.26453278e-17
-5.17909617e-17
-4.84492995e-17
-5.46384616e-17
-5.66815982e-17
-5.55911238e-17
-5.45820267e-17
-5.72905883e-17
-5.13628641e-17
-5.24831776e-17
-4.93834948e-17
-5.03260792e-17
-5.55637899e-17
-5.65522764e-17
-6.16944708e-17
-6.32635263e-17
-6.08150478e-17
-6.15863052e-17
-6.31264209e-17
-6.4866743e-17
-6.30436944e-17
-6.27447738e-17
-6.3764779e-17
-6.43298971e-17
-6.69406857e-17
-6.37092365e-17
-6.61536716e-17
-6.56448344e-17
-6.69394569e-17
-6.66181282e-17
-6.64913558e-17
-6.59751846e-17
-6.60001762e-17
-6.59499054e-17
-6.41479565e-17
-6.62802203e-17
-6.70258745e-17
-6.79966665e-17
-7.05495608e-17
-6.62517991e-17
-6.51708904e-17
-6.72032583e-17
-6.22477764e-17
-6.56489562e-17
-6.17702316e-17
-5.98727111e-17
-6.24398608e-17
-6.117039e-17
-6.17087955e-17
-5.67956625e-17
-5.74623715e-17
-5.74860597e-17
-5.78801978e-17
-5.57882908e-17
-5.25538001e-17
-5.43318572e-17
-5.42823234e-17
-5.75575231e-17
-5.79971109e-17
-5.92342423e-17
-5.66661844e-17
-5.47302884e-17
-5.52206441e-17
-5.58657036e-17
-5.46319837e-17
-5.46722525e-17
-5.6885233e-17
-5.6535086e-17
-5.59961003e-17
-5.32276173e-17
-5.626746e-17
-5.55593815e-17
-5.53383742e-17
-5.52867033e-17
-5.66112764e-17
-5.27006875e-17
-5.45084169e-17
-5.20070134e-17
-5.13303112e-17
-5.33121464e-17
-5.21237232e-17
-5.20206978e-17
-5.24531308e-17
-5.04115988e-17
-4.92705661e-17
-4.91077592e-17
-4.98963823e-17
-5.25455826e-17
-5.5040221e-17
-5.54959788e-17
-5.32537609e-17
-5.65052725e-17
-5.55065992e-17
-5.79884524e-17
-5.31952212e-17
-5.41075684e-17
-5.24105344e-17
-5.07927415e-17
-4.95617175e-17
-4.75129807e-17
-5.05348666e-17
-4.7310281e-17
-5.26990418e-17
-5.35241767e-17
-5.36458823e-17
-5.44553696e-17
-5.61543147e-17
-5.4320019e-17
-5.33186058e-17
-5.44679496e-17
-5.24165355e-17
-5.38441322e-17
-5.37950509e-17
-5.59748339e-17
-5.52766137e-17
-5.65646777e-17
-5.92720579e-17
-5.80110706e-17
-5.76415105e-17
-5.83033222e-17
-6.08444704e-17
-5.79439521e-17
-6.1288366e-17
-6.20313639e-17
-6.02303897e-17
-6.18937397e-17
-6.19206608e-17
-6.09112221e-17
-6.18831299e-17
-5.97384559e-17
-6.19989512e-17
-6.35218953e-17
-6.10624649e-17
-6.25362964e-17
-6.01369653e-17
-5.93796885e-17
-5.99039055e-17
-5.85954214e-17
-6.07973369e-17
-5.73760602e-17
-5.79807483e-17
-6.13328688e-17
-5.78685141e-17
-6.05278005e-17
-6.32757259e-17
-6.0949006e-17
-6.44641609e-17
-6.54556683e-17
-6.64484423e-17
-6.7864566e-17
-6.63298838e-17
-6.76324475e-17
-6.59503957e-17
-6.69663208e-17
-7.05971986e-17
-6.74579422e-17
-6.9097341e-17
-7.05400887e-17
-7.12923156e-17
-7.40368703e-17
-7.6538093e-17
-7.513727e-17
-7.63332434e-17
-7.42719559e-17
-7.57416375e-17
-7.66273413e-17
-7.60559417e-17
-7.66229922e-17
-7.75925992e-17
-7.60999729e-17
-7.59620562e-17
-7.87898789e-17
-7.81481418e-17
-7.7856339e-17
-7.66569978e-17
-7.98491758e-17
-7.79682727e-17
-7.80269389e-17
-7.93381246e-17
-7.69302205e-17
-7.67492428e-17
-7.52563633e-17
-7.58337505e-17
-7.29830011e-17
-7.27610024e-17
-7.24693548e-17
-7.29204247e-17
-7.0768288e-17
-7.19088153e-17
-7.19427605e-17
-7.34174518e-17
-7.64613711e-17
-7.72149228e-17
-7.46442866e-17
-7.34037114e-17
-7.37361015e-17
-7.6773624e-17
-7.99917122e-17
-7.86883134e-17
-8.19979997e-17
-7.69265368e-17
-7.62170411e-17
-7.67649665e-17
-7.42858364e-17
-7.46867797e-17
-7.44467978e-17
-7.50072716e-17
-7.87868522e-17
-7.46915344e-17
-7.51941615e-17
-7.50385654e-17
-7.43376008e-17
-7.83629755e-17
-7.85444618e-17
-7.63188126e-17
-8.00811298e-17
-8.05173753e-17
-7.76879903e-17
-7.83086113e-17
-7.64308311e-17
-7.71206319e-17
-7.67166233e-17
-7.75314033e-17
-7.80995624e-17
-7.4060789e-17
-7.31084732e-17
-7.33213074e-17
-7.0429366e-17
-7.13045005e-17
-7.29557103e-17
-7.57625726e-17
-7.35247743e-17
-7.40785776e-17
-7.0773456e-17
-7.31087676e-17
-7.03881991e-17
-7.21786572e-17
-7.11303385e-17
-6.98817976e-17
-7.19853702e-17
-7.12618974e-17
-7.25212839e-17
-6.95189942e-17
-6.78321162e-17
-6.90437856e-17
-6.58658038e-17
-6.60735673e-17
-6.39949473e-17
-6.26640678e-17
-6.36594642e-17
-6.21274605e-17
-5.88437349e-17
-5.95814139e-17
-6.08976113e-17
-5.86073368e-17
-5.88477897e-17
-5.70093336e-17
-5.44243707e-17
-5.50382875e-17
-4.77744442e-17
-4.82028623e-17
-4.46483289e-17
-4.58459147e-17
-4.61698444e-17
-4.8978987e-17
-4.95386157e-17
-4.96000634e-17
-4.92212302e-17
-4.89398879e-17
-4.89123078e-17
-4.91100237e-17
-4.90366562e-17
-4.84496325e-17
-4.934314e-17
-4.90057985e-17
-4.86415255e-17
-4.78257783e-17
-5.07082143e-17
-4.85543738e-17
-5.00795539e-17
-4.91674047e-17
-4.92545933e-17
-5.00245216e-17
-4.76376751e-17
-4.60192079e-17
-4.71568173e-17
-4.9730889e-17
-4.74963632e-17
-5.01838991e-17
-4.76337662e-17
-4.54114329e-17
-4.7942148e-17
-4.75681608e-17
-4.70067021e-17
-4.87971765e-17
-4.58074372e-17
-4.75063904e-17
-4.53880223e-17
-4.57075743e-17
-4.67617962e-17
-4.78276945e-17
-4.96190924e-17
-4.8523248e-17
-4.8513648e-17
-4.76585549e-17
-4.81850642e-17
-4.66649041e-17
-4.93826452e-17
-4.76776906e-17
-4.89824331e-17
-4.81607331e-17
-4.63830048e-17
-4.78850907e-17
-5.04334764e-17
-4.85235543e-17
-4.54676583e-17
-4.58907107e-17
-4.42844672e-17
-4.21601119e-17
-4.18487113e-17
-4.3556665e-17
-4.31167689e-17
-4.27786228e-17
-4.36288393e-17
-4.27104797e-17
-4.05742425e-17
-4.18234312e-17
-4.11314534e-17
-3.96278071e-17
-3.99810067e-17
-4.07290318e-17
-4.24331941e-17
-4.30185766e-17
-4.39579229e-17
-4.15357898e-17
-4.39064248e-17
-4.73743649e-17
-4.23498797e-17
-4.11437527e-17
-3.85967788e-17
-3.90494238e-17
-3.50436814e-17
-3.5990738e-17
-2.95511286e-17
-2.99637369e-17
-2.88573931e-17
-2.56456252e-17
-2.73066877e-17
-2.9672538e-17
-2.89912737e-17
-2.61633367e-17
-2.57296164e-17
-3.00418481e-17
-2.66223273e-17
-2.9609146e-17
-2.67630435e-17
-3.06076901e-17
-3.02743609e-17
-2.8270931e-17
-2.65534088e-17
-2.72086044e-17
-3.05564097e-17
-2.92169498e-17
-2.56497868e-17
-2.85687147e-17
-2.91143597e-17
-2.97847443e-17
-2.97981366e-17
-3.02071179e-17
-3.01750758e-17
-3.1240138e-17
-3.06014323e-17
-2.83388692e-17
-3.05177617e-17
-2.69079512e-17
-2.7338402e-17
-2.65355274e-17
-2.67437223e-17
-2.92618795e-17
-2.56867917e-17
-2.40948162e-17
-2.57075126e-17
-2.40585335e-17
-2.2950648e-17
-2.34799542e-17
-2.36241951e-17
-2.31306797e-17
-2.49823158e-17
-2.48047274e-17
-2.1563821e-17
-2.32075425e-17
-2.09128201e-17
-2.23687491e-17
-2.13670973e-17
-2.04663885e-17
-2.19673921e-17
-1.93483481e-17
-2.08448883e-17
-2.30249839e-17
-2.08227043e-17
-1.7926047e-17
-1.79263222e-17
-2.00107157e-17
-1.7720468e-17
-2.12944207e-17
-1.82616313e-17
-2.07612277e-17
-1.57256854e-17
-1.74229497e-17
-1.1373174e-17
-1.18620402e-17
-1.41085535e-17
-1.2415956e-17
-1.24837355e-17
-1.20851478e-17
-1.5237051e-17
-1.36943307e-17
-1.6039341e-17
-1.30323724e-17
-1.28259496e-17
-1.26288262e-17
-7.73539001e-18
-7.30640096e-18
-1.12983201e-17
-7.29465832e-18
-7.52925346e-18
-5.92719531e-18
-4.73448394e-18
-4.01063675e-18
-3.15331069e-18
-4.03568874e-19
1.89193984e-19
2.65252332e-18
2.90810792e-18
7.29991913e-18
8.58835517e-18
1.05720181e-17
1.18218715e-17
1.33929637e-17
1.14819156e-17
9.99562226e-18
1.17589294e-17
1.38152442e-17
1.11057803e-17
1.39454093e-17
9.00759735e-18
1.13197666e-17
9.31829733e-18
1.09414565e-17
8.80137572e-18
1.23597491e-17
1.38361725e-17
1.67621651e-17
1.29664993e-17
1.49734552e-17
1.39441857e-17
1.48052392e-17
1.37184273e-17
1.8664332e-17
1.87671961e-17
2.24063705e-17
2.1585935e-17
2.32359573e-17
2.54800634e-17
2.43805654e-17
2.68840044e-17
2.92834968e-17
3.0853303e-17
3.21413041e-17
3.05446541e-17
3.26932041e-17
3.60857192e-17
4.03158554e-17
3.81044162e-17
3.8755433e-17
3.69703117e-17
4.09284386e-17
4.02121791e-17
4.30639048e-17
4.40353159e-17
4.14426849e-17
4.12115368e-17
4.19619897e-17
4.45494788e-17
4.71696302e-17
4.78551651e-17
4.54049592e-17
4.77282586e-17
4.89382044e-17
4.59435533e-17
4.78587438e-17
4.70205606e-17
4.58858276e-17
4.52731001e-17
4.39711188e-17
4.79075301e-17
4.67879826e-17
4.71550254e-17
4.66465076e-17
4.67365456e-17
4.63960011e-17
4.68834396e-17
4.61499836e-17
4.50828476e-17
4.69717784e-17
4.95371218e-17
4.97657756e-17
4.81885237e-17
5.15298803e-17
5.05682817e-17
5.0033228e-17
5.43650413e-17
5.48090573e-17
5.93178649e-17
5.827273e-17
5.78743067e-17
5.8717858e-17
5.86429777e-17
5.76381869e-17
5.8049537e-17
5.67813217e-17
6.00629129e-17
5.9014461e-17
6.06172071e-17
6.05796724e-17
6.06502661e-17
5.88257596e-17
5.90084571e-17
5.60031547e-17
5.72649723e-17
5.64271609e-17
5.7471759e-17
5.86338654e-17
5.80270435e-17
5.66673353e-17
5.83480899e-17
6.20686598e-17
6.32184745e-17
6.36089122e-17
6.41764261e-17
6.46649702e-17
6.51812468e-17
6.83612469e-17
7.02876407e-17
6.96671012e-17
6.94729063e-17
7.44362058e-17
7.43250318e-17
7.25138161e-17
7.51684198e-17
7.62908109e-17
7.68832947e-17
7.78383084e-17
7.68061719e-17
7.85532091e-17
7.97400011e-17
8.23662315e-17
8.48699631e-17
8.5626577e-17
8.49347743e-17
8.89331075e-17
9.0099376e-17
9.85980651e-17
1.00943937e-16
1.02634648e-16
1.03993832e-16
1.0984881e-16
1.1663437e-16
1.19667898e-16
1.27064538e-16
1.2691003e-16
1.29498399e-16
1.40674906e-16
1.45149816e-16
1.5099982e-16
1.55377913e-16
1.65442958e-16
1.70527159e-16
1.78331326e-16
1.88090806e-16
1.9593174e-16
2.06198888e-16
2.16194443e-16
2.30803986e-16
2.45435604e-16
2.62588851e-16
2.77029374e-16
2.99792421e-16
3.16399184e-16
3.37232623e-16
3.57591461e-16
3.79797392e-16
4.04181468e-16
4.3256938e-16
4.64866528e-16
4.96229875e-16
5.31954736e-16
5.66681955e-16
6.06324996e-16
6.49173224e-16
6.94677829e-16
7.48113584e-16
8.07491971e-16
8.62766351e-16
9.25653319e-16
9.94472987e-16
1.07435956e-15
1.15605408e-15
1.24329511e-15
1.33380229e-15
1.43654311e-15
1.55142247e-15
1.66886748e-15
1.79983054e-15
1.94013443e-15
2.09529816e-15
2.25652512e-15
2.43097231e-15
2.62345483e-15
2.82596773e-15
3.04585104e-15
3.28695965e-15
3.54060543e-15
3.82378599e-15
4.12335516e-15
4.44842637e-15
4.80149464e-15
5.18036574e-15
5.58837926e-15
6.03104108e-15
6.50539751e-15
7.01629462e-15
7.56832648e-15
8.1654164e-15
8.80690748e-15
9.50470884e-15
1.0248468e-14
1.10531334e-14
1.19214154e-14
1.2853196e-14
1.38648749e-14
1.49503328e-14
1.61195556e-14
1.73762464e-14
1.87344773e-14
2.01969188e-14
2.17711457e-14
2.34580629e-14
2.52800637e-14
2.72420766e-14
2.93496881e-14
3.16188932e-14
3.40650814e-14
3.66941511e-14
3.95191746e-14
4.25631448e-14
4.58380126e-14
4.93613402e-14
5.31467065e-14
5.72137467e-14
6.15876395e-14
6.62959085e-14
7.13511673e-14
7.67900297e-14
8.26271135e-14
8.88966524e-14
9.56386589e-14
1.02878122e-13
1.10651783e-13
1.19003474e-13
1.27970422e-13
1.37595122e-13
1.47930033e-13
1.59026035e-13
1.70926686e-13
1.8370574e-13
1.97415784e-13
2.12127134e-13
2.27904847e-13
2.44831603e-13
2.62986624e-13
2.824552e-13
3.03325034e-13
3.25703472e-13
3.4968686e-13
3.75395999e-13
4.02946143e-13
4.32466397e-13
4.64098342e-13
4.97984116e-13
5.34284031e-13
5.73151821e-13
6.1478084e-13