/*--------------------------------*- C++ -*----------------------------------*\
| =========                 |                                                 |
| \\      /  F ield         | OpenFOAM: The Open Source CFD Toolbox           |
|  \\    /   O peration     | Version:  2206                                  |
|   \\  /    A nd           | Website:  www.openfoam.com                      |
|    \\/     M anipulation  |                                                 |
\*---------------------------------------------------------------------------*/
FoamFile
{
    version     2.0;
    format      ascii;
    arch        "LSB;label=32;scalar=64";
    class       volScalarField;
    location    "1.34e-05";
    object      sourcePV;
}
// * * * * * * * * * * * * * * * * * * * * * * * * * * * * * * * * * * * * * //

dimensions      [1 -3 -1 0 0 0 0];

internalField   nonuniform List<scalar> 
3183
(
0
0
0
0
0
0
0
0
0
0
0
0
0
0
0
0
0
0
0
0
0
0
0
0
0
0
0
0
0
0
0
0
0
0
0
0
0
0
0
0
0
0
0
0
0
0
0
0
0
0
0
0
0
0
0
0
0
0
0
0
0
0
0
0
0
0
0
0
0
0
0
0
0
0
0
0
0
0
0
0
0
0
0
0
0
0
0
0
0
0
0
0
0
0
0
0
0
0
0
0
0
0
0
0
0
0
0
0
0
0
0
0
0
0
0
0
0
0
0
0
0
0
0
0
0
0
0
0
0
0
0
0
0
0
0
0
0
0
0
0
0
0
0
0
0
0
0
0
0
0
0
0
0
0
0
0
0
0
0
0
0
0
0
0
0
0
0
0
0
0
0
0
0
0
0
0
0
0
0
0
0
0
0
0
0
0
0
0
0
0
0
0
0
0
0
0
0
0
0
0
0
0
0
0
0
0
0
0
0
0
0
0
0
0
0
0
0
0
0
0
0
0
0
0
0
0
0
0
0
0
0
0
0
0
0
0
0
0
0
0
0
0
0
0
0
0
0
0
0
0
0
0
0
0
0
0
0
0
0
0
0
0
0
0
0
0
0
0
0
0
0
0
0
0
0
0
0
0
0
0
0
0
0
0
0
0
0
0
0
0
0
0
0
0
0
0
0
0
0
0
0
0
0
0
0
0
0
0
0
0
0
0
0
0
0
0
0
0
0
0
0
0
0
0
0
0
0
0
0
0
0
0
0
0
0
0
0
0
0
0
0
0
0
0
0
0
0
0
0
0
0
0
0
0
0
0
0
0
0
0
0
0
0
0
0
0
0
0
0
0
0
0
0
0
0
0
0
0
0
0
0
0
0
0
0
0
0
0
0
0
0
0
0
0
0
0
0
0
0
0
0
0
0
0
0
0
0
0
0
0
0
0
0
0
0
0
0
0
0
0
0
0
0
0
0
0
0
0
0
0
0
0
0
0
0
0
0
0
0
0
0
0
0
0
0
0
0
0
0
0
0
0
0
0
0
0
0
0
0
0
0
0
0
0
0
0
0
0
0
0
0
0
0
0
0
0
0
0
0
0
0
0
0
0
0
0
0
0
0
0
0
0
0
0
0
0
0
0
0
0
0
0
0
0
0
0
0
0
0
0
0
0
0
0
0
0
0
0
0
0
0
0
0
0
0
0
0
0
0
0
0
0
0
0
0
0
0
0
0
0
0
0
0
0
0
0
0
0
0
0
0
0
0
0
0
0
0
0
0
0
0
0
0
0
0
0
0
0
0
0
0
0
0
0
0
0
0
0
0
0
0
0
0
0
0
0
0
0
0
0
0
0
0
0
0
0
0
0
0
0
0
0
0
0
0
0
0
0
0
0
0
0
0
0
0
0
0
0
0
0
0
0
0
0
0
0
0
0
0
0
0
0
0
0
0
0
0
0
0
0
0
0
0
0
0
0
0
0
0
0
0
0
0
0
0
0
0
0
0
0
0
0
0
0
0
0
0
0
0
0
0
0
0
0
0
0
0
0
0
0
0
0
0
0
0
0
0
0
0
0
0
0
0
0
0
0
0
0
0
0
0
0
0
0
0
0
0
0
0
0
0
0
0
0
0
0
0
0
0
0
0
0
0
0
0
0
0
0
0
0
0
0
0
0
0
0
0
0
0
0
0
0
0
0
0
0
0
0
0
0
0
0
0
0
0
0
0
0
0
0
0
0
0
0
0
0
0
0
0
0
0
0
0
0
0
0
0
0
0
0
0
0
0
0
0
0
0
0
0
0
0
0
0
0
0
0
0
0
0
0
0
0
0
0
0
0
0
0
0
0
0
0
0
0
0
0
0
0
0
0
0
0
0
0
0
0
0
0
0
0
0
0
0
0
0
0
0
0
0
0
0
0
0
0
0
0
0
0
0
0
0
0
0
0
0
0
0
0
0
0
0
0
0
0
0
0
0
0
0
0
0
0
0
0
0
0
0
0
0
0
0
0
0
0
0
0
0
0
0
0
0
0
0
0
0
0
0
0
0
0
0
0
0
0
0
0
0
0
0
0
0
0
0
0
0
0
0
0
0
0
0
0
0
0
0
0
0
0
0
0
0
0
0
0
0
0
0
0
0
0
0
0
0
0
0
0
0
0
0
0
0
0
0
0
0
0
0
0
0
0
0
0
0
0
0
0
0
0
0
0
0
0
0
0
0
0
0
0
0
0
0
0
0
0
0
0
0
0
0
0
0
0
0
0
0
0
0
0
0
0
0
0
0
0
0
0
0
0
0
0
0
0
0
0
0
0
0
0
0
0
0
0
0
0
0
0
0
0
0
0
0
0
0
0
0
0
0
0
0
0
0
0
0
0
0
0
0
0
0
0
0
0
0
0
0
0
0
0
0
0
0
0
0
0
0
0
0
0
0
0
0
0
0
0
0
0
0
0
0
0
0
0
0
0
0
0
0
0
0
0
0
0
0
0
0
0
0
0
0
0
0
0
0
0
0
0
0
0
0
0
0
0
0
0
0
0
0
0
0
0
0
0
0
0
0
0
0
0
0
0
0
0
0
0
0
0
0
0
0
0
0
0
0
0
0
0
0
0
0
0
0
0
0
0
0
0
0
0
0
0
0
0
0
0
0
0
0
0
0
0
0
0
0
0
0
0
0
0
0
0
0
0
0
0
0
0
0
0
0
0
0
0
0
0
0
0
0
0
0
0
0
0
0
0
0
0
0
0
0
0
0
0
0
0
0
0
0
0
0
0
0
0
0
0
0
0
0
0
0
0
0
0
0
0
0
0
0
0
0
0
0
0
0
0
0
0
0
0
0
0
0
0
0
0
0
0
0
0
0
0
0
0
0
0
0
0
0
0
0
0
0
0
0
0
0
0
0
0
0
0
0
0
0
0
0
0
0
0
0
0
0
0
0
0
0
0
0
0
0
0
0
0
0
0
0
0
0
0
0
0
0
0
0
0
0
0
0
0
0
0
0
0
0
0
0
0
0
0
0
0
0
0
0
0
0
0
0
0
0
0
0
0
0
0
0
0
0
0
0
0
0
0
0
0
0
0
0
0
0
0
0
0
0
0
0
0
0
0
0
0
0
0
0
0
0
0
0
0
0
0
0
0
0
0
0
0
0
0
0
0
0
0
0
0
0
0
0
0
0
0
0
0
0
0
0
0
0
0
0
0
0
0
0
0
0
0
0
0
0
0
0
0
0
0
0
0
0
0
0
0
0
0
0
0
0
0
0
0
0
0
0
0
0
0
0
0
0
0
0
0
0
0
0
0
0
0
0
0
0
0
0
0
0
0
0
0
0
0
0
0
0
0
0
0
0
0
0
0
0
0
0
0
0
0
0
0
0
0
0
0
0
0
0
0
0
0
0
0
0
0
0
0
0
0
0
0
0
0
0
0
0
0
0
0
0
0
0
0
0
0
0
0
0
0
0
0
0
0
0
0
0
0
0
0
0
0
0
0
0
0
0
0
0
0
0
0
0
0
0
0
0
0
0
0
0
0
0
0
0
0
0
0
0
0
0
0
0
0
0
0
0
0
0
0
0
0
0
0
0
0
0
0
0
0
0
0
0
0
0
0
0
0
0
0
0
0
0
0
0
0
0
0
0
0
0
0
0
0
0
0
0
0
0
0
0
0
0
0
0
0
0
0
0
0
0
0
0
0
0
0
0
0
0
0
0
0
0
0
0
0
0
0
0
0
0
0
0
0
0
0
0
0
0
0
0
0
0
0
0
0
0
0
0
0
0
0
0
0
0
0
0
0
0
0
0
0
0
0
0
0
0
0
0
0
0
0
0
0
0
0
0
0
0
0
0
0
0
0
0
0
0
0
0
0
0
0
0
0
0
0
0
0
0
0
0
0
0
0
0
0
0
0
0
0
0
0
0
0
0
0
0
0
0
0
0
0
0
0
0
0
0
0
0
0
0
0
0
0
0
0
0
0
0
0
0
0
0
0
0
0
0
0
0
0
0
0
0
0
0
0
0
0
0
0
0
0
0
0
0
0
0
0
0
0
0
0
0
0
0
0
0
0
0
0
0
0
0
0
0
0
0
0
0
0
0
0
0
0
0
0
0
0
0
0
0
0
0
0
0
0
0
0
0
0
0
0
0
0
0
0
0
0
0
0
0
0
0
0
0
0
0
0
0
0
0
0
0
0
0
0
0
0
0
0
0
0
0
0
0
0
0
0
0
0
0
0
0
0
0
0
0
0
0
0
0
0
0
0
0
0
0
0
0
0
0
0
0
0
0
0
0
0
0
0
0
0
0
0
0
0
0
0
0
0
0
0
0
0
0
0
0
0
0
0
0
0
0
0
0
0
0
0
0
0
0
0
0
0
0
0
0
0
0
0
0
0
0
0
0
0
0
0
0
0
0
0
0
0
0
0
0
0
0
0
0
0
0
0
0
0
0
0
0
0
0
0
0
0
0
0
0
0
0
0
0
0
0
0
0
0
0
0
0
0
0
0
0
0
0
0
0
0
0
0
0
0
0
0
0
0
0
0
0
0
0
0
0
0
0
0
0
0
0
0
0
0
0
0
0
0
0
0
0
0
0
0
0
0
0
0
0
0
0
0
0
0
0
0
0
0
0
0
0
0
0
0
0
0
0
0
0
0
0
0
0
0
0
0
0
0
0
0
0
0
0
0
0
0
0
0
0
0
0
0
0
0
0
0
0
0
0
0
0
0
0
0
0
0
0
0
0
0
0
0
0
0
0
0
0
0
0
0
0
0
0
0
0
0
0
0
0
0
0
0
0
0
0
0
0
0
0
0
0
0
0
0
0
0
0
0
0
0
0
0
0
0
0
0
0
0
0
0
0
0
0
0
0
0
0
0
0
0
0
0
0
0
0
0
0
0
0
0
0
0
0
0
0
0
0
0
0
0
0
0
0
0
0
0
0
0
0
0
0
0
0
0
0
0
0
0
0
0
0
0
0
0
0
0
0
0
0
0
0
0
0
0
0
0
0
0
0
0
0
0
0
0
0
0
0
0
0
0
0
0
0
0
0
0
0
0
0
0
0
0
0
0
0
0
0
0
0
0
0
0
0
0
0
0
0
0
0
0
0
0
0
0
0
0
0
0
0
0
0
0
0
0
0
0
0
0
0
0
0
0
0
0
0
0
0
0
0
0
0
0
0
0
0
0
0
0
0
0
0
0
0
0
0
0
0
0
0
0
0
0
0
0
0
0
0
0
0
0
0
0
0
0
0
0
0
0
0
0
0
0
0
0
0
0
0
0
0
0
0
0
0
0
0
0
0
0
0
0
0
0
0
0
0
0
0
0
0
0
0
0
0
0
0
0
0
0
0
0
0
0
0
0
0
2.46071652e-298
7.14637501e-299
1.69870765e-295
5.07150465e-296
1.15839205e-292
3.55097034e-293
7.80359442e-290
2.45370473e-290
5.19346097e-287
1.67349019e-287
3.41477073e-284
1.12642385e-284
2.21833305e-281
7.48641557e-282
1.42386598e-278
4.91273532e-279
9.03033634e-276
3.18122798e-276
5.65907078e-273
2.03608727e-273
3.50433271e-270
1.28670113e-270
2.14435091e-267
8.0359112e-268
1.29666179e-264
4.95181361e-265
7.74830383e-262
3.01391674e-262
4.57554798e-259
1.81199725e-259
2.67019108e-256
1.07612387e-256
1.53995944e-253
6.31338537e-254
8.77703154e-251
3.65908355e-251
4.94378925e-248
2.09510093e-248
2.75199345e-245
1.18514305e-245
1.51394471e-242
6.62336167e-243
8.2308859e-240
3.65708311e-240
4.42236565e-237
1.99500885e-237
2.34817535e-234
1.07525544e-234
1.23216619e-231
5.72580746e-232
6.38946897e-229
3.01244997e-229
3.27423265e-226
1.56588191e-226
1.65803967e-223
8.04175102e-224
8.29680637e-221
4.08027498e-221
4.10247945e-218
2.0453543e-218
2.00442015e-215
1.01293004e-215
9.67663023e-213
4.95577997e-213
4.61569806e-210
2.39527005e-210
2.17526396e-207
1.14365093e-207
1.01281462e-204
5.39403831e-205
4.65877864e-202
2.51304039e-202
2.11698401e-199
1.15646244e-199
9.50264008e-197
5.25642262e-197
4.21335947e-194
2.35968522e-194
1.84520696e-191
1.04616357e-191
7.98118244e-189
4.58038282e-189
3.40931107e-186
1.98031284e-186
1.43818006e-183
8.45409369e-184
5.99067093e-181
3.56345348e-181
2.4638815e-178
1.48290592e-178
1.00048623e-175
6.09200629e-176
4.01062735e-173
2.47044465e-173
1.58702747e-170
9.88825684e-171
6.1984997e-168
3.90619468e-168
2.38932794e-165
1.52277288e-165
9.08880711e-163
5.8575883e-163
3.41140027e-160
2.22309537e-160
1.2632915e-157
8.32345435e-158
4.61495684e-155
3.07399837e-155
1.66291665e-152
1.11970576e-152
5.90955964e-150
4.02205063e-150
2.07091321e-147
1.4245406e-147
7.15530845e-145
4.97420046e-145
2.43718846e-142
1.71209312e-142
8.18230571e-140
5.80789155e-140
2.70717574e-137
1.94144341e-137
8.82543887e-135
6.39397273e-135
2.83437098e-132
2.07432944e-132
8.96592863e-130
6.62770119e-130
2.79296711e-127
2.08516159e-127
8.56599763e-125
6.45828667e-125
2.58605e-122
1.96879512e-122
7.68322185e-120
5.90594619e-120
2.24591381e-117
1.74292799e-117
6.45768206e-115
5.05895065e-115
1.82590936e-112
1.44383314e-112
5.07551438e-110
4.05067884e-110
1.38660359e-107
1.11677403e-107
3.72188129e-105
3.02479055e-105
9.81228519e-103
8.04593602e-103
2.53996222e-100
2.10116572e-100
6.45323939e-98
5.38504867e-98
1.60863344e-95
1.35393876e-95
3.9327048e-93
3.33821002e-93
9.42533417e-91
8.06768124e-91
2.21349648e-88
1.91033123e-88
5.09133368e-86
4.42982237e-86
1.14640064e-83
1.00545328e-83
2.52558135e-81
2.23255456e-81
5.44076091e-79
4.84684049e-79
1.14542987e-76
1.02817635e-76
2.35509114e-74
2.12983985e-74
4.72582834e-72
4.30522392e-72
9.24823497e-70
8.48578322e-70
1.76362831e-67
1.62963473e-67
3.27456564e-65
3.04663163e-65
5.9142779e-63
5.53964366e-63
1.0380608e-60
9.78690454e-61
1.76869786e-58
1.67820448e-58
2.92207951e-56
2.78981556e-56
4.67510967e-54
4.49043149e-54
7.23364813e-52
6.98849101e-52
1.08077948e-49
1.05003796e-49
1.55673755e-47
1.52065199e-47
2.15776233e-45
2.1186324e-45
2.87229299e-43
2.83387732e-43
3.66370201e-41
3.63055029e-41
4.46676645e-39
4.44228921e-39
5.19074528e-37
5.17349253e-37
5.7312987e-35
5.70993837e-35
5.99097727e-33
5.94313229e-33
5.90428542e-31
5.8084616e-31
5.45979132e-29
5.33120931e-29
4.71038543e-27
4.6451874e-27
3.76556222e-25
3.75949165e-25
2.7675046e-23
2.75360616e-23
1.85224093e-21
1.83713342e-21
1.11503887e-19
1.10329179e-19
5.94467532e-18
5.87369931e-18
2.75008245e-16
2.74800732e-16
1.07319809e-14
1.06616975e-14
3.3953277e-13
3.39088268e-13
8.16507047e-12
8.16558306e-12
8.44177018e-09
8.52891148e-09
0.161505407
0.633721477
8.83626393
9.80972529
7.20266672
6.19907908
1.63016437
1.31860654
0.248484358
0.220310939
0.0491447443
0.0453957511
0.00857515494
0.00826868606
0.00135660425
0.00135102991
0.000206702142
0.000206348017
3.47374006e-05
3.47704262e-05
1.12326963e-05
1.12404447e-05
8.25825161e-06
8.26002409e-06
7.90929559e-06
7.90928877e-06
7.87065313e-06
7.87065785e-06
7.86663954e-06
7.8666627e-06
7.86625083e-06
7.86626199e-06
7.86621634e-06
7.86623891e-06
7.86619361e-06
7.86623172e-06
7.86620778e-06
7.86620919e-06
7.86621431e-06
7.86620318e-06
7.86622456e-06
7.86620494e-06
7.86623515e-06
7.86620235e-06
7.86621735e-06
7.86621695e-06
7.86622552e-06
7.86621006e-06
7.86621961e-06
7.86621523e-06
7.8662247e-06
7.86620893e-06
7.86622276e-06
7.86621732e-06
7.86621872e-06
7.86622159e-06
7.86621381e-06
7.86623328e-06
7.86620605e-06
7.86621935e-06
7.86621805e-06
7.86622705e-06
7.86621921e-06
7.86621122e-06
7.86621558e-06
7.86621327e-06
7.86622096e-06
7.86621313e-06
7.86621624e-06
7.86620946e-06
7.86621472e-06
7.8662174e-06
7.86620703e-06
7.86621604e-06
7.86620448e-06
7.86621746e-06
7.86621454e-06
7.86622634e-06
7.86621436e-06
7.86623e-06
7.86620167e-06
7.86622501e-06
7.86621482e-06
7.86621582e-06
7.86622194e-06
7.86620296e-06
7.86622846e-06
7.86620407e-06
7.8662258e-06
7.86620151e-06
7.86622606e-06
7.86621303e-06
7.86622939e-06
7.86620988e-06
7.86622801e-06
7.8662118e-06
7.86621951e-06
7.86621744e-06
7.86623183e-06
7.86622498e-06
7.86621668e-06
7.86622057e-06
7.86621834e-06
7.86621972e-06
7.86622351e-06
7.86621981e-06
7.8662171e-06
7.86622072e-06
7.86621529e-06
7.86622522e-06
7.86620648e-06
7.86622241e-06
7.86621374e-06
7.86621538e-06
7.86621681e-06
7.86621127e-06
7.86620909e-06
7.86622914e-06
7.86620256e-06
7.86622741e-06
7.86621238e-06
7.86622868e-06
7.86620227e-06
7.86621637e-06
7.8662155e-06
7.86621944e-06
7.8662183e-06
7.86622823e-06
7.86621097e-06
7.86623136e-06
7.86622162e-06
7.86621909e-06
7.86622588e-06
7.86623061e-06
7.86622466e-06
7.86622188e-06
7.86622534e-06
7.86622057e-06
7.8662185e-06
7.86622252e-06
7.86620855e-06
7.8662198e-06
7.86620974e-06
7.86622092e-06
7.86621191e-06
7.86621779e-06
7.86620809e-06
7.86621816e-06
7.86622321e-06
7.86620515e-06
7.86623011e-06
7.86620469e-06
7.86623058e-06
7.86621431e-06
7.86622772e-06
7.86621597e-06
7.86622344e-06
7.86622844e-06
7.86621822e-06
7.86621653e-06
7.86624686e-06
7.86620781e-06
7.86623627e-06
7.86621789e-06
7.86624132e-06
7.86620894e-06
7.86623056e-06
7.86621518e-06
7.86621711e-06
7.8662132e-06
7.8662137e-06
7.86621685e-06
7.86620381e-06
7.86622659e-06
7.86621008e-06
7.86622878e-06
7.86622269e-06
7.86622885e-06
7.86622297e-06
7.86623552e-06
7.8662293e-06
7.86623497e-06
7.86623019e-06
7.86623264e-06
7.86622033e-06
7.86621979e-06
7.86622903e-06
7.86620879e-06
7.86623228e-06
7.86622233e-06
7.86622536e-06
7.86621361e-06
7.86623273e-06
7.86621627e-06
7.86623648e-06
7.86621892e-06
7.86621642e-06
7.86621529e-06
7.86622826e-06
7.86621118e-06
7.86623915e-06
7.866209e-06
7.86623963e-06
7.86621332e-06
7.86622609e-06
7.86622517e-06
7.86621995e-06
7.86622405e-06
7.86623733e-06
7.86622797e-06
7.86623303e-06
7.86622629e-06
7.86622881e-06
7.86622492e-06
7.86623459e-06
7.86622452e-06
7.86622098e-06
7.86622284e-06
7.86622004e-06
7.86622724e-06
7.86622406e-06
7.86622448e-06
7.86622119e-06
7.86622749e-06
7.86623153e-06
7.86622137e-06
7.86623875e-06
7.86621716e-06
7.86622753e-06
7.86623402e-06
7.86622511e-06
7.86622667e-06
7.86622646e-06
7.86622858e-06
7.8662314e-06
7.86623226e-06
7.86622391e-06
7.86623577e-06
7.86622391e-06
7.86623496e-06
7.86622544e-06
7.86624107e-06
7.86622002e-06
7.8662459e-06
7.86620889e-06
7.86624362e-06
7.86622079e-06
7.86621363e-06
7.86623248e-06
7.86621373e-06
7.86623173e-06
7.86622908e-06
7.8662287e-06
7.8662191e-06
7.86623361e-06
7.86622662e-06
7.86622438e-06
7.8662275e-06
7.86622779e-06
7.86623613e-06
7.86623316e-06
7.86622178e-06
7.8662419e-06
7.86621669e-06
7.86623767e-06
7.86621528e-06
7.86622822e-06
7.86622577e-06
7.86622817e-06
7.86621149e-06
7.86623405e-06
7.86621852e-06
7.86622493e-06
7.86622669e-06
7.86621843e-06
7.86624045e-06
7.86622243e-06
7.8662352e-06
7.86623197e-06
7.86621957e-06
7.86623302e-06
7.86622429e-06
7.86622424e-06
7.86622911e-06
7.86622338e-06
7.86622473e-06
7.86622513e-06
7.86622938e-06
7.86622751e-06
7.8662335e-06
7.86622355e-06
7.86622678e-06
7.86623831e-06
7.86621655e-06
7.86622011e-06
7.86623506e-06
7.86622337e-06
7.86623066e-06
7.86623409e-06
7.86623212e-06
7.86623067e-06
7.86623122e-06
7.86623454e-06
7.86622567e-06
7.86623667e-06
7.8662235e-06
7.86622781e-06
7.86622679e-06
7.86622184e-06
7.86623521e-06
7.86622304e-06
7.86623435e-06
7.86621847e-06
7.86624699e-06
7.86621917e-06
7.86623168e-06
7.8662292e-06
7.86623035e-06
7.86623237e-06
7.86621928e-06
7.86624387e-06
7.86621385e-06
7.86624581e-06
7.86622074e-06
7.86623876e-06
7.86622257e-06
7.86622896e-06
7.86623659e-06
7.86622675e-06
7.8662395e-06
7.86622419e-06
7.86623291e-06
7.86622749e-06
7.86623038e-06
7.86622573e-06
7.86622995e-06
7.86622975e-06
7.86623798e-06
7.86621993e-06
7.86623562e-06
7.86623012e-06
7.86623974e-06
7.86623615e-06
7.86623069e-06
7.86623297e-06
7.86623679e-06
7.86622309e-06
7.86623273e-06
7.86623898e-06
7.8662229e-06
7.86623645e-06
7.86623941e-06
7.86622475e-06
7.86622693e-06
7.86623481e-06
7.86622457e-06
7.86623964e-06
7.86622378e-06
7.86623931e-06
7.86623646e-06
7.86623217e-06
7.86622537e-06
7.86623189e-06
7.86623101e-06
7.86624256e-06
7.86622852e-06
7.86623685e-06
7.86623454e-06
7.86624541e-06
7.866238e-06
7.86624592e-06
7.86623899e-06
7.86623337e-06
7.86623879e-06
7.86623536e-06
7.8662287e-06
7.86623177e-06
7.86623904e-06
7.86623394e-06
7.86623872e-06
7.86623571e-06
7.86622786e-06
7.86624366e-06
7.86623566e-06
7.86623522e-06
7.86623621e-06
7.86622665e-06
7.86624015e-06
7.86622393e-06
7.86623748e-06
7.86622695e-06
7.86623856e-06
7.86622432e-06
7.86623386e-06
7.86623609e-06
7.86623487e-06
7.86624553e-06
7.86623674e-06
7.86623884e-06
7.86623146e-06
7.86623649e-06
7.86623171e-06
7.8662262e-06
7.86624936e-06
7.8662183e-06
7.86624493e-06
7.86622179e-06
7.86624277e-06
7.86623661e-06
7.86623381e-06
7.86623606e-06
7.86624546e-06
7.86624107e-06
7.86623841e-06
7.86624217e-06
7.86623209e-06
7.86623946e-06
7.86623665e-06
7.86623944e-06
7.86623283e-06
7.86624339e-06
7.86623945e-06
7.86623221e-06
7.8662563e-06
7.86623476e-06
7.86624586e-06
7.86623877e-06
7.86625082e-06
7.86623021e-06
7.86624963e-06
7.86623387e-06
7.86624542e-06
7.8662435e-06
7.86623828e-06
7.8662491e-06
7.86623819e-06
7.86624002e-06
7.86624599e-06
7.86623754e-06
7.86624844e-06
7.86623365e-06
7.86624762e-06
7.86623469e-06
7.86623652e-06
7.86623154e-06
7.8662527e-06
7.86623341e-06
7.86625081e-06
7.86623429e-06
7.8662388e-06
7.86624897e-06
7.86623263e-06
7.86624619e-06
7.86623731e-06
7.86623475e-06
7.86624871e-06
7.86623168e-06
7.86623612e-06
7.86624658e-06
7.86623041e-06
7.86624965e-06
7.86623974e-06
7.86623548e-06
7.86625052e-06
7.86623051e-06
7.86625693e-06
7.8662341e-06
7.86625006e-06
7.86623686e-06
7.86624314e-06
7.86623688e-06
7.86624044e-06
7.86623709e-06
7.8662381e-06
7.86623716e-06
7.86624797e-06
7.86623225e-06
7.8662499e-06
7.86623029e-06
7.86624272e-06
7.86623007e-06
7.86624407e-06
7.86622612e-06
7.86624434e-06
7.86623448e-06
7.86623355e-06
7.8662425e-06
7.86623e-06
7.86625299e-06
7.86622559e-06
7.86624912e-06
7.86623558e-06
7.86625531e-06
7.86622834e-06
7.86625495e-06
7.86621806e-06
7.86626683e-06
7.86621684e-06
7.866259e-06
7.86622338e-06
7.86625111e-06
7.86623442e-06
7.86624235e-06
7.86624702e-06
7.86624902e-06
7.86623871e-06
7.86624869e-06
7.86623554e-06
7.86624225e-06
7.86624151e-06
7.86624423e-06
7.86623929e-06
7.86624306e-06
7.86624386e-06
7.86624692e-06
7.86624391e-06
7.86624329e-06
7.86624692e-06
7.86624318e-06
7.86624177e-06
7.86624629e-06
7.86624597e-06
7.86624564e-06
7.86624544e-06
7.86624584e-06
7.8662451e-06
7.86624703e-06
7.86624705e-06
7.86624748e-06
7.86624827e-06
7.86624857e-06
7.86625002e-06
7.86625093e-06
7.86625072e-06
7.86625237e-06
7.86625345e-06
7.86625401e-06
7.8662554e-06
7.86625709e-06
7.86625904e-06
7.86626034e-06
7.8662623e-06
7.86626478e-06
7.86626662e-06
7.86626912e-06
7.86627174e-06
7.86627408e-06
7.86627567e-06
7.86627809e-06
7.8662795e-06
7.86628063e-06
7.86628161e-06
7.86628208e-06
7.86628235e-06
7.8662827e-06
7.86628271e-06
7.86628271e-06
7.86628236e-06
7.86628235e-06
7.86628277e-06
7.86628259e-06
7.86628262e-06
7.86628262e-06
7.86628266e-06
7.86628274e-06
7.86628272e-06
7.86628268e-06
7.86628287e-06
7.86628261e-06
7.86628269e-06
7.8662826e-06
7.86628266e-06
7.86628269e-06
7.86628265e-06
7.86628271e-06
7.86628257e-06
7.86628246e-06
7.86628292e-06
)
;

boundaryField
{
    closed
    {
        type            calculated;
        value           uniform 0;
    }
    open
    {
        type            calculated;
        value           uniform 0;
    }
    sides
    {
        type            empty;
    }
}


// ************************************************************************* //
