/*--------------------------------*- C++ -*----------------------------------*\
| =========                 |                                                 |
| \\      /  F ield         | OpenFOAM: The Open Source CFD Toolbox           |
|  \\    /   O peration     | Version:  2206                                  |
|   \\  /    A nd           | Website:  www.openfoam.com                      |
|    \\/     M anipulation  |                                                 |
\*---------------------------------------------------------------------------*/
FoamFile
{
    version     2.0;
    format      ascii;
    arch        "LSB;label=32;scalar=64";
    class       volVectorField;
    location    "1.34e-05";
    object      U;
}
// * * * * * * * * * * * * * * * * * * * * * * * * * * * * * * * * * * * * * //

dimensions      [0 1 -1 0 0 0 0];

internalField   nonuniform List<vector> 
3183
(
(3.86972693e-13 0 0)
(1.00911346e-13 0 0)
(-2.67342357e-13 0 0)
(-2.79330733e-13 0 0)
(-1.42760965e-13 0 0)
(-7.94307686e-18 0 0)
(-6.1546134e-19 0 0)
(-4.9553619e-23 0 0)
(5.96716018e-23 0 0)
(7.81404963e-19 0 0)
(1.40048163e-17 0 0)
(2.0697354e-13 0 0)
(5.80583726e-13 0 0)
(1.89292916e-13 0 0)
(1.25841546e-13 0 0)
(6.25141565e-14 0 0)
(-2.82540017e-13 0 0)
(-6.39246511e-13 0 0)
(-7.87931382e-13 0 0)
(-1.12802155e-13 0 0)
(3.60215169e-13 0 0)
(1.53264054e-16 0 0)
(6.83501894e-14 0 0)
(2.98466316e-13 0 0)
(3.78063737e-13 0 0)
(5.32459806e-13 0 0)
(6.1795543e-13 0 0)
(6.90956585e-13 0 0)
(2.57207816e-13 0 0)
(3.82188423e-13 0 0)
(4.116462e-16 0 0)
(-3.57533729e-13 0 0)
(-7.34310684e-13 0 0)
(-8.54913459e-13 0 0)
(-9.77631419e-13 0 0)
(-8.15605272e-13 0 0)
(-7.17880112e-13 0 0)
(-5.97147756e-13 0 0)
(-3.92527001e-13 0 0)
(-5.25123784e-13 0 0)
(-6.56144351e-13 0 0)
(-3.85727542e-13 0 0)
(-3.13601525e-14 0 0)
(-3.80713021e-13 0 0)
(1.76608707e-13 0 0)
(4.06094043e-13 0 0)
(3.02938184e-13 0 0)
(6.94090593e-13 0 0)
(7.12983823e-13 0 0)
(1.06006816e-12 0 0)
(1.1602985e-12 0 0)
(1.81487839e-12 0 0)
(1.55470982e-12 0 0)
(1.98831515e-12 0 0)
(2.00384301e-12 0 0)
(1.8689618e-12 0 0)
(1.74911742e-12 0 0)
(1.59216099e-12 0 0)
(1.11900002e-12 0 0)
(1.06863483e-12 0 0)
(6.55453796e-13 0 0)
(3.97685282e-15 0 0)
(-2.09741207e-13 0 0)
(-7.0596527e-13 0 0)
(-7.16936786e-13 0 0)
(-7.18235985e-13 0 0)
(-1.21983419e-12 0 0)
(-1.14474154e-12 0 0)
(-1.46162774e-12 0 0)
(-2.24886998e-12 0 0)
(-2.08360119e-12 0 0)
(-2.37309729e-12 0 0)
(-2.59798829e-12 0 0)
(-2.91920719e-12 0 0)
(-3.43101091e-12 0 0)
(-3.3841625e-12 0 0)
(-3.44256704e-12 0 0)
(-3.93841946e-12 0 0)
(-3.91068583e-12 0 0)
(-4.03700737e-12 0 0)
(-4.61199285e-12 0 0)
(-4.85866514e-12 0 0)
(-4.2386711e-12 0 0)
(-5.65991756e-12 0 0)
(-4.53471347e-12 0 0)
(-4.47511235e-12 0 0)
(-5.55066312e-12 0 0)
(-5.09261056e-12 0 0)
(-4.52937941e-12 0 0)
(-4.80172389e-12 0 0)
(-5.79922498e-12 0 0)
(-5.77333942e-12 0 0)
(-4.85031185e-12 0 0)
(-5.79676489e-12 0 0)
(-6.2028339e-12 0 0)
(-5.70165528e-12 0 0)
(-6.67415572e-12 0 0)
(-5.87577636e-12 0 0)
(-6.14506984e-12 0 0)
(-6.61379019e-12 0 0)
(-5.63536313e-12 0 0)
(-7.00154185e-12 0 0)
(-7.21568524e-12 0 0)
(-6.59612335e-12 0 0)
(-6.65945925e-12 0 0)
(-7.14786222e-12 0 0)
(-7.15580145e-12 0 0)
(-6.48641968e-12 0 0)
(-7.3949727e-12 0 0)
(-6.96044722e-12 0 0)
(-5.58145906e-12 0 0)
(-5.9164789e-12 0 0)
(-5.90873554e-12 0 0)
(-5.55484669e-12 0 0)
(-5.83375939e-12 0 0)
(-6.20951763e-12 0 0)
(-5.79398408e-12 0 0)
(-5.83398674e-12 0 0)
(-5.90984918e-12 0 0)
(-7.48225927e-12 0 0)
(-7.46384309e-12 0 0)
(-6.24080241e-12 0 0)
(-6.89955883e-12 0 0)
(-7.01177869e-12 0 0)
(-6.9356084e-12 0 0)
(-6.77534703e-12 0 0)
(-6.42732032e-12 0 0)
(-8.32548483e-12 0 0)
(-7.08572403e-12 0 0)
(-6.45634168e-12 0 0)
(-6.55060582e-12 0 0)
(-7.09644421e-12 0 0)
(-6.64911832e-12 0 0)
(-7.71252629e-12 0 0)
(-6.88272668e-12 0 0)
(-7.12151535e-12 0 0)
(-6.99331226e-12 0 0)
(-7.79079223e-12 0 0)
(-7.62751632e-12 0 0)
(-7.41746479e-12 0 0)
(-7.0077597e-12 0 0)
(-7.38718195e-12 0 0)
(-7.12781491e-12 0 0)
(-7.35987189e-12 0 0)
(-6.73603325e-12 0 0)
(-7.15263725e-12 0 0)
(-6.70165751e-12 0 0)
(-7.39297346e-12 0 0)
(-7.183017e-12 0 0)
(-6.75847106e-12 0 0)
(-6.97478021e-12 0 0)
(-7.40353785e-12 0 0)
(-7.77841118e-12 0 0)
(-7.28889419e-12 0 0)
(-7.5015503e-12 0 0)
(-7.68400881e-12 0 0)
(-8.27406096e-12 0 0)
(-9.51915164e-12 0 0)
(-8.24547116e-12 0 0)
(-8.73638632e-12 0 0)
(-9.67629647e-12 0 0)
(-9.31514538e-12 0 0)
(-8.37946447e-12 0 0)
(-9.48276495e-12 0 0)
(-9.71346762e-12 0 0)
(-9.8610899e-12 0 0)
(-9.00410543e-12 0 0)
(-9.55911734e-12 0 0)
(-1.00730064e-11 0 0)
(-9.90972245e-12 0 0)
(-1.03319488e-11 0 0)
(-9.41716992e-12 0 0)
(-1.05113552e-11 0 0)
(-1.02661419e-11 0 0)
(-1.09899101e-11 0 0)
(-9.72024107e-12 0 0)
(-1.06201245e-11 0 0)
(-1.04397996e-11 0 0)
(-1.0706416e-11 0 0)
(-1.00131558e-11 0 0)
(-1.02395762e-11 0 0)
(-1.17218903e-11 0 0)
(-9.9018649e-12 0 0)
(-1.01463293e-11 0 0)
(-1.05872306e-11 0 0)
(-1.18931437e-11 0 0)
(-1.12150709e-11 0 0)
(-1.18116508e-11 0 0)
(-1.16108341e-11 0 0)
(-1.13306789e-11 0 0)
(-1.21215479e-11 0 0)
(-1.22074013e-11 0 0)
(-1.18062272e-11 0 0)
(-1.19455254e-11 0 0)
(-1.33832463e-11 0 0)
(-1.15852512e-11 0 0)
(-1.20474424e-11 0 0)
(-1.27387622e-11 0 0)
(-1.29499598e-11 0 0)
(-1.40975313e-11 0 0)
(-1.21573387e-11 0 0)
(-1.21854482e-11 0 0)
(-1.23533724e-11 0 0)
(-1.33986221e-11 0 0)
(-1.36454415e-11 0 0)
(-1.2635414e-11 0 0)
(-1.29774256e-11 0 0)
(-1.26631025e-11 0 0)
(-1.35967188e-11 0 0)
(-1.2599277e-11 0 0)
(-1.26246028e-11 0 0)
(-1.38102304e-11 0 0)
(-1.25983469e-11 0 0)
(-1.45117897e-11 0 0)
(-1.37343925e-11 0 0)
(-1.37117951e-11 0 0)
(-1.38397535e-11 0 0)
(-1.3681134e-11 0 0)
(-1.27595938e-11 0 0)
(-1.40288816e-11 0 0)
(-1.41149466e-11 0 0)
(-1.40483906e-11 0 0)
(-1.45273861e-11 0 0)
(-1.30475086e-11 0 0)
(-1.36219103e-11 0 0)
(-1.33526142e-11 0 0)
(-1.27312428e-11 0 0)
(-1.38010603e-11 0 0)
(-1.40150485e-11 0 0)
(-1.34893252e-11 0 0)
(-1.38849628e-11 0 0)
(-1.28874621e-11 0 0)
(-1.33773674e-11 0 0)
(-1.398641e-11 0 0)
(-1.4163778e-11 0 0)
(-1.30078831e-11 0 0)
(-1.39691959e-11 0 0)
(-1.35335647e-11 0 0)
(-1.41017459e-11 0 0)
(-1.4322352e-11 0 0)
(-1.38101884e-11 0 0)
(-1.51201927e-11 0 0)
(-1.40515667e-11 0 0)
(-1.38656075e-11 0 0)
(-1.39396479e-11 0 0)
(-1.51533212e-11 0 0)
(-1.36246771e-11 0 0)
(-1.32991772e-11 0 0)
(-1.46276246e-11 0 0)
(-1.37328633e-11 0 0)
(-1.3510984e-11 0 0)
(-1.44048825e-11 0 0)
(-1.39067896e-11 0 0)
(-1.40087604e-11 0 0)
(-1.44432983e-11 0 0)
(-1.38016372e-11 0 0)
(-1.42348018e-11 0 0)
(-1.31681246e-11 0 0)
(-1.36371849e-11 0 0)
(-1.34593177e-11 0 0)
(-1.38580554e-11 0 0)
(-1.37103666e-11 0 0)
(-1.43959018e-11 0 0)
(-1.41725088e-11 0 0)
(-1.46892393e-11 0 0)
(-1.4238122e-11 0 0)
(-1.41791153e-11 0 0)
(-1.5478389e-11 0 0)
(-1.35273686e-11 0 0)
(-1.45344867e-11 0 0)
(-1.47860832e-11 0 0)
(-1.42236347e-11 0 0)
(-1.45090569e-11 0 0)
(-1.41622922e-11 0 0)
(-1.49346644e-11 0 0)
(-1.44441841e-11 0 0)
(-1.56326002e-11 0 0)
(-1.48943549e-11 0 0)
(-1.47138811e-11 0 0)
(-1.41049706e-11 0 0)
(-1.51571251e-11 0 0)
(-1.5276956e-11 0 0)
(-1.5194483e-11 0 0)
(-1.49173745e-11 0 0)
(-1.49421138e-11 0 0)
(-1.52440665e-11 0 0)
(-1.47843218e-11 0 0)
(-1.55962756e-11 0 0)
(-1.49094898e-11 0 0)
(-1.49809382e-11 0 0)
(-1.50481172e-11 0 0)
(-1.52960355e-11 0 0)
(-1.53374877e-11 0 0)
(-1.4663699e-11 0 0)
(-1.45945629e-11 0 0)
(-1.56620978e-11 0 0)
(-1.52992476e-11 0 0)
(-1.61131779e-11 0 0)
(-1.56029027e-11 0 0)
(-1.6413371e-11 0 0)
(-1.62226901e-11 0 0)
(-1.66360053e-11 0 0)
(-1.63125616e-11 0 0)
(-1.66883247e-11 0 0)
(-1.75260271e-11 0 0)
(-1.71693528e-11 0 0)
(-1.5844348e-11 0 0)
(-1.67700756e-11 0 0)
(-1.74390618e-11 0 0)
(-1.73953499e-11 0 0)
(-1.72310684e-11 0 0)
(-1.64366405e-11 0 0)
(-1.6591559e-11 0 0)
(-1.73691699e-11 0 0)
(-1.75811566e-11 0 0)
(-1.76036094e-11 0 0)
(-1.87424956e-11 0 0)
(-1.78914747e-11 0 0)
(-1.71455026e-11 0 0)
(-1.92147938e-11 0 0)
(-1.92088329e-11 0 0)
(-1.82682886e-11 0 0)
(-1.82308311e-11 0 0)
(-1.7732682e-11 0 0)
(-1.84138257e-11 0 0)
(-1.80661732e-11 0 0)
(-1.80508151e-11 0 0)
(-1.8257617e-11 0 0)
(-1.77984897e-11 0 0)
(-1.7916119e-11 0 0)
(-1.69300062e-11 0 0)
(-1.84627059e-11 0 0)
(-1.76152208e-11 0 0)
(-1.75655534e-11 0 0)
(-1.6149148e-11 0 0)
(-1.65741442e-11 0 0)
(-1.68703486e-11 0 0)
(-1.73648397e-11 0 0)
(-1.65283588e-11 0 0)
(-1.69770936e-11 0 0)
(-1.64978895e-11 0 0)
(-1.74175125e-11 0 0)
(-1.66711675e-11 0 0)
(-1.56728123e-11 0 0)
(-1.7218191e-11 0 0)
(-1.66590429e-11 0 0)
(-1.74381989e-11 0 0)
(-1.74746126e-11 0 0)
(-1.69213625e-11 0 0)
(-1.80205457e-11 0 0)
(-1.69198932e-11 0 0)
(-1.7274233e-11 0 0)
(-1.76985993e-11 0 0)
(-1.66032177e-11 0 0)
(-1.67092937e-11 0 0)
(-1.67833247e-11 0 0)
(-1.7977464e-11 0 0)
(-1.67966363e-11 0 0)
(-1.8324002e-11 0 0)
(-1.67773638e-11 0 0)
(-1.70955881e-11 0 0)
(-1.86623971e-11 0 0)
(-1.75162767e-11 0 0)
(-1.77958245e-11 0 0)
(-1.65834733e-11 0 0)
(-1.81936017e-11 0 0)
(-1.74644101e-11 0 0)
(-1.82992795e-11 0 0)
(-1.7496505e-11 0 0)
(-1.80418281e-11 0 0)
(-1.69537966e-11 0 0)
(-1.73013031e-11 0 0)
(-1.66639941e-11 0 0)
(-1.63952636e-11 0 0)
(-1.61892922e-11 0 0)
(-1.74287265e-11 0 0)
(-1.61857973e-11 0 0)
(-1.68313626e-11 0 0)
(-1.66032407e-11 0 0)
(-1.61939441e-11 0 0)
(-1.66899429e-11 0 0)
(-1.62270538e-11 0 0)
(-1.74013193e-11 0 0)
(-1.74146758e-11 0 0)
(-1.67663504e-11 0 0)
(-1.5949748e-11 0 0)
(-1.52212442e-11 0 0)
(-1.63922568e-11 0 0)
(-1.59080461e-11 0 0)
(-1.57722654e-11 0 0)
(-1.50041295e-11 0 0)
(-1.6189144e-11 0 0)
(-1.49675827e-11 0 0)
(-1.49448893e-11 0 0)
(-1.52497258e-11 0 0)
(-1.4632757e-11 0 0)
(-1.47730286e-11 0 0)
(-1.51497156e-11 0 0)
(-1.43348888e-11 0 0)
(-1.34081343e-11 0 0)
(-1.39413209e-11 0 0)
(-1.30635779e-11 0 0)
(-1.37638979e-11 0 0)
(-1.36603899e-11 0 0)
(-1.33455435e-11 0 0)
(-1.34136247e-11 0 0)
(-1.22504953e-11 0 0)
(-1.3927442e-11 0 0)
(-1.39634659e-11 0 0)
(-1.41127362e-11 0 0)
(-1.41632807e-11 0 0)
(-1.34826404e-11 0 0)
(-1.42126433e-11 0 0)
(-1.57447786e-11 0 0)
(-1.4640345e-11 0 0)
(-1.34647124e-11 0 0)
(-1.30386625e-11 0 0)
(-1.32991012e-11 0 0)
(-1.35815955e-11 0 0)
(-1.46361582e-11 0 0)
(-1.30257644e-11 0 0)
(-1.26134367e-11 0 0)
(-1.34586324e-11 0 0)
(-1.37618981e-11 0 0)
(-1.48733801e-11 0 0)
(-1.45444704e-11 0 0)
(-1.43314116e-11 0 0)
(-1.35661673e-11 0 0)
(-1.28825461e-11 0 0)
(-1.29703301e-11 0 0)
(-1.26133952e-11 0 0)
(-1.38403909e-11 0 0)
(-1.32523006e-11 0 0)
(-1.24693471e-11 0 0)
(-1.26380845e-11 0 0)
(-1.29649311e-11 0 0)
(-1.32119041e-11 0 0)
(-1.29152231e-11 0 0)
(-1.04485981e-11 0 0)
(-1.16163838e-11 0 0)
(-1.17053341e-11 0 0)
(-1.22050508e-11 0 0)
(-1.08177659e-11 0 0)
(-1.11140277e-11 0 0)
(-1.10405124e-11 0 0)
(-1.18044564e-11 0 0)
(-1.20759655e-11 0 0)
(-1.14465557e-11 0 0)
(-1.15976424e-11 0 0)
(-1.06154204e-11 0 0)
(-1.03148237e-11 0 0)
(-1.06961469e-11 0 0)
(-1.10612124e-11 0 0)
(-9.35005234e-12 0 0)
(-9.62396723e-12 0 0)
(-9.3309806e-12 0 0)
(-9.07819214e-12 0 0)
(-9.92858729e-12 0 0)
(-9.28494256e-12 0 0)
(-8.19434608e-12 0 0)
(-9.32603464e-12 0 0)
(-1.08940607e-11 0 0)
(-9.58304893e-12 0 0)
(-8.89942944e-12 0 0)
(-9.95496543e-12 0 0)
(-8.94598355e-12 0 0)
(-8.08168695e-12 0 0)
(-8.39899161e-12 0 0)
(-7.59621131e-12 0 0)
(-7.67959898e-12 0 0)
(-8.06647088e-12 0 0)
(-7.5463504e-12 0 0)
(-7.85000493e-12 0 0)
(-7.44494682e-12 0 0)
(-8.0847653e-12 0 0)
(-7.98174783e-12 0 0)
(-7.76340838e-12 0 0)
(-8.48477963e-12 0 0)
(-7.73938147e-12 0 0)
(-7.94141723e-12 0 0)
(-7.73027876e-12 0 0)
(-7.76150784e-12 0 0)
(-7.45519738e-12 0 0)
(-7.24091581e-12 0 0)
(-6.84791139e-12 0 0)
(-6.9565011e-12 0 0)
(-6.4521246e-12 0 0)
(-7.4203444e-12 0 0)
(-6.06667581e-12 0 0)
(-6.04439295e-12 0 0)
(-6.8817794e-12 0 0)
(-6.38096684e-12 0 0)
(-6.18366501e-12 0 0)
(-6.42285996e-12 0 0)
(-6.88523974e-12 0 0)
(-6.56000123e-12 0 0)
(-6.69891014e-12 0 0)
(-6.64574704e-12 0 0)
(-5.63576731e-12 0 0)
(-5.82126404e-12 0 0)
(-6.16676903e-12 0 0)
(-6.08333964e-12 0 0)
(-5.63398129e-12 0 0)
(-6.74634287e-12 0 0)
(-6.39963477e-12 0 0)
(-6.25675746e-12 0 0)
(-6.24705378e-12 0 0)
(-6.24484403e-12 0 0)
(-6.53537189e-12 0 0)
(-6.44842313e-12 0 0)
(-6.49604125e-12 0 0)
(-6.7397458e-12 0 0)
(-6.47317034e-12 0 0)
(-6.27687723e-12 0 0)
(-6.95797517e-12 0 0)
(-5.59720005e-12 0 0)
(-6.53411522e-12 0 0)
(-5.1312234e-12 0 0)
(-5.9330633e-12 0 0)
(-5.45619358e-12 0 0)
(-5.63537548e-12 0 0)
(-4.84343308e-12 0 0)
(-3.89373173e-12 0 0)
(-4.30165628e-12 0 0)
(-5.21795558e-12 0 0)
(-4.00825395e-12 0 0)
(-5.14346577e-12 0 0)
(-4.16932531e-12 0 0)
(-4.04983528e-12 0 0)
(-3.87495728e-12 0 0)
(-4.24785278e-12 0 0)
(-3.39741829e-12 0 0)
(-3.75547823e-12 0 0)
(-4.22220213e-12 0 0)
(-3.05745048e-12 0 0)
(-3.59932318e-12 0 0)
(-3.99312851e-12 0 0)
(-3.87648865e-12 0 0)
(-4.06539649e-12 0 0)
(-4.08020272e-12 0 0)
(-3.99149385e-12 0 0)
(-3.71482248e-12 0 0)
(-5.11197371e-12 0 0)
(-2.88339429e-12 0 0)
(-3.35759547e-12 0 0)
(-3.30930341e-12 0 0)
(-3.54435971e-12 0 0)
(-2.61481724e-12 0 0)
(-2.8343128e-12 0 0)
(-3.52410064e-12 0 0)
(-2.63719731e-12 0 0)
(-2.69257865e-12 0 0)
(-2.78045327e-12 0 0)
(-3.18324977e-12 0 0)
(-3.74069363e-12 0 0)
(-2.83556765e-12 0 0)
(-2.31952551e-12 0 0)
(-2.70203586e-12 0 0)
(-3.66707513e-12 0 0)
(-2.40322568e-12 0 0)
(-2.46807059e-12 0 0)
(-3.17755948e-12 0 0)
(-2.14557499e-12 0 0)
(-1.97576812e-12 0 0)
(-2.90488175e-12 0 0)
(-1.8126579e-12 0 0)
(-1.86281238e-12 0 0)
(-1.89548822e-12 0 0)
(-9.25300229e-13 0 0)
(-1.5632867e-12 0 0)
(-1.1954353e-12 0 0)
(-1.0163615e-12 0 0)
(-6.47579436e-13 0 0)
(-4.83995816e-13 0 0)
(-5.34726118e-15 0 0)
(-4.98194325e-13 0 0)
(-9.34844353e-13 0 0)
(-3.91809785e-13 0 0)
(-8.08737413e-13 0 0)
(-4.88109554e-13 0 0)
(-9.71791575e-13 0 0)
(4.80291789e-13 0 0)
(3.64910827e-13 0 0)
(8.28671819e-13 0 0)
(-5.80366277e-13 0 0)
(3.52834778e-13 0 0)
(2.17098857e-13 0 0)
(9.34855381e-14 0 0)
(-4.10383983e-13 0 0)
(6.47163687e-13 0 0)
(1.23801447e-12 0 0)
(1.43123933e-12 0 0)
(-6.85758937e-13 0 0)
(5.78538406e-13 0 0)
(5.92001799e-13 0 0)
(8.00711631e-13 0 0)
(1.808207e-12 0 0)
(1.22663081e-12 0 0)
(2.83058449e-13 0 0)
(1.53069209e-12 0 0)
(3.12097019e-13 0 0)
(8.33462057e-13 0 0)
(1.30466431e-12 0 0)
(1.17347067e-12 0 0)
(1.00808982e-12 0 0)
(8.97158357e-13 0 0)
(1.59864532e-12 0 0)
(6.99641628e-13 0 0)
(9.03087245e-13 0 0)
(5.69144134e-13 0 0)
(4.89996572e-13 0 0)
(1.33448954e-12 0 0)
(-2.27298611e-13 0 0)
(2.22585154e-13 0 0)
(9.88744958e-13 0 0)
(9.20061216e-13 0 0)
(6.21826628e-13 0 0)
(1.06806256e-12 0 0)
(3.49368065e-13 0 0)
(1.0798386e-12 0 0)
(1.91980273e-12 0 0)
(7.99364716e-13 0 0)
(1.78521289e-12 0 0)
(2.08471409e-12 0 0)
(1.5476624e-12 0 0)
(2.92802122e-12 0 0)
(1.8115809e-12 0 0)
(1.61686768e-12 0 0)
(2.7015828e-12 0 0)
(1.82410232e-12 0 0)
(1.60714845e-12 0 0)
(1.57070791e-12 0 0)
(1.49094785e-12 0 0)
(2.31356892e-12 0 0)
(2.03209611e-12 0 0)
(1.70986682e-12 0 0)
(1.67581959e-12 0 0)
(1.94662639e-12 0 0)
(1.5271072e-12 0 0)
(2.2944613e-12 0 0)
(1.90139116e-12 0 0)
(2.06400467e-12 0 0)
(2.47533931e-12 0 0)
(1.67529271e-12 0 0)
(2.22267504e-12 0 0)
(2.35428442e-12 0 0)
(1.47335417e-12 0 0)
(2.65184442e-12 0 0)
(2.58828939e-12 0 0)
(3.86750096e-12 0 0)
(3.04878125e-12 0 0)
(3.77996253e-12 0 0)
(1.86810849e-12 0 0)
(3.019105e-12 0 0)
(2.95323389e-12 0 0)
(2.94584104e-12 0 0)
(2.14385541e-12 0 0)
(2.23562812e-12 0 0)
(2.52710618e-12 0 0)
(1.45905833e-12 0 0)
(2.96948064e-12 0 0)
(2.76926666e-12 0 0)
(2.46835988e-12 0 0)
(2.30764721e-12 0 0)
(3.06367013e-12 0 0)
(2.81806952e-12 0 0)
(3.34450882e-12 0 0)
(3.56078692e-12 0 0)
(3.25417293e-12 0 0)
(3.5064677e-12 0 0)
(4.00793779e-12 0 0)
(3.46808364e-12 0 0)
(3.92572091e-12 0 0)
(3.2213694e-12 0 0)
(4.29131387e-12 0 0)
(3.90326509e-12 0 0)
(5.70502208e-12 0 0)
(4.24566142e-12 0 0)
(4.16304264e-12 0 0)
(5.49858707e-12 0 0)
(5.73433098e-12 0 0)
(5.38739714e-12 0 0)
(5.18749812e-12 0 0)
(5.95241539e-12 0 0)
(5.83866222e-12 0 0)
(5.87055107e-12 0 0)
(5.71836283e-12 0 0)
(6.16815109e-12 0 0)
(6.4351199e-12 0 0)
(6.22254189e-12 0 0)
(5.85566606e-12 0 0)
(5.70544021e-12 0 0)
(5.9191615e-12 0 0)
(5.86268665e-12 0 0)
(7.03541696e-12 0 0)
(6.08418512e-12 0 0)
(6.40259253e-12 0 0)
(6.34004034e-12 0 0)
(7.24828584e-12 0 0)
(7.27192384e-12 0 0)
(7.31793559e-12 0 0)
(6.19849732e-12 0 0)
(7.05299041e-12 0 0)
(6.85340567e-12 0 0)
(7.95460681e-12 0 0)
(6.69831756e-12 0 0)
(7.7659043e-12 0 0)
(7.23266689e-12 0 0)
(6.98894954e-12 0 0)
(6.69295383e-12 0 0)
(7.72689625e-12 0 0)
(6.91864162e-12 0 0)
(7.75070222e-12 0 0)
(7.65613137e-12 0 0)
(8.10279414e-12 0 0)
(8.02756246e-12 0 0)
(7.45591703e-12 0 0)
(7.96013222e-12 0 0)
(7.04304047e-12 0 0)
(7.62733923e-12 0 0)
(8.38703012e-12 0 0)
(8.02047654e-12 0 0)
(8.41697381e-12 0 0)
(8.6641283e-12 0 0)
(8.81977311e-12 0 0)
(8.28465621e-12 0 0)
(7.90972746e-12 0 0)
(7.86449262e-12 0 0)
(9.31369011e-12 0 0)
(8.89444533e-12 0 0)
(9.44372649e-12 0 0)
(8.79682314e-12 0 0)
(1.02238291e-11 0 0)
(9.38157223e-12 0 0)
(9.43356095e-12 0 0)
(1.06189259e-11 0 0)
(1.00949959e-11 0 0)
(9.75352259e-12 0 0)
(1.04210766e-11 0 0)
(1.08477198e-11 0 0)
(1.11867122e-11 0 0)
(9.73164318e-12 0 0)
(1.12363188e-11 0 0)
(1.04671767e-11 0 0)
(1.15851776e-11 0 0)
(1.03009754e-11 0 0)
(1.12581029e-11 0 0)
(1.10534973e-11 0 0)
(1.06033154e-11 0 0)
(1.05475973e-11 0 0)
(1.08247512e-11 0 0)
(1.04353534e-11 0 0)
(1.09659356e-11 0 0)
(1.13591605e-11 0 0)
(1.07289709e-11 0 0)
(1.14853912e-11 0 0)
(1.1921159e-11 0 0)
(1.10054006e-11 0 0)
(9.86904707e-12 0 0)
(1.09855264e-11 0 0)
(1.11415505e-11 0 0)
(1.10272262e-11 0 0)
(1.07267867e-11 0 0)
(1.07520655e-11 0 0)
(1.13899481e-11 0 0)
(1.07766877e-11 0 0)
(1.03639608e-11 0 0)
(1.04639828e-11 0 0)
(1.0571993e-11 0 0)
(9.90735259e-12 0 0)
(1.16725424e-11 0 0)
(9.6299337e-12 0 0)
(9.53626854e-12 0 0)
(1.08492464e-11 0 0)
(9.61216062e-12 0 0)
(1.09686483e-11 0 0)
(1.0217159e-11 0 0)
(1.05077393e-11 0 0)
(1.12196497e-11 0 0)
(9.54113475e-12 0 0)
(1.04659995e-11 0 0)
(1.06844006e-11 0 0)
(1.0046838e-11 0 0)
(1.11993659e-11 0 0)
(9.90159674e-12 0 0)
(1.07222473e-11 0 0)
(1.03086999e-11 0 0)
(1.00940204e-11 0 0)
(9.09278416e-12 0 0)
(9.18824483e-12 0 0)
(1.03998416e-11 0 0)
(1.04250273e-11 0 0)
(9.99796063e-12 0 0)
(9.49958816e-12 0 0)
(8.99102005e-12 0 0)
(1.03024021e-11 0 0)
(1.18095299e-11 0 0)
(1.05907278e-11 0 0)
(1.11413586e-11 0 0)
(9.76077643e-12 0 0)
(1.1158489e-11 0 0)
(1.08437616e-11 0 0)
(1.01915354e-11 0 0)
(9.92004924e-12 0 0)
(9.99732267e-12 0 0)
(9.52601924e-12 0 0)
(9.7711448e-12 0 0)
(9.52321276e-12 0 0)
(8.89763867e-12 0 0)
(8.32250664e-12 0 0)
(9.57164437e-12 0 0)
(8.14822825e-12 0 0)
(8.59840893e-12 0 0)
(8.19267662e-12 0 0)
(9.52701257e-12 0 0)
(9.13429012e-12 0 0)
(8.68007781e-12 0 0)
(9.58380325e-12 0 0)
(9.22222218e-12 0 0)
(9.72586704e-12 0 0)
(9.07782674e-12 0 0)
(9.36336651e-12 0 0)
(1.00003268e-11 0 0)
(9.50570451e-12 0 0)
(9.65995991e-12 0 0)
(9.4571376e-12 0 0)
(8.44270936e-12 0 0)
(1.0232297e-11 0 0)
(9.75184757e-12 0 0)
(9.26459297e-12 0 0)
(8.53684477e-12 0 0)
(9.35679112e-12 0 0)
(8.52139612e-12 0 0)
(8.84043631e-12 0 0)
(9.16724195e-12 0 0)
(8.7916978e-12 0 0)
(8.83781835e-12 0 0)
(8.45246364e-12 0 0)
(8.9613975e-12 0 0)
(8.95487097e-12 0 0)
(9.41733223e-12 0 0)
(9.00249661e-12 0 0)
(9.1304667e-12 0 0)
(8.94175525e-12 0 0)
(8.63167967e-12 0 0)
(9.46103724e-12 0 0)
(9.02803039e-12 0 0)
(9.71956966e-12 0 0)
(8.82711404e-12 0 0)
(9.68090488e-12 0 0)
(9.04437334e-12 0 0)
(9.50893946e-12 0 0)
(9.29429801e-12 0 0)
(9.85336017e-12 0 0)
(9.57458775e-12 0 0)
(9.12624659e-12 0 0)
(9.07595101e-12 0 0)
(1.10560899e-11 0 0)
(9.93333551e-12 0 0)
(1.00820219e-11 0 0)
(9.60307406e-12 0 0)
(9.92993159e-12 0 0)
(1.03380336e-11 0 0)
(1.05385338e-11 0 0)
(9.8463233e-12 0 0)
(1.05866747e-11 0 0)
(1.15562631e-11 0 0)
(1.08868125e-11 0 0)
(1.09526604e-11 0 0)
(1.05002847e-11 0 0)
(9.64637568e-12 0 0)
(1.03050077e-11 0 0)
(1.01780381e-11 0 0)
(1.04004448e-11 0 0)
(1.03390682e-11 0 0)
(9.56735133e-12 0 0)
(1.03962619e-11 0 0)
(9.8130406e-12 0 0)
(1.02074447e-11 0 0)
(9.72395061e-12 0 0)
(9.87526316e-12 0 0)
(9.78190421e-12 0 0)
(9.00522456e-12 0 0)
(1.00111389e-11 0 0)
(9.42896626e-12 0 0)
(9.07862778e-12 0 0)
(9.83742371e-12 0 0)
(9.05788749e-12 0 0)
(9.37969015e-12 0 0)
(9.96925919e-12 0 0)
(9.19710116e-12 0 0)
(9.74665777e-12 0 0)
(9.41702031e-12 0 0)
(9.34335236e-12 0 0)
(9.59552647e-12 0 0)
(9.70725558e-12 0 0)
(9.3444581e-12 0 0)
(1.00937626e-11 0 0)
(9.10448909e-12 0 0)
(8.87413824e-12 0 0)
(8.70980041e-12 0 0)
(9.10406169e-12 0 0)
(7.95958533e-12 0 0)
(7.61903476e-12 0 0)
(8.60684411e-12 0 0)
(8.31375475e-12 0 0)
(7.57652718e-12 0 0)
(8.11854976e-12 0 0)
(7.60018787e-12 0 0)
(7.87223234e-12 0 0)
(7.52015192e-12 0 0)
(6.97628178e-12 0 0)
(7.33304101e-12 0 0)
(7.11427036e-12 0 0)
(7.28808502e-12 0 0)
(8.16321222e-12 0 0)
(8.58986783e-12 0 0)
(8.26240719e-12 0 0)
(8.01559679e-12 0 0)
(8.53542298e-12 0 0)
(9.0233638e-12 0 0)
(8.9273887e-12 0 0)
(8.84863385e-12 0 0)
(9.29607577e-12 0 0)
(8.94409976e-12 0 0)
(8.63923406e-12 0 0)
(8.89701592e-12 0 0)
(7.83146653e-12 0 0)
(8.56677421e-12 0 0)
(7.86039586e-12 0 0)
(8.03932192e-12 0 0)
(7.87737823e-12 0 0)
(8.19170686e-12 0 0)
(8.71345863e-12 0 0)
(8.24777467e-12 0 0)
(9.19169378e-12 0 0)
(9.10100304e-12 0 0)
(8.26812315e-12 0 0)
(7.63864856e-12 0 0)
(7.72369906e-12 0 0)
(9.22349753e-12 0 0)
(8.3123286e-12 0 0)
(8.89364481e-12 0 0)
(8.37573448e-12 0 0)
(9.7189646e-12 0 0)
(8.88166282e-12 0 0)
(8.29692439e-12 0 0)
(8.43752557e-12 0 0)
(8.97032603e-12 0 0)
(9.72262001e-12 0 0)
(8.32348478e-12 0 0)
(8.72221312e-12 0 0)
(9.45984923e-12 0 0)
(9.42454641e-12 0 0)
(8.70031011e-12 0 0)
(8.86920131e-12 0 0)
(8.54335267e-12 0 0)
(8.41614429e-12 0 0)
(8.20184458e-12 0 0)
(8.62504792e-12 0 0)
(7.57325482e-12 0 0)
(8.71695641e-12 0 0)
(9.24030978e-12 0 0)
(8.1422094e-12 0 0)
(9.01578334e-12 0 0)
(7.3583207e-12 0 0)
(8.90425129e-12 0 0)
(7.85267663e-12 0 0)
(8.8375141e-12 0 0)
(7.85236855e-12 0 0)
(8.17097115e-12 0 0)
(8.21475955e-12 0 0)
(8.61586319e-12 0 0)
(8.34153662e-12 0 0)
(8.03982013e-12 0 0)
(8.81788583e-12 0 0)
(7.68436076e-12 0 0)
(7.3629539e-12 0 0)
(8.25482729e-12 0 0)
(6.72196171e-12 0 0)
(7.86455627e-12 0 0)
(7.79387234e-12 0 0)
(7.15466482e-12 0 0)
(8.81183707e-12 0 0)
(7.22202672e-12 0 0)
(8.09730691e-12 0 0)
(7.20927726e-12 0 0)
(7.64391929e-12 0 0)
(7.63874045e-12 0 0)
(6.6586568e-12 0 0)
(7.37204585e-12 0 0)
(7.56211468e-12 0 0)
(6.75627849e-12 0 0)
(7.55311376e-12 0 0)
(6.94034738e-12 0 0)
(7.90239146e-12 0 0)
(7.04060053e-12 0 0)
(7.23986075e-12 0 0)
(7.03133867e-12 0 0)
(6.65320458e-12 0 0)
(7.99417471e-12 0 0)
(6.76264639e-12 0 0)
(6.54434942e-12 0 0)
(7.30716206e-12 0 0)
(7.64446492e-12 0 0)
(6.94823275e-12 0 0)
(7.2622099e-12 0 0)
(7.46967328e-12 0 0)
(6.63154023e-12 0 0)
(7.25121618e-12 0 0)
(7.20738189e-12 0 0)
(6.64989924e-12 0 0)
(6.33682526e-12 0 0)
(5.55637108e-12 0 0)
(6.76375747e-12 0 0)
(5.37244363e-12 0 0)
(6.54501535e-12 0 0)
(6.24220549e-12 0 0)
(6.55636073e-12 0 0)
(5.94752332e-12 0 0)
(6.3595607e-12 0 0)
(6.24979663e-12 0 0)
(5.38015411e-12 0 0)
(5.01786204e-12 0 0)
(6.25817298e-12 0 0)
(5.13242681e-12 0 0)
(5.47997211e-12 0 0)
(5.58116094e-12 0 0)
(5.67113938e-12 0 0)
(4.77484e-12 0 0)
(4.51671501e-12 0 0)
(4.89652213e-12 0 0)
(4.42466758e-12 0 0)
(5.51425717e-12 0 0)
(4.45226423e-12 0 0)
(4.69083315e-12 0 0)
(4.33291483e-12 0 0)
(4.70938023e-12 0 0)
(3.91160581e-12 0 0)
(4.14156648e-12 0 0)
(4.17173618e-12 0 0)
(4.23801071e-12 0 0)
(4.53759823e-12 0 0)
(5.18713789e-12 0 0)
(4.26831375e-12 0 0)
(4.87614322e-12 0 0)
(4.81943314e-12 0 0)
(4.73483769e-12 0 0)
(3.79621852e-12 0 0)
(4.00610822e-12 0 0)
(4.04241491e-12 0 0)
(3.33737879e-12 0 0)
(3.67386117e-12 0 0)
(4.40073192e-12 0 0)
(3.45664404e-12 0 0)
(3.4429004e-12 0 0)
(4.33310225e-12 0 0)
(4.22827054e-12 0 0)
(3.82386596e-12 0 0)
(4.01783501e-12 0 0)
(3.50195543e-12 0 0)
(3.19228624e-12 0 0)
(3.91746172e-12 0 0)
(4.01563843e-12 0 0)
(3.65683934e-12 0 0)
(3.19641603e-12 0 0)
(3.6124947e-12 0 0)
(3.35859666e-12 0 0)
(3.31601025e-12 0 0)
(1.97075132e-12 0 0)
(3.53957017e-12 0 0)
(4.36165922e-12 0 0)
(3.86078852e-12 0 0)
(3.37038913e-12 0 0)
(3.51880603e-12 0 0)
(3.57336279e-12 0 0)
(3.35344986e-12 0 0)
(4.4155472e-12 0 0)
(3.88042954e-12 0 0)
(3.48678957e-12 0 0)
(3.06656342e-12 0 0)
(4.88014462e-12 0 0)
(2.76924087e-12 0 0)
(2.90835595e-12 0 0)
(2.73460056e-12 0 0)
(3.61206314e-12 0 0)
(2.61363742e-12 0 0)
(2.1035909e-12 0 0)
(2.63726965e-12 0 0)
(2.45060272e-12 0 0)
(2.36208663e-12 0 0)
(3.09436498e-12 0 0)
(1.83962051e-12 0 0)
(2.63406379e-12 0 0)
(2.86220251e-12 0 0)
(2.26993405e-12 0 0)
(1.20022294e-12 0 0)
(2.80613806e-12 0 0)
(2.01782186e-12 0 0)
(1.59736877e-12 0 0)
(1.92737484e-12 0 0)
(8.07811127e-13 0 0)
(1.44167374e-14 0 0)
(6.28610813e-13 0 0)
(2.24668753e-13 0 0)
(4.82192435e-13 0 0)
(-4.47019338e-13 0 0)
(-3.95533736e-13 0 0)
(-5.96748792e-13 0 0)
(-5.99827385e-13 0 0)
(-1.03423464e-12 0 0)
(-1.19645472e-12 0 0)
(-1.32228716e-12 0 0)
(-2.04523438e-12 0 0)
(-1.7184595e-12 0 0)
(-2.2984358e-12 0 0)
(-1.88329045e-12 0 0)
(-1.75720709e-12 0 0)
(-2.34563832e-12 0 0)
(-1.89681459e-12 0 0)
(-3.06835553e-12 0 0)
(-1.65657957e-12 0 0)
(-1.95970894e-12 0 0)
(-3.27763483e-12 0 0)
(-1.80900096e-12 0 0)
(-2.23544983e-12 0 0)
(-2.07225692e-12 0 0)
(-2.89419791e-12 0 0)
(-1.9621963e-12 0 0)
(-1.81065274e-12 0 0)
(-2.26445141e-12 0 0)
(-2.95679601e-12 0 0)
(-3.45222628e-12 0 0)
(-2.8698784e-12 0 0)
(-3.38145142e-12 0 0)
(-3.60241871e-12 0 0)
(-2.71916442e-12 0 0)
(-3.47078656e-12 0 0)
(-2.67422227e-12 0 0)
(-3.61136391e-12 0 0)
(-2.48952594e-12 0 0)
(-2.81961445e-12 0 0)
(-3.29665276e-12 0 0)
(-2.5130678e-12 0 0)
(-2.84436994e-12 0 0)
(-2.6482539e-12 0 0)
(-2.50489329e-12 0 0)
(-2.68713113e-12 0 0)
(-2.61531764e-12 0 0)
(-2.91972911e-12 0 0)
(-2.3558944e-12 0 0)
(-2.89602243e-12 0 0)
(-3.23851881e-12 0 0)
(-3.16638373e-12 0 0)
(-2.98488639e-12 0 0)
(-2.98470862e-12 0 0)
(-2.50005218e-12 0 0)
(-3.15851823e-12 0 0)
(-2.6092902e-12 0 0)
(-3.84973908e-12 0 0)
(-3.23372144e-12 0 0)
(-3.77153919e-12 0 0)
(-4.31110935e-12 0 0)
(-3.87290627e-12 0 0)
(-4.31970306e-12 0 0)
(-3.44247939e-12 0 0)
(-4.34419724e-12 0 0)
(-3.68080875e-12 0 0)
(-4.14109592e-12 0 0)
(-4.74349708e-12 0 0)
(-3.72548287e-12 0 0)
(-4.67731865e-12 0 0)
(-4.37465238e-12 0 0)
(-4.40881341e-12 0 0)
(-4.25985598e-12 0 0)
(-5.23866006e-12 0 0)
(-5.38644681e-12 0 0)
(-5.2673803e-12 0 0)
(-5.79736337e-12 0 0)
(-5.70272901e-12 0 0)
(-4.55996465e-12 0 0)
(-5.50613349e-12 0 0)
(-6.51324625e-12 0 0)
(-6.55805966e-12 0 0)
(-6.46501508e-12 0 0)
(-7.02429835e-12 0 0)
(-6.8658291e-12 0 0)
(-7.89220459e-12 0 0)
(-7.83469785e-12 0 0)
(-7.6683965e-12 0 0)
(-8.55350178e-12 0 0)
(-8.43239631e-12 0 0)
(-9.67393758e-12 0 0)
(-7.6192873e-12 0 0)
(-6.41574936e-12 0 0)
(-8.60875839e-12 0 0)
(-8.3272206e-12 0 0)
(-8.38055132e-12 0 0)
(-7.13764637e-12 0 0)
(-8.48513942e-12 0 0)
(-8.31436623e-12 0 0)
(-8.94857585e-12 0 0)
(-9.00116601e-12 0 0)
(-1.11212112e-11 0 0)
(-8.97352644e-12 0 0)
(-9.24933901e-12 0 0)
(-9.6536978e-12 0 0)
(-1.03974546e-11 0 0)
(-9.63647608e-12 0 0)
(-9.64544158e-12 0 0)
(-9.45751402e-12 0 0)
(-1.08007275e-11 0 0)
(-9.04006159e-12 0 0)
(-1.0891649e-11 0 0)
(-1.05989311e-11 0 0)
(-1.01879454e-11 0 0)
(-9.69311869e-12 0 0)
(-1.03151247e-11 0 0)
(-1.06235034e-11 0 0)
(-9.83479844e-12 0 0)
(-9.87821692e-12 0 0)
(-1.00791862e-11 0 0)
(-1.05702513e-11 0 0)
(-1.03605602e-11 0 0)
(-1.00181133e-11 0 0)
(-1.13437396e-11 0 0)
(-1.15255542e-11 0 0)
(-9.48733839e-12 0 0)
(-1.11379914e-11 0 0)
(-9.83635989e-12 0 0)
(-9.92824527e-12 0 0)
(-9.11824839e-12 0 0)
(-9.86560241e-12 0 0)
(-9.1854321e-12 0 0)
(-9.89734282e-12 0 0)
(-9.5771375e-12 0 0)
(-9.30846428e-12 0 0)
(-8.67681672e-12 0 0)
(-9.03459593e-12 0 0)
(-8.99075771e-12 0 0)
(-8.34354528e-12 0 0)
(-8.61129689e-12 0 0)
(-8.53276186e-12 0 0)
(-8.40582987e-12 0 0)
(-8.40246443e-12 0 0)
(-8.67261185e-12 0 0)
(-8.77838553e-12 0 0)
(-8.67448688e-12 0 0)
(-9.55284041e-12 0 0)
(-8.33926427e-12 0 0)
(-8.11109407e-12 0 0)
(-8.21804231e-12 0 0)
(-8.01080547e-12 0 0)
(-8.77564088e-12 0 0)
(-9.1455709e-12 0 0)
(-7.83881519e-12 0 0)
(-8.80118039e-12 0 0)
(-9.60845408e-12 0 0)
(-7.87865064e-12 0 0)
(-8.55113264e-12 0 0)
(-8.48205711e-12 0 0)
(-8.17761291e-12 0 0)
(-8.85180576e-12 0 0)
(-8.25044414e-12 0 0)
(-8.11786033e-12 0 0)
(-8.08959789e-12 0 0)
(-7.41195469e-12 0 0)
(-8.75169762e-12 0 0)
(-7.98504086e-12 0 0)
(-7.85719766e-12 0 0)
(-8.4020209e-12 0 0)
(-7.10080359e-12 0 0)
(-7.85934768e-12 0 0)
(-7.89924768e-12 0 0)
(-8.15704253e-12 0 0)
(-7.70372154e-12 0 0)
(-8.97777771e-12 0 0)
(-7.99929312e-12 0 0)
(-8.4203046e-12 0 0)
(-8.42764792e-12 0 0)
(-8.78608509e-12 0 0)
(-8.73683143e-12 0 0)
(-8.5312813e-12 0 0)
(-7.99355716e-12 0 0)
(-8.56496894e-12 0 0)
(-7.57397894e-12 0 0)
(-7.65750696e-12 0 0)
(-7.59637304e-12 0 0)
(-7.85567146e-12 0 0)
(-7.32047887e-12 0 0)
(-8.09860957e-12 0 0)
(-8.89823417e-12 0 0)
(-7.93308512e-12 0 0)
(-8.25558451e-12 0 0)
(-8.53621739e-12 0 0)
(-8.42845825e-12 0 0)
(-8.60204225e-12 0 0)
(-8.34802024e-12 0 0)
(-8.30430293e-12 0 0)
(-7.74804713e-12 0 0)
(-8.51981206e-12 0 0)
(-8.81232158e-12 0 0)
(-8.28813951e-12 0 0)
(-8.44266178e-12 0 0)
(-1.00388424e-11 0 0)
(-7.99360874e-12 0 0)
(-9.03104554e-12 0 0)
(-9.4947996e-12 0 0)
(-9.06720013e-12 0 0)
(-9.07558645e-12 0 0)
(-9.54151718e-12 0 0)
(-1.00865211e-11 0 0)
(-8.50953898e-12 0 0)
(-9.82240401e-12 0 0)
(-9.66812032e-12 0 0)
(-9.29158625e-12 0 0)
(-8.94925684e-12 0 0)
(-8.85085233e-12 0 0)
(-1.00061745e-11 0 0)
(-9.2418302e-12 0 0)
(-9.2181254e-12 0 0)
(-9.77655159e-12 0 0)
(-1.00583365e-11 0 0)
(-9.42894268e-12 0 0)
(-8.99562813e-12 0 0)
(-8.67412019e-12 0 0)
(-8.46511543e-12 0 0)
(-9.23266359e-12 0 0)
(-9.72343217e-12 0 0)
(-8.74840169e-12 0 0)
(-9.23769427e-12 0 0)
(-9.66169868e-12 0 0)
(-9.13559118e-12 0 0)
(-1.00724569e-11 0 0)
(-1.0209218e-11 0 0)
(-9.53224529e-12 0 0)
(-1.05924772e-11 0 0)
(-1.0529032e-11 0 0)
(-9.95300161e-12 0 0)
(-1.02667883e-11 0 0)
(-1.00808599e-11 0 0)
(-1.07077463e-11 0 0)
(-1.08466602e-11 0 0)
(-1.10921252e-11 0 0)
(-1.0227995e-11 0 0)
(-1.11879086e-11 0 0)
(-1.06514292e-11 0 0)
(-1.17356682e-11 0 0)
(-1.1840302e-11 0 0)
(-1.16420646e-11 0 0)
(-1.06000657e-11 0 0)
(-1.17509993e-11 0 0)
(-1.231512e-11 0 0)
(-1.15888111e-11 0 0)