/*--------------------------------*- C++ -*----------------------------------*\
| =========                 |                                                 |
| \\      /  F ield         | OpenFOAM: The Open Source CFD Toolbox           |
|  \\    /   O peration     | Version:  2206                                  |
|   \\  /    A nd           | Website:  www.openfoam.com                      |
|    \\/     M anipulation  |                                                 |
\*---------------------------------------------------------------------------*/
FoamFile
{
    version     2.0;
    format      ascii;
    arch        "LSB;label=32;scalar=64";
    class       surfaceScalarField;
    location    "2.2e-06";
    object      phi;
}
// * * * * * * * * * * * * * * * * * * * * * * * * * * * * * * * * * * * * * //

dimensions      [1 0 -1 0 0 0 0];

oriented        oriented;

internalField   nonuniform List<scalar> 
3182
(
5.01147509e-19
-4.46931425e-19
1.48914326e-19
-3.11609779e-19
-1.82449207e-23
-7.35069699e-25
-5.34107121e-26
-5.31645009e-31
7.63647471e-30
3.6822839e-25
5.05412982e-24
2.34968906e-22
1.15053052e-18
-4.33411552e-19
-8.66793798e-19
-1.00748623e-23
9.20059051e-19
-1.00259493e-18
-1.59739987e-18
2.02817312e-18
4.43963022e-22
1.75199259e-23
1.64898748e-24
6.01001966e-24
5.64300506e-23
3.53638547e-19
2.42961149e-18
-2.05410501e-18
-9.2145671e-19
1.06543784e-19
-1.24307534e-18
1.35277231e-18
8.77906662e-23
-9.19451171e-19
3.24965786e-19
4.86407323e-19
-4.87731761e-19
-4.86541108e-19
4.87331006e-19
-5.52804431e-20
-1.08570146e-18
-9.69893172e-19
1.06083801e-19
1.51922648e-18
3.26291444e-19
1.6249924e-18
1.08250328e-19
-8.66146297e-22
-7.58115635e-19
-6.51199269e-19
-2.18450657e-19
-1.07802218e-18
-5.40664202e-19
5.39505102e-19
6.49466482e-19
4.34820324e-19
4.35505135e-19
2.14234226e-19
-4.33542674e-19
-1.08400743e-18
-1.95119899e-18
-8.69101245e-19
-2.44457348e-21
-2.16807875e-19
-4.24336022e-19
4.37174551e-19
1.30244917e-18
8.64482494e-19
4.42321238e-19
1.28911339e-18
1.30171617e-18
1.31697467e-18
2.60583484e-18
2.60958832e-18
2.18635581e-18
2.18734125e-18
2.16969921e-18
2.62590384e-18
3.0665473e-18
4.3906242e-18
5.23308578e-18
5.19634188e-18
5.18680126e-18
4.36839746e-18
4.26976057e-18
3.43111292e-18
2.62247278e-18
1.68043594e-18
7.53568257e-19
1.73172565e-18
9.58528228e-19
-6.44838544e-19
3.10513429e-19
9.23552143e-19
1.75532798e-18
1.90883292e-18
2.17608515e-18
1.99707988e-18
1.42954962e-18
-5.97349776e-19
-5.26296519e-19
-2.36530724e-18
-8.51756665e-19
-1.32716675e-18
-2.57237787e-18
-5.52552307e-18
-4.08365804e-18
-5.01923706e-18
-2.98836929e-18
-1.95477036e-18
-1.22536939e-18
-2.77406591e-18
-5.75854602e-18
-7.52958933e-18
-9.88696999e-18
-9.20385161e-18
-9.03393006e-18
-7.43568756e-18
-7.31437495e-18
-1.7462058e-18
-9.41881185e-19
7.34654082e-19
-4.66096173e-19
-3.32421758e-18
-2.43651032e-18
-6.05630075e-19
-3.69986899e-19
1.96972219e-18
3.96425263e-18
-7.72621587e-19
8.75035223e-19
8.97372112e-19
2.8762332e-18
3.3053341e-18
8.04793182e-19
4.84217834e-18
6.5978642e-18
6.65432148e-19
1.64807564e-18
-2.21600603e-18
9.82142975e-19
3.84118901e-19
8.50763685e-19
3.28612193e-19
3.0185519e-18
3.57947293e-18
3.21289292e-18
5.85034256e-19
1.46939288e-18
3.38757974e-18
-8.27562455e-20
-2.29421278e-18
-2.03591654e-18
-3.1202902e-18
-3.20607586e-18
-1.42500278e-18
-6.08995786e-19
1.08966853e-18
4.07856248e-18
2.68739479e-18
8.7426441e-19
6.14492152e-19
-5.66043006e-19
1.05930907e-18
-5.29789576e-19
1.68728302e-18
2.18505316e-18
2.19361101e-18
3.69864782e-18
-1.29055401e-18
-1.01339934e-19
-5.08273718e-19
-2.1502042e-19
-4.20636059e-18
-4.78033702e-18
-9.0025102e-20
6.55375839e-19
4.05100044e-18
3.90507022e-18
2.01817482e-18
1.71408212e-18
1.92177048e-18
2.64450976e-18
1.06413612e-18
1.37453635e-18
4.67446921e-18
6.49444573e-18
4.61341972e-18
6.86459983e-18
8.42239913e-18
6.38923578e-18
8.22602231e-18
7.1831036e-18
7.41203567e-18
7.9783422e-18
9.01176837e-18
3.41571058e-18
4.7794002e-18
5.29798243e-18
6.38016613e-18
5.25275857e-18
3.08700949e-18
2.36484411e-18
1.84834278e-18
1.39157881e-18
-6.02995107e-19
7.56569807e-19
2.61017066e-18
1.1380488e-18
3.21089863e-18
4.63448851e-18
4.13333051e-18
1.79716634e-18
4.94879545e-18
4.84488835e-18
4.38818356e-18
4.86573995e-18
2.51842936e-18
2.2900576e-18
3.73179599e-18
1.64087553e-19
2.13425514e-18
1.44882147e-18
-2.50951801e-18
-1.53554711e-18
1.7964778e-18
-1.34388657e-18
8.00088773e-19
9.75412621e-19
3.03793594e-18
3.59320103e-18
1.13356815e-18
6.47091192e-19
-6.7695202e-20
-3.26062795e-19
1.55803439e-19
1.89552246e-19
8.61704625e-19
-2.47944181e-18
-2.75240136e-18
1.11642312e-19
2.36936087e-19
1.28982174e-19
-3.66698463e-19
7.71149904e-19
1.86489269e-18
1.07265674e-18
-7.24026658e-19
-6.37742245e-19
1.35188992e-18
1.69349369e-18
1.94661316e-18
4.70025743e-18
3.77463534e-18
3.81631116e-18
5.40038957e-18
2.08675195e-18
4.95383792e-18
3.43320136e-18
5.01361647e-18
2.369589e-18
-7.9800446e-19
-1.88373593e-18
-2.63941372e-18
-3.77655719e-18
-4.92678663e-18
-6.61141112e-18
-9.02698069e-18
-8.1854947e-18
-8.90574249e-18
-8.20780609e-18
-8.90363429e-18
-1.04437342e-17
-7.44636029e-18
-7.2453605e-18
-7.31166717e-18
-9.81800303e-18
-9.88730857e-18
-9.54958903e-18
-1.10731192e-17
-1.04543211e-17
-1.30600181e-17
-1.27824004e-17
-1.25376941e-17
-1.43539433e-17
-1.0261581e-17
-1.4430171e-17
-1.60079851e-17
-1.24789868e-17
-1.43950397e-17
-1.3914525e-17
-1.117308e-17
-9.64982882e-18
-1.17293228e-17
-1.35741741e-17
-1.01602617e-17
-1.29641667e-17
-1.15740499e-17
-1.16681766e-17
-1.07422259e-17
-1.09691675e-17
-1.01189099e-17
-1.17952059e-17
-1.52561309e-17
-1.55271625e-17
-1.51785589e-17
-1.87973519e-17
-1.86779607e-17
-1.75000867e-17
-1.78514835e-17
-1.86159205e-17
-1.66456389e-17
-1.62923971e-17
-1.81432665e-17
-1.68285884e-17
-1.71060014e-17
-1.90442525e-17
-1.92861935e-17
-1.97106637e-17
-2.18373557e-17
-2.32747076e-17
-2.58476238e-17
-2.21024696e-17
-2.06253953e-17
-2.34858949e-17
-1.89173582e-17
-1.77333038e-17
-1.54786437e-17
-1.75154581e-17
-1.62335442e-17
-1.22174658e-17
-1.59245076e-17
-1.32167728e-17
-1.30679141e-17
-1.15092543e-17
-1.1636984e-17
-1.17802054e-17
-1.15788283e-17
-1.15669558e-17
-8.54308914e-18
-1.02618268e-17
-1.07183081e-17
-1.00858319e-17
-1.12485754e-17
-1.13729022e-17
-1.11855276e-17
-1.4080209e-17
-1.78471338e-17
-1.51706899e-17
-1.18040042e-17
-1.23810849e-17
-1.082092e-17
-1.47352241e-17
-1.5913492e-17
-1.30738677e-17
-1.38069696e-17
-1.36797513e-17
-1.22065258e-17
-1.47939021e-17
-1.3585586e-17
-1.64337473e-17
-1.6116858e-17
-1.58796577e-17
-1.24404582e-17
-1.33546463e-17
-1.19720448e-17
-1.31168079e-17
-1.24102164e-17
-1.23190766e-17
-1.25031361e-17
-1.37695246e-17
-1.28591333e-17
-1.50561733e-17
-1.17292558e-17
-1.39178197e-17
-1.28084043e-17
-1.20027297e-17
-1.50718283e-17
-1.37918807e-17
-1.47391431e-17
-1.48495146e-17
-1.68545502e-17
-1.47448573e-17
-1.66505449e-17
-8.57997363e-18
-9.09026874e-18
-8.79610297e-18
-1.11523084e-17
-1.16758934e-17
-1.31540758e-17
-1.30249661e-17
-1.20462914e-17
-1.18798875e-17
-9.20925125e-18
-4.74129913e-18
-6.52248458e-18
-6.67669519e-18
-1.03191667e-18
-6.02415441e-18
1.72694008e-19
-9.22063029e-19
7.10267632e-19
-6.79562434e-18
-6.4725575e-18
-3.66720337e-18
-4.03954813e-18
-2.79359223e-18
-5.00272966e-18
-2.20240651e-18
-5.55033322e-20
-1.92491814e-18
-2.53553717e-18
-2.74802761e-18
-2.38596547e-21
-8.52962716e-19
2.34878421e-18
4.18676367e-18
-1.68293538e-18
1.42830394e-18
2.96817987e-18
-1.42567688e-18
1.24664485e-18
-1.43226534e-19
4.89338618e-19
1.74691095e-20
-1.48512465e-18
-5.38065765e-18
-9.06045788e-19
-2.67849249e-18
-1.00674418e-18
-5.83924819e-18
-4.46813917e-18
-5.28827375e-18
-9.60192889e-19
-4.7642036e-18
-3.49761313e-18
-7.08931093e-19
-4.38983811e-20
-2.5666356e-19
1.04442615e-18
2.80809057e-18
1.63679716e-18
1.19219383e-18
2.54629304e-18
4.71963219e-18
2.15375948e-18
7.88977491e-19
8.4278003e-19
-2.59643731e-18
3.00967192e-18
1.82862695e-18
4.87368636e-19
2.16051164e-18
3.24877665e-18
4.23801803e-18
2.42789318e-18
1.98852064e-18
1.5812217e-18
2.95172433e-18
5.68211888e-18
2.50434353e-18
4.54203135e-18
6.40351577e-18
4.57760144e-18
6.19708217e-18
7.27129225e-18
6.35634128e-18
1.08368947e-17
5.85286341e-18
7.54803575e-18
5.05954312e-18
3.82712423e-18
2.99139095e-18
8.38982555e-18
5.43271295e-18
3.35247689e-18
5.44034147e-18
3.65293732e-18
1.81038086e-18
2.20316448e-18
2.90982985e-18
1.41591042e-18
3.23089188e-18
4.37267608e-18
7.96658419e-18
8.04403274e-18
2.87477365e-18
3.64225667e-18
1.65959125e-18
-1.54997305e-18
-2.47189039e-19
-2.28895917e-18
-6.38685468e-18
-5.13324566e-18
-5.82625817e-18
-7.78576387e-18
-7.64198619e-18
-7.61074876e-18
-7.5044886e-18
-7.51788034e-18
-3.70725482e-18
-4.34673727e-18
-3.30698175e-18
-2.00884463e-18
-2.41194555e-18
-2.38678607e-18
-4.71938093e-18
-3.24839304e-18
-4.8653974e-18
-3.42303871e-18
-4.16193013e-18
-2.96307179e-18
-5.95179897e-18
-6.73887116e-18
-4.21466739e-18
-7.30253398e-18
-8.57749293e-18
-7.22812752e-18
-5.36639133e-18
-5.86118029e-18
-4.91852927e-18
-4.66696598e-18
-6.48627796e-18
-7.66738809e-18
-5.62662533e-18
-3.50486319e-18
-3.67129403e-18
-4.95006544e-18
-6.30050109e-18
-7.3655822e-18
-6.4377954e-18
-8.82722796e-18
-7.55782305e-18
-6.27240148e-18
-5.33340831e-18
-7.05668244e-18
-8.04221848e-18
-5.53311613e-18
-7.48061649e-18
-5.31238985e-18
-4.72063676e-18
-5.24408869e-18
-4.32011602e-18
-1.09156365e-18
-3.0490937e-18
-4.31023279e-18
-2.41356463e-18
-2.58750099e-18
5.2303181e-19
-1.6080226e-18
2.81883698e-19
-4.63453427e-19
-6.5371436e-19
-1.21804125e-18
-2.27649103e-21
8.85776791e-19
-1.16681139e-18
-1.0705424e-18
5.20536687e-19
-1.78391437e-18
-5.27261727e-18
-3.25383466e-18
-2.18655117e-18
-2.27771432e-18
-2.56994534e-18
-5.37718789e-19
5.56439426e-19
1.57244769e-18
3.54242155e-18
4.46767093e-18
4.44444759e-18
8.7274371e-18
6.80315144e-18
1.06453301e-17
5.81205172e-18
9.88253275e-18
7.6196362e-18
1.13583037e-17
7.30494152e-18
9.87208429e-18
1.09445225e-17
1.00097579e-17
1.01327328e-17
9.70611425e-18
9.36287581e-18
1.41187635e-17
1.28528982e-17
1.55074922e-17
1.39815192e-17
1.31301891e-17
1.59575987e-17
1.43593062e-17
1.65654988e-17
1.21650806e-17
1.09206927e-17
9.36656731e-18
1.04990291e-17
9.91404756e-18
1.03126473e-17
1.19025167e-17
1.09825855e-17
1.18252119e-17
1.13871292e-17
1.08566422e-17
1.12607794e-17
9.03311653e-18
7.94396026e-18
6.26370744e-18
7.35318014e-18
2.65104868e-18
1.98597985e-18
1.2237247e-18
2.60728752e-18
5.19654849e-18
2.77067436e-18
3.02140575e-18
-7.22436449e-20
6.60317769e-19
2.5660376e-18
2.80088945e-18
1.15151013e-18
2.64185445e-18
4.11513194e-18
3.43644693e-19
5.45003383e-19
-1.02791354e-18
-1.72809275e-18
-2.04986518e-18
-7.908296e-19
8.81095683e-19
3.84232688e-18
4.96748181e-18
4.56209617e-18
5.10920561e-18
6.40886199e-18
4.3704626e-18
3.33417814e-18
1.7681385e-18
7.09471097e-19
-2.66853599e-18
-2.19440672e-18
-1.1898899e-18
-1.00864423e-18
1.51884027e-19
6.81572824e-19
-1.47500241e-18
-3.96281208e-18
-5.60892279e-18
-5.9711369e-18
-5.29179141e-18
-5.29767574e-18
-7.15224113e-18
-4.65150061e-18
-5.00640435e-18
-4.28564335e-18
-8.75193894e-18
-1.08508309e-17
-1.25895787e-17
-1.24133135e-17
-1.02642407e-17
-1.18787694e-17
-1.02581066e-17
-1.37482723e-17
-1.23775445e-17
-9.40906301e-18
-9.22652604e-18
-3.86924916e-18
-3.82708693e-18
-1.47215769e-18
9.78625435e-19
-1.80343358e-18
-4.4769395e-18
-2.85360515e-18
-6.78275461e-18
-4.39444472e-18
-3.56390369e-18
-1.39047396e-19
1.80417826e-18
2.43044258e-19
-1.034746e-18
1.13708599e-18
1.34202999e-18
5.29786376e-18
3.12997595e-18
3.46789355e-18
4.17794373e-18
5.18640984e-18
5.22475753e-18
5.36762852e-18
4.8341881e-18
4.78724357e-18
5.7475297e-18
4.27797034e-18
9.35279893e-18
7.90372489e-18
2.94146761e-18
6.09311238e-18
5.89597422e-18
1.95436729e-18
8.66817143e-18
6.38036684e-18
5.7306369e-18
7.59484397e-18
7.42755565e-18
1.2307329e-17
1.25528304e-17
1.41330022e-17
1.1005832e-17
1.1060347e-17
1.31170224e-17
1.63388408e-17
1.65590096e-17
1.52750472e-17
1.27573755e-17
1.49904728e-17
1.7974113e-17
1.62430448e-17
1.90839798e-17
1.86365926e-17
1.77262114e-17
1.83192812e-17
1.92613684e-17
1.70514455e-17
1.8461566e-17
1.92162529e-17
1.73038171e-17
1.74101217e-17
1.69999705e-17
1.47486263e-17
1.75615539e-17
1.94493872e-17
1.72325566e-17
1.48847086e-17
1.6957154e-17
1.78500837e-17
1.57840896e-17
1.53485945e-17
1.39903489e-17
1.17578753e-17
1.32707469e-17
1.18092256e-17
9.93131744e-18
9.49795914e-18
8.93578038e-18
8.79645818e-18
7.26047116e-18
7.78199094e-18
7.79056667e-18
8.49106057e-18
7.66937094e-18
6.08714262e-18
5.18089039e-18
5.64959732e-18
7.32099319e-18
3.10541673e-18
2.93813582e-18
4.6998782e-18
4.75001258e-18
2.88673234e-18
1.02022808e-18
1.37166353e-18
2.62722289e-18
4.61749962e-19
4.6302748e-18
1.96637694e-18
3.09877728e-18
2.83739819e-18
-1.73404869e-18
2.03342422e-18
1.82300778e-18
-6.58648967e-19
1.24867784e-18
-1.96140171e-18
-6.257649e-18
-4.3094563e-18
-6.78384807e-18
-8.1001168e-18
-6.89557454e-18
-4.72925697e-18
-2.66198176e-18
-1.8196781e-18
-2.99018404e-18
-1.96679682e-18
-1.66583817e-18
4.05396873e-19
1.85243096e-18
2.78802907e-18
2.08785821e-18
-2.26161691e-19
-3.65576803e-18
-2.30777237e-18
-6.09922504e-18
-5.60645476e-18
-7.50262546e-18
-6.68173845e-18
-8.87467899e-18
-8.08430998e-18
-7.42108652e-18
-6.59763692e-18
-1.17026483e-17
-7.70619207e-18
-7.20593688e-18
-7.49804757e-18
-8.98796751e-18
-8.51232659e-18
-6.3380789e-18
-8.3854749e-18
-8.27864069e-18
-5.79268281e-18
-3.88571407e-18
-6.46364623e-18
-5.88513539e-18
-4.17988512e-18
-9.745632e-20
-1.50287783e-19
-2.79536422e-18
-3.77776252e-18
-1.04437465e-18
1.7435964e-18
-1.63855157e-20
3.54999254e-18
7.05149657e-18
3.25763177e-18
1.35278439e-18
-7.60047081e-19
-8.93998237e-19
-3.86320316e-18
-6.55585366e-18
-2.01232345e-18
-5.9170746e-18
-4.04303721e-18
-5.50989448e-18
-3.56597562e-18
-3.30105553e-18
-2.24955597e-18
-8.24918843e-19
-1.14891102e-18
-1.10582556e-18
1.13441298e-18
6.87084831e-19
-1.75964296e-18
-1.96693714e-18
1.13316365e-18
2.90641291e-18
2.14081001e-18
-1.32624579e-18
1.32199954e-18
3.29915505e-18
4.36902927e-19
1.04494103e-19
8.52170076e-19
1.36231902e-18
-7.73183561e-19
-1.33161478e-18
1.11552886e-20
-3.26648231e-18
-5.71500575e-19
-9.0561477e-19
-2.62290963e-19
5.67978201e-19
-1.92546666e-18
4.12334931e-19
3.28920041e-18
1.70063758e-18
1.20578972e-18
2.81690659e-18
6.0056424e-19
4.8249878e-19
-8.08388482e-19
-1.18894925e-18
-2.0357475e-18
-2.74329784e-18
-4.12005169e-18
-2.36756886e-18
-1.93302549e-18
-4.13615583e-18
-1.5398361e-18
-2.2671419e-18
2.54751107e-18
2.53189754e-19
2.57564162e-18
3.48943533e-18
2.34707468e-18
3.26517218e-18
2.83441909e-18
1.22325076e-18
-2.55883108e-18
1.5622915e-18
-4.87723707e-19
-2.04483149e-18
-1.38429613e-18
-2.68355756e-18
-2.70873482e-18
-9.66566986e-19
-2.06110483e-18
-1.69434273e-18
8.59821588e-19
7.44832983e-19
7.91417487e-19
1.48364041e-18
1.15366435e-18
2.4634624e-18
3.47507148e-18
1.9802814e-18
-7.47267178e-19
-1.28285732e-18
-1.30772539e-18
4.28754463e-19
-2.46490329e-19
-2.88114588e-18
-3.11103433e-18
-3.33061796e-18
-2.49450317e-18
-1.44269548e-18
-1.9118244e-18
-1.62800415e-19
1.73817304e-18
2.42125477e-18
4.51451998e-18
6.16000973e-18
6.98932579e-18
4.7488823e-18
5.59283539e-18
2.01886402e-18
5.42546855e-18
2.22426304e-18
2.48676706e-18
1.5990309e-18
1.00342231e-18
1.08437355e-18
-6.80080587e-19
1.07056245e-19
-1.76933076e-19
-1.81614232e-18
1.51161652e-18
-3.2555479e-18
1.15685695e-19
7.40465467e-19
1.96510745e-18
2.80902111e-18
-3.62850795e-19
4.25311166e-18
5.12616127e-18
5.04050458e-18
2.97660573e-18
2.23416375e-18
-1.12130509e-18
6.65997349e-19
7.26061802e-19
2.49859864e-18
2.07165538e-18
2.02305888e-19
4.55712962e-19
-1.82874334e-18
-1.74596924e-18
2.03924398e-18
5.38190419e-18
3.79759681e-18
7.03658222e-18
5.05165618e-18
5.4549323e-18
9.1433122e-18
5.27769801e-18
9.05097462e-18
7.32604916e-18
7.68046924e-18
7.94020673e-18
8.2985262e-18
9.24281305e-18
8.19903521e-18
9.16091275e-18
9.32367526e-18
7.94946377e-18
9.69390371e-18
8.67358981e-18
1.15603023e-17
9.6243411e-18
1.04513315e-17
1.12804334e-17
1.14883651e-17
1.51194212e-17
1.52333532e-17
1.31232708e-17
1.44614521e-17
1.37670243e-17
1.35261805e-17
1.49792629e-17
1.66173976e-17
1.69681149e-17
1.70738595e-17
1.79119194e-17
1.70562857e-17
1.70779734e-17
1.52262775e-17
1.4388681e-17
1.4269265e-17
1.52637309e-17
1.23943854e-17
1.57900129e-17
1.4053122e-17
1.65329352e-17
1.59333167e-17
1.74840171e-17
1.94704419e-17
2.17817688e-17
2.51884755e-17
2.11448596e-17
2.05876731e-17
1.69411528e-17
1.65976152e-17
1.19100551e-17
1.438692e-17
9.62160168e-18
1.29023316e-17
1.41844034e-17
1.40177866e-17
1.15347726e-17
1.09986305e-17
6.55166614e-18
6.87504111e-18
4.37251103e-18
5.42154029e-18
3.12086454e-18
3.76454363e-18
7.92205445e-19
2.36583037e-18
5.41403717e-19
-2.61721871e-19
1.85851744e-18
3.35889037e-19
1.11077291e-18
1.15057727e-18
1.90932899e-18
7.43745948e-19
1.51850283e-19
-9.20707137e-20
1.3301292e-18
3.02782583e-18
2.99869488e-18
2.2554141e-18
2.6367723e-18
6.56473876e-18
4.74314573e-18
5.56484793e-18
4.64564515e-18
7.52363981e-18
7.68287444e-18
8.1126187e-18
1.1035356e-17
1.10635741e-17
7.79670797e-18
5.88156993e-18
5.47447235e-18
4.39277574e-18
1.83464971e-18
3.22479487e-18
1.15698342e-18
2.56123146e-18
3.23846842e-18
2.08017334e-18
7.49195618e-19
2.54959599e-18
6.19952938e-18
6.80473137e-18
6.9957887e-18
5.35616348e-18
5.27547724e-18
4.878091e-18
4.66637068e-18
3.20776443e-18
4.73716633e-18
6.64111707e-18
6.69344456e-18
8.73459363e-18
1.17754643e-17
7.67230376e-18
8.63527672e-18
1.06514406e-17
9.37201556e-18
1.37862174e-17
1.00681379e-17
1.10239511e-17
9.93073192e-18
9.01504698e-18
9.93818638e-18
7.63473675e-18
7.50447576e-18
7.69929946e-18
6.57167844e-18
7.25700827e-18
6.06480118e-18
6.07421554e-18
5.31894347e-18
3.32809478e-18
4.08952286e-18
3.17179597e-18
2.79449486e-18
2.8803144e-18
-4.85055683e-19
-6.62950028e-19
-2.13466638e-18
3.30917827e-19
-1.11112988e-18
1.0831241e-18
-8.50633234e-19
1.45486748e-18
-1.25311073e-18
-2.91225637e-18
-2.07754896e-18
1.75261535e-18
-2.86526001e-19
-2.1559534e-18
-1.00812279e-18
-1.07195031e-18
-2.625356e-18
1.24615729e-18
3.93285724e-18
1.40718758e-18
3.08223125e-18
8.27092137e-20
-2.17805733e-18
-4.31416812e-18
-7.15404011e-18
-9.2156371e-18
-7.12843467e-18
-6.54407211e-18
-5.46532237e-18
-7.26818698e-18
-6.13085811e-18
-7.95754528e-18
-1.0902092e-17
-1.42120238e-17
-1.09427855e-17
-1.40190468e-17
-1.40315512e-17
-1.04456682e-17
-1.27165397e-17
-1.09880088e-17
-1.22176964e-17
-1.01830201e-17
-1.14209654e-17
-1.00788897e-17
-9.90508291e-18
-5.35934263e-18
-8.27991432e-18
-6.6184502e-18
-5.29523819e-18
-4.39937093e-18
-4.60080825e-18
-5.28046017e-18
-4.10065108e-18
-7.80503621e-18
-6.71403699e-18
-3.85259047e-18
-4.26596325e-18
-5.57241014e-18
-6.29293667e-18
-4.38098484e-18
-6.12734547e-18
-5.25588853e-18
-3.23720119e-18
-5.1871178e-18
-6.39038398e-18
-8.83972419e-18
-5.47245459e-18
-5.81462632e-18
-1.4574901e-18
4.05148312e-19
-1.47653767e-18
-3.53819848e-18
-1.07419016e-18
-3.68331751e-18
-6.69765123e-18
-6.52924594e-18
-4.9491375e-18
-5.61480342e-18
-1.7309601e-18
-2.39122181e-18
-1.49097649e-18
-2.96154933e-18
-5.22131917e-18
-6.11335145e-19
-3.72698799e-18
-3.66117948e-18
-2.37045854e-18
-4.28296927e-18
-4.76941754e-18
-1.08352927e-17
-9.93255426e-18
-9.52508731e-18
-6.98390379e-18
-9.33196385e-18
-6.34140321e-18
-9.8132273e-18
-1.19428737e-17
-8.96761008e-18
-8.16568321e-18
-1.16880445e-17
-1.04117512e-17
-1.34584549e-17
-1.41050178e-17
-1.25139193e-17
-1.53752724e-17
-1.37564059e-17
-1.50948414e-17
-1.18006588e-17
-1.10329227e-17
-1.06236813e-17
-1.07877223e-17
-1.01409064e-17
-8.53287752e-18
-1.07058284e-17
-1.51905645e-17
-9.93046381e-18
-8.24243526e-18
-1.06012204e-17
-1.18545165e-17
-1.26639134e-17
-1.06074576e-17
-9.14518023e-18
-9.45001536e-18
-7.75530154e-18
-1.18544587e-17
-1.0030839e-17
-1.12540926e-17
-8.97037321e-18
-1.1216412e-17
-1.01773168e-17
-8.41658508e-18
-8.16673583e-18
-6.55595614e-18
-7.60441069e-18
-7.76322521e-18
-1.21686004e-17
-1.17360832e-17
-1.39552483e-17
-1.39772012e-17
-1.59095886e-17
-1.36836235e-17
-1.27761882e-17
-1.47769178e-17
-1.31944012e-17
-1.39584391e-17
-1.06882185e-17
-8.66314023e-18
-9.72374525e-18
-1.03064544e-17
-8.89659046e-18
-8.99366966e-18
-8.87594726e-18
-8.66939664e-18
-7.03715832e-18
-5.76680749e-18
-5.32353612e-18
-6.40730642e-18
-6.23849809e-18
-6.75897923e-18
-7.22098386e-18
-8.54586815e-18
-6.73079272e-18
-6.76337829e-18
-4.55325833e-18
-8.20842969e-18
-9.73975064e-18
-7.96884416e-18
-8.47137476e-18
-9.91297863e-18
-5.48039333e-18
-6.1100371e-18
-6.30476728e-18
-9.40041508e-18
-9.08592344e-18
-1.04018547e-17
-7.60526648e-18
-1.05003714e-17
-1.06283997e-17
-9.45021695e-18
-7.21589778e-18
-5.9133568e-18
-5.62763857e-18
-5.65083272e-18
-4.98805076e-18
-6.6128336e-18
-4.9100469e-18
-6.48070029e-18
-2.1192067e-18
-2.05567792e-18
-3.48005889e-18
-1.840442e-18
-1.47894336e-18
-3.03515127e-18
-1.0649257e-19
7.07950199e-19
6.29443244e-20
1.17890939e-18
-3.05059179e-18
-8.61628299e-19
-2.07053774e-18
-1.62772881e-19
1.20247254e-18
-3.57335368e-18
-2.36989229e-18
-3.18550561e-18
-3.81618244e-18
-2.5075448e-18
-3.55790468e-18
-1.32651024e-18
-1.81904932e-18
-4.07233974e-18
-3.97185591e-18
-4.34234267e-18
-6.06086529e-18
-5.96687929e-18
-5.75104151e-18
-4.90115339e-18
-6.41063533e-18
-2.19109173e-18
-5.70920387e-18
-2.50149238e-18
-2.21830844e-18
-2.06058737e-18
-1.86278564e-18
-2.64569975e-20
3.69065187e-18
3.33475797e-18
5.08746582e-18
2.02949331e-18
1.66010597e-18
-3.98559816e-19
-4.69093075e-18
-4.5692567e-18
-7.19982857e-18
-1.06117677e-18
-1.374553e-18
-6.81308866e-19
-3.27507751e-18
1.33516739e-18
4.36096927e-18
3.33547043e-18
4.99766278e-18
4.59181544e-18
5.99290677e-18
5.33064909e-18
5.91432476e-18
9.05877851e-18
4.72823416e-18
9.84177129e-18
9.27877337e-18
1.19534952e-17
1.01906461e-17
8.91723969e-18
8.67128864e-18
7.87036743e-18
7.40413596e-18
7.21056522e-18
7.58553736e-18
4.53543385e-18
6.03377021e-18
5.89162117e-18
6.13680107e-18
6.11793481e-18
5.19642657e-18
4.75453025e-18
5.12734309e-18
6.97399442e-18
5.80891228e-18
6.33102368e-18
5.38602727e-18
5.5579316e-18
1.56793073e-18
-1.12900019e-19
2.40818554e-18
3.46691117e-18
2.66981076e-18
3.46540477e-18
1.26074608e-18
3.7556276e-18
4.03430781e-18
4.8203189e-18
3.17369424e-18
5.65296731e-18
3.62201474e-18
6.49161879e-18
4.75772729e-18
4.1128166e-18
4.33901398e-18
5.91763625e-18
5.25398146e-18
6.37327215e-18
6.71650147e-18
7.94024164e-18
6.9517391e-18
8.16556396e-18
7.41489041e-18
4.39557732e-18
5.10416011e-18
4.04632589e-18
6.7859126e-18
1.1571123e-17
8.02775737e-18
5.62312387e-18
5.11969818e-18
4.88083095e-18
1.20733655e-18
1.71525632e-18
1.99197445e-18
2.13223938e-18
1.44765266e-18
1.00000828e-18
2.9955405e-18
1.83735949e-18
5.75490405e-19
-2.79881483e-18
-1.46354595e-18
-3.35984693e-18
-3.82033759e-19
-1.64035443e-18
-1.61314015e-18
-3.35882665e-18
-9.2781649e-19
-9.0110226e-19
-2.56786717e-18
4.5338769e-20
-7.43834403e-19
-5.14920661e-18
-3.5330291e-18
-2.3900979e-18
2.363622e-19
-2.95599345e-18
-3.96512315e-18
-3.13144171e-18
-3.84546037e-18
8.63451436e-19
4.2304419e-19
4.37427661e-19
7.12210345e-19
-3.13593838e-18
-1.82747201e-18
-2.00893044e-18
-3.17546641e-18
-1.8959479e-19
-7.03148195e-19
-1.14480271e-18
-1.9747317e-18
-2.5902813e-18
-2.07099223e-18
-2.60809562e-18
-2.39996627e-18
-2.29985177e-18
2.04345429e-18
-1.62933434e-18
-4.23624896e-18
-6.11805755e-18
-5.48868284e-18
-4.08214704e-18
-6.37061335e-18
-5.22592351e-18
-8.32443167e-18
-6.05477393e-18
-3.55711694e-18
-5.07539783e-18
-6.86045758e-18
-8.63215698e-18
-7.82431304e-18
-9.00701538e-18
-9.61562673e-18
-8.06567843e-18
-8.14961032e-18
-8.87675562e-18
-1.12263054e-17
-1.07549786e-17
-1.25322256e-17
-9.81042294e-18
-1.24315622e-17
-1.09580509e-17
-1.05055024e-17
-7.40783227e-18
-6.51484556e-18
-8.02092508e-18
-7.91710217e-18
-8.48599771e-18
-1.05655397e-17
-6.39543982e-18
-6.45765008e-18
-5.76647592e-18
-6.97976778e-18
-9.2373985e-18
-1.14176096e-17
-9.90051604e-18
-9.93014379e-18
-9.2634666e-18
-1.17616437e-17
-8.897259e-18
-9.44366889e-18
-5.14422295e-18
-9.91303788e-18
-1.16762322e-17
-1.21068082e-17
-1.35690885e-17
-1.19762151e-17
-1.32310463e-17
-1.32551181e-17
-1.27761465e-17
-1.14141086e-17
-1.18629318e-17
-9.27737547e-18
-7.61883552e-18
-3.7871937e-18
-5.60595299e-18
-5.40353003e-18
-7.92353382e-18
-9.43689101e-18
-7.28455208e-18
-4.36923478e-18
-4.23665431e-18
-4.74216947e-18
-3.67957345e-18
-5.10004065e-18
-3.77491625e-18
-3.26896222e-18
-2.28519103e-18
-1.37572915e-18
-1.90037796e-18
-1.823208e-18
-2.94648093e-18
-1.50852069e-18
-3.31094035e-18
-3.17850734e-18
-3.1332988e-19
-2.88296437e-19
1.87042542e-18
1.13472988e-18
3.69189996e-18
2.58198153e-18
-2.81508119e-19
1.6269469e-18
-1.79641324e-18
-1.49833316e-18
-3.65224496e-19
1.02243931e-19
5.10554241e-19
3.88698026e-18
4.27520831e-18
4.2296397e-18
7.83940094e-18
8.89373671e-18
7.1715392e-18
6.99891189e-18
5.35874354e-18
7.03976053e-18
4.24388321e-18
4.77817966e-18
2.85085756e-18
4.53560583e-18
3.39789756e-18
2.94191339e-18
4.4633966e-18
3.46758716e-18
4.04656868e-18
2.13032124e-18
1.55954642e-18
1.53859871e-18
2.63713164e-18
2.2316404e-18
3.04061329e-18
9.59537266e-19
7.98516057e-19
1.48291221e-18
1.44221252e-18
6.22877199e-19
-1.37860833e-18
-2.59424011e-18
-4.44611473e-18
-7.2968121e-18
-5.81635412e-18
-4.10618187e-18
-4.22116994e-18
-1.13402126e-18
1.49624555e-18
8.23968407e-19
-2.88541468e-19
-8.37065258e-19
-2.45971461e-18
-4.8124377e-19
-9.93501091e-19
-4.6276415e-18
-1.2122976e-18
-5.00663617e-18
-5.71056879e-18
-5.47719755e-18
-6.02111685e-18
-8.26375794e-18
-1.13864759e-17
-1.19423601e-17
-1.06708711e-17
-8.11008437e-18
-8.24027798e-18
-7.05950457e-18
-8.90303272e-18
-9.22561754e-18
-8.060382e-18
-1.30017871e-17
-1.52687993e-17
-1.50873688e-17
-1.52253626e-17
-1.48223235e-17
-1.80614317e-17
-1.73536482e-17
-1.25178464e-17
-1.21773152e-17
-1.16878412e-17
-1.01812164e-17
-8.22552559e-18
-5.71550872e-18
-8.226393e-18
-7.62431579e-18
-9.67926468e-18
-8.89951572e-18
-9.2822129e-18
-1.24641417e-17
-9.69376155e-18
-1.01715663e-17
-1.10593553e-17
-1.30325204e-17
-1.32851644e-17
-1.38440025e-17
-1.40086012e-17
-1.23221327e-17
-1.29807007e-17
-1.27360848e-17
-1.03817795e-17
-9.55443947e-18
-1.13173489e-17
-1.09497592e-17
-9.44463378e-18
-1.20081495e-17
-7.20802596e-18
-7.75414217e-18
-9.63309667e-18
-7.9361297e-18
-9.00833426e-18
-8.73231182e-18
-1.15686649e-17
-1.10045992e-17
-1.10328947e-17
-8.48638471e-18
-4.68135906e-18
-3.75087717e-18
-6.1849676e-18
-8.01552684e-18
-5.25370146e-18
-6.73010447e-18
-5.00508212e-18
-6.3516115e-18
-2.46421079e-18
-3.09171628e-18
-5.38915523e-18
-3.96897024e-18
-1.40547186e-18
-1.42535318e-18
-1.39961792e-18
-4.2375307e-19
1.10561976e-19
3.72524557e-18
1.84453437e-18
3.70738165e-18
2.65682402e-18
3.55461992e-18
1.76470196e-18
3.40698752e-18
8.16938526e-18
8.83535783e-18
8.17302288e-18
3.62749359e-18
3.24416129e-18
3.85279755e-18
6.72292477e-18
5.72677634e-18
8.29747952e-18
9.59524876e-18
7.72363934e-18
7.98955487e-18
4.1171805e-18
3.13544738e-18
5.83420044e-18
5.27602727e-18
2.7620058e-18
1.43261652e-18
1.75464352e-18
1.89522119e-18
-4.01273338e-20
1.29330834e-19
7.58851084e-21
3.01375071e-18
3.43164535e-18
3.40032408e-18
2.65230516e-18
3.94872832e-18
1.63997513e-18
2.30409753e-18
3.1768864e-18
-4.03346208e-19
3.19185304e-18
4.2418881e-18
4.31011703e-18
3.89714785e-18
2.56693907e-18
2.93807351e-18
2.8056387e-18
5.49927355e-18
6.81964172e-18
6.61280883e-18
9.92492305e-18
1.12756045e-17
9.50656699e-18
6.11496512e-18
7.01801858e-18
5.92580569e-18
1.73552992e-18
1.46943862e-18
3.53027046e-18
-5.23076982e-19
-1.17622321e-19
-1.15438875e-18
2.41165609e-19
1.64046296e-18
3.77993615e-19
5.04155728e-18
2.38171659e-18
3.80411743e-18
1.27805877e-18
9.5631586e-19
1.63176635e-18
2.65865963e-18
-6.39552648e-19
5.7796587e-19
2.7937726e-18
4.73701974e-18
1.30560316e-18
7.75794621e-19
-1.17817872e-18
3.50190309e-20
-2.32166184e-18
1.03206364e-18
3.08070384e-18
3.91107736e-18
3.60698781e-18
5.02114876e-18
8.01453524e-18
8.56307918e-18
7.12074198e-18
6.09082953e-18
5.87052382e-18
5.90707732e-18
1.01173028e-17
9.60167238e-18
1.21760292e-17
1.10357376e-17
7.90657395e-18
5.28702252e-18
7.81829637e-18
8.53088938e-18
7.01659681e-18
6.32887865e-18
7.62043002e-18
7.35803407e-18
8.50551762e-18
9.12900452e-18
7.45344747e-18
2.01170915e-18
3.70025137e-18
1.2882996e-18
2.97604799e-18
3.71469252e-18
3.20109528e-18
2.02186812e-18
1.78276352e-18
3.21296861e-18
2.52434605e-18
1.28323953e-18
-1.78144277e-18
7.3607553e-19
-1.16416172e-18
3.45288813e-18
3.62240121e-18
-1.48248493e-18
1.12597378e-18
6.38355852e-19
1.48056936e-18
1.86745711e-18
2.20815175e-18
1.67857454e-18
9.84191686e-19
2.7254594e-18
1.53408978e-18
-4.41616233e-20
1.0808266e-18
3.25429991e-18
9.56580352e-19
1.69470843e-18
1.69368731e-18
3.12367076e-18
3.67727267e-18
-3.57239441e-19
-3.26374553e-19
5.98890228e-19
-3.04379007e-19
2.11523708e-18
4.96274089e-18
2.49971979e-18
6.28718934e-19
1.10389946e-18
-1.9872378e-18
-2.03931392e-18
-1.09717933e-18
-1.97322031e-18
-8.05813671e-19
1.7167668e-18
3.91161588e-18
5.23278546e-18
6.80945435e-18
8.57134315e-18
9.98570596e-18
1.25642955e-17
7.19172092e-18
1.05677776e-17
7.00821621e-18
6.86220592e-18
9.23079317e-18
6.93882201e-18
8.97339404e-18
9.85768557e-18
1.03284009e-17
1.1288959e-17
1.24901343e-17
9.65149016e-18
1.04054745e-17
8.53877423e-18
1.06020073e-17
1.38503018e-17
1.21207321e-17
1.39023069e-17
1.65077132e-17
1.84887925e-17
1.66257151e-17
1.47233247e-17
1.27155774e-17
1.30610508e-17
1.28189177e-17
1.57048005e-17
1.5131141e-17
1.65397341e-17
1.35191387e-17
1.78216395e-17
1.74267926e-17
1.79122714e-17
1.73286392e-17
1.66454996e-17
1.77846582e-17
1.59800503e-17
1.60026678e-17
1.31190408e-17
8.89497705e-18
8.70856454e-18
9.84597434e-18
1.02290491e-17
1.03822591e-17
1.41830979e-17
1.4825457e-17
1.30268184e-17
1.61377289e-17
1.84787946e-17
1.72850028e-17
1.76953902e-17
1.50903431e-17
1.76161784e-17
1.93175044e-17
1.95304925e-17
2.01008226e-17
2.51040793e-17
2.39188389e-17
2.32218528e-17
1.94236295e-17
2.1111971e-17
2.18057283e-17
1.78018008e-17
2.33236587e-17
2.00882746e-17
2.09003573e-17