/*--------------------------------*- C++ -*----------------------------------*\
| =========                 |                                                 |
| \\      /  F ield         | OpenFOAM: The Open Source CFD Toolbox           |
|  \\    /   O peration     | Version:  2206                                  |
|   \\  /    A nd           | Website:  www.openfoam.com                      |
|    \\/     M anipulation  |                                                 |
\*---------------------------------------------------------------------------*/
FoamFile
{
    version     2.0;
    format      ascii;
    arch        "LSB;label=32;scalar=64";
    class       volScalarField;
    location    "8.8e-06";
    object      p;
}
// * * * * * * * * * * * * * * * * * * * * * * * * * * * * * * * * * * * * * //

dimensions      [1 -1 -2 0 0 0 0];

internalField   nonuniform List<scalar> 
3183
(
101325
101325
101325
101325
101325
101325
101325
101325
101325
101325
101325
101325
101325
101325
101325
101325
101325
101325
101325
101325
101325
101325
101325
101325
101325
101325
101325
101325
101325
101325
101325
101325
101325
101325
101325
101325
101325
101325
101325
101325
101325
101325
101325
101325
101325
101325
101325
101325
101325
101325
101325
101325
101325
101325
101325
101325
101325
101325
101325
101325
101325
101325
101325
101325
101325
101325
101325
101325
101325
101325
101325
101325
101325
101325
101325
101325
101325
101325
101325
101325
101325
101325
101325
101325
101325
101325
101325
101325
101325
101325
101325
101325
101325
101325
101325
101325
101325
101325
101325
101325
101325
101325
101325
101325
101325
101325
101325
101325
101325
101325
101325
101325
101325
101325
101325
101325
101325
101325
101325
101325
101325
101325
101325
101325
101325
101325
101325
101325
101325
101325
101325
101325
101325
101325
101325
101325
101325
101325
101325
101325
101325
101325
101325
101325
101325
101325
101325
101325
101325
101325
101325
101325
101325
101325
101325
101325
101325
101325
101325
101325
101325
101325
101325
101325
101325
101325
101325
101325
101325
101325
101325
101325
101325
101325
101325
101325
101325
101325
101325
101325
101325
101325
101325
101325
101325
101325
101325
101325
101325
101325
101325
101325
101325
101325
101325
101325
101325
101325
101325
101325
101325
101325
101325
101325
101325
101325
101325
101325
101325
101325
101325
101325
101325
101325
101325
101325
101325
101325
101325
101325
101325
101325
101325
101325
101325
101325
101325
101325
101325
101325
101325
101325
101325
101325
101325
101325
101325
101325
101325
101325
101325
101325
101325
101325
101325
101325
101325
101325
101325
101325
101325
101325
101325
101325
101325
101325
101325
101325
101325
101325
101325
101325
101325
101325
101325
101325
101325
101325
101325
101325
101325
101325
101325
101325
101325
101325
101325
101325
101325
101325
101325
101325
101325
101325
101325
101325
101325
101325
101325
101325
101325
101325
101325
101325
101325
101325
101325
101325
101325
101325
101325
101325
101325
101325
101325
101325
101325
101325
101325
101325
101325
101325
101325
101325
101325
101325
101325
101325
101325
101325
101325
101325
101325
101325
101325
101325
101325
101325
101325
101325
101325
101325
101325
101325
101325
101325
101325
101325
101325
101325
101325
101325
101325
101325
101325
101325
101325
101325
101325
101325
101325
101325
101325
101325
101325
101325
101325
101325
101325
101325
101325
101325
101325
101325
101325
101325
101325
101325
101325
101325
101325
101325
101325
101325
101325
101325
101325
101325
101325
101325
101325
101325
101325
101325
101325
101325
101325
101325
101325
101325
101325
101325
101325
101325
101325
101325
101325
101325
101325
101325
101325
101325
101325
101325
101325
101325
101325
101325
101325
101325
101325
101325
101325
101325
101325
101325
101325
101325
101325
101325
101325
101325
101325
101325
101325
101325
101325
101325
101325
101325
101325
101325
101325
101325
101325
101325
101325
101325
101325
101325
101325
101325
101325
101325
101325
101325
101325
101325
101325
101325
101325
101325
101325
101325
101325
101325
101325
101325
101325
101325
101325
101325
101325
101325
101325
101325
101325
101325
101325
101325
101325
101325
101325
101325
101325
101325
101325
101325
101325
101325
101325
101325
101325
101325
101325
101325
101325
101325
101325
101325
101325
101325
101325
101325
101325
101325
101325
101325
101325
101325
101325
101325
101325
101325
101325
101325
101325
101325
101325
101325
101325
101325
101325
101325
101325
101325
101325
101325
101325
101325
101325
101325
101325
101325
101325
101325
101325
101325
101325
101325
101325
101325
101325
101325
101325
101325
101325
101325
101325
101325
101325
101325
101325
101325
101325
101325
101325
101325
101325
101325
101325
101325
101325
101325
101325
101325
101325
101325
101325
101325
101325
101325
101325
101325
101325
101325
101325
101325
101325
101325
101325
101325
101325
101325
101325
101325
101325
101325
101325
101325
101325
101325
101325
101325
101325
101325
101325
101325
101325
101325
101325
101325
101325
101325
101325
101325
101325
101325
101325
101325
101325
101325
101325
101325
101325
101325
101325
101325
101325
101325
101325
101325
101325
101325
101325
101325
101325
101325
101325
101325
101325
101325
101325
101325
101325
101325
101325
101325
101325
101325
101325
101325
101325
101325
101325
101325
101325
101325
101325
101325
101325
101325
101325
101325
101325
101325
101325
101325
101325
101325
101325
101325
101325
101325
101325
101325
101325
101325
101325
101325
101325
101325
101325
101325
101325
101325
101325
101325
101325
101325
101325
101325
101325
101325
101325
101325
101325
101325
101325
101325
101325
101325
101325
101325
101325
101325
101325
101325
101325
101325
101325
101325
101325
101325
101325
101325
101325
101325
101325
101325
101325
101325
101325
101325
101325
101325
101325
101325
101325
101325
101325
101325
101325
101325
101325
101325
101325
101325
101325
101325
101325
101325
101325
101325
101325
101325
101325
101325
101325
101325
101325
101325
101325
101325
101325
101325
101325
101325
101325
101325
101325
101325
101325
101325
101325
101325
101325
101325
101325
101325
101325
101325
101325
101325
101325
101325
101325
101325
101325
101325
101325
101325
101325
101325
101325
101325
101325
101325
101325
101325
101325
101325
101325
101325
101325
101325
101325
101325
101325
101325
101325
101325
101325
101325
101325
101325
101325
101325
101325
101325
101325
101325
101325
101325
101325
101325
101325
101325
101325
101325
101325
101325
101325
101325
101325
101325
101325
101325
101325
101325
101325
101325
101325
101325
101325
101325
101325
101325
101325
101325
101325
101325
101325
101325
101325
101325
101325
101325
101325
101325
101325
101325
101325
101325
101325
101325
101325
101325
101325
101325
101325
101325
101325
101325
101325
101325
101325
101325
101325
101325
101325
101325
101325
101325
101325
101325
101325
101325
101325
101325
101325
101325
101325
101325
101325
101325
101325
101325
101325
101325
101325
101325
101325
101325
101325
101325
101325
101325
101325
101325
101325
101325
101325
101325
101325
101325
101325
101325
101325
101325
101325
101325
101325
101325
101325
101325
101325
101325
101325
101325
101325
101325
101325
101325
101325
101325
101325
101325
101325
101325
101325
101325
101325
101325
101325
101325
101325
101325
101325
101325
101325
101325
101325
101325
101325
101325
101325
101325
101325
101325
101325
101325
101325
101325
101325
101325
101325
101325
101325
101325
101325
101325
101325
101325
101325
101325
101325
101325
101325
101325
101325
101325
101325
101325
101325
101325
101325
101325
101325
101325
101325
101325
101325
101325
101325
101325
101325
101325
101325
101325
101325
101325
101325
101325
101325
101325
101325
101325
101325
101325
101325
101325
101325
101325
101325
101325
101325
101325
101325
101325
101325
101325
101325
101325
101325
101325
101325
101325
101325
101325
101325
101325
101325
101325
101325
101325
101325
101325
101325
101325
101325
101325
101325
101325
101325
101325
101325
101325
101325
101325
101325
101325
101325
101325
101325
101325
101325
101325
101325
101325
101325
101325
101325
101325
101325
101325
101325
101325
101325
101325
101325
101325
101325
101325
101325
101325
101325
101325
101325
101325
101325
101325
101325
101325
101325
101325
101325
101325
101325
101325
101325
101325
101325
101325
101325
101325
101325
101325
101325
101325
101325
101325
101325
101325
101325
101325
101325
101325
101325
101325
101325
101325
101325
101325
101325
101325
101325
101325
101325
101325
101325
101325
101325
101325
101325
101325
101325
101325
101325
101325
101325
101325
101325
101325
101325
101325
101325
101325
101325
101325
101325
101325
101325
101325
101325
101325
101325
101325
101325
101325
101325
101325
101325
101325
101325
101325
101325
101325
101325
101325
101325
101325
101325
101325
101325
101325
101325
101325
101325
101325
101325
101325
101325
101325
101325
101325
101325
101325
101325
101325
101325
101325
101325
101325
101325
101325
101325
101325
101325
101325
101325
101325
101325
101325
101325
101325
101325
101325
101325
101325
101325
101325
101325
101325
101325
101325
101325
101325
101325
101325
101325
101325
101325
101325
101325
101325
101325
101325
101325
101325
101325
101325
101325
101325
101325
101325
101325
101325
101325
101325
101325
101325
101325
101325
101325
101325
101325
101325
101325
101325
101325
101325
101325
101325
101325
101325
101325
101325
101325
101325
101325
101325
101325
101325
101325
101325
101325
101325
101325
101325
101325
101325
101325
101325
101325
101325
101325
101325
101325
101325
101325
101325
101325
101325
101325
101325
101325
101325
101325
101325
101325
101325
101325
101325
101325
101325
101325
101325
101325
101325
101325
101325
101325
101325
101325
101325
101325
101325
101325
101325
101325
101325
101325
101325
101325
101325
101325
101325
101325
101325
101325
101325
101325
101325
101325
101325
101325
101325
101325
101325
101325
101325
101325
101325
101325
101325
101325
101325
101325
101325
101325
101325
101325
101325
101325
101325
101325
101325
101325
101325
101325
101325
101325
101325
101325
101325
101325
101325
101325
101325
101325
101325
101325
101325
101325
101325
101325
101325
101325
101325
101325
101325
101325
101325
101325
101325
101325
101325
101325
101325
101325
101325
101325
101325
101325
101325
101325
101325
101325
101325
101325
101325
101325
101325
101325
101325
101325
101325
101325
101325
101325
101325
101325
101325
101325
101325
101325
101325
101325
101325
101325
101325
101325
101325
101325
101325
101325
101325
101325
101325
101325
101325
101325
101325
101325
101325
101325
101325
101325
101325
101325
101325
101325
101325
101325
101325
101325
101325
101325
101325
101325
101325
101325
101325
101325
101325
101325
101325
101325
101325
101325
101325
101325
101325
101325
101325
101325
101325
101325
101325
101325
101325
101325
101325
101325
101325
101325
101325
101325
101325
101325
101325
101325
101325
101325
101325
101325
101325
101325
101325
101325
101325
101325
101325
101325
101325
101325
101325
101325
101325
101325
101325
101325
101325
101325
101325
101325
101325
101325
101325
101325
101325
101325
101325
101325
101325
101325
101325
101325
101325
101325
101325
101325
101325
101325
101325
101325
101325
101325
101325
101325
101325
101325
101325
101325
101325
101325
101325
101325
101325
101325
101325
101325
101325
101325
101325
101325
101325
101325
101325
101325
101325
101325
101325
101325
101325
101325
101325
101325
101325
101325
101325
101325
101325
101325
101325
101325
101325
101325
101325
101325
101325
101325
101325
101325
101325
101325
101325
101325
101325
101325
101325
101325
101325
101325
101325
101325
101325
101325
101325
101325
101325
101325
101325
101325
101325
101325
101325
101325
101325
101325
101325
101325
101325
101325
101325
101325
101325
101325
101325
101325
101325
101325
101325
101325
101325
101325
101325
101325
101325
101325
101325
101325
101325
101325
101325
101325
101325
101325
101325
101325
101325
101325
101325
101325
101325
101325
101325
101325
101325
101325
101325
101325
101325
101325
101325
101325
101325
101325
101325
101325
101325
101325
101325
101325
101325
101325
101325
101325
101325
101325
101325
101325
101325
101325
101325
101325
101325
101325
101325
101325
101325
101325
101325
101325
101325
101325
101325
101325
101325
101325
101325
101325
101325
101325
101325
101325
101325
101325
101325
101325
101325
101325
101325
101325
101325
101325
101325
101325
101325
101325
101325
101325
101325
101325
101325
101325
101325
101325
101325
101325
101325
101325
101325
101325
101325
101325
101325
101325
101325
101325
101325
101325
101325
101325
101325
101325
101325
101325
101325
101325
101325
101325
101325
101325
101325
101325
101325
101325
101325
101325
101325
101325
101325
101325
101325
101325
101325
101325
101325
101325
101325
101325
101325
101325
101325
101325
101325
101325
101325
101325
101325
101325
101325
101325
101325
101325
101325
101325
101325
101325
101325
101325
101325
101325
101325
101325
101325
101325
101325
101325
101325
101325
101325
101325
101325
101325
101325
101325
101325
101325
101325
101325
101325
101325
101325
101325
101325
101325
101325
101325
101325
101325
101325
101325
101325
101325
101325
101325
101325
101325
101325
101325
101325
101325
101325
101325
101325
101325
101325
101325
101325
101325
101325
101325
101325
101325
101325
101325
101325
101325
101325
101325
101325
101325
101325
101325
101325
101325
101325
101325
101325
101325
101325
101325
101325
101325
101325
101325
101325
101325
101325
101325
101325
101325
101325
101325
101325
101325
101325
101325
101325
101325
101325
101325
101325
101325
101325
101325
101325
101325
101325
101325
101325
101325
101325
101325
101325
101325
101325
101325
101325
101325
101325
101325
101325
101325
101325
101325
101325
101325
101325
101325
101325
101325
101325
101325
101325
101325
101325
101325
101325
101325
101325
101325
101325
101325
101325
101325
101325
101325
101325
101325
101325
101325
101325
101325
101325
101325
101325
101325
101325
101325
101325
101325
101325
101325
101325
101325
101325
101325
101325
101325
101325
101325
101325
101325
101325
101325
101325
101325
101325
101325
101325
101325
101325
101325
101325
101325
101325
101325
101325
101325
101325
101325
101325
101325
101325
101325
101325
101325
101325
101325
101325
101325
101325
101325
101325
101325
101325
101325
101325
101325
101325
101325
101325
101325
101325
101325
101325
101325
101325
101325
101325
101325
101325
101325
101325
101325
101325
101325
101325
101325
101325
101325
101325
101325
101325
101325
101325
101325
101325
101325
101325
101325
101325
101325
101325
101325
101325
101325
101325
101325
101325
101325
101325
101325
101325
101325
101325
101325
101325
101325
101325
101325
101325
101325
101325
101325
101325
101325
101325
101325
101325
101325
101325
101325
101325
101325
101325
101325
101325
101325
101325
101325
101325
101325
101325
101325
101325
101325
101325
101325
101325
101325
101325
101325
101325
101325
101325
101325
101325
101325
101325
101325
101325
101325
101325
101325
101325
101325
101325
101325
101325
101325
101325
101325
101325
101325
101325
101325
101325
101325
101325
101325
101325
101325
101325
101325
101325
101325
101325
101325
101325
101325
101325
101325
101325
101325
101325
101325
101325
101325
101325
101325
101325
101325
101325
101325
101325
101325
101325
101325
101325
101325
101325
101325
101325
101325
101325
101325
101325
101325
101325
101325
101325
101325
101325
101325
101325
101325
101325
101325
101325
101325
101325
101325
101325
101325
101325
101325
101325
101325
101325
101325
101325
101325
101325
101325
101325
101325
101325
101325
101325
101325
101325
101325
101324.999
101324.999
101324.999
101324.999
101324.999
101324.999
101324.999
101324.999
101324.999
101324.999
101324.999
101324.999
101324.999
101324.999
101324.999
101324.998
101324.998
101324.998
101324.998
101324.998
101324.998
101324.998
101324.997
101324.997
101324.997
101324.997
101324.997
101324.996
101324.996
101324.996
101324.995
101324.995
101324.995
101324.994
101324.994
101324.994
101324.993
101324.993
101324.992
101324.991
101324.991
101324.99
101324.99
101324.989
101324.988
101324.987
101324.986
101324.985
101324.984
101324.983
101324.982
101324.981
101324.98
101324.978
101324.977
101324.975
101324.974
101324.972
101324.97
101324.968
101324.966
101324.964
101324.961
101324.959
101324.956
101324.953
101324.95
101324.947
101324.944
101324.94
101324.936
101324.932
101324.928
101324.923
101324.919
101324.913
101324.908
101324.902
101324.896
101324.89
101324.883
101324.876
101324.869
101324.861
101324.852
101324.843
101324.834
101324.824
101324.814
101324.803
101324.791
101324.779
101324.766
101324.752
101324.738
101324.723
101324.707
101324.691
101324.673
101324.655
101324.635
101324.615
101324.593
101324.571
101324.547
101324.522
101324.496
101324.469
101324.44
101324.41
101324.379
101324.346
101324.311
101324.275
101324.237
101324.197
101324.155
101324.112
101324.066
101324.019
101323.969
101323.917
101323.863
101323.807
101323.748
101323.686
101323.622
101323.555
101323.485
101323.413
101323.337
101323.258
101323.176
101323.091
101323.002
101322.91
101322.814
101322.715
101322.612
101322.504
101322.393
101322.278
101322.158
101322.034
101321.906
101321.773
101321.635
101321.493
101321.346
101321.193
101321.036
101320.874
101320.706
101320.533
101320.354
101320.169
101319.979
101319.784
101319.582
101319.375
101319.161
101318.941
101318.715
101318.483
101318.245
101318
101317.749
101317.492
101317.228
101316.957
101316.68
101316.396
101316.106
101315.809
101315.506
101315.196
101314.88
101314.557
101314.228
101313.892
101313.55
101313.202
101312.847
101312.487
101312.12
101311.748
101311.37
101310.986
101310.597
101310.203
101309.804
101309.4
101308.991
101308.578
101308.16
101307.739
101307.314
101306.885
101306.453
101306.019
101305.582
101305.142
101304.701
101304.257
101303.813
101303.368
101302.922
101302.476
101302.03
101301.585
101301.141
101300.699
101300.258
101299.819
101299.383
101298.951
101298.522
101298.097
101297.676
101297.26
101296.85
101296.445
101296.047
101295.655
101295.27
101294.893
101294.524
101294.164
101293.812
101293.469
101293.136
101292.813
101292.5
101292.198
101291.907
101291.628
101291.36
101291.104
101290.861
101290.63
101290.412
101290.207
101290.016
101289.838
101289.673
101289.523
101289.386
101289.264
101289.155
101289.061
101288.981
101288.916
101288.864
101288.827
101288.804
101288.795
101288.8
101288.818
101288.851
101288.896
101288.955
101289.028
101289.113
101289.21
101289.32
101289.441
101289.575
101289.719
101289.874
101290.04
101290.216
101290.402
101290.597
101290.801
101291.013
101291.233
101291.461
101291.696
101291.937
101292.184
101292.437
101292.695
101292.958
101293.224
101293.495
101293.768
101294.044
101294.322
101294.602
101294.884
101295.166
101295.448
101295.731
101296.012
101296.293
101296.573
101296.851
101297.127
101297.401
101297.672
101297.94
101298.204
101298.465
101298.722
101298.975
101299.224
101299.468
101299.708
101299.943
101300.172
101300.397
101300.616
101300.83
101301.038
101301.241
101301.439
101301.631
101301.817
101301.998
101302.173
101302.343
101302.508
101302.667
101302.821
101302.97
101303.114
101303.253
101303.387
101303.517
101303.642
101303.762
101303.879
101303.991
101304.099
101304.204
101304.304
101304.402
101304.496
101304.587
101304.675
101304.76
101304.842
101304.922
101304.999
101305.074
101305.147
101305.217
101305.286
101305.352
101305.417
101305.48
101305.542
101305.602
101305.66
101305.717
101305.772
101305.826
101305.878
101305.929
101305.979
101306.027
101306.073
101306.119
101306.162
101306.205
101306.246
101306.285
101306.323
101306.359
101306.393
101306.426
101306.458
101306.488
101306.516
101306.543
101306.568
101306.592
101306.614
101306.635
101306.655
101306.673
101306.69
101306.706
101306.722
101306.736
101306.75
101306.763
101306.775
101306.788
101306.801
101306.813
101306.827
101306.84
101306.855
101306.871
101306.888
101306.906
101306.927
101306.949
101306.973
101307
101307.029
101307.061
101307.095
101307.133
101307.174
101307.218
101307.265
101307.316
101307.37
101307.427
101307.488
101307.552
101307.62
101307.69
101307.763
101307.839
101307.918
101307.999
101308.082
101308.166
101308.252
101308.339
101308.427
101308.515
101308.604
101308.692
101308.779
101308.865
101308.949
101309.032
101309.112
101309.19
101309.265
101309.337
101309.406
101309.471
101309.532
101309.589
101309.642
101309.691
101309.735
101309.776
101309.812
101309.845
101309.873
101309.898
101309.92
101309.938
101309.953
101309.966
101309.976
101309.984
101309.991
101309.996
101309.999
101310.002
101310.005
101310.007
101310.009
101310.011
101310.014
101310.017
101310.02
101310.025
101310.03
101310.037
101310.044
101310.052
101310.061
101310.07
101310.081
101310.092
101310.104
101310.116
101310.129
101310.143
101310.157
101310.173
101310.189
101310.205
101310.224
101310.243
101310.264
101310.288
101310.313
101310.342
101310.375
101310.411
101310.452
101310.498
101310.55
101310.608
101310.67
101310.723
101310.772
101311.187
101311.462
101311.411
101310.385
101310.282
101310.286
101310.438
101310.433
101310.514
101310.508
101310.504
101310.47
101310.439
101310.405
101310.374
101310.345
101310.319
101310.296
101310.275
101310.256
101310.239
101310.224
101310.209
101310.196
101310.184
101310.173
101310.162
101310.152
101310.143
101310.133
101310.124
101310.115
101310.107
101310.098
101310.089
101310.081
101310.072
101310.063
101310.055
101310.046
101310.037
101310.029
101310.02
101310.011
101310.002
101309.993
101309.984
101309.975
101309.967
101309.958
101309.949
101309.94
101309.931
101309.922
101309.914
101309.905
101309.897
101309.889
101309.881
101309.873
101309.865
101309.858
101309.85
101309.843
101309.836
101309.83
101309.823
101309.817
101309.811
101309.805
101309.799
101309.794
101309.789
101309.784
101309.779
101309.775
101309.77
101309.766
101309.761
101309.757
101309.753
101309.749
101309.744
101309.74
101309.735
101309.731
101309.726
101309.721
101309.715
101309.709
101309.703
101309.697
101309.69
101309.682
101309.674
101309.666
101309.656
101309.647
101309.636
101309.625
101309.612
101309.599
101309.586
101309.571
101309.555
101309.539
101309.521
101309.503
101309.483
101309.463
101309.441
101309.419
101309.395
101309.371
101309.345
101309.319
101309.291
101309.262
101309.233
101309.202
101309.17
101309.138
101309.104
101309.07
101309.035
101308.998
101308.962
101308.924
101308.885
101308.846
101308.807
101308.766
101308.725
101308.684
101308.642
101308.6
101308.557
101308.514
101308.47
101308.427
101308.383
101308.339
101308.295
101308.251
101308.207
101308.163
101308.119
101308.075
101308.032
101307.988
101307.945
101307.903
101307.86
101307.819
101307.777
101307.736
101307.696
101307.656
101307.616
101307.578
101307.54
101307.502
101307.466
101307.43
101307.394
101307.36
101307.326
101307.293
101307.261
101307.23
101307.2
101307.17
101307.141
101307.113
101307.086
101307.06
101307.034
101307.01
101306.986
101306.963
101306.94
101306.919
101306.898
101306.878
101306.859
101306.84
101306.822
101306.805
101306.789
101306.773
101306.758
101306.744
101306.73
101306.717
101306.704
101306.692
101306.68
101306.668
101306.657
101306.647
101306.637
101306.627
101306.617
101306.608
101306.599
101306.59
101306.582
101306.573
101306.565
101306.557
101306.549
101306.541
101306.533
101306.525
101306.517
101306.509
101306.501
101306.493
101306.485
101306.477
101306.468
101306.46
101306.451
101306.442
101306.433
101306.424
101306.414
101306.404
101306.394
101306.383
101306.373
101306.362
101306.35
101306.339
101306.326
101306.314
101306.301
101306.288
101306.275
101306.261
101306.247
101306.232
101306.217
101306.202
101306.186
101306.17
101306.153
101306.136
101306.119
101306.101
101306.083
101306.064
101306.046
101306.026
101306.007
101305.987
101305.966
101305.945
101305.924
101305.903
101305.881
101305.859
101305.836
101305.813
101305.79
101305.766
101305.742
101305.718
101305.693
101305.668
101305.643
101305.617
101305.591
101305.565
101305.539
101305.512
101305.484
101305.457
101305.429
101305.401
101305.372
101305.343
101305.314
101305.284
101305.254
101305.224
101305.194
101305.163
101305.131
101305.1
101305.068
101305.035
101305.003
101304.97
101304.936
101304.902
101304.868
101304.833
101304.798
101304.762
101304.726
101304.689
101304.652
101304.614
101304.576
101304.537
101304.498
101304.458
101304.418
101304.377
101304.335
101304.293
101304.25
101304.206
101304.162
101304.117
101304.071
101304.024
101303.977
101303.929
101303.88
101303.83
101303.78
101303.728
101303.676
101303.623
101303.569
101303.513
101303.457
101303.4
101303.342
101303.283
101303.223
101303.161
101303.099
101303.035
101302.971
101302.905
101302.838
101302.77
101302.7
101302.63
101302.558
101302.484
101302.41
101302.334
101302.257
101302.179
101302.099
101302.018
101301.935
101301.852
101301.766
101301.68
101301.592
101301.502
101301.411
101301.319
101301.225
101301.13
101301.033
101300.935
101300.835
101300.734
101300.632
101300.527
101300.422
101300.315
101300.207
101300.097
101299.985
101299.873
101299.759
101299.643
101299.526
101299.407
101299.288
101299.166
101299.044
101298.92
101298.795
101298.668
101298.54
101298.411
101298.281
101298.15
101298.017
101297.883
101297.748
101297.612
101297.474
101297.336
101297.197
101297.057
101296.915
101296.773
101296.63
101296.486
101296.342
101296.196
101296.05
101295.903
101295.756
101295.608
101295.459
101295.31
101295.161
101295.011
101294.86
101294.71
101294.559
101294.408
101294.257
101294.106
101293.955
101293.804
101293.653
101293.502
101293.351
101293.201
101293.051
101292.901
101292.752
101292.603
101292.455
101292.308
101292.161
101292.015
101291.87
101291.725
101291.582
101291.44
101291.299
101291.158
101291.02
101290.882
101290.746
101290.611
101290.478
101290.346
101290.216
101290.088
101289.961
101289.836
101289.713
101289.592
101289.473
101289.356
101289.241
101289.128
101289.017
101288.909
101288.803
101288.7
101288.599
101288.5
101288.405
101288.311
101288.221
101288.133
101288.048
101287.966
101287.887
101287.811
101287.738
101287.668
101287.6
101287.537
101287.476
101287.418
101287.364
101287.313
101287.266
101287.222
101287.181
101287.144
101287.11
101287.08
101287.053
101287.03
101287.01
101286.995
101286.982
101286.974
101286.969
101286.968
101286.97
101286.976
101286.986
101287
101287.018
101287.039
101287.064
101287.092
101287.125
101287.161
101287.201
101287.244
101287.291
101287.342
101287.397
101287.455
101287.517
101287.586
101287.664
101287.754
101287.856
101287.972
101288.104
101288.254
101288.424
101288.618
101288.838
101289.087
101289.371
101289.692
101290.057
101290.469
101290.935
101291.461
101292.053
101292.719
101293.464
101294.297
101295.224
101296.251
101297.384
101298.626
101299.979
101301.442
101303.01
101304.675
101306.424
101308.238
101310.092
101311.957
101313.799
101315.581
101317.265
101318.816
101320.202
101321.401
101322.4
101323.199
101323.809
101324.252
101324.556
101324.753
101324.871
101324.938
101324.972
101324.989
101324.996
101324.999
101325
101325
101325
101325
101325
101325
101325
101325
101325
101325
101325
101325
101325
101325
101325
101325
101325
101325
101325
101325
101325
101325
101325
101325
101325
101325
)
;

boundaryField
{
    closed
    {
        type            zeroGradient;
    }
    open
    {
        type            waveTransmissive;
        gamma           1.25;
        fieldInf        101325;
        lInf            1;
        value           uniform 101325;
    }
    sides
    {
        type            empty;
    }
}


// ************************************************************************* //
