/*--------------------------------*- C++ -*----------------------------------*\
| =========                 |                                                 |
| \\      /  F ield         | OpenFOAM: The Open Source CFD Toolbox           |
|  \\    /   O peration     | Version:  2206                                  |
|   \\  /    A nd           | Website:  www.openfoam.com                      |
|    \\/     M anipulation  |                                                 |
\*---------------------------------------------------------------------------*/
FoamFile
{
    version     2.0;
    format      ascii;
    arch        "LSB;label=32;scalar=64";
    class       volScalarField;
    location    "8.8e-06";
    object      PVsourcePV;
}
// * * * * * * * * * * * * * * * * * * * * * * * * * * * * * * * * * * * * * //

dimensions      [1 -3 -1 0 0 0 0];

internalField   nonuniform List<scalar> 
3183
(
0
0
0
0
0
0
0
0
0
0
0
0
0
0
0
0
0
0
0
0
0
0
0
0
0
0
0
0
0
0
0
0
0
0
0
0
0
0
0
0
0
0
0
0
0
0
0
0
0
0
0
0
0
0
0
0
0
0
0
0
0
0
0
0
0
0
0
0
0
0
0
0
0
0
0
0
0
0
0
0
0
0
0
0
0
0
0
0
0
0
0
0
0
0
0
0
0
0
0
0
0
0
0
0
0
0
0
0
0
0
0
0
0
0
0
0
0
0
0
0
0
0
0
0
0
0
0
0
0
0
0
0
0
0
0
0
0
0
0
0
0
0
0
0
0
0
0
0
0
0
0
0
0
0
0
0
0
0
0
0
0
0
0
0
0
0
0
0
0
0
0
0
0
0
0
0
0
0
0
0
0
0
0
0
0
0
0
0
0
0
0
0
0
0
0
0
0
0
0
0
0
0
0
0
0
0
0
0
0
0
0
0
0
0
0
0
0
0
0
0
0
0
0
0
0
0
0
0
0
0
0
0
0
0
0
0
0
0
0
0
0
0
0
0
0
0
0
0
0
0
0
0
0
0
0
0
0
0
0
0
0
0
0
0
0
0
0
0
0
0
0
0
0
0
0
0
0
0
0
0
0
0
0
0
0
0
0
0
0
0
0
0
0
0
0
0
0
0
0
0
0
0
0
0
0
0
0
0
0
0
0
0
0
0
0
0
0
0
0
0
0
0
0
0
0
0
0
0
0
0
0
0
0
0
0
0
0
0
0
0
0
0
0
0
0
0
0
0
0
0
0
0
0
0
0
0
0
0
0
0
0
0
0
0
0
0
0
0
0
0
0
0
0
0
0
0
0
0
0
0
0
0
0
0
0
0
0
0
0
0
0
0
0
0
0
0
0
0
0
0
0
0
0
0
0
0
0
0
0
0
0
0
0
0
0
0
0
0
0
0
0
0
0
0
0
0
0
0
0
0
0
0
0
0
0
0
0
0
0
0
0
0
0
0
0
0
0
0
0
0
0
0
0
0
0
0
0
0
0
0
0
0
0
0
0
0
0
0
0
0
0
0
0
0
0
0
0
0
0
0
0
0
0
0
0
0
0
0
0
0
0
0
0
0
0
0
0
0
0
0
0
0
0
0
0
0
0
0
0
0
0
0
0
0
0
0
0
0
0
0
0
0
0
0
0
0
0
0
0
0
0
0
0
0
0
0
0
0
0
0
0
0
0
0
0
0
0
0
0
0
0
0
0
0
0
0
0
0
0
0
0
0
0
0
0
0
0
0
0
0
0
0
0
0
0
0
0
0
0
0
0
0
0
0
0
0
0
0
0
0
0
0
0
0
0
0
0
0
0
0
0
0
0
0
0
0
0
0
0
0
0
0
0
0
0
0
0
0
0
0
0
0
0
0
0
0
0
0
0
0
0
0
0
0
0
0
0
0
0
0
0
0
0
0
0
0
0
0
0
0
0
0
0
0
0
0
0
0
0
0
0
0
0
0
0
0
0
0
0
0
0
0
0
0
0
0
0
0
0
0
0
0
0
0
0
0
0
0
0
0
0
0
0
0
0
0
0
0
0
0
0
0
0
0
0
0
0
0
0
0
0
0
0
0
0
0
0
0
0
0
0
0
0
0
0
0
0
0
0
0
0
0
0
0
0
0
0
0
0
0
0
0
0
0
0
0
0
0
0
0
0
0
0
0
0
0
0
0
0
0
0
0
0
0
0
0
0
0
0
0
0
0
0
0
0
0
0
0
0
0
0
0
0
0
0
0
0
0
0
0
0
0
0
0
0
0
0
0
0
0
0
0
0
0
0
0
0
0
0
0
0
0
0
0
0
0
0
0
0
0
0
0
0
0
0
0
0
0
0
0
0
0
0
0
0
0
0
0
0
0
0
0
0
0
0
0
0
0
0
0
0
0
0
0
0
0
0
0
0
0
0
0
0
0
0
0
0
0
0
0
0
0
0
0
0
0
0
0
0
0
0
0
0
0
0
0
0
0
0
0
0
0
0
0
0
0
0
0
0
0
0
0
0
0
0
0
0
0
0
0
0
0
0
0
0
0
0
0
0
0
0
0
0
0
0
0
0
0
0
0
0
0
0
0
0
0
0
0
0
0
0
0
0
0
0
0
0
0
0
0
0
0
0
0
0
0
0
0
0
0
0
0
0
0
0
0
0
0
0
0
0
0
0
0
0
0
0
0
0
0
0
0
0
0
0
0
0
0
0
0
0
0
0
0
0
0
0
0
0
0
0
0
0
0
0
0
0
0
0
0
0
0
0
0
0
0
0
0
0
0
0
0
0
0
0
0
0
0
0
0
0
0
0
0
0
0
0
0
0
0
0
0
0
0
0
0
0
0
0
0
0
0
0
0
0
0
0
0
0
0
0
0
0
0
0
0
0
0
0
0
0
0
0
0
0
0
0
0
0
0
0
0
0
0
0
0
0
0
0
0
0
0
0
0
0
0
0
0
0
0
0
0
0
0
0
0
0
0
0
0
0
0
0
0
0
0
0
0
0
0
0
0
0
0
0
0
0
0
0
0
0
0
0
0
0
0
0
0
0
0
0
0
0
0
0
0
0
0
0
0
0
0
0
0
0
0
0
0
0
0
0
0
0
0
0
0
0
0
0
0
0
0
0
0
0
0
0
0
0
0
0
0
0
0
0
0
0
0
0
0
0
0
0
0
0
0
0
0
0
0
0
0
0
0
0
0
0
0
0
0
0
0
0
0
0
0
0
0
0
0
0
0
0
0
0
0
0
0
0
0
0
0
0
0
0
0
0
0
0
0
0
0
0
0
0
0
0
0
0
0
0
0
0
0
0
0
0
0
0
0
0
0
0
0
0
0
0
0
0
0
0
0
0
0
0
0
0
0
0
0
0
0
0
0
0
0
0
0
0
0
0
0
0
0
0
0
0
0
0
0
0
0
0
0
0
0
0
0
0
0
0
0
0
0
0
0
0
0
0
0
0
0
0
0
0
0
0
0
0
0
0
0
0
0
0
0
0
0
0
0
0
0
0
0
0
0
0
0
0
0
0
0
0
0
0
0
0
0
0
0
0
0
0
0
0
0
0
0
0
0
0
0
0
0
0
0
0
0
0
0
0
0
0
0
0
0
0
0
0
0
0
0
0
0
0
0
0
0
0
0
0
0
0
0
0
0
0
0
0
0
0
0
0
0
0
0
0
0
0
0
0
0
0
0
0
0
0
0
0
0
0
0
0
0
0
0
0
0
0
0
0
0
0
0
0
0
0
0
0
0
0
0
0
0
0
0
0
0
0
0
0
0
0
0
0
0
0
0
0
0
0
0
0
0
0
0
0
0
0
0
0
0
0
0
0
0
0
0
0
0
0
0
0
0
0
0
0
0
0
0
0
0
0
0
0
0
0
0
0
0
0
0
0
0
0
0
0
0
0
0
0
0
0
0
0
0
0
0
0
0
0
0
0
0
0
0
0
0
0
0
0
0
0
0
0
0
0
0
0
0
0
0
0
0
0
0
0
0
0
0
0
0
0
0
0
0
0
0
0
0
0
0
0
0
0
0
0
0
0
0
0
0
0
0
0
0
0
0
0
0
0
0
0
0
0
0
0
0
0
0
0
0
0
0
0
0
0
0
0
0
0
0
0
0
0
0
0
0
0
0
0
0
0
0
0
0
0
0
0
0
0
0
0
0
0
0
0
0
0
0
0
0
0
0
0
0
0
0
0
0
0
0
0
0
0
0
0
0
0
0
0
0
0
0
0
0
0
0
0
0
0
0
0
0
0
0
0
0
0
0
0
0
0
0
0
0
0
0
0
0
0
0
0
0
0
0
0
0
0
0
0
0
0
0
0
0
0
0
0
0
0
0
0
0
0
0
0
0
0
0
0
0
0
0
0
0
0
0
0
0
0
0
0
0
0
0
0
0
0
0
0
0
0
0
0
0
0
0
0
0
0
0
0
0
0
0
0
0
0
0
0
0
0
0
0
0
0
0
0
0
0
0
0
0
0
0
0
0
0
0
0
0
0
0
0
0
0
0
0
0
0
0
0
0
0
0
0
0
0
0
0
0
0
0
0
0
0
0
0
0
0
0
0
0
0
0
0
0
0
0
0
0
0
0
0
0
0
0
0
0
0
0
0
0
0
0
0
0
0
0
0
0
0
0
0
0
0
0
0
0
0
0
0
0
0
0
0
0
0
0
0
0
0
0
0
0
0
0
0
0
0
0
0
0
0
0
0
0
0
0
0
0
0
0
0
0
0
0
0
0
0
0
0
0
0
0
0
0
0
0
0
0
0
0
0
0
0
0
0
0
0
0
0
0
0
0
0
0
0
0
0
0
0
0
0
0
0
0
0
0
0
0
0
0
0
0
0
0
0
0
0
0
0
0
0
0
0
0
0
0
0
0
0
0
0
0
0
0
0
0
0
0
0
0
0
0
0
0
0
0
0
0
0
0
0
0
0
0
0
0
0
0
0
0
0
0
0
0
0
0
0
0
0
0
0
0
0
0
0
0
0
0
0
0
0
0
0
0
0
0
0
0
0
0
0
0
0
0
0
0
0
0
0
0
0
0
0
0
0
0
0
0
0
0
0
0
0
0
0
0
0
0
0
0
0
0
0
0
0
0
0
0
0
0
0
0
0
0
0
0
0
0
0
0
0
0
0
0
0
0
0
0
0
0
0
0
0
0
0
0
0
0
0
0
0
0
0
0
0
0
0
0
0
0
0
0
0
0
0
0
0
0
0
0
0
0
0
0
0
0
0
0
0
0
0
0
0
0
0
0
0
0
0
0
0
0
0
0
0
0
0
0
0
0
0
0
0
0
0
0
0
0
0
0
0
0
0
0
0
0
0
0
0
0
0
0
0
0
0
0
0
0
0
0
0
0
0
0
0
0
0
0
0
0
0
0
0
0
0
0
0
0
0
0
0
0
0
0
0
0
0
0
0
0
0
0
0
0
0
0
0
0
0
0
0
0
0
0
0
0
0
0
0
0
0
0
0
0
0
0
0
0
0
0
0
0
0
0
0
0
0
0
0
0
0
0
0
0
0
0
0
0
0
0
0
0
0
0
0
0
0
0
0
0
0
0
0
0
0
0
0
0
0
0
0
0
0
0
0
0
0
0
0
0
0
0
0
0
0
0
0
0
0
0
0
0
0
0
0
0
0
0
0
0
0
0
0
0
0
0
0
0
0
0
0
0
0
0
0
0
0
0
0
0
0
0
0
0
0
0
0
0
0
0
0
0
0
0
0
0
0
0
0
0
0
0
0
0
0
0
0
0
0
0
0
0
0
0
0
0
0
0
0
0
0
0
0
0
0
0
0
0
0
0
0
0
0
0
0
0
0
0
0
0
0
0
0
0
0
0
0
0
0
0
0
4.85275857e-298
0
7.1142374e-295
0
1.00778075e-291
0
1.38126974e-288
0
1.83396137e-285
0
2.36145483e-282
0
2.95178466e-279
0
3.58514593e-276
0
4.23462873e-273
0
4.86799751e-270
0
5.45036897e-267
0
5.94747258e-264
0
6.32905729e-261
0
6.57196485e-258
0
6.6624339e-255
0
6.59732207e-252
0
6.38410869e-249
0
6.03973225e-246
0
5.58848759e-243
1.10798006e-246
5.05932693e-240
1.09112718e-241
4.48295975e-237
1.878132e-238
3.88912818e-234
2.38298241e-235
3.30435911e-231
2.6363137e-232
2.75038314e-228
2.68162922e-229
2.24328912e-225
2.56842982e-226
1.79337335e-222
2.34622597e-223
1.40556045e-219
2.05997983e-220
1.08022612e-216
1.7471897e-217
8.1424012e-214
1.43654627e-214
6.0206452e-211
1.1478931e-211
4.36777542e-208
8.93122086e-209
3.10937093e-205
6.77618053e-206
2.17241319e-202
5.01911727e-203
1.48979784e-199
3.63281575e-200
1.00295036e-196
2.57137e-197
6.62896774e-194
1.78100622e-194
4.30198646e-191
1.20774567e-191
2.7414883e-188
8.02210106e-189
1.71565869e-185
5.22116218e-186
1.0544619e-182
3.33082564e-183
6.36517411e-180
2.08334292e-180
3.77388407e-177
1.27789294e-177
2.19776279e-174
7.68844093e-175
1.2571812e-171
4.53799343e-172
7.06392766e-169
2.62803277e-169
3.8987748e-166
1.49343966e-166
2.1136913e-163
8.32862464e-164
1.12558982e-160
4.55844962e-161
5.88753267e-158
2.44872673e-158
3.02472671e-155
1.29108787e-155
1.52622754e-152
6.68142379e-153
7.56326007e-150
3.39373661e-150
3.68067238e-147
1.69189845e-147
1.75889888e-144
8.27831278e-145
8.253016e-142
3.97519475e-142
3.80189695e-139
1.87324731e-139
1.71931971e-136
8.6619668e-137
7.63184099e-134
3.92989229e-134
3.32476406e-131
1.74919818e-131
1.42130805e-128
7.63724142e-129
5.96132528e-126
3.27047877e-126
2.45273185e-123
1.37339289e-123
9.89758413e-121
5.6547213e-121
3.91645323e-118
2.2823257e-118
1.51931275e-115
9.02825042e-116
5.77684319e-113
3.49937819e-113
2.15235625e-110
1.32871874e-110
7.85598835e-108
4.94100358e-108
2.8081798e-105
1.79892566e-105
9.82769173e-103
6.41052623e-103
3.36616964e-100
2.23518213e-100
1.12803653e-97
7.62283457e-98
3.69697571e-95
2.54178293e-95
1.18448007e-92
8.28324467e-93
3.70830159e-90
2.63700508e-90
1.13392087e-87
8.19716934e-88
3.3847753e-85
2.48678239e-85
9.85776969e-83
7.35858266e-83
2.79945459e-80
2.12263953e-80
7.74708795e-78
5.96495344e-78
2.08774017e-75
1.63187759e-75
5.47477085e-73
4.34304664e-73
1.39591552e-70
1.12351182e-70
3.45763222e-68
2.82265067e-68
8.31218094e-66
6.88049891e-66
1.9374084e-63
1.62560863e-63
4.3733045e-61
3.71837967e-61
9.5487502e-59
8.22421874e-59
2.01393237e-56
1.75649584e-56
4.09692426e-54
3.61708671e-54
8.02545938e-52
7.16982122e-52
1.5110727e-49
1.36550551e-49
2.72908029e-47
2.4935567e-47
4.71700473e-45
4.35593675e-45
7.78235133e-43
7.26018188e-43
1.22200426e-40
1.15114689e-40
1.82008246e-38
1.73045522e-38
2.5614227e-36
2.45663528e-36
3.39064861e-34
3.2786781e-34
4.1994262e-32
4.09179977e-32
4.8356828e-30
4.74484562e-30
5.13773217e-28
5.07304262e-28
4.98952717e-26
4.95296719e-26
4.37741643e-24
4.35981638e-24
3.41734273e-22
3.40043779e-22
2.32688474e-20
2.27154166e-20
1.3443587e-18
1.31807709e-18
6.32301036e-17
6.31071113e-17
2.26833872e-15
2.26189462e-15
1.23640969e-11
1.26791751e-11
0.0328675249
0.111034374
0.76560375
0.759937868
0.289694228
0.235871302
0.0319840825
0.0281298481
0.00507538018
0.00471474288
0.000697747518
0.000681277944
8.71775544e-05
8.72058872e-05
1.05518039e-05
1.05565589e-05
1.70454975e-06
1.7050625e-06
7.76505852e-07
7.7698974e-07
6.87664596e-07
6.8772982e-07
6.79793655e-07
6.79792977e-07
6.79134738e-07
6.79135365e-07
6.79084054e-07
6.79084328e-07
6.79078664e-07
6.79080648e-07
6.79079602e-07
6.79080454e-07
6.79078417e-07
6.79081597e-07
6.79078276e-07
6.7907981e-07
6.79079546e-07
6.79078501e-07
6.7907991e-07
6.7907892e-07
6.79079712e-07
6.79078838e-07
6.79080306e-07
6.7907931e-07
6.79079942e-07
6.79079334e-07
6.79080632e-07
6.79079186e-07
6.79079605e-07
6.79079085e-07
6.79079979e-07
6.79078789e-07
6.79080635e-07
6.79078763e-07
6.79080083e-07
6.79080104e-07
6.7907972e-07
6.79079841e-07
6.79079324e-07
6.79079643e-07
6.79079034e-07
6.79080086e-07
6.79079386e-07
6.79079704e-07
6.79080182e-07
6.79078996e-07
6.79079883e-07
6.79079414e-07
6.79079278e-07
6.79078598e-07
6.79079383e-07
6.79078962e-07
6.7907887e-07
6.79080012e-07
6.7907864e-07
6.79080825e-07
6.79079098e-07
6.7908077e-07
6.79079656e-07
6.79080275e-07
6.79079345e-07
6.79080532e-07
6.7907876e-07
6.79080409e-07
6.79079364e-07
6.79079878e-07
6.79079833e-07
6.7907904e-07
6.7907974e-07
6.79078845e-07
6.79080469e-07
6.79079677e-07
6.79079887e-07
6.79079504e-07
6.79080677e-07
6.7907984e-07
6.79079296e-07
6.7907994e-07
6.79080247e-07
6.79080006e-07
6.79079986e-07
6.79079742e-07
6.79080239e-07
6.79080835e-07
6.79079336e-07
6.79079515e-07
6.79079947e-07
6.79080235e-07
6.79079389e-07
6.79080311e-07
6.79079125e-07
6.79078974e-07
6.79079502e-07
6.79079876e-07
6.79079268e-07
6.7907982e-07
6.79079849e-07
6.79080135e-07
6.79079452e-07
6.79080148e-07
6.79079416e-07
6.79080097e-07
6.79079143e-07
6.79080824e-07
6.7907907e-07
6.79080052e-07
6.79079075e-07
6.79080584e-07
6.79079249e-07
6.79080882e-07
6.79079432e-07
6.79079958e-07
6.79080548e-07
6.79080718e-07
6.79080979e-07
6.79079647e-07
6.79081374e-07
6.79079554e-07
6.79080651e-07
6.79078987e-07
6.79079986e-07
6.79079391e-07
6.79079584e-07
6.79079516e-07
6.79079788e-07
6.7907957e-07
6.79079768e-07
6.79079528e-07
6.79080214e-07
6.79079667e-07
6.79080733e-07
6.79078284e-07
6.79081198e-07
6.79079411e-07
6.79080371e-07
6.79080098e-07
6.79080397e-07
6.7907959e-07
6.79080695e-07
6.79080713e-07
6.7908097e-07
6.79079435e-07
6.79080972e-07
6.79079668e-07
6.790812e-07
6.7908037e-07
6.79080244e-07
6.79079948e-07
6.79080089e-07
6.7907956e-07
6.79080376e-07
6.79079199e-07
6.79079846e-07
6.79079788e-07
6.79080462e-07
6.79079974e-07
6.79080473e-07
6.7908047e-07
6.79079908e-07
6.79081529e-07
6.79080686e-07
6.79081364e-07
6.79080971e-07
6.79080896e-07
6.79080623e-07
6.79080336e-07
6.79080197e-07
6.7908022e-07
6.7908016e-07
6.79080739e-07
6.79080386e-07
6.7907981e-07
6.79081003e-07
6.79080503e-07
6.79080938e-07
6.79080374e-07
6.79080365e-07
6.79079948e-07
6.79080859e-07
6.79079325e-07
6.79081209e-07
6.79080022e-07
6.79080763e-07
6.79079841e-07
6.79080432e-07
6.79080431e-07
6.79080435e-07
6.79080412e-07
6.79081264e-07
6.79080494e-07
6.79080967e-07
6.79080129e-07
6.79081475e-07
6.79080855e-07
6.79080166e-07
6.79080837e-07
6.79080161e-07
6.79080729e-07
6.79080447e-07
6.79081323e-07
6.79080311e-07
6.79081112e-07
6.7907962e-07
6.79080646e-07
6.79080195e-07
6.79079904e-07
6.79080685e-07
6.79080928e-07
6.79080697e-07
6.79081271e-07
6.79080594e-07
6.79080757e-07
6.79080534e-07
6.79081494e-07
6.79080713e-07
6.79080612e-07
6.7908118e-07
6.79081235e-07
6.79081194e-07
6.79081419e-07
6.79080727e-07
6.79081995e-07
6.79080764e-07
6.79080822e-07
6.79080584e-07
6.79081662e-07
6.79080259e-07
6.79080988e-07
6.79080029e-07
6.79080611e-07
6.79080652e-07
6.79080966e-07
6.79081081e-07
6.79080647e-07
6.79080334e-07
6.7908119e-07
6.79080336e-07
6.79081673e-07
6.79081149e-07
6.79080228e-07
6.79081521e-07
6.79081016e-07
6.79081106e-07
6.79080726e-07
6.79082215e-07
6.79080249e-07
6.79081017e-07
6.79080153e-07
6.79081271e-07
6.79079528e-07
6.79081944e-07
6.79080244e-07
6.79080584e-07
6.79081509e-07
6.79080279e-07
6.79082079e-07
6.79080539e-07
6.79081343e-07
6.7908087e-07
6.79080711e-07
6.79081415e-07
6.79080496e-07
6.79080978e-07
6.79081055e-07
6.79080814e-07
6.79080079e-07
6.79080854e-07
6.79080279e-07
6.79080535e-07
6.79081484e-07
6.79080555e-07
6.79080954e-07
6.79080964e-07
6.7908106e-07
6.79080921e-07
6.79080336e-07
6.79080401e-07
6.79081404e-07
6.79081629e-07
6.79081181e-07
6.79081009e-07
6.79080948e-07
6.79080978e-07
6.79081496e-07
6.79080558e-07
6.79081741e-07
6.79081036e-07
6.79081021e-07
6.79081478e-07
6.7908174e-07
6.7908158e-07
6.79081277e-07
6.79080904e-07
6.79081267e-07
6.79080769e-07
6.79081222e-07
6.79081884e-07
6.79079987e-07
6.79082692e-07
6.79080486e-07
6.79082093e-07
6.79080874e-07
6.79081579e-07
6.79081197e-07
6.79081158e-07
6.79081138e-07
6.79081354e-07
6.7908129e-07
6.79081268e-07
6.79081571e-07
6.79081289e-07
6.7908116e-07
6.79081261e-07
6.79081056e-07
6.79080921e-07
6.79080952e-07
6.79082105e-07
6.79081155e-07
6.79080514e-07
6.79081924e-07
6.79080676e-07
6.79081461e-07
6.79081072e-07
6.79081633e-07
6.79081245e-07
6.79081935e-07
6.79080961e-07
6.79081318e-07
6.79081619e-07
6.79081174e-07
6.79081534e-07
6.79082019e-07
6.79080866e-07
6.79081167e-07
6.79081869e-07
6.79080465e-07
6.79082466e-07
6.79080954e-07
6.79081177e-07
6.79081403e-07
6.79081837e-07
6.79080918e-07
6.79082256e-07
6.79081153e-07
6.79081161e-07
6.79082204e-07
6.79081256e-07
6.79082413e-07
6.79081611e-07
6.7908266e-07
6.79081642e-07
6.79082253e-07
6.79081544e-07
6.79082163e-07
6.79081281e-07
6.79081816e-07
6.79080994e-07
6.79082037e-07
6.79081658e-07
6.79081549e-07
6.79081878e-07
6.79082054e-07
6.79081872e-07
6.79081599e-07
6.79081713e-07
6.7908068e-07
6.79081685e-07
6.79081494e-07
6.79081215e-07
6.79082039e-07
6.79081432e-07
6.7908166e-07
6.79081575e-07
6.790816e-07
6.79082112e-07
6.7908185e-07
6.79082465e-07
6.79082098e-07
6.79081765e-07
6.79081556e-07
6.79081566e-07
6.79082107e-07
6.79081236e-07
6.79082723e-07
6.79081117e-07
6.7908243e-07
6.79081166e-07
6.79082699e-07
6.79081971e-07
6.79082301e-07
6.79081852e-07
6.79082252e-07
6.79081952e-07
6.79082053e-07
6.79082315e-07
6.79081953e-07
6.79082337e-07
6.79081848e-07
6.79082278e-07
6.79081923e-07
6.7908187e-07
6.79082819e-07
6.79081455e-07
6.79082438e-07
6.79082429e-07
6.79082025e-07
6.79082523e-07
6.79082476e-07
6.79081981e-07
6.79082839e-07
6.79081875e-07
6.79082331e-07
6.79082458e-07
6.7908276e-07
6.79082775e-07
6.79082472e-07
6.79082319e-07
6.79083502e-07
6.79082026e-07
6.79083275e-07
6.79081983e-07
6.79082737e-07
6.79081701e-07
6.79082666e-07
6.79083085e-07
6.79081842e-07
6.79082417e-07
6.7908316e-07
6.79082898e-07
6.79081931e-07
6.79082542e-07
6.79082126e-07
6.79082735e-07
6.79082039e-07
6.79082691e-07
6.79083338e-07
6.79081766e-07
6.79082488e-07
6.7908218e-07
6.79082289e-07
6.79082289e-07
6.79083093e-07
6.79081779e-07
6.79082987e-07
6.79082191e-07
6.79083402e-07
6.79082949e-07
6.79082389e-07
6.79082587e-07
6.79082558e-07
6.79083687e-07
6.7908226e-07
6.79082088e-07
6.79083721e-07
6.7908087e-07
6.79084395e-07
6.79081467e-07
6.79083039e-07
6.7908197e-07
6.79083044e-07
6.79082103e-07
6.79082905e-07
6.79082361e-07
6.79082567e-07
6.79082291e-07
6.79082706e-07
6.79083213e-07
6.79082229e-07
6.79083075e-07
6.790822e-07
6.79083612e-07
6.79083023e-07
6.79082882e-07
6.79082683e-07
6.79084229e-07
6.79081877e-07
6.79083329e-07
6.79081962e-07
6.79084068e-07
6.79081474e-07
6.79083744e-07
6.79082333e-07
6.79083962e-07
6.79082461e-07
6.79083135e-07
6.79083128e-07
6.79082824e-07
6.79083566e-07
6.79083081e-07
6.79082924e-07
6.79083132e-07
6.79083062e-07
6.79083314e-07
6.79083386e-07
6.79083419e-07
6.79083387e-07
6.79083081e-07
6.79083374e-07
6.79083285e-07
6.79083135e-07
6.79083512e-07
6.79083485e-07
6.7908352e-07
6.79083508e-07
6.79083518e-07
6.79083522e-07
6.79083629e-07
6.79083677e-07
6.79083676e-07
6.7908375e-07
6.79083747e-07
6.7908384e-07
6.79083884e-07
6.79083875e-07
6.7908395e-07
6.79083983e-07
6.79083944e-07
6.7908398e-07
6.7908402e-07
6.79084052e-07
6.79084048e-07
6.79084043e-07
6.79084078e-07
6.79084058e-07
6.7908406e-07
6.79084073e-07
6.79084073e-07
6.79084043e-07
6.7908408e-07
6.79084057e-07
6.79084066e-07
6.79084066e-07
6.79084068e-07
6.79084068e-07
6.79084083e-07
6.79084071e-07
6.79084067e-07
6.79084057e-07
6.79084047e-07
6.79084076e-07
6.7908406e-07
6.79084067e-07
6.79084071e-07
6.79084062e-07
6.79084076e-07
6.7908407e-07
6.79084069e-07
6.7908408e-07
6.79084062e-07
6.79084075e-07
6.79084056e-07
6.79084079e-07
6.79084072e-07
6.79084063e-07
6.79084074e-07
6.79084056e-07
6.79084054e-07
6.79084084e-07
)
;

boundaryField
{
    closed
    {
        type            calculated;
        value           uniform 0;
    }
    open
    {
        type            calculated;
        value           uniform 0;
    }
    sides
    {
        type            empty;
    }
}


// ************************************************************************* //
