/*--------------------------------*- C++ -*----------------------------------*\
| =========                 |                                                 |
| \\      /  F ield         | OpenFOAM: The Open Source CFD Toolbox           |
|  \\    /   O peration     | Version:  2206                                  |
|   \\  /    A nd           | Website:  www.openfoam.com                      |
|    \\/     M anipulation  |                                                 |
\*---------------------------------------------------------------------------*/
FoamFile
{
    version     2.0;
    format      ascii;
    arch        "LSB;label=32;scalar=64";
    class       volScalarField;
    location    "8.8e-06";
    object      sourcePV;
}
// * * * * * * * * * * * * * * * * * * * * * * * * * * * * * * * * * * * * * //

dimensions      [1 -3 -1 0 0 0 0];

internalField   nonuniform List<scalar> 
3183
(
0
0
0
0
0
0
0
0
0
0
0
0
0
0
0
0
0
0
0
0
0
0
0
0
0
0
0
0
0
0
0
0
0
0
0
0
0
0
0
0
0
0
0
0
0
0
0
0
0
0
0
0
0
0
0
0
0
0
0
0
0
0
0
0
0
0
0
0
0
0
0
0
0
0
0
0
0
0
0
0
0
0
0
0
0
0
0
0
0
0
0
0
0
0
0
0
0
0
0
0
0
0
0
0
0
0
0
0
0
0
0
0
0
0
0
0
0
0
0
0
0
0
0
0
0
0
0
0
0
0
0
0
0
0
0
0
0
0
0
0
0
0
0
0
0
0
0
0
0
0
0
0
0
0
0
0
0
0
0
0
0
0
0
0
0
0
0
0
0
0
0
0
0
0
0
0
0
0
0
0
0
0
0
0
0
0
0
0
0
0
0
0
0
0
0
0
0
0
0
0
0
0
0
0
0
0
0
0
0
0
0
0
0
0
0
0
0
0
0
0
0
0
0
0
0
0
0
0
0
0
0
0
0
0
0
0
0
0
0
0
0
0
0
0
0
0
0
0
0
0
0
0
0
0
0
0
0
0
0
0
0
0
0
0
0
0
0
0
0
0
0
0
0
0
0
0
0
0
0
0
0
0
0
0
0
0
0
0
0
0
0
0
0
0
0
0
0
0
0
0
0
0
0
0
0
0
0
0
0
0
0
0
0
0
0
0
0
0
0
0
0
0
0
0
0
0
0
0
0
0
0
0
0
0
0
0
0
0
0
0
0
0
0
0
0
0
0
0
0
0
0
0
0
0
0
0
0
0
0
0
0
0
0
0
0
0
0
0
0
0
0
0
0
0
0
0
0
0
0
0
0
0
0
0
0
0
0
0
0
0
0
0
0
0
0
0
0
0
0
0
0
0
0
0
0
0
0
0
0
0
0
0
0
0
0
0
0
0
0
0
0
0
0
0
0
0
0
0
0
0
0
0
0
0
0
0
0
0
0
0
0
0
0
0
0
0
0
0
0
0
0
0
0
0
0
0
0
0
0
0
0
0
0
0
0
0
0
0
0
0
0
0
0
0
0
0
0
0
0
0
0
0
0
0
0
0
0
0
0
0
0
0
0
0
0
0
0
0
0
0
0
0
0
0
0
0
0
0
0
0
0
0
0
0
0
0
0
0
0
0
0
0
0
0
0
0
0
0
0
0
0
0
0
0
0
0
0
0
0
0
0
0
0
0
0
0
0
0
0
0
0
0
0
0
0
0
0
0
0
0
0
0
0
0
0
0
0
0
0
0
0
0
0
0
0
0
0
0
0
0
0
0
0
0
0
0
0
0
0
0
0
0
0
0
0
0
0
0
0
0
0
0
0
0
0
0
0
0
0
0
0
0
0
0
0
0
0
0
0
0
0
0
0
0
0
0
0
0
0
0
0
0
0
0
0
0
0
0
0
0
0
0
0
0
0
0
0
0
0
0
0
0
0
0
0
0
0
0
0
0
0
0
0
0
0
0
0
0
0
0
0
0
0
0
0
0
0
0
0
0
0
0
0
0
0
0
0
0
0
0
0
0
0
0
0
0
0
0
0
0
0
0
0
0
0
0
0
0
0
0
0
0
0
0
0
0
0
0
0
0
0
0
0
0
0
0
0
0
0
0
0
0
0
0
0
0
0
0
0
0
0
0
0
0
0
0
0
0
0
0
0
0
0
0
0
0
0
0
0
0
0
0
0
0
0
0
0
0
0
0
0
0
0
0
0
0
0
0
0
0
0
0
0
0
0
0
0
0
0
0
0
0
0
0
0
0
0
0
0
0
0
0
0
0
0
0
0
0
0
0
0
0
0
0
0
0
0
0
0
0
0
0
0
0
0
0
0
0
0
0
0
0
0
0
0
0
0
0
0
0
0
0
0
0
0
0
0
0
0
0
0
0
0
0
0
0
0
0
0
0
0
0
0
0
0
0
0
0
0
0
0
0
0
0
0
0
0
0
0
0
0
0
0
0
0
0
0
0
0
0
0
0
0
0
0
0
0
0
0
0
0
0
0
0
0
0
0
0
0
0
0
0
0
0
0
0
0
0
0
0
0
0
0
0
0
0
0
0
0
0
0
0
0
0
0
0
0
0
0
0
0
0
0
0
0
0
0
0
0
0
0
0
0
0
0
0
0
0
0
0
0
0
0
0
0
0
0
0
0
0
0
0
0
0
0
0
0
0
0
0
0
0
0
0
0
0
0
0
0
0
0
0
0
0
0
0
0
0
0
0
0
0
0
0
0
0
0
0
0
0
0
0
0
0
0
0
0
0
0
0
0
0
0
0
0
0
0
0
0
0
0
0
0
0
0
0
0
0
0
0
0
0
0
0
0
0
0
0
0
0
0
0
0
0
0
0
0
0
0
0
0
0
0
0
0
0
0
0
0
0
0
0
0
0
0
0
0
0
0
0
0
0
0
0
0
0
0
0
0
0
0
0
0
0
0
0
0
0
0
0
0
0
0
0
0
0
0
0
0
0
0
0
0
0
0
0
0
0
0
0
0
0
0
0
0
0
0
0
0
0
0
0
0
0
0
0
0
0
0
0
0
0
0
0
0
0
0
0
0
0
0
0
0
0
0
0
0
0
0
0
0
0
0
0
0
0
0
0
0
0
0
0
0
0
0
0
0
0
0
0
0
0
0
0
0
0
0
0
0
0
0
0
0
0
0
0
0
0
0
0
0
0
0
0
0
0
0
0
0
0
0
0
0
0
0
0
0
0
0
0
0
0
0
0
0
0
0
0
0
0
0
0
0
0
0
0
0
0
0
0
0
0
0
0
0
0
0
0
0
0
0
0
0
0
0
0
0
0
0
0
0
0
0
0
0
0
0
0
0
0
0
0
0
0
0
0
0
0
0
0
0
0
0
0
0
0
0
0
0
0
0
0
0
0
0
0
0
0
0
0
0
0
0
0
0
0
0
0
0
0
0
0
0
0
0
0
0
0
0
0
0
0
0
0
0
0
0
0
0
0
0
0
0
0
0
0
0
0
0
0
0
0
0
0
0
0
0
0
0
0
0
0
0
0
0
0
0
0
0
0
0
0
0
0
0
0
0
0
0
0
0
0
0
0
0
0
0
0
0
0
0
0
0
0
0
0
0
0
0
0
0
0
0
0
0
0
0
0
0
0
0
0
0
0
0
0
0
0
0
0
0
0
0
0
0
0
0
0
0
0
0
0
0
0
0
0
0
0
0
0
0
0
0
0
0
0
0
0
0
0
0
0
0
0
0
0
0
0
0
0
0
0
0
0
0
0
0
0
0
0
0
0
0
0
0
0
0
0
0
0
0
0
0
0
0
0
0
0
0
0
0
0
0
0
0
0
0
0
0
0
0
0
0
0
0
0
0
0
0
0
0
0
0
0
0
0
0
0
0
0
0
0
0
0
0
0
0
0
0
0
0
0
0
0
0
0
0
0
0
0
0
0
0
0
0
0
0
0
0
0
0
0
0
0
0
0
0
0
0
0
0
0
0
0
0
0
0
0
0
0
0
0
0
0
0
0
0
0
0
0
0
0
0
0
0
0
0
0
0
0
0
0
0
0
0
0
0
0
0
0
0
0
0
0
0
0
0
0
0
0
0
0
0
0
0
0
0
0
0
0
0
0
0
0
0
0
0
0
0
0
0
0
0
0
0
0
0
0
0
0
0
0
0
0
0
0
0
0
0
0
0
0
0
0
0
0
0
0
0
0
0
0
0
0
0
0
0
0
0
0
0
0
0
0
0
0
0
0
0
0
0
0
0
0
0
0
0
0
0
0
0
0
0
0
0
0
0
0
0
0
0
0
0
0
0
0
0
0
0
0
0
0
0
0
0
0
0
0
0
0
0
0
0
0
0
0
0
0
0
0
0
0
0
0
0
0
0
0
0
0
0
0
0
0
0
0
0
0
0
0
0
0
0
0
0
0
0
0
0
0
0
0
0
0
0
0
0
0
0
0
0
0
0
0
0
0
0
0
0
0
0
0
0
0
0
0
0
0
0
0
0
0
0
0
0
0
0
0
0
0
0
0
0
0
0
0
0
0
0
0
0
0
0
0
0
0
0
0
0
0
0
0
0
0
0
0
0
0
0
0
0
0
0
0
0
0
0
0
0
0
0
0
0
0
0
0
0
0
0
0
0
0
0
0
0
0
0
0
0
0
0
0
0
0
0
0
0
0
0
0
0
0
0
0
0
0
0
0
0
0
0
0
0
0
0
0
0
0
0
0
0
0
0
0
0
0
0
0
0
0
0
0
0
0
0
0
0
0
0
0
0
0
0
0
0
0
0
0
0
0
0
0
0
0
0
0
0
0
0
0
0
0
0
0
0
0
0
0
0
0
0
0
0
0
0
0
0
0
0
0
0
0
0
0
0
0
0
0
0
0
0
0
0
0
0
0
0
0
0
0
0
0
0
0
0
0
0
0
0
0
0
0
0
0
0
0
0
0
0
0
0
0
0
0
0
0
0
0
0
0
0
0
0
0
0
0
0
0
0
0
0
0
0
0
0
0
0
0
0
0
0
0
0
0
0
0
0
0
0
0
0
0
0
0
0
0
0
0
0
0
0
0
0
0
0
0
0
0
0
0
0
0
0
0
0
0
0
0
0
0
0
0
0
0
0
0
0
0
0
0
0
0
0
0
0
0
0
0
0
0
0
0
0
0
0
0
0
0
0
0
0
0
0
0
0
0
0
0
0
0
0
0
0
0
0
0
0
0
0
0
0
0
0
0
0
0
0
0
0
0
0
0
0
0
0
0
0
0
0
0
0
0
0
0
0
0
0
0
0
0
0
0
0
0
0
0
0
0
0
0
0
0
0
0
0
0
0
0
0
0
0
0
0
0
0
0
0
0
0
0
0
0
0
0
0
0
0
0
0
0
0
0
0
0
0
0
0
0
0
0
0
0
0
0
0
0
0
0
0
0
0
0
0
0
0
0
0
0
0
0
0
0
0
0
0
0
0
0
0
0
0
0
0
0
0
0
0
0
0
0
0
0
0
0
0
0
0
0
0
0
0
0
0
0
0
0
0
0
0
0
0
0
0
0
0
0
0
0
0
0
0
0
0
0
0
0
0
0
0
0
0
0
0
0
0
0
0
0
0
0
0
0
0
0
0
0
0
0
0
0
0
0
0
0
0
0
0
0
0
0
0
0
0
0
0
0
0
0
0
0
0
0
0
0
0
0
0
0
0
0
0
0
0
0
0
0
0
0
0
0
0
0
0
0
0
0
0
0
0
0
0
0
0
0
0
0
0
0
0
0
0
0
0
0
0
0
0
0
0
0
0
0
0
0
0
0
0
0
0
0
0
0
0
0
0
0
0
0
0
0
0
0
0
0
0
0
0
0
0
0
0
0
0
5.57609411e-298
0
8.47242885e-295
0
1.24207437e-291
0
1.75948393e-288
0
2.41155818e-285
0
3.20191227e-282
0
4.12286284e-279
0
5.15351942e-276
0
6.25930456e-273
0
7.39323626e-270
0
8.4990345e-267
0
9.51579657e-264
0
1.03836895e-260
0
1.10498981e-257
0
1.14739903e-254
0
1.16319401e-251
0
1.15182614e-248
0
1.11460123e-245
0
1.05447656e-242
0
9.75693779e-240
1.93442185e-243
8.83307646e-237
1.90499841e-238
7.82679727e-234
3.27902975e-235
6.79002701e-231
4.16044784e-232
5.76907898e-228
4.60273881e-229
4.8018926e-225
4.68185517e-226
3.91655739e-222
4.48422039e-223
3.13104966e-219
4.0962748e-220
2.45396732e-216
3.5965178e-217
1.88596627e-213
3.05041766e-214
1.42158143e-210
2.50806545e-211
1.05114415e-207
2.00410601e-208
7.625697e-205
1.55930142e-205
5.42864921e-202
1.18305303e-202
3.79281515e-199
8.76287443e-200
2.60103733e-196
6.34253128e-197
1.75105056e-193
4.48935365e-194
1.15735116e-190
3.1094579e-191
7.51083609e-188
2.10860259e-188
4.78636311e-185
1.40057824e-185
2.99536768e-182
9.11562453e-183
1.84098453e-179
5.81528688e-180
1.11129544e-176
3.6373074e-177
6.58882238e-174
2.23107267e-174
3.837073e-171
1.34232453e-171
2.19491205e-168
7.92288054e-169
1.23329079e-165
4.58828115e-166
6.80686904e-163
2.60739559e-163
3.69029262e-160
1.45409418e-160
1.96516673e-157
7.958595e-158
1.02790405e-154
4.27523083e-155
5.28086892e-152
2.25410969e-152
2.66463993e-149
1.16650946e-149
1.32046921e-146
5.92512312e-147
6.42608414e-144
2.9538847e-144
3.0708607e-141
1.44531023e-141
1.44089367e-138
6.94029061e-139
6.63773006e-136
3.27050158e-136
3.00175945e-133
1.51229237e-133
1.33244275e-130
6.86119705e-131
5.80470397e-128
3.05392426e-128
2.48146104e-125
1.33338561e-125
1.04078749e-122
5.70992732e-123
4.28222335e-120
2.39780599e-120
1.72801874e-117
9.87257519e-118
6.83773381e-115
3.98471134e-115
2.6525674e-112
1.57624181e-112
1.00857877e-109
6.10956269e-110
3.75779774e-107
2.31980941e-107
1.37157663e-104
8.62649578e-105
4.90279976e-102
3.14074344e-102
1.71581623e-99
1.11921347e-99
5.87699396e-97
3.90240341e-97
1.96943844e-94
1.33087032e-94
6.45454812e-92
4.43769759e-92
2.06798319e-89
1.44617129e-89
6.47432197e-87
4.60394589e-87
1.97971191e-84
1.4311434e-84
5.90947756e-82
4.34167218e-82
1.72106754e-79
1.28473459e-79
4.88756641e-77
3.70591533e-77
1.35256371e-74
1.04142093e-74
3.64498456e-72
2.8490943e-72
9.55839979e-70
7.58252304e-70
2.43712824e-67
1.96153875e-67
6.03667843e-65
4.92806445e-65
1.45122327e-62
1.20126597e-62
3.3825204e-60
2.83814933e-60
7.63535022e-58
6.49191727e-58
1.66711584e-55
1.43586595e-55
3.51612356e-53
3.06666524e-53
7.1528181e-51
6.31506994e-51
1.40116457e-48
1.25177874e-48
2.6381811e-46
2.38403541e-46
4.76469996e-44
4.35349944e-44
8.23541628e-42
7.60502788e-42
1.35872034e-39
1.2675548e-39
2.13349664e-37
2.0097868e-37
3.17768109e-35
3.02120093e-35
4.47198665e-33
4.28903835e-33
5.91973178e-31
5.72424251e-31
7.33177618e-29
7.14387124e-29
8.44261628e-27
8.28402369e-27
8.96996412e-25
8.85702267e-25
8.71121309e-23
8.64738303e-23
7.64252924e-21
7.61180132e-21
5.96633703e-19
5.9368227e-19
4.06250695e-17
3.9658835e-17
2.34711521e-15
2.30123016e-15
1.10393407e-13
1.10178675e-13
3.96029149e-12
3.94904073e-12
2.51481937e-09
2.56516796e-09
0.66197424
2.00723203
10.2434872
9.91068185
3.48661088
2.82448922
0.375657232
0.330388744
0.0596110006
0.0553752683
0.00819513202
0.00800169472
0.00102390789
0.00102424066
0.000123928416
0.000123984263
2.00162576e-05
2.00222798e-05
9.11626048e-06
9.1219438e-06
8.07280829e-06
8.07357436e-06
7.98036307e-06
7.9803551e-06
7.972624e-06
7.97263136e-06
7.9720287e-06
7.97203192e-06
7.9719654e-06
7.9719887e-06
7.97197641e-06
7.97198642e-06
7.9719625e-06
7.97199985e-06
7.97196085e-06
7.97197886e-06
7.97197576e-06
7.97196348e-06
7.97198004e-06
7.97196841e-06
7.97197771e-06
7.97196744e-06
7.97198469e-06
7.97197299e-06
7.97198042e-06
7.97197327e-06
7.97198852e-06
7.97197153e-06
7.97197646e-06
7.97197035e-06
7.97198085e-06
7.97196687e-06
7.97198855e-06
7.97196656e-06
7.97198207e-06
7.97198231e-06
7.9719778e-06
7.97197923e-06
7.97197315e-06
7.9719769e-06
7.97196975e-06
7.9719821e-06
7.97197388e-06
7.97197762e-06
7.97198324e-06
7.9719693e-06
7.97197972e-06
7.97197421e-06
7.97197261e-06
7.97196463e-06
7.97197385e-06
7.97196891e-06
7.97196783e-06
7.97198123e-06
7.97196512e-06
7.97199079e-06
7.97197049e-06
7.97199014e-06
7.97197705e-06
7.97198433e-06
7.9719734e-06
7.97198734e-06
7.97196653e-06
7.97198589e-06
7.97197362e-06
7.97197967e-06
7.97197914e-06
7.97196982e-06
7.97197803e-06
7.97196753e-06
7.9719866e-06
7.9719773e-06
7.97197976e-06
7.97197527e-06
7.97198905e-06
7.97197921e-06
7.97197282e-06
7.97198039e-06
7.971984e-06
7.97198116e-06
7.97198093e-06
7.97197807e-06
7.9719839e-06
7.9719909e-06
7.97197329e-06
7.9719754e-06
7.97198047e-06
7.97198385e-06
7.97197392e-06
7.97198475e-06
7.97197081e-06
7.97196904e-06
7.97197525e-06
7.97197963e-06
7.9719725e-06
7.97197898e-06
7.97197932e-06
7.97198267e-06
7.97197466e-06
7.97198283e-06
7.97197423e-06
7.97198223e-06
7.97197102e-06
7.97199078e-06
7.97197018e-06
7.9719817e-06
7.97197023e-06
7.97198796e-06
7.97197227e-06
7.97199145e-06
7.97197442e-06
7.9719806e-06
7.97198754e-06
7.97198953e-06
7.9719926e-06
7.97197694e-06
7.97199724e-06
7.97197585e-06
7.97198874e-06
7.9719692e-06
7.97198093e-06
7.97197395e-06
7.97197621e-06
7.97197541e-06
7.97197861e-06
7.97197604e-06
7.97197836e-06
7.97197555e-06
7.97198361e-06
7.97197718e-06
7.97198971e-06
7.97196094e-06
7.97199516e-06
7.97197418e-06
7.97198545e-06
7.97198225e-06
7.97198576e-06
7.97197628e-06
7.97198925e-06
7.97198947e-06
7.97199249e-06
7.97197446e-06
7.97199251e-06
7.9719772e-06
7.97199519e-06
7.97198544e-06
7.97198396e-06
7.97198048e-06
7.97198214e-06
7.97197593e-06
7.97198551e-06
7.97197168e-06
7.97197928e-06
7.97197861e-06
7.97198652e-06
7.97198079e-06
7.97198665e-06
7.97198661e-06
7.97198002e-06
7.97199905e-06
7.97198916e-06
7.97199711e-06
7.9719925e-06
7.97199162e-06
7.97198841e-06
7.97198504e-06
7.9719834e-06
7.97198368e-06
7.97198297e-06
7.97198977e-06
7.97198563e-06
7.97197886e-06
7.97199287e-06
7.97198701e-06
7.97199211e-06
7.97198549e-06
7.97198539e-06
7.97198048e-06
7.97199118e-06
7.97197316e-06
7.9719953e-06
7.97198135e-06
7.97199006e-06
7.97197923e-06
7.97198617e-06
7.97198616e-06
7.9719862e-06
7.97198594e-06
7.97199593e-06
7.9719869e-06
7.97199245e-06
7.97198261e-06
7.97199842e-06
7.97199114e-06
7.97198304e-06
7.97199092e-06
7.97198298e-06
7.97198965e-06
7.97198634e-06
7.97199663e-06
7.97198475e-06
7.97199415e-06
7.97197663e-06
7.97198868e-06
7.97198338e-06
7.97197996e-06
7.97198913e-06
7.97199199e-06
7.97198928e-06
7.97199602e-06
7.97198806e-06
7.97198998e-06
7.97198737e-06
7.97199865e-06
7.97198947e-06
7.97198829e-06
7.97199495e-06
7.9719956e-06
7.97199512e-06
7.97199776e-06
7.97198963e-06
7.97200452e-06
7.97199007e-06
7.97199074e-06
7.97198795e-06
7.97200062e-06
7.97198414e-06
7.9719927e-06
7.97198143e-06
7.97198827e-06
7.97198875e-06
7.97199244e-06
7.97199379e-06
7.97198869e-06
7.97198501e-06
7.97199507e-06
7.97198504e-06
7.97200074e-06
7.97199459e-06
7.97198378e-06
7.97199896e-06
7.97199302e-06
7.97199408e-06
7.97198962e-06
7.97200711e-06
7.97198402e-06
7.97199304e-06
7.97198289e-06
7.97199602e-06
7.97197555e-06
7.97200393e-06
7.97198396e-06
7.97198796e-06
7.97199881e-06
7.97198437e-06
7.97200551e-06
7.97198742e-06
7.97199687e-06
7.97199132e-06
7.97198944e-06
7.97199771e-06
7.97198692e-06
7.97199258e-06
7.97199349e-06
7.97199066e-06
7.97198202e-06
7.97199113e-06
7.97198437e-06
7.97198738e-06
7.97199853e-06
7.97198761e-06
7.9719923e-06
7.97199242e-06
7.97199354e-06
7.97199191e-06
7.97198504e-06
7.9719858e-06
7.97199759e-06
7.97200022e-06
7.97199496e-06
7.97199295e-06
7.97199223e-06
7.97199258e-06
7.97199867e-06
7.97198765e-06
7.97200155e-06
7.97199327e-06
7.97199308e-06
7.97199845e-06
7.97200153e-06
7.97199965e-06
7.97199609e-06
7.97199171e-06
7.97199598e-06
7.97199013e-06
7.97199545e-06
7.97200322e-06
7.97198094e-06
7.97201271e-06
7.9719868e-06
7.97200568e-06
7.97199136e-06
7.97199964e-06
7.97199515e-06
7.97199469e-06
7.97199446e-06
7.97199699e-06
7.97199624e-06
7.97199599e-06
7.97199955e-06
7.97199623e-06
7.97199472e-06
7.9719959e-06
7.9719935e-06
7.97199191e-06
7.97199228e-06
7.97200582e-06
7.97199466e-06
7.97198713e-06
7.9720037e-06
7.97198904e-06
7.97199825e-06
7.97199369e-06
7.97200028e-06
7.97199571e-06
7.97200382e-06
7.97199238e-06
7.97199657e-06
7.97200011e-06
7.97199489e-06
7.97199911e-06
7.97200481e-06
7.97199126e-06
7.9719948e-06
7.97200305e-06
7.97198656e-06
7.97201006e-06
7.9719923e-06
7.97199492e-06
7.97199758e-06
7.97200267e-06
7.97199188e-06
7.97200759e-06
7.97199464e-06
7.97199473e-06
7.97200698e-06
7.97199585e-06
7.97200944e-06
7.97200001e-06
7.97201234e-06
7.97200038e-06
7.97200755e-06
7.97199923e-06
7.9720065e-06
7.97199614e-06
7.97200243e-06
7.97199277e-06
7.97200502e-06
7.97200057e-06
7.97199929e-06
7.97200315e-06
7.97200522e-06
7.97200308e-06
7.97199987e-06
7.97200122e-06
7.97198908e-06
7.97200088e-06
7.97199865e-06
7.97199536e-06
7.97200504e-06
7.97199791e-06
7.97200059e-06
7.97199959e-06
7.97199988e-06
7.9720059e-06
7.97200282e-06
7.97201004e-06
7.97200573e-06
7.97200182e-06
7.97199937e-06
7.97199948e-06
7.97200584e-06
7.97199562e-06
7.97201308e-06
7.97199422e-06
7.97200964e-06
7.97199479e-06
7.9720128e-06
7.97200425e-06
7.97200812e-06
7.97200285e-06
7.97200754e-06
7.97200402e-06
7.9720052e-06
7.97200828e-06
7.97200404e-06
7.97200855e-06
7.9720028e-06
7.97200785e-06
7.97200368e-06
7.97200306e-06
7.9720142e-06
7.97199818e-06
7.97200972e-06
7.97200962e-06
7.97200487e-06
7.97201073e-06
7.97201018e-06
7.97200436e-06
7.97201444e-06
7.97200311e-06
7.97200847e-06
7.97200997e-06
7.97201352e-06
7.97201368e-06
7.97201013e-06
7.97200834e-06
7.97202222e-06
7.97200489e-06
7.97201956e-06
7.97200439e-06
7.97201324e-06
7.97200107e-06
7.9720124e-06
7.97201733e-06
7.97200273e-06
7.97200948e-06
7.97201821e-06
7.97201514e-06
7.97200377e-06
7.97201095e-06
7.97200607e-06
7.97201322e-06
7.97200504e-06
7.9720127e-06
7.9720203e-06
7.97200183e-06
7.97201032e-06
7.97200669e-06
7.97200798e-06
7.97200798e-06
7.97201742e-06
7.97200199e-06
7.97201617e-06
7.97200682e-06
7.97202105e-06
7.97201573e-06
7.97200915e-06
7.97201148e-06
7.97201113e-06
7.9720244e-06
7.97200764e-06
7.97200561e-06
7.97202479e-06
7.97199132e-06
7.97203272e-06
7.97199833e-06
7.97201679e-06
7.97200424e-06
7.97201685e-06
7.97200579e-06
7.97201521e-06
7.97200882e-06
7.97201124e-06
7.97200801e-06
7.97201288e-06
7.97201883e-06
7.97200728e-06
7.97201721e-06
7.97200693e-06
7.97202351e-06
7.9720166e-06
7.97201495e-06
7.9720126e-06
7.97203077e-06
7.97200314e-06
7.9720202e-06
7.97200414e-06
7.97202887e-06
7.9719984e-06
7.97202507e-06
7.9720085e-06
7.97202762e-06
7.97201e-06
7.97201791e-06
7.97201784e-06
7.97201426e-06
7.97202297e-06
7.97201729e-06
7.97201543e-06
7.97201788e-06
7.97201706e-06
7.97202002e-06
7.97202087e-06
7.97202125e-06
7.97202088e-06
7.97201729e-06
7.97202072e-06
7.97201968e-06
7.97201791e-06
7.97202235e-06
7.97202203e-06
7.97202243e-06
7.9720223e-06
7.97202241e-06
7.97202246e-06
7.97202371e-06
7.97202429e-06
7.97202427e-06
7.97202513e-06
7.9720251e-06
7.97202619e-06
7.97202671e-06
7.97202661e-06
7.97202749e-06
7.97202788e-06
7.97202742e-06
7.97202783e-06
7.97202831e-06
7.97202868e-06
7.97202864e-06
7.97202858e-06
7.97202899e-06
7.97202876e-06
7.97202878e-06
7.97202894e-06
7.97202894e-06
7.97202858e-06
7.97202901e-06
7.97202875e-06
7.97202885e-06
7.97202885e-06
7.97202887e-06
7.97202887e-06
7.97202905e-06
7.9720289e-06
7.97202886e-06
7.97202875e-06
7.97202863e-06
7.97202897e-06
7.97202878e-06
7.97202886e-06
7.9720289e-06
7.9720288e-06
7.97202897e-06
7.97202889e-06
7.97202888e-06
7.97202901e-06
7.9720288e-06
7.97202896e-06
7.97202873e-06
7.972029e-06
7.97202891e-06
7.97202882e-06
7.97202895e-06
7.97202873e-06
7.97202871e-06
7.97202906e-06
)
;

boundaryField
{
    closed
    {
        type            calculated;
        value           uniform 0;
    }
    open
    {
        type            calculated;
        value           uniform 0;
    }
    sides
    {
        type            empty;
    }
}


// ************************************************************************* //
