/*--------------------------------*- C++ -*----------------------------------*\
| =========                 |                                                 |
| \\      /  F ield         | OpenFOAM: The Open Source CFD Toolbox           |
|  \\    /   O peration     | Version:  2206                                  |
|   \\  /    A nd           | Website:  www.openfoam.com                      |
|    \\/     M anipulation  |                                                 |
\*---------------------------------------------------------------------------*/
FoamFile
{
    version     2.0;
    format      ascii;
    arch        "LSB;label=32;scalar=64";
    class       volVectorField;
    location    "8.8e-06";
    object      U;
}
// * * * * * * * * * * * * * * * * * * * * * * * * * * * * * * * * * * * * * //

dimensions      [0 1 -1 0 0 0 0];

internalField   nonuniform List<vector> 
3183
(
(2.29452027e-13 0 0)
(-3.24328114e-14 0 0)
(-1.36517565e-13 0 0)
(-8.77904159e-14 0 0)
(-9.23751127e-14 0 0)
(-3.34673061e-18 0 0)
(-2.64424882e-19 0 0)
(-1.45853185e-23 0 0)
(6.82419145e-24 0 0)
(9.24909152e-20 0 0)
(3.02489741e-18 0 0)
(6.90013515e-14 0 0)
(3.62882818e-13 0 0)
(1.12893564e-13 0 0)
(-3.49097988e-14 0 0)
(3.53476277e-17 0 0)
(-3.87693642e-14 0 0)
(-2.80973801e-13 0 0)
(-6.85255454e-13 0 0)
(4.45135785e-15 0 0)
(3.60358076e-13 0 0)
(8.29830298e-17 0 0)
(1.72062725e-17 0 0)
(1.16096628e-13 0 0)
(2.44289895e-13 0 0)
(3.48880874e-13 0 0)
(4.44097848e-13 0 0)
(3.59026386e-13 0 0)
(-7.09504695e-14 0 0)
(1.49868929e-13 0 0)
(-2.60288313e-13 0 0)
(-4.07214039e-13 0 0)
(-5.94602059e-13 0 0)
(-4.7807317e-13 0 0)
(-3.09768146e-13 0 0)
(-5.13727025e-14 0 0)
(-1.39147099e-13 0 0)
(-2.47699053e-13 0 0)
(-5.99473155e-14 0 0)
(-8.7698887e-14 0 0)
(-2.88601462e-13 0 0)
(-3.1701784e-13 0 0)
(-1.57783379e-14 0 0)
(-4.1265081e-13 0 0)
(-2.2595646e-13 0 0)
(-1.18564226e-13 0 0)
(-2.32922546e-13 0 0)
(-1.87716868e-13 0 0)
(-2.55845583e-13 0 0)
(-1.03637541e-13 0 0)
(2.1558916e-14 0 0)
(3.67771568e-13 0 0)
(1.95217214e-13 0 0)
(4.34546412e-13 0 0)
(8.26249357e-13 0 0)
(5.12697837e-13 0 0)
(8.29604773e-13 0 0)
(9.3701953e-13 0 0)
(8.87671892e-13 0 0)
(1.07068014e-12 0 0)
(1.27654205e-12 0 0)
(1.26456287e-12 0 0)
(1.52894553e-12 0 0)
(1.44865502e-12 0 0)
(1.96311447e-12 0 0)
(2.39040972e-12 0 0)
(2.27756867e-12 0 0)
(2.65634476e-12 0 0)
(3.03996298e-12 0 0)
(2.27679959e-12 0 0)
(2.77544347e-12 0 0)
(2.72585276e-12 0 0)
(2.64072998e-12 0 0)
(2.44462988e-12 0 0)
(2.44455255e-12 0 0)
(1.82991769e-12 0 0)
(1.92526802e-12 0 0)
(2.20603324e-12 0 0)
(2.00625645e-12 0 0)
(1.62839869e-12 0 0)
(1.72590566e-12 0 0)
(1.45183365e-12 0 0)
(1.76797325e-12 0 0)
(7.97670547e-13 0 0)
(1.16729294e-12 0 0)
(1.02781711e-12 0 0)
(9.37817863e-13 0 0)
(7.65009455e-13 0 0)
(1.36240692e-12 0 0)
(1.37047191e-12 0 0)
(6.73778497e-14 0 0)
(9.06216222e-14 0 0)
(6.77116886e-13 0 0)
(-1.40752446e-13 0 0)
(-1.34897907e-13 0 0)
(5.33291589e-13 0 0)
(-1.54324368e-12 0 0)
(-1.01312839e-13 0 0)
(-7.18848133e-13 0 0)
(-3.32735692e-13 0 0)
(7.8124839e-13 0 0)
(-2.29924145e-13 0 0)
(4.31271188e-13 0 0)
(-4.07255651e-13 0 0)
(-5.17723245e-13 0 0)
(-4.43100055e-13 0 0)
(-4.46904759e-13 0 0)
(-8.59598967e-13 0 0)
(-1.96275078e-12 0 0)
(-8.43678304e-13 0 0)
(2.11039121e-13 0 0)
(-1.24203858e-12 0 0)
(-5.03359153e-13 0 0)
(-2.38022374e-12 0 0)
(-2.14626165e-12 0 0)
(-3.08797778e-13 0 0)
(-2.40500047e-12 0 0)
(-1.37192968e-12 0 0)
(-1.75668964e-12 0 0)
(-1.81895083e-12 0 0)
(-1.55497821e-12 0 0)
(-1.15968173e-12 0 0)
(-2.01081615e-12 0 0)
(-2.28553443e-12 0 0)
(-2.6760672e-12 0 0)
(-2.8988285e-12 0 0)
(-1.88021188e-12 0 0)
(-3.107501e-12 0 0)
(-1.08605776e-12 0 0)
(-2.48554804e-12 0 0)
(-2.01446439e-12 0 0)
(-1.88122237e-12 0 0)
(-2.50937263e-12 0 0)
(-2.9035055e-12 0 0)
(-1.32091425e-12 0 0)
(-2.67848512e-12 0 0)
(-2.92148155e-12 0 0)
(-2.83551228e-12 0 0)
(-2.56716147e-12 0 0)
(-3.04211315e-12 0 0)
(-2.4352995e-12 0 0)
(-3.27477008e-12 0 0)
(-2.96757939e-12 0 0)
(-3.56658101e-12 0 0)
(-2.38149647e-12 0 0)
(-3.53795421e-12 0 0)
(-3.59200237e-12 0 0)
(-4.23457299e-12 0 0)
(-3.52844892e-12 0 0)
(-3.11095228e-12 0 0)
(-4.00863238e-12 0 0)
(-2.87429978e-12 0 0)
(-2.60780085e-12 0 0)
(-3.21308188e-12 0 0)
(-3.95824014e-12 0 0)
(-3.49206848e-12 0 0)
(-3.32834145e-12 0 0)
(-3.62018526e-12 0 0)
(-4.04291013e-12 0 0)
(-5.17890481e-12 0 0)
(-4.51104953e-12 0 0)
(-4.65963731e-12 0 0)
(-4.03225683e-12 0 0)
(-3.44433325e-12 0 0)
(-4.36949822e-12 0 0)
(-4.18025888e-12 0 0)
(-4.3493853e-12 0 0)
(-3.97644523e-12 0 0)
(-4.00972744e-12 0 0)
(-5.10129839e-12 0 0)
(-4.90309289e-12 0 0)
(-4.42510607e-12 0 0)
(-5.8749455e-12 0 0)
(-5.24422823e-12 0 0)
(-5.07758525e-12 0 0)
(-5.37229686e-12 0 0)
(-4.80809824e-12 0 0)
(-5.14625142e-12 0 0)
(-3.79698612e-12 0 0)
(-5.44991603e-12 0 0)
(-4.38109236e-12 0 0)
(-5.93353291e-12 0 0)
(-4.80806643e-12 0 0)
(-5.68459614e-12 0 0)
(-7.65244641e-12 0 0)
(-7.20466918e-12 0 0)
(-6.13243296e-12 0 0)
(-6.32787381e-12 0 0)
(-5.59781785e-12 0 0)
(-5.25807651e-12 0 0)
(-6.44231692e-12 0 0)
(-6.10208167e-12 0 0)
(-7.04828004e-12 0 0)
(-6.62391212e-12 0 0)
(-8.0662235e-12 0 0)
(-7.08381214e-12 0 0)
(-7.18062217e-12 0 0)
(-7.13963483e-12 0 0)
(-6.93479755e-12 0 0)
(-8.4755078e-12 0 0)
(-6.96159025e-12 0 0)
(-7.90551815e-12 0 0)
(-6.46820499e-12 0 0)
(-7.49263393e-12 0 0)
(-8.34026426e-12 0 0)
(-7.18683236e-12 0 0)
(-8.00991665e-12 0 0)
(-6.90585611e-12 0 0)
(-8.02952766e-12 0 0)
(-6.4907164e-12 0 0)
(-8.04555063e-12 0 0)
(-8.09220432e-12 0 0)
(-6.40759087e-12 0 0)
(-8.95953397e-12 0 0)
(-7.39624482e-12 0 0)
(-7.52130132e-12 0 0)
(-7.75827292e-12 0 0)
(-8.65534074e-12 0 0)
(-6.83413515e-12 0 0)
(-7.5727503e-12 0 0)
(-7.98381483e-12 0 0)
(-9.51328253e-12 0 0)
(-9.86266188e-12 0 0)
(-7.48356098e-12 0 0)
(-8.5139115e-12 0 0)
(-8.71713781e-12 0 0)
(-9.45117104e-12 0 0)
(-8.50114063e-12 0 0)
(-9.05290832e-12 0 0)
(-8.42798351e-12 0 0)
(-8.71761926e-12 0 0)
(-9.16802176e-12 0 0)
(-8.58031874e-12 0 0)
(-8.51016748e-12 0 0)
(-8.46259307e-12 0 0)
(-8.26420025e-12 0 0)
(-9.11105574e-12 0 0)
(-9.46635854e-12 0 0)
(-9.07593754e-12 0 0)
(-9.09360192e-12 0 0)
(-9.4982219e-12 0 0)
(-9.05687814e-12 0 0)
(-8.28252317e-12 0 0)
(-7.98220302e-12 0 0)
(-9.11045862e-12 0 0)
(-9.43376541e-12 0 0)
(-9.0218299e-12 0 0)
(-8.73287109e-12 0 0)
(-9.72540158e-12 0 0)
(-9.36329915e-12 0 0)
(-8.44004632e-12 0 0)
(-9.71149983e-12 0 0)
(-9.86938216e-12 0 0)
(-1.04052719e-11 0 0)
(-1.04755582e-11 0 0)
(-1.01166098e-11 0 0)
(-1.00546175e-11 0 0)
(-1.00337995e-11 0 0)
(-9.37428671e-12 0 0)
(-9.57770071e-12 0 0)
(-9.72811299e-12 0 0)
(-9.47113985e-12 0 0)
(-1.0209602e-11 0 0)
(-8.65937111e-12 0 0)
(-9.66443326e-12 0 0)
(-8.78287694e-12 0 0)
(-9.88034566e-12 0 0)
(-9.78615407e-12 0 0)
(-1.00542761e-11 0 0)
(-8.97565774e-12 0 0)
(-9.09050758e-12 0 0)
(-9.90602745e-12 0 0)
(-9.70759052e-12 0 0)
(-9.53609344e-12 0 0)
(-1.02881821e-11 0 0)
(-9.87116184e-12 0 0)
(-1.08748049e-11 0 0)
(-1.13770488e-11 0 0)
(-1.07800582e-11 0 0)
(-1.01439601e-11 0 0)
(-1.07959836e-11 0 0)
(-1.12674829e-11 0 0)
(-1.11113036e-11 0 0)
(-1.13975456e-11 0 0)
(-1.10651655e-11 0 0)
(-1.20332578e-11 0 0)
(-1.13529902e-11 0 0)
(-1.24864284e-11 0 0)
(-1.27726345e-11 0 0)
(-1.25146089e-11 0 0)
(-1.13891944e-11 0 0)
(-1.20866468e-11 0 0)
(-1.11429392e-11 0 0)
(-1.2477784e-11 0 0)
(-1.08241395e-11 0 0)
(-1.11448843e-11 0 0)
(-1.15487763e-11 0 0)
(-1.16281652e-11 0 0)
(-1.12067603e-11 0 0)
(-1.28638265e-11 0 0)
(-1.29077732e-11 0 0)
(-1.29445242e-11 0 0)
(-1.16591684e-11 0 0)
(-1.2793992e-11 0 0)
(-1.41362438e-11 0 0)
(-1.32285224e-11 0 0)
(-1.19831631e-11 0 0)
(-1.3135022e-11 0 0)
(-1.45067015e-11 0 0)
(-1.25393544e-11 0 0)
(-1.42312773e-11 0 0)
(-1.38536696e-11 0 0)
(-1.27479791e-11 0 0)
(-1.34832163e-11 0 0)
(-1.40212337e-11 0 0)
(-1.37082889e-11 0 0)
(-1.53733605e-11 0 0)
(-1.48442799e-11 0 0)
(-1.29356499e-11 0 0)
(-1.49898387e-11 0 0)
(-1.42001657e-11 0 0)
(-1.40400716e-11 0 0)
(-1.3438212e-11 0 0)
(-1.31592557e-11 0 0)
(-1.43696207e-11 0 0)
(-1.26185122e-11 0 0)
(-1.2871715e-11 0 0)
(-1.28763547e-11 0 0)
(-1.27634641e-11 0 0)
(-1.2756438e-11 0 0)
(-1.18601793e-11 0 0)
(-1.2706768e-11 0 0)
(-1.25141351e-11 0 0)
(-1.18584707e-11 0 0)
(-1.14686204e-11 0 0)
(-1.22574138e-11 0 0)
(-1.24441095e-11 0 0)
(-1.39101568e-11 0 0)
(-1.26743293e-11 0 0)
(-1.22922034e-11 0 0)
(-1.30222843e-11 0 0)
(-1.34120916e-11 0 0)
(-1.2761891e-11 0 0)
(-1.22205802e-11 0 0)
(-1.26756125e-11 0 0)
(-1.29479573e-11 0 0)
(-1.40200783e-11 0 0)
(-1.14698768e-11 0 0)
(-1.31592284e-11 0 0)
(-1.36466128e-11 0 0)
(-1.35594049e-11 0 0)
(-1.34056438e-11 0 0)
(-1.39864596e-11 0 0)
(-1.36076125e-11 0 0)
(-1.22416207e-11 0 0)
(-1.22024803e-11 0 0)
(-1.37720882e-11 0 0)
(-1.19018316e-11 0 0)
(-1.28263343e-11 0 0)
(-1.26903532e-11 0 0)
(-1.2574494e-11 0 0)
(-1.23549396e-11 0 0)
(-1.34521471e-11 0 0)
(-1.26566057e-11 0 0)
(-1.24822806e-11 0 0)
(-1.40578338e-11 0 0)
(-1.30160873e-11 0 0)
(-1.41574627e-11 0 0)
(-1.25283127e-11 0 0)
(-1.29229817e-11 0 0)
(-1.21550164e-11 0 0)
(-1.36512188e-11 0 0)
(-1.19555974e-11 0 0)
(-1.24454755e-11 0 0)
(-1.19225635e-11 0 0)
(-1.34087477e-11 0 0)
(-1.26063322e-11 0 0)
(-1.10163039e-11 0 0)
(-1.17078161e-11 0 0)
(-1.17694469e-11 0 0)
(-1.14993942e-11 0 0)
(-1.11050679e-11 0 0)
(-1.07439239e-11 0 0)
(-1.06715492e-11 0 0)
(-1.06591011e-11 0 0)
(-1.18080853e-11 0 0)
(-1.10473307e-11 0 0)
(-1.05334357e-11 0 0)
(-1.08445835e-11 0 0)
(-1.01535155e-11 0 0)
(-1.03209703e-11 0 0)
(-1.00117496e-11 0 0)
(-9.88471061e-12 0 0)
(-8.51814697e-12 0 0)
(-9.53539886e-12 0 0)
(-8.96273926e-12 0 0)
(-9.69170646e-12 0 0)
(-9.65855726e-12 0 0)
(-9.63975947e-12 0 0)
(-9.45633284e-12 0 0)
(-8.89637403e-12 0 0)
(-9.76898755e-12 0 0)
(-8.59859421e-12 0 0)
(-9.50442791e-12 0 0)
(-7.99060748e-12 0 0)
(-7.45012079e-12 0 0)
(-7.61848155e-12 0 0)
(-9.45901908e-12 0 0)
(-8.64357704e-12 0 0)
(-8.30482698e-12 0 0)
(-7.7710597e-12 0 0)
(-7.49806028e-12 0 0)
(-7.6456314e-12 0 0)
(-8.25971927e-12 0 0)
(-7.92532766e-12 0 0)
(-7.4302089e-12 0 0)
(-7.40390422e-12 0 0)
(-7.53025977e-12 0 0)
(-8.42506896e-12 0 0)
(-7.85371861e-12 0 0)
(-6.46467373e-12 0 0)
(-7.20562011e-12 0 0)
(-7.34885262e-12 0 0)
(-7.17494147e-12 0 0)
(-9.03648949e-12 0 0)
(-7.85312703e-12 0 0)
(-7.14098974e-12 0 0)
(-7.71599048e-12 0 0)
(-7.9066973e-12 0 0)
(-6.47153045e-12 0 0)
(-6.31634785e-12 0 0)
(-8.5469633e-12 0 0)
(-7.60809748e-12 0 0)
(-7.45678804e-12 0 0)
(-6.6704373e-12 0 0)
(-7.07527936e-12 0 0)
(-7.45294464e-12 0 0)
(-6.47944746e-12 0 0)
(-5.77102495e-12 0 0)
(-7.09228061e-12 0 0)
(-5.45600587e-12 0 0)
(-7.38205198e-12 0 0)
(-6.57407808e-12 0 0)
(-6.11135564e-12 0 0)
(-6.0987108e-12 0 0)
(-7.38836759e-12 0 0)
(-7.05479762e-12 0 0)
(-6.86371792e-12 0 0)
(-6.80100131e-12 0 0)
(-5.05881002e-12 0 0)
(-6.27135371e-12 0 0)
(-5.26989095e-12 0 0)
(-5.2244883e-12 0 0)
(-6.01725631e-12 0 0)
(-5.86299367e-12 0 0)
(-4.03784492e-12 0 0)
(-4.8756634e-12 0 0)
(-5.74842057e-12 0 0)
(-5.30160581e-12 0 0)
(-5.04643764e-12 0 0)
(-5.19512776e-12 0 0)
(-4.96880629e-12 0 0)
(-4.99140533e-12 0 0)
(-4.37282963e-12 0 0)
(-6.27173982e-12 0 0)
(-5.0883453e-12 0 0)
(-4.40034305e-12 0 0)
(-4.84219475e-12 0 0)
(-4.58251925e-12 0 0)
(-5.37490901e-12 0 0)
(-3.95140626e-12 0 0)
(-4.19900336e-12 0 0)
(-4.11202045e-12 0 0)
(-5.3973772e-12 0 0)
(-3.58368511e-12 0 0)
(-4.12522245e-12 0 0)
(-4.78302238e-12 0 0)
(-4.71144025e-12 0 0)
(-4.4680138e-12 0 0)
(-4.68690481e-12 0 0)
(-3.97981803e-12 0 0)
(-4.48897128e-12 0 0)
(-3.75236485e-12 0 0)
(-3.59678757e-12 0 0)
(-3.85307901e-12 0 0)
(-4.04330851e-12 0 0)
(-3.79145795e-12 0 0)
(-4.70492467e-12 0 0)
(-3.56003656e-12 0 0)
(-3.42536512e-12 0 0)
(-3.80360814e-12 0 0)
(-2.85654676e-12 0 0)
(-4.22932519e-12 0 0)
(-2.32093581e-12 0 0)
(-2.93844194e-12 0 0)
(-3.807295e-12 0 0)
(-2.48626707e-12 0 0)
(-3.3971072e-12 0 0)
(-2.45602392e-12 0 0)
(-3.00347473e-12 0 0)
(-2.75876648e-12 0 0)
(-3.08351512e-12 0 0)
(-2.30389051e-12 0 0)
(-2.27432688e-12 0 0)
(-2.46061144e-12 0 0)
(-2.55481129e-12 0 0)
(-2.30596052e-12 0 0)
(-2.43895065e-12 0 0)
(-1.33609515e-12 0 0)
(-2.17031887e-12 0 0)
(-6.76538728e-13 0 0)
(-1.8973183e-12 0 0)
(-1.51760243e-12 0 0)
(-1.36722534e-12 0 0)
(-1.40352115e-12 0 0)
(-1.22689568e-12 0 0)
(-1.41305711e-12 0 0)
(-1.06224839e-12 0 0)
(-2.36896953e-12 0 0)
(-8.31692762e-13 0 0)
(-2.51199239e-12 0 0)
(-1.39313719e-12 0 0)
(-1.85897202e-12 0 0)
(-1.99514455e-12 0 0)
(-1.76402652e-12 0 0)
(-8.69736862e-13 0 0)
(-1.94670306e-12 0 0)
(-4.99046289e-13 0 0)
(-1.43246839e-12 0 0)
(-2.41699512e-12 0 0)
(-1.84997787e-12 0 0)
(-1.27835428e-12 0 0)
(-1.27436964e-12 0 0)
(-9.73042734e-13 0 0)
(-3.05689088e-13 0 0)
(-1.04202112e-12 0 0)
(-4.09771349e-13 0 0)
(-7.21129583e-13 0 0)
(-9.06705343e-13 0 0)
(-1.49653528e-12 0 0)
(-2.32664412e-13 0 0)
(-1.03012917e-12 0 0)
(-8.69191431e-13 0 0)
(-2.85414013e-13 0 0)
(-1.79382887e-13 0 0)
(-2.28271077e-13 0 0)
(-1.09825036e-12 0 0)
(5.33570332e-13 0 0)
(3.20848029e-13 0 0)
(-1.45132278e-14 0 0)
(1.2836489e-13 0 0)
(1.07369586e-12 0 0)
(1.40587451e-12 0 0)
(3.05308754e-13 0 0)
(1.02706622e-12 0 0)
(2.26866878e-12 0 0)
(1.8521679e-12 0 0)
(1.78598137e-12 0 0)
(2.39260724e-12 0 0)
(1.21573809e-14 0 0)
(1.17422037e-12 0 0)
(1.24663238e-12 0 0)
(1.59802102e-12 0 0)
(1.71350243e-12 0 0)
(1.98170102e-13 0 0)
(1.38289527e-12 0 0)
(1.22357029e-12 0 0)
(1.35829462e-12 0 0)
(1.69267159e-12 0 0)
(1.10314652e-12 0 0)
(1.69976863e-12 0 0)
(1.1004291e-12 0 0)
(1.5937982e-12 0 0)
(2.80969534e-12 0 0)
(1.84082314e-12 0 0)
(1.33326086e-12 0 0)
(9.61933155e-13 0 0)
(2.27534117e-12 0 0)
(1.37603625e-12 0 0)
(3.13397562e-12 0 0)
(1.54645273e-12 0 0)
(3.11385517e-12 0 0)
(3.2004625e-12 0 0)
(3.02000618e-12 0 0)
(3.35195734e-12 0 0)
(3.06193086e-12 0 0)
(4.39346436e-12 0 0)
(4.01472087e-12 0 0)
(3.18211414e-12 0 0)
(2.71520431e-12 0 0)
(3.02104851e-12 0 0)
(3.40016902e-12 0 0)
(3.26217578e-12 0 0)
(3.71459059e-12 0 0)
(3.91617578e-12 0 0)
(4.11111205e-12 0 0)
(3.53894423e-12 0 0)
(4.07487218e-12 0 0)
(4.63319955e-12 0 0)
(3.37349174e-12 0 0)
(3.86618707e-12 0 0)
(3.71515975e-12 0 0)
(4.17964993e-12 0 0)
(4.05491029e-12 0 0)
(4.2099894e-12 0 0)
(4.21504699e-12 0 0)
(4.58415598e-12 0 0)
(4.60852148e-12 0 0)
(3.74616217e-12 0 0)
(3.80580026e-12 0 0)
(4.35849174e-12 0 0)
(3.77146426e-12 0 0)
(4.13086295e-12 0 0)
(3.1948713e-12 0 0)
(3.53736012e-12 0 0)
(3.94431104e-12 0 0)
(3.48588587e-12 0 0)
(3.19118002e-12 0 0)
(3.70466377e-12 0 0)
(3.89757238e-12 0 0)
(4.29111157e-12 0 0)
(3.64071629e-12 0 0)
(4.00497808e-12 0 0)
(3.56916351e-12 0 0)
(4.7081838e-12 0 0)
(4.63183279e-12 0 0)
(3.2066413e-12 0 0)
(3.6626232e-12 0 0)
(4.35417967e-12 0 0)
(4.52473816e-12 0 0)
(5.09363227e-12 0 0)
(3.8277414e-12 0 0)
(4.91414541e-12 0 0)
(4.40950839e-12 0 0)
(4.29347709e-12 0 0)
(4.45908383e-12 0 0)
(4.17595952e-12 0 0)
(4.56860201e-12 0 0)
(3.43946262e-12 0 0)
(4.16490165e-12 0 0)
(2.9600813e-12 0 0)
(3.50251139e-12 0 0)
(4.45419697e-12 0 0)
(3.51949327e-12 0 0)
(4.13551154e-12 0 0)
(3.72014084e-12 0 0)
(3.83466778e-12 0 0)
(4.36321955e-12 0 0)
(4.18916635e-12 0 0)
(3.6812421e-12 0 0)
(4.53423191e-12 0 0)
(3.2382306e-12 0 0)
(3.55738888e-12 0 0)
(3.37202335e-12 0 0)
(3.13061244e-12 0 0)
(3.19648855e-12 0 0)
(3.45021591e-12 0 0)
(2.67624418e-12 0 0)
(2.89899724e-12 0 0)
(2.99039018e-12 0 0)
(3.22338665e-12 0 0)
(4.01761787e-12 0 0)
(4.41943287e-12 0 0)
(4.98740796e-12 0 0)
(3.57067276e-12 0 0)
(4.76176991e-12 0 0)
(4.4023906e-12 0 0)
(4.27971915e-12 0 0)
(4.75753957e-12 0 0)
(5.44523844e-12 0 0)
(5.38460889e-12 0 0)
(4.5946805e-12 0 0)
(5.27048576e-12 0 0)
(4.73481171e-12 0 0)
(4.60865137e-12 0 0)
(4.17954856e-12 0 0)
(3.97449474e-12 0 0)
(4.4391698e-12 0 0)
(4.33467756e-12 0 0)
(4.89352671e-12 0 0)
(3.90024243e-12 0 0)
(4.16621447e-12 0 0)
(4.50891229e-12 0 0)
(4.45525289e-12 0 0)
(4.90530975e-12 0 0)
(5.11316693e-12 0 0)
(5.11295457e-12 0 0)
(3.38627951e-12 0 0)
(5.86327887e-12 0 0)
(5.98734306e-12 0 0)
(5.01093652e-12 0 0)
(5.48992974e-12 0 0)
(5.72730918e-12 0 0)
(5.82980559e-12 0 0)
(5.24000194e-12 0 0)
(5.78404488e-12 0 0)
(5.74226273e-12 0 0)
(6.06324638e-12 0 0)
(5.53243001e-12 0 0)
(6.4103726e-12 0 0)
(5.62316778e-12 0 0)
(5.36340322e-12 0 0)
(5.38079553e-12 0 0)
(5.84254587e-12 0 0)
(5.47824828e-12 0 0)
(4.88111196e-12 0 0)
(5.07888143e-12 0 0)
(5.02105656e-12 0 0)
(5.63016176e-12 0 0)
(4.98365266e-12 0 0)
(4.66258494e-12 0 0)
(4.86706784e-12 0 0)
(4.68035787e-12 0 0)
(5.49308261e-12 0 0)
(4.75819139e-12 0 0)
(4.7174215e-12 0 0)
(5.04151665e-12 0 0)
(4.58110826e-12 0 0)
(5.03455934e-12 0 0)
(4.47282527e-12 0 0)
(4.98358348e-12 0 0)
(4.61284318e-12 0 0)
(5.66599832e-12 0 0)
(4.5734334e-12 0 0)
(5.10095706e-12 0 0)
(4.5247144e-12 0 0)
(4.32079419e-12 0 0)
(4.90775192e-12 0 0)
(4.74562777e-12 0 0)
(4.65187969e-12 0 0)
(4.44382328e-12 0 0)
(4.66326956e-12 0 0)
(3.68816427e-12 0 0)
(4.60876059e-12 0 0)
(4.70644518e-12 0 0)
(5.34843769e-12 0 0)
(4.63108919e-12 0 0)
(4.59934651e-12 0 0)
(4.99108808e-12 0 0)
(4.30749716e-12 0 0)
(5.21265378e-12 0 0)
(3.86966957e-12 0 0)
(5.09429656e-12 0 0)
(5.22204983e-12 0 0)
(4.90529956e-12 0 0)
(4.64922332e-12 0 0)
(4.33999133e-12 0 0)
(4.5093315e-12 0 0)
(4.61212952e-12 0 0)
(4.36206021e-12 0 0)
(4.17841065e-12 0 0)
(4.50693704e-12 0 0)
(4.2304309e-12 0 0)
(3.75347913e-12 0 0)
(3.32192789e-12 0 0)
(3.42929984e-12 0 0)
(4.44950142e-12 0 0)
(3.67087512e-12 0 0)
(3.8164972e-12 0 0)
(2.83771847e-12 0 0)
(2.68822401e-12 0 0)
(3.13020658e-12 0 0)
(2.93150476e-12 0 0)
(2.82510563e-12 0 0)
(3.05360109e-12 0 0)
(2.44128306e-12 0 0)
(2.96819178e-12 0 0)
(2.83747608e-12 0 0)
(2.60200993e-12 0 0)
(2.54125047e-12 0 0)
(2.90423017e-12 0 0)
(3.185265e-12 0 0)
(2.58739332e-12 0 0)
(3.91761076e-12 0 0)
(3.77749352e-12 0 0)
(3.07847415e-12 0 0)
(3.73445432e-12 0 0)
(3.46078408e-12 0 0)
(3.92606207e-12 0 0)
(4.17069911e-12 0 0)
(4.53400384e-12 0 0)
(4.2130965e-12 0 0)
(4.2467804e-12 0 0)
(4.55579358e-12 0 0)
(3.68508498e-12 0 0)
(3.72771391e-12 0 0)
(3.11551337e-12 0 0)
(3.33011301e-12 0 0)
(3.99312653e-12 0 0)
(3.00141934e-12 0 0)
(3.9405709e-12 0 0)
(3.3159354e-12 0 0)
(3.89370379e-12 0 0)
(3.84529963e-12 0 0)
(3.12520776e-12 0 0)
(3.16616782e-12 0 0)
(4.39094371e-12 0 0)
(3.90263861e-12 0 0)
(4.33670746e-12 0 0)
(3.7313931e-12 0 0)
(4.06015531e-12 0 0)
(3.84349304e-12 0 0)
(3.32151287e-12 0 0)
(4.29206999e-12 0 0)
(3.6748307e-12 0 0)
(3.5721942e-12 0 0)
(4.3654152e-12 0 0)
(4.40408963e-12 0 0)
(4.41081368e-12 0 0)
(3.91504166e-12 0 0)
(4.69503053e-12 0 0)
(4.32097455e-12 0 0)
(4.07875223e-12 0 0)
(3.95230413e-12 0 0)
(4.39028564e-12 0 0)
(4.95570244e-12 0 0)
(4.51525992e-12 0 0)
(4.2459745e-12 0 0)
(4.80310972e-12 0 0)
(4.11440849e-12 0 0)
(4.64412049e-12 0 0)
(4.6693874e-12 0 0)
(5.09130265e-12 0 0)
(5.03561319e-12 0 0)
(4.31121105e-12 0 0)
(4.05871578e-12 0 0)
(3.55091604e-12 0 0)
(5.5003165e-12 0 0)
(4.50294442e-12 0 0)
(3.39839375e-12 0 0)
(3.46296829e-12 0 0)
(3.96114313e-12 0 0)
(3.57798404e-12 0 0)
(3.81182138e-12 0 0)
(4.15734778e-12 0 0)
(3.33348452e-12 0 0)
(3.57566585e-12 0 0)
(4.21334665e-12 0 0)
(3.58440505e-12 0 0)
(5.07536948e-12 0 0)
(3.99252389e-12 0 0)
(3.82506534e-12 0 0)
(4.09313671e-12 0 0)
(4.47708588e-12 0 0)
(3.38305351e-12 0 0)
(4.18875637e-12 0 0)
(5.34477566e-12 0 0)
(5.41296716e-12 0 0)
(3.5110886e-12 0 0)
(4.70821747e-12 0 0)
(5.25529499e-12 0 0)
(4.56801213e-12 0 0)
(4.2011907e-12 0 0)
(4.53428369e-12 0 0)
(4.83708497e-12 0 0)
(4.67668633e-12 0 0)
(4.28999536e-12 0 0)
(6.13639143e-12 0 0)
(4.69067583e-12 0 0)
(5.00659398e-12 0 0)
(5.64825639e-12 0 0)
(5.68252724e-12 0 0)
(6.09280593e-12 0 0)
(4.18447485e-12 0 0)
(5.01647893e-12 0 0)
(4.64506944e-12 0 0)
(6.07350293e-12 0 0)
(5.10998932e-12 0 0)
(4.80669436e-12 0 0)
(3.97412903e-12 0 0)
(5.24602837e-12 0 0)
(5.02862167e-12 0 0)
(4.97163428e-12 0 0)
(5.06988781e-12 0 0)
(4.77957451e-12 0 0)
(5.30019192e-12 0 0)
(4.73309232e-12 0 0)
(4.44638511e-12 0 0)
(4.99526826e-12 0 0)
(5.13020033e-12 0 0)
(4.84063105e-12 0 0)
(4.96214094e-12 0 0)
(4.6198917e-12 0 0)
(5.37071479e-12 0 0)
(5.22334081e-12 0 0)
(5.68766059e-12 0 0)
(6.21920073e-12 0 0)
(6.04776657e-12 0 0)
(7.17015949e-12 0 0)
(6.58374719e-12 0 0)
(6.79280409e-12 0 0)
(6.73303393e-12 0 0)
(6.67940476e-12 0 0)
(7.02162368e-12 0 0)
(7.0009357e-12 0 0)
(7.07441638e-12 0 0)
(7.36849638e-12 0 0)
(7.73219503e-12 0 0)
(6.69425936e-12 0 0)
(6.77393683e-12 0 0)
(8.38382515e-12 0 0)
(6.75188187e-12 0 0)
(7.4495919e-12 0 0)
(7.58502004e-12 0 0)
(7.25127309e-12 0 0)
(7.6532522e-12 0 0)
(7.31782936e-12 0 0)
(7.91032021e-12 0 0)
(7.76612142e-12 0 0)
(6.44541955e-12 0 0)
(6.32088179e-12 0 0)
(7.37344661e-12 0 0)
(6.8595044e-12 0 0)
(7.73971743e-12 0 0)
(6.09184872e-12 0 0)
(6.1205355e-12 0 0)
(7.3218484e-12 0 0)
(6.58612014e-12 0 0)
(6.93256289e-12 0 0)
(6.54448656e-12 0 0)
(7.14789286e-12 0 0)
(7.82788204e-12 0 0)
(7.19671929e-12 0 0)
(7.74324135e-12 0 0)
(7.18935569e-12 0 0)
(7.56588239e-12 0 0)
(8.10055427e-12 0 0)
(7.81266307e-12 0 0)
(8.66189084e-12 0 0)
(7.46274725e-12 0 0)
(8.67230569e-12 0 0)
(8.1552623e-12 0 0)
(8.9649294e-12 0 0)
(8.41064353e-12 0 0)
(7.40414899e-12 0 0)
(8.37824006e-12 0 0)
(7.86274893e-12 0 0)
(7.20043621e-12 0 0)
(7.97519912e-12 0 0)
(7.63508802e-12 0 0)
(9.0976375e-12 0 0)
(7.67348414e-12 0 0)
(9.00620432e-12 0 0)
(6.35097565e-12 0 0)
(7.71664468e-12 0 0)
(7.49045138e-12 0 0)
(7.2924017e-12 0 0)
(8.15845472e-12 0 0)
(7.42881391e-12 0 0)
(8.80301907e-12 0 0)
(7.65679601e-12 0 0)
(7.49384541e-12 0 0)
(8.5455325e-12 0 0)
(6.6989988e-12 0 0)
(7.24089906e-12 0 0)
(6.78523225e-12 0 0)
(8.12357074e-12 0 0)
(7.25719838e-12 0 0)
(6.86261793e-12 0 0)
(6.69673726e-12 0 0)
(7.50898887e-12 0 0)
(8.38597398e-12 0 0)
(7.37185946e-12 0 0)
(7.58612784e-12 0 0)
(6.98028929e-12 0 0)
(6.67600429e-12 0 0)
(7.58202448e-12 0 0)
(6.92195052e-12 0 0)
(7.32951116e-12 0 0)
(7.05155717e-12 0 0)
(7.32541398e-12 0 0)
(7.10891198e-12 0 0)
(8.81916469e-12 0 0)
(7.56102248e-12 0 0)
(8.04625321e-12 0 0)
(7.9468146e-12 0 0)
(7.32857775e-12 0 0)
(7.84093553e-12 0 0)
(7.69337381e-12 0 0)
(8.01342795e-12 0 0)
(7.60098189e-12 0 0)
(7.71095418e-12 0 0)
(7.91731905e-12 0 0)
(9.07875155e-12 0 0)
(8.60662137e-12 0 0)
(8.23159613e-12 0 0)
(8.03423236e-12 0 0)
(8.94381078e-12 0 0)
(8.62700133e-12 0 0)
(8.35577945e-12 0 0)
(8.40690711e-12 0 0)
(8.68468898e-12 0 0)
(9.63046381e-12 0 0)
(8.46550896e-12 0 0)
(8.80934183e-12 0 0)
(9.35432362e-12 0 0)
(8.18675458e-12 0 0)
(8.26991865e-12 0 0)
(8.18323024e-12 0 0)
(9.27179768e-12 0 0)
(7.21633507e-12 0 0)
(7.31380311e-12 0 0)
(8.46231545e-12 0 0)
(7.59170382e-12 0 0)
(7.8261135e-12 0 0)
(6.61348547e-12 0 0)
(7.45667262e-12 0 0)
(6.06867217e-12 0 0)
(6.72738174e-12 0 0)
(6.85991719e-12 0 0)
(6.2093542e-12 0 0)
(6.2106915e-12 0 0)
(5.45440273e-12 0 0)
(5.39015905e-12 0 0)
(5.64342736e-12 0 0)
(4.78406565e-12 0 0)
(5.93750247e-12 0 0)
(5.7134646e-12 0 0)
(5.81880687e-12 0 0)
(5.49852653e-12 0 0)
(5.5720659e-12 0 0)
(5.30810458e-12 0 0)
(4.64645361e-12 0 0)
(4.52262598e-12 0 0)
(4.55285511e-12 0 0)
(4.09273988e-12 0 0)
(4.49430418e-12 0 0)
(3.72655744e-12 0 0)
(3.32291744e-12 0 0)
(4.00990102e-12 0 0)
(3.96802699e-12 0 0)
(3.6082422e-12 0 0)
(2.8980628e-12 0 0)
(2.47425512e-12 0 0)
(3.14737765e-12 0 0)
(3.10446018e-12 0 0)
(3.28787596e-12 0 0)
(1.88241876e-12 0 0)
(2.40630159e-12 0 0)
(1.56335561e-12 0 0)
(1.49819931e-12 0 0)
(8.60646202e-13 0 0)
(1.78348811e-12 0 0)
(1.34481388e-12 0 0)
(8.83439206e-13 0 0)
(2.02920157e-12 0 0)
(1.42812857e-12 0 0)
(2.32106646e-12 0 0)
(2.38802238e-12 0 0)
(1.94737857e-12 0 0)
(2.43877215e-12 0 0)
(2.18449144e-12 0 0)
(1.86471242e-12 0 0)
(2.00800283e-12 0 0)
(2.31341592e-12 0 0)
(1.23685412e-12 0 0)
(1.47110944e-12 0 0)
(1.3965527e-12 0 0)
(1.5798676e-12 0 0)
(1.31830474e-12 0 0)
(1.81459646e-12 0 0)
(1.61646165e-12 0 0)
(1.69960822e-12 0 0)
(1.98864688e-12 0 0)
(1.34021182e-12 0 0)
(1.72355398e-12 0 0)
(1.4866565e-13 0 0)
(1.08830218e-12 0 0)
(4.63657035e-13 0 0)
(2.1457938e-13 0 0)
(7.35998491e-13 0 0)
(9.03324637e-13 0 0)
(1.58767489e-12 0 0)
(1.28639037e-12 0 0)
(1.58285551e-12 0 0)
(-1.42580023e-13 0 0)
(9.37685568e-13 0 0)
(-8.68151523e-15 0 0)
(8.19135569e-13 0 0)
(6.32604585e-13 0 0)
(5.54698193e-13 0 0)
(-2.97660448e-13 0 0)
(3.65250925e-13 0 0)
(9.54392983e-13 0 0)
(6.54741445e-14 0 0)
(-2.36449094e-13 0 0)
(6.63501919e-13 0 0)
(7.55340821e-13 0 0)
(7.99772532e-13 0 0)
(7.51925237e-13 0 0)
(1.04614257e-12 0 0)
(8.04202343e-13 0 0)
(-5.80866867e-13 0 0)
(7.42582127e-13 0 0)
(-8.9840675e-13 0 0)
(-7.86634869e-13 0 0)
(1.91518359e-13 0 0)
(2.52412126e-13 0 0)
(3.15542904e-13 0 0)
(4.10325486e-14 0 0)
(-1.90393121e-13 0 0)
(-1.04205948e-12 0 0)
(-3.49644298e-13 0 0)
(-1.27341513e-12 0 0)
(-9.26423823e-13 0 0)
(-6.55199736e-13 0 0)
(-1.53884858e-13 0 0)
(-2.16192473e-13 0 0)
(-4.27437698e-13 0 0)
(-4.11465336e-13 0 0)
(2.08260324e-14 0 0)
(-8.84424647e-13 0 0)
(-1.18873664e-12 0 0)
(-1.85253497e-12 0 0)
(-1.94855205e-12 0 0)
(-1.9288936e-12 0 0)
(-1.97375082e-12 0 0)
(-1.79786543e-12 0 0)
(-1.82424708e-12 0 0)
(-2.52434519e-12 0 0)
(-2.32353134e-12 0 0)
(-2.86502498e-12 0 0)
(-3.09102654e-12 0 0)
(-2.37012232e-12 0 0)
(-2.88216655e-12 0 0)
(-2.99991734e-12 0 0)
(-2.47794881e-12 0 0)
(-2.50112411e-12 0 0)
(-3.07961683e-12 0 0)
(-3.18170273e-12 0 0)
(-2.03764303e-12 0 0)
(-3.64722313e-12 0 0)
(-3.1536404e-12 0 0)
(-2.2711545e-12 0 0)
(-2.96170412e-12 0 0)
(-2.84359433e-12 0 0)
(-2.95463873e-12 0 0)
(-2.65154184e-12 0 0)
(-2.65320086e-12 0 0)
(-3.37536964e-12 0 0)
(-3.0949443e-12 0 0)
(-2.99988128e-12 0 0)
(-2.80108036e-12 0 0)
(-3.27547494e-12 0 0)
(-3.29477306e-12 0 0)
(-3.22593544e-12 0 0)
(-4.03470187e-12 0 0)
(-3.00715841e-12 0 0)
(-2.66147085e-12 0 0)
(-2.93292146e-12 0 0)
(-2.54013e-12 0 0)
(-3.59955956e-12 0 0)
(-3.12317454e-12 0 0)
(-3.24403479e-12 0 0)
(-4.06125844e-12 0 0)
(-3.20754779e-12 0 0)
(-3.08149369e-12 0 0)
(-3.31715351e-12 0 0)
(-2.91941532e-12 0 0)
(-2.70898839e-12 0 0)
(-3.49450374e-12 0 0)
(-3.35226519e-12 0 0)
(-3.22614766e-12 0 0)
(-3.92384669e-12 0 0)
(-3.83038347e-12 0 0)
(-2.95172001e-12 0 0)
(-3.44418438e-12 0 0)
(-2.71114118e-12 0 0)
(-3.09972088e-12 0 0)
(-3.06028829e-12 0 0)
(-2.74821905e-12 0 0)
(-2.85405575e-12 0 0)
(-2.80754233e-12 0 0)
(-2.95786615e-12 0 0)
(-3.71641931e-12 0 0)
(-2.98257216e-12 0 0)
(-3.92301724e-12 0 0)
(-3.6876409e-12 0 0)
(-3.18752353e-12 0 0)
(-2.56022798e-12 0 0)
(-4.04632304e-12 0 0)
(-2.70849881e-12 0 0)
(-3.02088977e-12 0 0)
(-3.51312413e-12 0 0)
(-3.71768952e-12 0 0)
(-4.62783306e-12 0 0)
(-4.53686902e-12 0 0)
(-4.10699744e-12 0 0)
(-4.45831107e-12 0 0)
(-4.39902183e-12 0 0)
(-4.04796957e-12 0 0)
(-5.0382161e-12 0 0)
(-5.88847466e-12 0 0)
(-5.14365104e-12 0 0)
(-2.36885236e-12 0 0)
(-4.94092651e-12 0 0)
(-5.49053602e-12 0 0)
(-4.52901613e-12 0 0)
(-5.50238192e-12 0 0)
(-6.41045938e-12 0 0)
(-5.44417944e-12 0 0)
(-6.16697571e-12 0 0)
(-6.17525263e-12 0 0)
(-5.97841269e-12 0 0)
(-6.03722956e-12 0 0)
(-7.56797405e-12 0 0)
(-6.64565249e-12 0 0)
(-6.81325271e-12 0 0)
(-6.30283266e-12 0 0)
(-5.42091296e-12 0 0)
(-5.27279094e-12 0 0)
(-6.01348102e-12 0 0)
(-5.7230933e-12 0 0)
(-5.26078858e-12 0 0)
(-5.85156492e-12 0 0)
(-4.74621171e-12 0 0)
(-5.52538088e-12 0 0)
(-6.30226291e-12 0 0)
(-5.97813473e-12 0 0)
(-5.48982215e-12 0 0)
(-5.24552965e-12 0 0)
(-5.76901418e-12 0 0)
(-5.9856587e-12 0 0)
(-6.09076488e-12 0 0)
(-6.46483455e-12 0 0)
(-6.2054882e-12 0 0)
(-5.89869109e-12 0 0)
(-6.90915078e-12 0 0)
(-6.40905735e-12 0 0)
(-6.14611704e-12 0 0)
(-7.63585174e-12 0 0)
(-6.62234286e-12 0 0)
(-6.10242131e-12 0 0)
(-6.8464649e-12 0 0)
(-7.36679479e-12 0 0)
(-7.02166341e-12 0 0)
(-7.23300441e-12 0 0)
(-7.47209093e-12 0 0)
(-5.68053758e-12 0 0)
(-6.56936542e-12 0 0)
(-6.53333467e-12 0 0)
(-7.41088152e-12 0 0)
(-6.08590938e-12 0 0)
(-6.971954e-12 0 0)
(-5.8706568e-12 0 0)
(-6.93462075e-12 0 0)
(-6.39532888e-12 0 0)
(-7.06596125e-12 0 0)
(-7.83187771e-12 0 0)
(-7.9084091e-12 0 0)
(-5.85953575e-12 0 0)
(-6.54443974e-12 0 0)
(-7.73184795e-12 0 0)
(-6.88546254e-12 0 0)
(-7.84218849e-12 0 0)
(-6.78135771e-12 0 0)
(-6.83957694e-12 0 0)
(-8.0382516e-12 0 0)
(-7.79985561e-12 0 0)
(-6.5004704e-12 0 0)
(-7.28101826e-12 0 0)
(-7.07673333e-12 0 0)
(-7.06207487e-12 0 0)
(-6.73827989e-12 0 0)
(-6.69010627e-12 0 0)
(-7.26284169e-12 0 0)
(-6.48353596e-12 0 0)
(-7.52066551e-12 0 0)
(-6.5008004e-12 0 0)
(-7.26100187e-12 0 0)
(-7.65795992e-12 0 0)
(-7.73631108e-12 0 0)
(-5.90763908e-12 0 0)
(-7.55428487e-12 0 0)
(-6.94565539e-12 0 0)
(-7.62409607e-12 0 0)
(-7.58438691e-12 0 0)
(-6.76746373e-12 0 0)
(-6.60504076e-12 0 0)
(-6.83137098e-12 0 0)
(-7.21451332e-12 0 0)
(-7.44498365e-12 0 0)
(-5.98310978e-12 0 0)
(-7.67561715e-12 0 0)
(-6.67900829e-12 0 0)
(-7.08014765e-12 0 0)
(-7.47874036e-12 0 0)
(-7.57896501e-12 0 0)
(-7.03767599e-12 0 0)
(-7.64941886e-12 0 0)
(-6.19684162e-12 0 0)
(-7.12719782e-12 0 0)
(-6.61242247e-12 0 0)
(-6.59638582e-12 0 0)
(-7.43629254e-12 0 0)
(-7.27557761e-12 0 0)
(-6.32311815e-12 0 0)
(-6.73880041e-12 0 0)
(-6.49442354e-12 0 0)
(-6.8783678e-12 0 0)
(-6.62725679e-12 0 0)
(-5.84912909e-12 0 0)
(-6.92757533e-12 0 0)
(-6.32476564e-12 0 0)
(-6.53311685e-12 0 0)
(-5.8029886e-12 0 0)
(-6.08619502e-12 0 0)
(-5.39698434e-12 0 0)
(-5.79881199e-12 0 0)
(-5.7533603e-12 0 0)
(-5.53092272e-12 0 0)
(-5.74319007e-12 0 0)
(-5.72289219e-12 0 0)
(-4.78238001e-12 0 0)
(-3.97476274e-12 0 0)
(-5.81763074e-12 0 0)
(-4.94888653e-12 0 0)
(-5.72478468e-12 0 0)
(-4.71810087e-12 0 0)
(-5.47005145e-12 0 0)
(-5.0870991e-12 0 0)
(-4.50052378e-12 0 0)
(-5.14000044e-12 0 0)
(-4.5987168e-12 0 0)
(-5.17304203e-12 0 0)
(-5.64990806e-12 0 0)
(-4.84060207e-12 0 0)
(-5.38081745e-12 0 0)
(-4.35751231e-12 0 0)
(-4.35220246e-12 0 0)
(-5.55123875e-12 0 0)
(-5.32073004e-12 0 0)
(-5.05767747e-12 0 0)
(-4.77796053e-12 0 0)
(-5.31839303e-12 0 0)
(-4.658107e-12 0 0)
(-4.76846008e-12 0 0)
(-5.02853035e-12 0 0)
(-4.71989936e-12 0 0)
(-4.27332742e-12 0 0)
(-5.12805393e-12 0 0)
(-4.28775076e-12 0 0)
(-4.99888885e-12 0 0)
(-6.09735678e-12 0 0)
(-4.66729033e-12 0 0)
(-4.67594846e-12 0 0)
(-5.04397973e-12 0 0)
(-5.09875755e-12 0 0)
(-5.23628254e-12 0 0)
(-5.60734552e-12 0 0)
(-4.10135434e-12 0 0)
(-4.76503296e-12 0 0)
(-5.22316348e-12 0 0)
(-4.02927224e-12 0 0)
(-4.21775165e-12 0 0)
(-5.7710815e-12 0 0)