/*--------------------------------*- C++ -*----------------------------------*\
| =========                 |                                                 |
| \\      /  F ield         | OpenFOAM: The Open Source CFD Toolbox           |
|  \\    /   O peration     | Version:  2206                                  |
|   \\  /    A nd           | Website:  www.openfoam.com                      |
|    \\/     M anipulation  |                                                 |
\*---------------------------------------------------------------------------*/
FoamFile
{
    version     2.0;
    format      ascii;
    arch        "LSB;label=32;scalar=64";
    class       volScalarField;
    location    "1.96e-05";
    object      p;
}
// * * * * * * * * * * * * * * * * * * * * * * * * * * * * * * * * * * * * * //

dimensions      [1 -1 -2 0 0 0 0];

internalField   nonuniform List<scalar> 
3183
(
101325
101325
101325
101325
101325
101325
101325
101325
101325
101325
101325
101325
101325
101325
101325
101325
101325
101325
101325
101325
101325
101325
101325
101325
101325
101325
101325
101325
101325
101325
101325
101325
101325
101325
101325
101325
101325
101325
101325
101325
101325
101325
101325
101325
101325
101325
101325
101325
101325
101325
101325
101325
101325
101325
101325
101325
101325
101325
101325
101325
101325
101325
101325
101325
101325
101325
101325
101325
101325
101325
101325
101325
101325
101325
101325
101325
101325
101325
101325
101325
101325
101325
101325
101325
101325
101325
101325
101325
101325
101325
101325
101325
101325
101325
101325
101325
101325
101325
101325
101325
101325
101325
101325
101325
101325
101325
101325
101325
101325
101325
101325
101325
101325
101325
101325
101325
101325
101325
101325
101325
101325
101325
101325
101325
101325
101325
101325
101325
101325
101325
101325
101325
101325
101325
101325
101325
101325
101325
101325
101325
101325
101325
101325
101325
101325
101325
101325
101325
101325
101325
101325
101325
101325
101325
101325
101325
101325
101325
101325
101325
101325
101325
101325
101325
101325
101325
101325
101325
101325
101325
101325
101325
101325
101325
101325
101325
101325
101325
101325
101325
101325
101325
101325
101325
101325
101325
101325
101325
101325
101325
101325
101325
101325
101325
101325
101325
101325
101325
101325
101325
101325
101325
101325
101325
101325
101325
101325
101325
101325
101325
101325
101325
101325
101325
101325
101325
101325
101325
101325
101325
101325
101325
101325
101325
101325
101325
101325
101325
101325
101325
101325
101325
101325
101325
101325
101325
101325
101325
101325
101325
101325
101325
101325
101325
101325
101325
101325
101325
101325
101325
101325
101325
101325
101325
101325
101325
101325
101325
101325
101325
101325
101325
101325
101325
101325
101325
101325
101325
101325
101325
101325
101325
101325
101325
101325
101325
101325
101325
101325
101325
101325
101325
101325
101325
101325
101325
101325
101325
101325
101325
101325
101325
101325
101325
101325
101325
101325
101325
101325
101325
101325
101325
101325
101325
101325
101325
101325
101325
101325
101325
101325
101325
101325
101325
101325
101325
101325
101325
101325
101325
101325
101325
101325
101325
101325
101325
101325
101325
101325
101325
101325
101325
101325
101325
101325
101325
101325
101325
101325
101325
101325
101325
101325
101325
101325
101325
101325
101325
101325
101325
101325
101325
101325
101325
101325
101325
101325
101325
101325
101325
101325
101325
101325
101325
101325
101325
101325
101325
101325
101325
101325
101325
101325
101325
101325
101325
101325
101325
101325
101325
101325
101325
101325
101325
101325
101325
101325
101325
101325
101325
101325
101325
101325
101325
101325
101325
101325
101325
101325
101325
101325
101325
101325
101325
101325
101325
101325
101325
101325
101325
101325
101325
101325
101325
101325
101325
101325
101325
101325
101325
101325
101325
101325
101325
101325
101325
101325
101325
101325
101325
101325
101325
101325
101325
101325
101325
101325
101325
101325
101325
101325
101325
101325
101325
101325
101325
101325
101325
101325
101325
101325
101325
101325
101325
101325
101325
101325
101325
101325
101325
101325
101325
101325
101325
101325
101325
101325
101325
101325
101325
101325
101325
101325
101325
101325
101325
101325
101325
101325
101325
101325
101325
101325
101325
101325
101325
101325
101325
101325
101325
101325
101325
101325
101325
101325
101325
101325
101325
101325
101325
101325
101325
101325
101325
101325
101325
101325
101325
101325
101325
101325
101325
101325
101325
101325
101325
101325
101325
101325
101325
101325
101325
101325
101325
101325
101325
101325
101325
101325
101325
101325
101325
101325
101325
101325
101325
101325
101325
101325
101325
101325
101325
101325
101325
101325
101325
101325
101325
101325
101325
101325
101325
101325
101325
101325
101325
101325
101325
101325
101325
101325
101325
101325
101325
101325
101325
101325
101325
101325
101325
101325
101325
101325
101325
101325
101325
101325
101325
101325
101325
101325
101325
101325
101325
101325
101325
101325
101325
101325
101325
101325
101325
101325
101325
101325
101325
101325
101325
101325
101325
101325
101325
101325
101325
101325
101325
101325
101325
101325
101325
101325
101325
101325
101325
101325
101325
101325
101325
101325
101325
101325
101325
101325
101325
101325
101325
101325
101325
101325
101325
101325
101325
101325
101325
101325
101325
101325
101325
101325
101325
101325
101325
101325
101325
101325
101325
101325
101325
101325
101325
101325
101325
101325
101325
101325
101325
101325
101325
101325
101325
101325
101325
101325
101325
101325
101325
101325
101325
101325
101325
101325
101325
101325
101325
101325
101325
101325
101325
101325
101325
101325
101325
101325
101325
101325
101325
101325
101325
101325
101325
101325
101325
101325
101325
101325
101325
101325
101325
101325
101325
101325
101325
101325
101325
101325
101325
101325
101325
101325
101325
101325
101325
101325
101325
101325
101325
101325
101325
101325
101325
101325
101325
101325
101325
101325
101325
101325
101325
101325
101325
101325
101325
101325
101325
101325
101325
101325
101325
101325
101325
101325
101325
101325
101325
101325
101325
101325
101325
101325
101325
101325
101325
101325
101325
101325
101325
101325
101325
101325
101325
101325
101325
101325
101325
101325
101325
101325
101325
101325
101325
101325
101325
101325
101325
101325
101325
101325
101325
101325
101325
101325
101325
101325
101325
101325
101325
101325
101325
101325
101325
101325
101325
101325
101325
101325
101325
101325
101325
101325
101325
101325
101325
101325
101325
101325
101325
101325
101325
101325
101325
101325
101325
101325
101325
101325
101325
101325
101325
101325
101325
101325
101325
101325
101325
101325
101325
101325
101325
101325
101325
101325
101325
101325
101325
101325
101325
101325
101325
101325
101325
101325
101325
101325
101325
101325
101325
101325
101325
101325
101325
101325
101325
101325
101325
101325
101325
101325
101325
101325
101325
101325
101325
101325
101325
101325
101325
101325
101325
101325
101325
101325
101325
101325
101325
101325
101325
101325
101325
101325
101325
101325
101325
101325
101325
101325
101325
101325
101325
101325
101325
101325
101325
101325
101325
101325
101325
101325
101325
101325
101325
101325
101325
101325
101325
101325
101325
101325
101325
101325
101325
101325
101325
101325
101325
101325
101325
101325
101325
101325
101325
101325
101325
101325
101325
101325
101325
101325
101325
101325
101325
101325
101325
101325
101325
101325
101325
101325
101325
101325
101325
101325
101325
101325
101325
101325
101325
101325
101325
101325
101325
101325
101325
101325
101325
101325
101325
101325
101325
101325
101325
101325
101325
101325
101325
101325
101325
101325
101325
101325
101325
101325
101325
101325
101325
101325
101325
101325
101325
101325
101325
101325
101325
101325
101325
101325
101325
101325
101325
101325
101325
101325
101325
101325
101325
101325
101325
101325
101325
101325
101325
101325
101325
101325
101325
101325
101325
101325
101325
101325
101325
101325
101325
101325
101325
101325
101325
101325
101325
101325
101325
101325
101325
101325
101325
101325
101325
101325
101325
101325
101325
101325
101325
101325
101325
101325
101325
101325
101325
101325
101325
101325
101325
101325
101325
101325
101325
101325
101325
101325
101325
101325
101325
101325
101325
101325
101325
101325
101325
101325
101325
101325
101325
101325
101325
101325
101325
101325
101325
101325
101325
101325
101325
101325
101325
101325
101325
101325
101325
101325
101325
101325
101325
101325
101325
101325
101325
101325
101325
101325
101325
101325
101325
101325
101325
101325
101325
101325
101325
101325
101325
101325
101325
101325
101325
101325
101325
101325
101325
101325
101325
101325
101325
101325
101325
101325
101325
101325
101325
101325
101325
101325
101325
101325
101325
101325
101325
101325
101325
101325
101325
101325
101325
101325
101325
101325
101325
101325
101325
101325
101325
101325
101325
101325
101325
101325
101325
101325
101325
101325
101325
101325
101325
101325
101325
101325
101325
101325
101325
101325
101325
101325
101325
101325
101325
101325
101325
101325
101325
101325
101325
101325
101325
101325
101325
101325
101325
101325
101325
101325
101325
101325
101325
101325
101325
101325
101325
101325
101325
101325
101325
101325
101325
101325
101325
101325
101325
101325
101325
101325
101325
101325
101325
101325
101325
101325
101325
101325
101325
101325
101325
101325
101325
101325
101325
101325
101325
101325
101325
101325
101325
101325
101325
101325
101325
101325
101325
101325
101325
101325
101325
101325
101325
101325
101325
101325
101325
101325
101325
101325
101325
101325
101325
101325
101325
101325
101325
101325
101325
101325
101325
101325
101325
101325
101325
101325
101325
101325
101325
101325
101325
101325
101325
101325
101325
101325
101325
101325
101325
101325
101325
101325
101325
101325
101325
101325
101325
101325
101325
101325
101325
101325
101325
101325
101325
101325
101325
101325
101325
101325
101325
101325
101325
101325
101325
101325
101325
101325
101325
101325
101325
101325
101325
101325
101325
101325
101325
101325
101325
101325
101325
101325
101325
101325
101325
101325
101325
101325
101325
101325
101325
101325
101325
101325
101325
101325
101325
101325
101325
101325
101325
101325
101325
101325
101325
101325
101325
101325
101325
101325
101325
101325
101325
101325
101325
101325
101325
101325
101325
101325
101325
101325
101325
101325
101325
101325
101325
101325
101325
101325
101325
101325
101325
101325
101325
101325
101325
101325
101325
101325
101325
101325
101325
101325
101325
101325
101325
101325
101325
101325
101325
101325
101325
101325
101325
101325
101325
101325
101325
101325
101325
101325
101325
101325
101325
101325
101325
101325
101325
101325
101325
101325
101325
101325
101325
101325
101325
101325
101325
101325
101325
101325
101325
101325
101325
101325
101325
101325
101325
101325
101325
101325
101325
101325
101325
101325
101325
101325
101325
101325
101325
101325
101325
101325
101325
101325
101325
101325
101325
101325
101325
101325
101325
101325
101325
101325
101325
101325
101325
101325
101325
101325
101325
101325
101325
101325
101325
101325
101325
101325
101325
101325
101325
101325
101325
101325
101325
101325
101325
101325
101325
101325
101325
101325
101325
101325
101325
101325
101325
101325
101325
101325
101325
101325
101325
101325
101325
101325
101325
101325
101325
101325
101325
101325
101325
101325
101325
101325
101325
101325
101325
101325
101325
101325
101325
101325
101325
101325
101325
101325
101325
101325
101325
101325
101325
101325
101325
101325
101325
101325
101325
101325
101325
101325
101325
101325
101325
101325
101325
101325
101325
101325
101325
101325
101325
101325
101325
101325
101325
101325
101325
101325
101325
101325
101325
101325
101325
101325
101325
101325
101325
101325
101325
101325
101325
101325
101325
101325
101325
101325
101325
101325
101325
101325
101325
101325
101325
101325
101325
101325
101325
101325
101325
101325
101325
101325
101325
101325
101325
101325
101325
101325
101325
101325
101325
101325
101325
101325
101325
101325
101325
101325
101325
101325
101325
101325
101325
101325
101325
101325
101325
101325
101325
101325
101325
101325
101325
101325
101325
101325
101325
101325
101325
101325
101325
101325
101325
101325
101325
101325
101325
101325
101325
101325
101325
101325
101325
101325
101325
101325
101325
101325
101325
101325
101325
101325
101325
101325
101325
101325
101325
101325
101325
101325
101325
101325
101325
101325
101325
101325
101325
101325
101325
101325
101325
101325
101325
101325
101325
101325
101325
101325
101325
101325
101325
101325
101325
101325
101325
101325
101325
101325
101325
101325
101325
101325
101325
101325
101325
101325
101325
101325
101325
101324.999
101324.999
101324.999
101324.999
101324.999
101324.999
101324.999
101324.999
101324.999
101324.999
101324.999
101324.999
101324.999
101324.999
101324.999
101324.999
101324.999
101324.999
101324.999
101324.999
101324.998
101324.998
101324.998
101324.998
101324.998
101324.998
101324.998
101324.998
101324.998
101324.997
101324.997
101324.997
101324.997
101324.997
101324.997
101324.997
101324.996
101324.996
101324.996
101324.996
101324.995
101324.995
101324.995
101324.995
101324.994
101324.994
101324.994
101324.994
101324.993
101324.993
101324.993
101324.992
101324.992
101324.991
101324.991
101324.99
101324.99
101324.989
101324.989
101324.988
101324.988
101324.987
101324.986
101324.986
101324.985
101324.984
101324.984
101324.983
101324.982
101324.981
101324.98
101324.979
101324.978
101324.977
101324.976
101324.975
101324.973
101324.972
101324.971
101324.969
101324.968
101324.966
101324.965
101324.963
101324.962
101324.96
101324.958
101324.956
101324.954
101324.952
101324.949
101324.947
101324.945
101324.942
101324.939
101324.937
101324.934
101324.931
101324.928
101324.925
101324.921
101324.918
101324.914
101324.91
101324.906
101324.902
101324.898
101324.893
101324.889
101324.884
101324.879
101324.873
101324.868
101324.862
101324.856
101324.85
101324.844
101324.837
101324.83
101324.823
101324.816
101324.808
101324.8
101324.792
101324.783
101324.774
101324.765
101324.755
101324.745
101324.735
101324.724
101324.713
101324.702
101324.69
101324.678
101324.665
101324.652
101324.638
101324.624
101324.609
101324.594
101324.578
101324.562
101324.545
101324.527
101324.509
101324.491
101324.471
101324.451
101324.431
101324.41
101324.388
101324.365
101324.342
101324.317
101324.292
101324.267
101324.24
101324.213
101324.184
101324.155
101324.125
101324.094
101324.062
101324.029
101323.995
101323.96
101323.924
101323.887
101323.849
101323.81
101323.769
101323.728
101323.685
101323.641
101323.595
101323.549
101323.501
101323.452
101323.401
101323.349
101323.296
101323.241
101323.185
101323.127
101323.068
101323.007
101322.945
101322.88
101322.815
101322.747
101322.678
101322.608
101322.535
101322.461
101322.385
101322.307
101322.227
101322.146
101322.062
101321.977
101321.889
101321.8
101321.708
101321.615
101321.519
101321.422
101321.322
101321.22
101321.116
101321.01
101320.902
101320.791
101320.678
101320.563
101320.446
101320.326
101320.204
101320.08
101319.953
101319.824
101319.693
101319.559
101319.423
101319.285
101319.144
101319
101318.855
101318.706
101318.556
101318.403
101318.247
101318.09
101317.929
101317.767
101317.601
101317.434
101317.264
101317.092
101316.917
101316.74
101316.56
101316.379
101316.195
101316.008
101315.82
101315.629
101315.436
101315.241
101315.043
101314.844
101314.642
101314.439
101314.233
101314.026
101313.816
101313.605
101313.391
101313.176
101312.96
101312.741
101312.521
101312.299
101312.076
101311.852
101311.626
101311.398
101311.17
101310.94
101310.709
101310.477
101310.244
101310.01
101309.776
101309.54
101309.304
101309.068
101308.831
101308.593
101308.355
101308.117
101307.879
101307.641
101307.403
101307.165
101306.927
101306.689
101306.452
101306.216
101305.98
101305.744
101305.51
101305.277
101305.044
101304.813
101304.583
101304.354
101304.126
101303.901
101303.676
101303.454
101303.233
101303.015
101302.798
101302.583
101302.371
101302.161
101301.954
101301.749
101301.546
101301.347
101301.15
101300.956
101300.765
101300.577
101300.392
101300.211
101300.033
101299.858
101299.687
101299.52
101299.356
101299.196
101299.039
101298.887
101298.738
101298.594
101298.453
101298.317
101298.185
101298.057
101297.933
101297.814
101297.699
101297.588
101297.482
101297.38
101297.283
101297.19
101297.102
101297.019
101296.94
101296.866
101296.796
101296.731
101296.67
101296.614
101296.563
101296.516
101296.474
101296.437
101296.404
101296.376
101296.352
101296.333
101296.318
101296.307
101296.301
101296.299
101296.302
101296.309
101296.32
101296.335
101296.354
101296.378
101296.405
101296.436
101296.472
101296.51
101296.553
101296.599
101296.649
101296.703
101296.759
101296.819
101296.883
101296.949
101297.019
101297.091
101297.167
101297.245
101297.326
101297.41
101297.496
101297.584
101297.675
101297.769
101297.864
101297.961
101298.061
101298.162
101298.265
101298.37
101298.477
101298.585
101298.694
101298.804
101298.916
101299.029
101299.143
101299.258
101299.374
101299.491
101299.608
101299.726
101299.845
101299.963
101300.083
101300.202
101300.322
101300.442
101300.562
101300.682
101300.801
101300.921
101301.041
101301.16
101301.278
101301.397
101301.515
101301.632
101301.749
101301.865
101301.981
101302.095
101302.209
101302.323
101302.435
101302.546
101302.657
101302.766
101302.875
101302.983
101303.089
101303.194
101303.299
101303.402
101303.504
101303.605
101303.705
101303.803
101303.901
101303.997
101304.092
101304.185
101304.278
101304.369
101304.459
101304.548
101304.635
101304.721
101304.807
101304.89
101304.973
101305.054
101305.135
101305.214
101305.292
101305.368
101305.444
101305.518
101305.592
101305.664
101305.735
101305.805
101305.874
101305.942
101306.009
101306.074
101306.139
101306.203
101306.266
101306.328
101306.389
101306.45
101306.509
101306.568
101306.625
101306.682
101306.738
101306.794
101306.848
101306.902
101306.955
101307.008
101307.059
101307.11
101307.161
101307.211
101307.26
101307.309
101307.357
101307.404
101307.451
101307.497
101307.543
101307.589
101307.634
101307.678
101307.722
101307.765
101307.808
101307.851
101307.893
101307.935
101307.976
101308.017
101308.058
101308.098
101308.138
101308.177
101308.216
101308.255
101308.294
101308.332
101308.369
101308.407
101308.444
101308.48
101308.517
101308.553
101308.589
101308.624
101308.659
101308.694
101308.728
101308.762
101308.796
101308.83
101308.863
101308.896
101308.928
101308.96
101308.992
101309.024
101309.055
101309.086
101309.117
101309.147
101309.177
101309.207
101309.236
101309.265
101309.294
101309.322
101309.35
101309.378
101309.406
101309.433
101309.46
101309.486
101309.512
101309.538
101309.564
101309.589
101309.614
101309.639
101309.664
101309.688
101309.712
101309.735
101309.758
101309.782
101309.804
101309.827
101309.849
101309.871
101309.893
101309.914
101309.936
101309.957
101309.977
101309.998
101310.019
101310.039
101310.059
101310.079
101310.098
101310.118
101310.137
101310.156
101310.175
101310.194
101310.213
101310.232
101310.25
101310.269
101310.287
101310.305
101310.323
101310.341
101310.359
101310.377
101310.395
101310.413
101310.431
101310.449
101310.466
101310.484
101310.502
101310.519
101310.537
101310.555
101310.573
101310.59
101310.608
101310.626
101310.644
101310.661
101310.679
101310.697
101310.715
101310.733
101310.751
101310.769
101310.787
101310.805
101310.823
101310.842
101310.86
101310.878
101310.896
101310.915
101310.933
101310.952
101310.97
101310.988
101311.007
101311.025
101311.044
101311.062
101311.081
101311.1
101311.118
101311.137
101311.155
101311.174
101311.192
101311.211
101311.229
101311.247
101311.266
101311.284
101311.302
101311.32
101311.338
101311.357
101311.374
101311.392
101311.41
101311.428
101311.445
101311.463
101311.48
101311.497
101311.515
101311.532
101311.548
101311.565
101311.582
101311.598
101311.615
101311.631
101311.647
101311.663
101311.679
101311.694
101311.71
101311.725
101311.74
101311.755
101311.77
101311.785
101311.799
101311.814
101311.828
101311.842
101311.856
101311.869
101311.883
101311.897
101311.91
101311.923
101311.936
101311.949
101311.962
101311.974
101311.987
101311.999
101312.011
101312.023
101312.035
101312.047
101312.059
101312.07
101312.082
101312.093
101312.105
101312.116
101312.127
101312.138
101312.149
101312.16
101312.171
101312.181
101312.192
101312.202
101312.213
101312.223
101312.234
101312.244
101312.254
101312.265
101312.275
101312.285
101312.295
101312.305
101312.315
101312.325
101312.335
101312.345
101312.355
101312.365
101312.375
101312.385
101312.395
101312.405
101312.415
101312.425
101312.435
101312.445
101312.455
101312.465
101312.476
101312.486
101312.496
101312.507
101312.517
101312.528
101312.539
101312.549
101312.56
101312.572
101312.583
101312.594
101312.606
101312.618
101312.63
101312.642
101312.654
101312.667
101312.68
101312.693
101312.706
101312.72
101312.734
101312.749
101312.764
101312.779
101312.795
101312.811
101312.827
101312.844
101312.862
101312.88
101312.898
101312.918
101312.938
101312.958
101312.979
101313.001
101313.023
101313.047
101313.071
101313.096
101313.121
101313.148
101313.175
101313.204
101313.233
101313.263
101313.295
101313.327
101313.36
101313.395
101313.431
101313.467
101313.505
101313.544
101313.585
101313.626
101313.669
101313.713
101313.758
101313.804
101313.852
101313.901
101313.951
101314.002
101314.055
101314.109
101314.164
101314.22
101314.277
101314.336
101314.395
101314.456
101314.517
101314.58
101314.643
101314.708
101314.773
101314.838
101314.905
101314.972
101315.04
101315.108
101315.176
101315.245
101315.314
101315.383
101315.452
101315.521
101315.59
101315.659
101315.727
101315.795
101315.863
101315.93
101315.996
101316.062
101316.128
101316.192
101316.256
101316.318
101316.38
101316.441
101316.501
101316.56
101316.618
101316.676
101316.732
101316.787
101316.841
101316.894
101316.947
101316.998
101317.049
101317.099
101317.148
101317.197
101317.244
101317.292
101317.338
101317.384
101317.43
101317.475
101317.52
101317.565
101317.608
101317.652
101317.695
101317.737
101317.779
101317.82
101317.86
101317.9
101317.938
101317.975
101318.011
101318.046
101318.078
101318.109
101318.138
101318.164
101318.188
101318.209
101318.227
101318.242
101318.254
101318.262
101318.267
101318.267
101318.264
101318.258
101318.247
101318.233
101318.215
101318.193
101318.168
101318.141
101318.11
101318.078
101318.043
101318.007
101317.97
101317.933
101317.896
101317.859
101317.824
101317.79
101317.758
101317.728
101317.701
101317.676
101317.654
101317.636
101317.62
101317.606
101317.596
101317.587
101317.58
101317.575
101317.571
101317.567
101317.564
101317.559
101317.552
101317.55
101317.574
101317.543
101317.966
101318.025
101317.936
101317.505
101317.368
101317.288
101317.334
101317.352
101317.404
101317.427
101317.48
101317.498
101317.528
101317.537
101317.548
101317.551
101317.554
101317.556
101317.558
101317.559
101317.562
101317.565
101317.568
101317.572
101317.577
101317.583
101317.589
101317.596
101317.603
101317.611
101317.621
101317.63
101317.641
101317.652
101317.664
101317.677
101317.69
101317.704
101317.719
101317.734
101317.749
101317.765
101317.782
101317.799
101317.816
101317.833
101317.85
101317.867
101317.885
101317.902
101317.919
101317.936
101317.952
101317.968
101317.984
101317.999
101318.014
101318.028
101318.041
101318.054
101318.066
101318.077
101318.087
101318.096
101318.105
101318.112
101318.119
101318.124
101318.129
101318.133
101318.136
101318.137
101318.138
101318.138
101318.137
101318.135
101318.132
101318.128
101318.124
101318.118
101318.112
101318.104
101318.096
101318.087
101318.078
101318.067
101318.056
101318.045
101318.032
101318.019
101318.006
101317.992
101317.977
101317.962
101317.946
101317.93
101317.914
101317.897
101317.879
101317.862
101317.844
101317.825
101317.807
101317.788
101317.768
101317.749
101317.729
101317.709
101317.689
101317.668
101317.648
101317.627
101317.606
101317.584
101317.563
101317.541
101317.52
101317.498
101317.476
101317.453
101317.431
101317.408
101317.386
101317.363
101317.34
101317.316
101317.293
101317.27
101317.246
101317.222
101317.198
101317.173
101317.149
101317.124
101317.099
101317.074
101317.049
101317.024
101316.998
101316.972
101316.946
101316.92
101316.893
101316.866
101316.839
101316.812
101316.784
101316.756
101316.728
101316.7
101316.672
101316.643
101316.614
101316.585
101316.555
101316.525
101316.496
101316.465
101316.435
101316.404
101316.373
101316.342
101316.311
101316.28
101316.248
101316.216
101316.184
101316.152
101316.119
101316.086
101316.054
101316.021
101315.988
101315.954
101315.921
101315.888
101315.854
101315.82
101315.787
101315.752
101315.718
101315.683
101315.649
101315.614
101315.579
101315.545
101315.511
101315.476
101315.442
101315.408
101315.374
101315.339
101315.305
101315.271
101315.237
101315.203
101315.169
101315.135
101315.101
101315.068
101315.034
101315.001
101314.968
101314.934
101314.901
101314.869
101314.836
101314.803
101314.771
101314.739
101314.707
101314.676
101314.644
101314.613
101314.582
101314.551
101314.521
101314.49
101314.46
101314.43
101314.401
101314.372
101314.343
101314.314
101314.286
101314.258
101314.23
101314.202
101314.175
101314.148
101314.121
101314.095
101314.069
101314.043
101314.018
101313.993
101313.968
101313.943
101313.919
101313.895
101313.872
101313.848
101313.825
101313.803
101313.781
101313.758
101313.737
101313.715
101313.694
101313.673
101313.653
101313.633
101313.613
101313.593
101313.574
101313.555
101313.536
101313.518
101313.5
101313.482
101313.464
101313.447
101313.43
101313.413
101313.396
101313.38
101313.364
101313.348
101313.333
101313.318
101313.303
101313.288
101313.273
101313.259
101313.245
101313.231
101313.218
101313.204
101313.191
101313.178
101313.166
101313.153
101313.141
101313.129
101313.117
101313.105
101313.094
101313.082
101313.071
101313.06
101313.049
101313.039
101313.028
101313.018
101313.008
101312.998
101312.988
101312.978
101312.969
101312.959
101312.95
101312.941
101312.932
101312.923
101312.915
101312.906
101312.898
101312.889
101312.881
101312.873
101312.865
101312.857
101312.849
101312.842
101312.834
101312.827
101312.819
101312.812
101312.805
101312.798
101312.791
101312.784
101312.777
101312.77
101312.764
101312.757
101312.75
101312.744
101312.738
101312.731
101312.725
101312.719
101312.713
101312.706
101312.7
101312.694
101312.689
101312.683
101312.677
101312.671
101312.665
101312.66
101312.654
101312.648
101312.643
101312.637
101312.632
101312.626
101312.621
101312.615
101312.61
101312.604
101312.599
101312.594
101312.588
101312.583
101312.578
101312.573
101312.568
101312.562
101312.557
101312.552
101312.547
101312.542
101312.537
101312.532
101312.527
101312.522
101312.516
101312.511
101312.506
101312.501
101312.496
101312.491
101312.486
101312.481
101312.476
101312.471
101312.466
101312.461
101312.456
101312.451
101312.446
101312.441
101312.436
101312.431
101312.427
101312.422
101312.417
101312.412
101312.407
101312.401
101312.396
101312.391
101312.386
101312.381
101312.376
101312.371
101312.366
101312.361
101312.356
101312.351
101312.346
101312.341
101312.336
101312.331
101312.325
101312.32
101312.315
101312.31
101312.305
101312.299
101312.294
101312.289
101312.284
101312.279
101312.273
101312.268
101312.263
101312.257
101312.252
101312.247
101312.241
101312.236
101312.23
101312.225
101312.219
101312.214
101312.208
101312.203
101312.197
101312.192
101312.186
101312.181
101312.175
101312.169
101312.164
101312.158
101312.152
101312.146
101312.141
101312.135
101312.129
101312.123
101312.117
101312.111
101312.105
101312.099
101312.093
101312.087
101312.081
101312.075
101312.069
101312.063
101312.057
101312.05
101312.044
101312.038
101312.032
101312.025
101312.019
101312.012
101312.006
101311.999
101311.993
101311.986
101311.98
101311.973
101311.967
101311.96
101311.953
101311.946
101311.94
101311.933
101311.926
101311.919
101311.912
101311.905
101311.898
101311.891
101311.884
101311.877
101311.87
101311.863
101311.855
101311.848
101311.841
101311.833
101311.826
101311.818
101311.811
101311.803
101311.796
101311.788
101311.781
101311.773
101311.765
101311.758
101311.75
101311.742
101311.734
101311.726
101311.718
101311.71
101311.701
101311.692
101311.681
101311.67
101311.658
101311.645
101311.631
101311.616
101311.6
101311.582
101311.563
101311.542
101311.52
101311.496
101311.47
101311.442
101311.412
101311.379
101311.343
101311.305
101311.263
101311.219
101311.17
101311.118
101311.063
101311.003
101310.939
101310.871
101310.798
101310.72
101310.637
101310.548
101310.453
101310.351
101310.239
101310.115
101309.976
101309.817
101309.633
101309.418
101309.165
101308.867
101308.518
101308.109
101307.629
101307.052
101306.336
101305.403
101304.142
101302.435
101300.241
101297.761
101295.617
101294.838
101296.457
101300.826
101307.158
101313.735
101318.94
101322.216
101323.902
101324.627
101324.89
101324.972
101324.994
101324.999
101325
101325.001
101325.001
101325.001
101325.001
101325.001
101325.001
101325.001
101325.001
101325
)
;

boundaryField
{
    closed
    {
        type            zeroGradient;
    }
    open
    {
        type            waveTransmissive;
        gamma           1.25;
        fieldInf        101325;
        lInf            1;
        value           uniform 101325;
    }
    sides
    {
        type            empty;
    }
}


// ************************************************************************* //
