/*--------------------------------*- C++ -*----------------------------------*\
| =========                 |                                                 |
| \\      /  F ield         | OpenFOAM: The Open Source CFD Toolbox           |
|  \\    /   O peration     | Version:  2206                                  |
|   \\  /    A nd           | Website:  www.openfoam.com                      |
|    \\/     M anipulation  |                                                 |
\*---------------------------------------------------------------------------*/
FoamFile
{
    version     2.0;
    format      ascii;
    arch        "LSB;label=32;scalar=64";
    class       surfaceScalarField;
    location    "1.96e-05";
    object      phi;
}
// * * * * * * * * * * * * * * * * * * * * * * * * * * * * * * * * * * * * * //

dimensions      [1 0 -1 0 0 0 0];

oriented        oriented;

internalField   nonuniform List<scalar> 
3182
(
6.90740718e-18
-1.60026257e-18
-4.14163999e-18
-2.66644879e-18
-1.37730139e-20
-6.05169871e-23
-4.15753403e-24
7.39801502e-25
1.89728302e-23
7.83046072e-22
4.11784117e-19
5.73241376e-18
3.90631598e-18
2.48379739e-18
7.88246121e-19
-1.78053229e-18
-6.42894223e-18
-4.94572091e-18
-6.62735694e-18
3.84596895e-18
9.74247642e-20
8.47008772e-19
1.69594494e-18
4.82955932e-18
6.62984903e-18
4.92685214e-18
4.90263177e-18
1.02870519e-18
1.01965869e-18
-1.93436493e-19
-3.92404022e-19
-1.36675267e-18
-3.95736085e-18
-5.06526059e-18
-6.31481221e-18
-7.13901343e-18
-4.35102917e-18
-3.20319061e-18
-3.96069949e-18
-6.6954686e-19
7.7206102e-19
3.52281159e-18
4.55934803e-18
7.63127386e-18
4.92174608e-18
2.81392705e-18
-1.01180228e-18
-6.31946847e-18
-9.23639029e-18
-1.34434415e-17
-1.86404143e-17
-2.2624305e-17
-2.73182963e-17
-3.06537704e-17
-3.23021365e-17
-3.59651979e-17
-3.77235119e-17
-3.9008066e-17
-4.05531291e-17
-4.20938194e-17
-4.49120466e-17
-4.64978562e-17
-4.82836505e-17
-5.03923433e-17
-5.29254179e-17
-5.53255149e-17
-5.70873632e-17
-5.94180482e-17
-6.16165603e-17
-6.26305916e-17
-6.42700245e-17
-6.57678497e-17
-6.68035911e-17
-6.83772453e-17
-6.93078333e-17
-6.96685599e-17
-6.96856789e-17
-7.05426483e-17
-7.03293173e-17
-7.22559481e-17
-7.03186276e-17
-7.07401438e-17
-7.09732348e-17
-7.27378833e-17
-7.24773389e-17
-7.20411429e-17
-7.21146728e-17
-7.2576839e-17
-7.34110651e-17
-7.40909359e-17
-7.36168378e-17
-7.55380549e-17
-7.67872607e-17
-7.68831752e-17
-7.72976804e-17
-7.83974166e-17
-7.83069952e-17
-8.3354417e-17
-7.81445515e-17
-7.48908895e-17
-8.07788635e-17
-8.36304376e-17
-8.00300222e-17
-8.14691706e-17
-8.4040245e-17
-8.49614405e-17
-8.40432775e-17
-8.54115126e-17
-8.6971984e-17
-8.64783072e-17
-8.48594807e-17
-8.59473424e-17
-8.52596231e-17
-8.42217619e-17
-8.40505309e-17
-8.78910741e-17
-8.84296364e-17
-8.85831711e-17
-9.03846764e-17
-8.91009312e-17
-8.87563531e-17
-9.32355553e-17
-9.35425247e-17
-9.8030698e-17
-9.46847251e-17
-9.72542465e-17
-9.58339933e-17
-9.69710776e-17
-9.82359902e-17
-9.80179613e-17
-1.01740323e-16
-1.01705267e-16
-1.02986829e-16
-1.03837591e-16
-1.00503687e-16
-1.04420045e-16
-9.99579292e-17
-9.99387996e-17
-1.04585049e-16
-1.04317282e-16
-1.06577639e-16
-1.05270722e-16
-1.04712358e-16
-1.03783917e-16
-1.04339244e-16
-1.0435495e-16
-1.0308742e-16
-1.03466593e-16
-1.04077516e-16
-1.02957882e-16
-1.03792482e-16
-1.05847753e-16
-1.05280587e-16
-1.02734522e-16
-1.03258266e-16
-1.02254905e-16
-9.93971222e-17
-9.98975209e-17
-1.00163548e-16
-1.00836189e-16
-1.01417678e-16
-1.00399585e-16
-1.01040422e-16
-1.00629555e-16
-1.03355015e-16
-1.01316471e-16
-1.01439012e-16
-9.72316329e-17
-9.865242e-17
-9.90475344e-17
-9.87926818e-17
-1.01993327e-16
-9.72154126e-17
-1.00670411e-16
-1.02074395e-16
-9.95551233e-17
-1.02562294e-16
-1.0217664e-16
-1.06738651e-16
-1.05583003e-16
-1.05197242e-16
-1.06063215e-16
-1.0689045e-16
-1.05354249e-16
-1.0743772e-16
-1.04075372e-16
-1.04882222e-16
-1.07794672e-16
-1.1138794e-16
-1.0973713e-16
-1.10815085e-16
-1.11696469e-16
-1.12841813e-16
-1.14989912e-16
-1.13589778e-16
-1.1177294e-16
-1.15525252e-16
-1.16524265e-16
-1.15918492e-16
-1.1849526e-16
-1.19247603e-16
-1.16095137e-16
-1.16629262e-16
-1.19272266e-16
-1.20947606e-16
-1.19613076e-16
-1.17722194e-16
-1.14851522e-16
-1.18982128e-16
-1.18782524e-16
-1.19589796e-16
-1.16985701e-16
-1.19002416e-16
-1.16980901e-16
-1.19817201e-16
-1.20320571e-16
-1.21752462e-16
-1.23587812e-16
-1.23881667e-16
-1.25107849e-16
-1.26820847e-16
-1.27173511e-16
-1.27252875e-16
-1.26666867e-16
-1.27175647e-16
-1.25386289e-16
-1.25646687e-16
-1.24757321e-16
-1.25447147e-16
-1.22898472e-16
-1.24197877e-16
-1.230401e-16
-1.23082873e-16
-1.2239216e-16
-1.21861599e-16
-1.18034738e-16
-1.17340842e-16
-1.14784236e-16
-1.13148561e-16
-1.15480971e-16
-1.16094724e-16
-1.19407988e-16
-1.20398122e-16
-1.22754649e-16
-1.23279689e-16
-1.25128081e-16
-1.227177e-16
-1.24492978e-16
-1.22718121e-16
-1.22922592e-16
-1.23592423e-16
-1.20316876e-16
-1.20224878e-16
-1.20196908e-16
-1.18214654e-16
-1.19775723e-16
-1.21738918e-16
-1.20299161e-16
-1.18853544e-16
-1.18650599e-16
-1.19294745e-16
-1.206414e-16
-1.2142388e-16
-1.20214668e-16
-1.24409819e-16
-1.25551193e-16
-1.26573912e-16
-1.23746217e-16
-1.22050821e-16
-1.21671951e-16
-1.23840109e-16
-1.25192604e-16
-1.26753288e-16
-1.25685677e-16
-1.21759674e-16
-1.26410558e-16
-1.24123628e-16
-1.22246315e-16
-1.2296343e-16
-1.24897912e-16
-1.24098175e-16
-1.27075496e-16
-1.26976043e-16
-1.29221722e-16
-1.27128423e-16
-1.32206818e-16
-1.2992001e-16
-1.29667303e-16
-1.29372118e-16
-1.27674908e-16
-1.31567926e-16
-1.35417194e-16
-1.36936986e-16
-1.3649313e-16
-1.38026017e-16
-1.38343299e-16
-1.35991353e-16
-1.36870721e-16
-1.39165377e-16
-1.34613013e-16
-1.35866211e-16
-1.35490778e-16
-1.35390112e-16
-1.39468825e-16
-1.38450801e-16
-1.41658185e-16
-1.39017547e-16
-1.45203142e-16
-1.44726129e-16
-1.4567359e-16
-1.4655383e-16
-1.45110444e-16
-1.44550629e-16
-1.4590099e-16
-1.47377687e-16
-1.46895634e-16
-1.45811238e-16
-1.42180892e-16
-1.41833447e-16
-1.43512407e-16
-1.41619033e-16
-1.43121097e-16
-1.44666472e-16
-1.41915404e-16
-1.46346844e-16
-1.42279568e-16
-1.40721996e-16
-1.38609505e-16
-1.36919203e-16
-1.36581314e-16
-1.36431719e-16
-1.39338413e-16
-1.39435286e-16
-1.36989714e-16
-1.37308507e-16
-1.34982122e-16
-1.37925682e-16
-1.35851246e-16
-1.39219854e-16
-1.39843165e-16
-1.38332857e-16
-1.38674814e-16
-1.34717126e-16
-1.31485346e-16
-1.30687114e-16
-1.3079993e-16
-1.28931066e-16
-1.29697756e-16
-1.27334229e-16
-1.29403426e-16
-1.2944288e-16
-1.31484849e-16
-1.33473109e-16
-1.29968867e-16
-1.26838123e-16
-1.29273462e-16
-1.28145967e-16
-1.28695733e-16
-1.30230013e-16
-1.30258507e-16
-1.26868204e-16
-1.26242814e-16
-1.25772361e-16
-1.29257521e-16
-1.28121574e-16
-1.27595428e-16
-1.28590084e-16
-1.26180311e-16
-1.23437436e-16
-1.25789594e-16
-1.22207574e-16
-1.25526221e-16
-1.26436768e-16
-1.24841756e-16
-1.25732537e-16
-1.29918627e-16
-1.29081141e-16
-1.30048315e-16
-1.24777749e-16
-1.25914584e-16
-1.23703925e-16
-1.2491334e-16
-1.24139111e-16
-1.22759195e-16
-1.22842761e-16
-1.25394035e-16
-1.26345435e-16
-1.23584453e-16
-1.24440109e-16
-1.20055913e-16
-1.1706245e-16
-1.19162955e-16
-1.20440555e-16
-1.19839303e-16
-1.2453549e-16
-1.18235682e-16
-1.16963871e-16
-1.20723608e-16
-1.2136277e-16
-1.17065681e-16
-1.16787925e-16
-1.17629521e-16
-1.16944002e-16
-1.15489894e-16
-1.12293823e-16
-1.14467704e-16
-1.11186051e-16
-1.10288104e-16
-1.0525799e-16
-1.05797885e-16
-1.03217807e-16
-9.91725144e-17
-9.79566316e-17
-9.95346896e-17
-9.96401534e-17
-9.90768616e-17
-1.02006217e-16
-1.00169e-16
-9.7670659e-17
-9.84907066e-17
-9.84183022e-17
-9.7413846e-17
-9.37174963e-17
-9.26474525e-17
-9.49674393e-17
-9.60832182e-17
-9.65042662e-17
-9.53639876e-17
-9.15349275e-17
-9.51853622e-17
-9.47860477e-17
-9.64402441e-17
-9.46376803e-17
-9.44494443e-17
-9.68037102e-17
-9.08483479e-17
-9.0217048e-17
-8.97150772e-17
-8.83042845e-17
-8.74305929e-17
-8.96619935e-17
-8.81890342e-17
-8.9355624e-17
-8.93006015e-17
-8.93358074e-17
-9.00553419e-17
-9.04382373e-17
-9.27352953e-17
-9.38854785e-17
-9.1490835e-17
-9.15517951e-17
-8.94284941e-17
-8.92788207e-17
-8.77291317e-17
-8.50294717e-17
-8.36725613e-17
-7.89198473e-17
-7.90718581e-17
-8.0005557e-17
-7.67931138e-17
-7.26847666e-17
-7.22636796e-17
-6.81919225e-17
-6.85123405e-17
-6.83039666e-17
-6.46897294e-17
-6.61443472e-17
-6.81739279e-17
-6.8980326e-17
-6.69987639e-17
-6.83189861e-17
-6.90258185e-17
-6.87324294e-17
-6.57560928e-17
-6.96639367e-17
-7.12461527e-17
-7.04993356e-17
-7.10752216e-17
-6.78166459e-17
-6.70604726e-17
-6.45117772e-17
-6.34718827e-17
-6.27226036e-17
-6.23150218e-17
-5.9253521e-17
-6.06674927e-17
-6.24630384e-17
-6.32652506e-17
-6.35028262e-17
-6.52538246e-17
-6.38515404e-17
-6.57772533e-17
-6.51225819e-17
-6.30147465e-17
-6.48467148e-17
-6.33424553e-17
-6.30766858e-17
-6.15495339e-17
-6.34571197e-17
-6.25741169e-17
-6.29218667e-17
-6.67474411e-17
-6.16220646e-17
-6.28234738e-17
-6.42013376e-17
-6.11572703e-17
-6.13945072e-17
-5.72906154e-17
-5.84411062e-17
-5.78377704e-17
-5.86005822e-17
-5.96704948e-17
-5.85735982e-17
-5.76949494e-17
-5.5327071e-17
-5.63625996e-17
-5.71099148e-17
-5.38809765e-17
-5.35817595e-17
-5.60584046e-17
-5.26041206e-17
-5.07785653e-17
-5.2021166e-17
-5.60332145e-17
-5.39323003e-17
-5.20307021e-17
-5.15436841e-17
-4.89948896e-17
-4.84917358e-17
-5.17354019e-17
-5.13911999e-17
-5.18578262e-17
-5.1876509e-17
-4.95441973e-17
-4.91167449e-17
-4.67471093e-17
-4.85804612e-17
-4.31879435e-17
-4.25727901e-17
-4.1217225e-17
-4.01066221e-17
-3.81210264e-17
-3.60746201e-17
-3.67003825e-17
-3.29011108e-17
-3.16832006e-17
-3.44539973e-17
-3.22460195e-17
-3.51695707e-17
-3.06298637e-17
-2.80979445e-17
-2.79623814e-17
-2.99708502e-17
-2.98580024e-17
-2.71799436e-17
-2.55607571e-17
-2.57673852e-17
-2.40900103e-17
-2.59027872e-17
-2.49515142e-17
-2.86680813e-17
-2.69903688e-17
-2.5971993e-17
-2.60214012e-17
-2.87376066e-17
-2.55629865e-17
-2.29945405e-17
-2.33118467e-17
-1.7851127e-17
-2.09395392e-17
-2.01823361e-17
-2.05260038e-17
-1.94741523e-17
-1.81581996e-17
-1.89076079e-17
-1.98789148e-17
-2.04323817e-17
-2.08873859e-17
-2.14378102e-17
-1.91385848e-17
-1.98608958e-17
-1.84921761e-17
-1.68959912e-17
-1.73635395e-17
-1.27686529e-17
-1.37136929e-17
-1.37609894e-17
-1.32893889e-17
-1.51901932e-17
-1.46911553e-17
-1.23534826e-17
-1.16179333e-17
-9.65202187e-18
-1.22663702e-17
-1.49467045e-17
-1.25243042e-17
-1.12563476e-17
-1.07444142e-17
-8.70050464e-18
-5.95674484e-18
-6.78141294e-18
-5.02175047e-18
-7.91826801e-18
-8.07945768e-18
-9.41540238e-18
-6.07459685e-18
-7.13585664e-18
-7.71959226e-18
-8.14070985e-18
-7.61877799e-18
-6.47336543e-18
-7.22802505e-18
-2.25701033e-18
4.79694566e-19
8.70637821e-19
2.84903591e-18
1.48277953e-18
3.53460714e-18
4.49180422e-18
4.34355495e-18
3.70925305e-18
6.95856555e-18
5.59912478e-18
6.91751051e-18
7.72830122e-18
4.10232739e-18
8.02988025e-18
7.17809972e-18
6.28896018e-18
5.4571056e-18
7.17325011e-18
8.85010789e-18
1.09965672e-17
9.21551566e-18
1.09068493e-17
1.17514098e-17
1.29873486e-17
1.3260482e-17
1.32879893e-17
1.50915622e-17
1.5245475e-17
1.6188793e-17
1.37909688e-17
1.42784027e-17
1.65715204e-17
1.370098e-17
1.49501874e-17
1.56957383e-17
1.75038116e-17
1.85556812e-17
1.87952313e-17
1.78622842e-17
1.9225651e-17
1.8267899e-17
1.92942183e-17
1.75742688e-17
1.71834081e-17
2.06696386e-17
1.60249598e-17
1.9015206e-17
1.99410296e-17
1.76851903e-17
1.89705741e-17
2.03784322e-17
1.80102898e-17
1.92372594e-17
2.08540367e-17
1.51655318e-17
1.68675352e-17
1.74012031e-17
1.69655217e-17
1.59007083e-17
1.6787761e-17
1.71147298e-17
1.83669397e-17
1.77244122e-17
1.84990668e-17
1.79668512e-17
1.68281937e-17
1.65444206e-17
1.68093584e-17
1.79854662e-17
1.65662417e-17
1.75385386e-17
1.62052109e-17
1.4427231e-17
1.62681699e-17
1.84504167e-17
2.05957942e-17
2.20936535e-17
2.40586362e-17
2.47245639e-17
2.29413699e-17
2.8106785e-17
2.64755664e-17
2.67162186e-17
2.79813345e-17
2.77773026e-17
2.74242121e-17
2.82774062e-17
2.88328461e-17
2.71075341e-17
2.66286039e-17
2.81001623e-17
2.79671417e-17
2.90756025e-17
3.35647034e-17
3.36675514e-17
3.2087016e-17
2.78917933e-17
3.21884161e-17
3.01821599e-17
3.06683214e-17
2.99393399e-17
2.78247749e-17
2.99688722e-17
2.7500816e-17
2.84590721e-17
2.90013563e-17
2.84683398e-17
2.93898475e-17
2.78196522e-17
3.13395418e-17
2.93370616e-17
2.89201471e-17
3.04419112e-17
3.48203963e-17
3.18404656e-17
3.21515631e-17
3.48617132e-17
3.76307487e-17
3.13335315e-17
3.34167004e-17
3.52545798e-17
3.38625382e-17
3.31095836e-17
3.74319188e-17
3.48760867e-17
3.29296938e-17
3.54422551e-17
3.26259014e-17
3.61519818e-17
3.72593562e-17
3.52490067e-17
3.76895508e-17
3.27832391e-17
3.5833204e-17
3.43703702e-17
3.4442139e-17
3.48703587e-17
3.67063182e-17
3.75255673e-17
3.55222616e-17
3.69891578e-17
3.73028589e-17
3.52890724e-17
3.55272718e-17
3.48992434e-17
3.24691218e-17
3.32683346e-17
3.22331735e-17
3.53173242e-17
3.33174903e-17
3.22813812e-17
3.62136234e-17
3.85483582e-17
3.86380899e-17
3.79814873e-17
4.08583132e-17
4.18086091e-17
3.87502028e-17
3.91772619e-17
4.06128459e-17
4.19720437e-17
4.0996205e-17
4.02887954e-17
3.95985252e-17
4.1238014e-17
4.29560338e-17
4.85866036e-17
4.52103732e-17
4.45693011e-17
4.67796111e-17
4.86267188e-17
4.57239136e-17
4.40331806e-17
4.2182476e-17
4.22954282e-17
4.37730363e-17
4.73479445e-17
4.47399613e-17
4.61220211e-17
4.32853633e-17
4.09788216e-17
4.4031947e-17
4.49099689e-17
4.38095902e-17
4.13083786e-17
4.65153415e-17
4.10653375e-17
4.12874921e-17
4.42235292e-17
4.75212586e-17
4.48882378e-17
4.92981551e-17
4.58535211e-17
4.62129572e-17
4.58196137e-17
4.61984882e-17
4.46587711e-17
4.39800019e-17
4.8116143e-17
4.34887341e-17
4.70410269e-17
4.58435447e-17
4.36194249e-17
4.20967129e-17
3.99603353e-17
4.49112996e-17
4.29323499e-17
4.38507096e-17
4.49521771e-17
4.56880183e-17
4.39298887e-17
4.2451895e-17
4.31689767e-17
4.14100396e-17
4.18586041e-17
4.08715129e-17
4.26648711e-17
4.46327715e-17
4.26109735e-17
4.03007201e-17
4.49395952e-17
3.97776085e-17
3.99365546e-17
3.77884115e-17
4.08647318e-17
4.31121517e-17
4.1310124e-17
4.06029283e-17
3.93777599e-17
4.15201631e-17
4.64831266e-17
4.60971669e-17
4.58242145e-17
4.80204067e-17
4.86773677e-17
5.07199849e-17
4.63293437e-17
4.94486515e-17
5.02242682e-17
4.85336372e-17
4.89139892e-17
4.67617832e-17
4.87174548e-17
4.85013182e-17
4.7989795e-17
4.87557117e-17
5.01522964e-17
4.65627682e-17
4.74352198e-17
4.97102513e-17
5.01994937e-17
5.10558408e-17
5.13618226e-17
5.07476308e-17
4.79181025e-17
4.71579495e-17
5.13806142e-17
5.08251219e-17
5.05332158e-17
5.02609324e-17
4.91568662e-17
5.25675337e-17
5.36891407e-17
5.21467791e-17
5.33434724e-17
5.29878404e-17
5.4836047e-17
5.54260819e-17
5.4223518e-17
5.7578092e-17
5.86705299e-17
6.08250035e-17
6.05894497e-17
6.29682412e-17
6.22135844e-17
5.93717868e-17
5.7980046e-17
6.16255315e-17
6.35892421e-17
6.20046593e-17
6.17903068e-17
6.19768331e-17
5.87913427e-17
6.06264012e-17
6.02618156e-17
5.5801676e-17
5.82712139e-17
5.61398937e-17
5.67117744e-17
5.72042121e-17
5.69289135e-17
5.92309726e-17
5.87599833e-17
6.05878728e-17
6.33759119e-17
6.61385452e-17
6.8165005e-17
6.570235e-17
6.71694069e-17
6.35298752e-17
6.35697304e-17
6.19410966e-17
5.94099998e-17
5.90278301e-17
5.94482564e-17
6.10286365e-17
6.50515871e-17
6.40890568e-17
6.65983423e-17
6.62623704e-17
6.66414961e-17
6.84660862e-17
7.15022098e-17
6.78765629e-17
6.75544125e-17
6.79089802e-17
6.95335204e-17
6.91322025e-17
6.7351854e-17
6.53601921e-17
6.47901051e-17
6.89144624e-17
6.61066541e-17
6.93682517e-17
6.79226365e-17
6.29273051e-17
6.41029694e-17
6.27974219e-17
6.41192101e-17
6.5956082e-17
6.33818622e-17
6.05544883e-17
6.30600953e-17
6.15508123e-17
6.52313059e-17
6.15822041e-17
6.30124437e-17
6.39818444e-17
5.93998061e-17
6.02624582e-17
6.41595956e-17
6.26489214e-17
6.66219848e-17
6.57670854e-17
6.47306652e-17
6.63856405e-17
6.64858579e-17
6.68294733e-17
6.60814845e-17
6.52923371e-17
6.37906147e-17
6.42766473e-17
6.5310297e-17
6.77764764e-17
6.98357448e-17
7.15845954e-17
7.11652033e-17
7.04518608e-17
6.67406417e-17
7.11914045e-17
6.89318529e-17
6.94847073e-17
6.83191119e-17
6.51001932e-17
6.7494451e-17
6.7846741e-17
6.82991364e-17
6.65483521e-17
6.42301643e-17
6.37267636e-17
6.04690538e-17
6.28554755e-17
6.02050333e-17
5.94857671e-17
6.14124537e-17
6.04769146e-17
5.76839386e-17
5.7131614e-17
5.6149616e-17
5.77317104e-17
5.53503129e-17
5.44362482e-17
5.36184181e-17
5.46016723e-17
5.21776142e-17
5.26894747e-17
4.95109551e-17
5.39214755e-17
5.29517215e-17
5.52360178e-17
5.48118406e-17
5.72962939e-17
5.73126889e-17
5.58961246e-17
5.42961272e-17
5.30166932e-17
5.08082307e-17
5.15378793e-17
5.28977767e-17
5.3078071e-17
4.89282409e-17
5.26219671e-17
5.20671953e-17
5.28509553e-17
5.37244706e-17
5.11272034e-17
4.85128985e-17
4.8660777e-17
4.86158701e-17
4.49392661e-17
4.66083412e-17
4.36935019e-17
4.3946779e-17
3.94280437e-17
3.74945148e-17
3.51036341e-17
3.2294277e-17
3.11240154e-17
3.13361444e-17
3.25947185e-17
3.09379702e-17
3.15380654e-17
2.61217334e-17
2.6128469e-17
2.77869234e-17
2.29601435e-17
2.19018399e-17
2.13005765e-17
2.04379187e-17
2.28779081e-17
2.20401902e-17
2.51734629e-17
2.05406487e-17
2.17996145e-17
1.92684294e-17
2.07653591e-17
1.87446023e-17
2.24762354e-17
2.38674535e-17
2.16124786e-17
2.11225963e-17
2.23838646e-17
2.04365323e-17
2.36101023e-17
1.9084255e-17
2.16328882e-17
2.01360829e-17
1.79174786e-17
1.54227525e-17
1.44948525e-17
1.45138967e-17
1.89764547e-17
1.50214638e-17
1.20580981e-17
1.35691181e-17
1.37016593e-17
1.67512952e-17
1.52119407e-17
1.65346263e-17
1.50318998e-17
1.56764832e-17
1.52119288e-17
1.62910594e-17
1.52765153e-17
1.70313252e-17
1.47856763e-17
1.90408773e-17
1.84174094e-17
1.7160519e-17
1.29343399e-17
9.82306865e-18
8.36703642e-18
8.09391125e-18
6.91917021e-18
7.79094803e-18
5.74821902e-18
7.97327539e-18
7.62389977e-18
2.58024166e-18
3.57540304e-19
1.89198872e-18
-3.52375181e-19
6.51359657e-20
-3.20851912e-18
-3.92878705e-18
-2.13181605e-18
-5.7090651e-18
-5.94353814e-18
-8.26916814e-18
-9.77201527e-18
-1.16701947e-17
-1.312381e-17
-1.3246025e-17
-1.19921214e-17
-1.79352224e-17
-1.93699922e-17
-1.89922748e-17
-1.94450469e-17
-2.13415235e-17
-1.9126433e-17
-1.64370822e-17
-1.93895105e-17
-2.12612765e-17
-2.46062164e-17
-2.65226177e-17
-2.50646698e-17
-2.3834305e-17
-2.40570514e-17
-2.73645608e-17
-2.75697071e-17
-3.09538521e-17
-2.96276619e-17
-3.14959888e-17
-3.47867852e-17
-3.53573352e-17
-3.33253201e-17
-3.4678567e-17
-3.3584444e-17
-3.37173662e-17
-3.65133522e-17
-3.61360941e-17
-4.20334279e-17
-4.18210182e-17
-3.95206584e-17
-4.04565976e-17
-3.93477024e-17
-3.70437062e-17
-3.93101122e-17
-4.02544776e-17
-3.4124994e-17
-3.93209916e-17
-3.89480768e-17
-3.82199049e-17
-4.06645118e-17
-4.07392157e-17
-3.53697406e-17
-3.57837045e-17
-3.61058279e-17
-3.6322213e-17
-4.18492011e-17
-4.27928944e-17
-4.44055411e-17
-4.49204667e-17
-4.29342985e-17
-4.37254403e-17
-4.09409776e-17
-4.22488059e-17
-4.4821477e-17
-4.48756117e-17
-4.62724413e-17
-4.68179384e-17
-4.79052048e-17
-4.35737936e-17
-4.85401633e-17
-4.54970393e-17
-4.53895376e-17
-4.35193594e-17
-4.59113575e-17
-4.58781919e-17
-4.5207872e-17
-4.40412135e-17
-4.80879717e-17
-4.81229678e-17
-4.92755011e-17
-4.84496483e-17
-5.12444804e-17
-5.07674747e-17
-5.03697017e-17
-5.04538105e-17
-5.10126133e-17
-5.53200127e-17
-5.37662761e-17
-5.44297463e-17
-5.32333407e-17
-5.63643379e-17
-5.47417445e-17
-5.6832706e-17
-5.75528779e-17
-5.82556598e-17
-5.88151904e-17
-5.85822229e-17
-6.13035264e-17
-6.25346355e-17
-6.29592945e-17
-6.25560841e-17
-6.25530613e-17
-6.56522408e-17
-6.6464985e-17
-6.86683919e-17
-6.75476939e-17
-6.89881024e-17
-6.99506783e-17
-6.46021786e-17
-6.91769123e-17
-6.5929952e-17
-6.89726004e-17
-6.99258683e-17
-6.77885449e-17
-6.69846442e-17
-6.64857294e-17
-6.81973656e-17
-7.24276185e-17
-7.11533509e-17
-7.40953456e-17
-7.15489457e-17
-7.27283187e-17
-7.06535629e-17
-6.80268754e-17
-6.68484405e-17
-6.64363646e-17
-6.46607976e-17
-6.85019247e-17
-6.2852292e-17
-6.37170471e-17
-6.47676757e-17
-6.33011838e-17
-6.16439724e-17
-6.16635685e-17
-6.11424853e-17
-6.144116e-17
-6.30608973e-17
-6.42586067e-17
-6.25843313e-17
-6.39854406e-17
-6.04648834e-17
-6.04161334e-17
-5.95633081e-17
-6.23977571e-17
-6.12358728e-17
-5.75652852e-17
-6.24100736e-17
-6.1735256e-17
-6.08005334e-17
-6.40183892e-17
-6.43457599e-17
-6.4695898e-17
-6.73622217e-17
-6.56467605e-17
-6.26664967e-17
-6.41848483e-17
-6.4356636e-17
-6.28492873e-17
-6.15662206e-17
-6.24070509e-17
-6.24998836e-17
-6.07717003e-17
-5.94033523e-17
-6.04944768e-17
-6.01142284e-17
-5.9724914e-17
-6.1725981e-17
-5.85742636e-17
-5.7565827e-17
-5.6802026e-17
-5.53783391e-17
-5.9186367e-17
-5.93356306e-17
-5.99808342e-17
-6.10845515e-17
-6.17337674e-17
-6.05375363e-17
-6.13706883e-17
-6.1193269e-17
-6.16529949e-17
-5.91697647e-17
-5.91319143e-17
-6.00215947e-17
-6.05970432e-17
-5.94220928e-17
-6.29582204e-17
-6.37579759e-17
-6.14231235e-17
-6.04205148e-17
-6.05222423e-17
-6.36523185e-17
-6.46806381e-17
-6.43553292e-17
-6.57366196e-17
-6.45593342e-17
-6.31320947e-17
-6.58054201e-17
-6.43684004e-17
-6.51781842e-17
-6.79436911e-17
-6.47355849e-17
-6.54486497e-17
-6.25063405e-17
-6.09083136e-17
-5.96704707e-17
-6.28360668e-17
-6.26150182e-17
-6.39147736e-17
-6.69292757e-17
-6.46504974e-17
-6.3274567e-17
-6.07348878e-17
-6.51087729e-17
-6.41308888e-17
-6.46328475e-17
-6.56947702e-17
-6.36502939e-17
-6.45674601e-17
-6.26496169e-17
-6.4002369e-17
-6.1942304e-17
-6.11356801e-17
-6.28107853e-17
-6.11219873e-17
-6.54271608e-17
-6.51558514e-17
-6.58253001e-17
-6.52260762e-17
-6.80694063e-17
-6.85068428e-17
-6.63905964e-17
-6.60588434e-17
-6.49020049e-17
-6.56956522e-17
-6.47938941e-17
-6.40664913e-17
-6.1416509e-17
-6.54434151e-17
-6.76982387e-17
-6.39237587e-17
-6.2624323e-17
-6.43819076e-17
-6.32768976e-17
-5.90851376e-17
-5.79843315e-17
-5.5561898e-17
-5.52341308e-17
-5.72007667e-17
-5.62457357e-17
-6.04804209e-17
-5.58810683e-17
-5.88827354e-17
-5.88843393e-17
-5.82537816e-17
-5.66318616e-17
-6.19839939e-17
-5.90226781e-17
-5.99719725e-17
-6.14063559e-17
-5.99162542e-17
-6.10065548e-17
-6.2208518e-17
-6.08113034e-17
-6.08547928e-17
-6.04692567e-17
-5.94896563e-17
-5.72006831e-17
-5.72816069e-17
-5.58955858e-17
-5.60364389e-17
-5.13097319e-17
-5.30485022e-17
-5.20069489e-17
-5.22368429e-17
-5.10348501e-17
-5.21728512e-17
-4.88723073e-17
-5.1510589e-17
-4.98278841e-17
-5.30829048e-17
-5.06184954e-17
-5.36573725e-17
-5.18885733e-17
-5.04103901e-17
-5.00498597e-17
-4.89199414e-17
-5.23446382e-17
-4.86036828e-17
-5.1084982e-17
-5.01066118e-17
-5.2363157e-17
-5.23861144e-17
-5.46877355e-17
-5.24615523e-17
-5.29957157e-17
-5.52603405e-17
-5.37243999e-17
-5.29172436e-17
-5.39347659e-17
-5.50571924e-17
-5.11137676e-17
-4.95157338e-17
-4.58531272e-17
-4.53440466e-17
-4.78187011e-17
-4.89749968e-17
-5.06814061e-17
-5.10147608e-17
-4.6385416e-17
-4.84442197e-17
-4.77852716e-17
-4.65237617e-17
-4.76804784e-17
-4.82722389e-17
-4.80120126e-17
-4.50183865e-17
-4.74372909e-17
-4.37329633e-17
-4.5279456e-17
-4.44703909e-17
-4.70700178e-17
-4.91217676e-17
-4.73927691e-17
-4.70243874e-17
-4.50151642e-17
-4.32814617e-17
-4.20878927e-17
-4.02413639e-17
-4.30142235e-17
-4.09652643e-17
-4.08402911e-17
-3.77209589e-17
-3.91624489e-17
-3.86287973e-17
-4.08841456e-17
-4.12882109e-17
-3.98224066e-17
-3.98624652e-17
-3.67987265e-17
-3.72021077e-17
-3.97354199e-17
-3.71596331e-17
-3.52797216e-17
-3.69358924e-17
-3.52869045e-17
-3.26356888e-17
-3.20450977e-17
-2.99709354e-17
-2.66034767e-17
-2.71561181e-17
-2.85022878e-17
-2.4874836e-17
-2.787841e-17
-3.006429e-17
-2.92585963e-17
-2.71561432e-17
-2.95551559e-17
-2.88136437e-17
-2.41010436e-17
-2.04182344e-17
-1.94784916e-17
-2.0191236e-17
-2.02567474e-17
-2.00491928e-17
-2.26618783e-17
-2.17863849e-17
-2.00791648e-17
-2.15705171e-17
-2.05373972e-17
-1.55819171e-17
-1.6340683e-17
-1.5669792e-17
-1.74529207e-17
-1.67666839e-17
-1.58237542e-17
-1.41907712e-17
-8.04372333e-18
-9.47306773e-18
-3.7558649e-18
2.09954324e-18
7.54977979e-21
1.13732667e-18
2.0269333e-18
4.94998095e-18
7.37597612e-18
7.9057145e-18
1.13685358e-17
1.0804561e-17
1.04268652e-17
1.36633926e-17
1.7171068e-17
1.80647176e-17
2.00701454e-17
2.33458924e-17
2.75630821e-17
3.09924311e-17
3.17702653e-17
3.38945338e-17
3.9779294e-17
4.1504139e-17
4.79137758e-17
5.50122482e-17
6.14943068e-17
6.33405094e-17
6.81670318e-17
7.50328315e-17
8.38515137e-17
9.17868636e-17
1.02402389e-16
1.13531557e-16
1.19779876e-16
1.28735491e-16
1.41956112e-16
1.52853787e-16
1.69717819e-16
1.82564183e-16
1.9686942e-16
2.10951365e-16
2.34443164e-16
2.50965275e-16
2.70561945e-16
2.90704461e-16
3.16713337e-16
3.38199079e-16
3.6581422e-16
3.92418644e-16
4.18696658e-16
4.50497093e-16
4.80951163e-16
5.17400247e-16
5.58563119e-16
5.97915818e-16
6.45084816e-16
6.90970659e-16
7.4138787e-16
7.93050646e-16
8.54428018e-16
9.15175324e-16
9.82570078e-16
1.04914396e-15
1.12746261e-15
1.21167741e-15
1.29757873e-15
1.39444422e-15
1.49155633e-15
1.59894993e-15
1.71417465e-15
1.83550249e-15
1.97193533e-15
2.11249828e-15
2.26130742e-15
2.42218627e-15
2.59593254e-15
2.78112205e-15
2.98143396e-15
3.19181668e-15
3.41580768e-15
3.65526641e-15
3.91290069e-15
4.19285659e-15
4.4881017e-15
4.80324824e-15
5.13877075e-15
5.50138635e-15
5.88780534e-15
6.3014474e-15
6.74372034e-15
7.21216323e-15
7.71924301e-15
8.25191898e-15
8.82993227e-15
9.44343539e-15
1.00982782e-14
1.07945665e-14
1.15451687e-14
1.23434365e-14
1.31925528e-14
1.41041903e-14
1.50770658e-14
1.61105111e-14
1.72170135e-14
1.83984769e-14
1.96602254e-14
2.10019501e-14
2.24348154e-14
2.39650021e-14
2.5602353e-14
2.73432011e-14
2.92000857e-14
3.11852587e-14
3.32917576e-14
3.55470796e-14
3.79478463e-14
4.05026795e-14
4.32289377e-14
4.61309727e-14
4.92288261e-14
5.25332031e-14
5.60499321e-14
5.97948728e-14
6.3786828e-14
6.8035929e-14
7.25612002e-14
7.73835997e-14
8.25180341e-14
8.79810973e-14
9.38031024e-14
9.99990098e-14
1.06591643e-13
1.13608508e-13
1.21078135e-13
1.29025507e-13
1.37481117e-13
1.46479978e-13
1.56053085e-13
1.66232494e-13
1.77059521e-13
1.88574268e-13
2.00816574e-13
2.13834933e-13
2.2767349e-13
2.42387055e-13
2.58024442e-13
2.74646378e-13
2.92312783e-13
3.1108314e-13
3.3102509e-13
3.52214482e-13
3.74719779e-13
3.9862541e-13
4.24010731e-13
4.50973226e-13
4.79602613e-13
5.09993404e-13
5.42263558e-13
5.76512982e-13
6.1286178e-13
6.51440304e-13
6.92379664e-13
7.35816995e-13
7.81905446e-13
8.30796367e-13
8.82652229e-13
9.37650577e-13
9.95970789e-13
1.05782051e-12
1.12338788e-12
1.19290522e-12
1.26659237e-12
1.34469377e-12
1.42746431e-12
1.51517933e-12
1.60811329e-12
1.70657268e-12
1.81087834e-12
1.92135451e-12
2.0383618e-12
2.16227284e-12
2.29348035e-12
2.43239001e-12
2.57944387e-12
2.73510717e-12
2.89985654e-12
3.07421054e-12
3.25870187e-12
3.45389707e-12
3.66040559e-12
3.87884654e-12
4.10988757e-12
4.35422619e-12
4.61260212e-12
4.88579324e-12
5.17460572e-12
5.47990471e-12
5.80259676e-12
6.14362404e-12
6.50399519e-12
6.88476411e-12
7.28703524e-12
7.71197456e-12
8.16080218e-12
8.63480866e-12
9.1353548e-12
9.66385776e-12
1.02218154e-11
1.08108025e-11
1.1432468e-11
1.20885546e-11
1.27808777e-11
1.35113539e-11
1.42819924e-11
1.50949082e-11
1.59523163e-11
1.68565417e-11
1.78100333e-11
1.88153526e-11
1.98751832e-11
2.09923414e-11
2.21698043e-11
2.34106558e-11
2.47181593e-11
2.60957291e-11
2.75469356e-11
2.90755384e-11
3.0685451e-11
3.23807973e-11
3.41658971e-11
3.60452608e-11
3.80236199e-11
4.01059371e-11
4.22973969e-11
4.4603428e-11
4.70297226e-11
4.95822331e-11
5.22671742e-11
5.50910721e-11
5.80607409e-11
6.11833035e-11
6.44662199e-11
6.79172833e-11
7.15446367e-11
7.53568043e-11
7.93626785e-11
8.35715692e-11
8.79931915e-11
9.26376908e-11
9.75156781e-11
1.02638214e-10
1.08016865e-10
1.13663687e-10
1.1959129e-10
1.25812797e-10
1.3234194e-10
1.39193007e-10
1.46380931e-10
1.53921271e-10
1.61830247e-10
1.70124782e-10
1.78822499e-10
1.87941775e-10
1.97501758e-10
2.07522397e-10
2.18024467e-10
2.29029603e-10
2.40560333e-10
2.52640118e-10
2.65293372e-10
2.78545502e-10
2.92422952e-10
3.06953218e-10
3.22164914e-10
3.38087798e-10
3.54752792e-10
3.72192069e-10
3.90439049e-10
4.0952848e-10
4.29496444e-10
4.50380443e-10
4.7221942e-10
4.95053802e-10
5.18925591e-10
5.43878355e-10
5.69957335e-10
5.97209459e-10
6.25683428e-10
6.55429733e-10
6.8650076e-10
7.18950804e-10
7.52836172e-10
7.88215198e-10
8.25148344e-10
8.63698248e-10
9.03929779e-10
9.45910132e-10
9.89708868e-10
1.03539801e-09
1.08305208e-09
1.13274819e-09
1.18456614e-09
1.23858844e-09
1.29490044e-09
1.35359035e-09
1.41474936e-09
1.47847174e-09
1.54485486e-09
1.61399929e-09
1.68600894e-09
1.76099107e-09
1.8390564e-09
1.92031923e-09
2.00489747e-09
2.09291278e-09
2.18449064e-09
2.27976041e-09
2.37885548e-09
2.48191331e-09
2.58907557e-09
2.70048817e-09
2.81630141e-09
2.93667006e-09
3.06175343e-09
3.1917155e-09
3.32672498e-09
3.46695542e-09
3.61258533e-09
3.76379822e-09
3.92078276e-09
4.0837328e-09
4.25284753e-09
4.42833152e-09
4.61039486e-09
4.79925323e-09
4.99512795e-09
5.19824614e-09
5.40884077e-09
5.62715073e-09
5.85342095e-09
6.08790245e-09
6.33085245e-09
6.58253443e-09
6.84321818e-09
7.11317996e-09
7.39270244e-09
7.68207488e-09
7.98159314e-09
8.29155975e-09
8.61228396e-09
8.94408182e-09
9.28727619e-09
9.64219678e-09
1.00091803e-08
1.03885702e-08
1.07807171e-08
1.11859786e-08
1.16047193e-08
1.20373106e-08
1.24841313e-08
1.29455669e-08
1.34220102e-08
1.39138608e-08
1.44215254e-08
1.49454175e-08
1.54859576e-08
1.60435733e-08
1.66186986e-08
1.72117745e-08
1.78232486e-08
1.84535751e-08
1.91032148e-08
1.97726347e-08
2.04623082e-08
2.1172715e-08
2.19043405e-08
2.26576762e-08
2.34332194e-08
2.42314727e-08
2.50529443e-08
2.58981475e-08
2.67676006e-08
2.76618266e-08
2.85813532e-08
2.95267121e-08
3.04984392e-08
3.14970742e-08
3.25231603e-08
3.35772437e-08
3.46598735e-08
3.57716014e-08
3.69129813e-08
3.80845689e-08
3.92869214e-08
4.05205969e-08
4.17861545e-08
4.30841532e-08
4.4415152e-08
4.57797092e-08
4.71783823e-08
4.86117268e-08
5.00802964e-08
5.15846423e-08
5.31253124e-08
5.47028511e-08
5.63177986e-08
5.79706905e-08
5.96620569e-08
6.13924221e-08
6.31623038e-08
6.49722125e-08