/*--------------------------------*- C++ -*----------------------------------*\
| =========                 |                                                 |
| \\      /  F ield         | OpenFOAM: The Open Source CFD Toolbox           |
|  \\    /   O peration     | Version:  2206                                  |
|   \\  /    A nd           | Website:  www.openfoam.com                      |
|    \\/     M anipulation  |                                                 |
\*---------------------------------------------------------------------------*/
FoamFile
{
    version     2.0;
    format      ascii;
    arch        "LSB;label=32;scalar=64";
    class       volScalarField;
    location    "1.96e-05";
    object      PVsourcePV;
}
// * * * * * * * * * * * * * * * * * * * * * * * * * * * * * * * * * * * * * //

dimensions      [1 -3 -1 0 0 0 0];

internalField   nonuniform List<scalar> 
3183
(
0
0
0
0
0
0
0
0
0
0
0
0
0
0
0
0
0
0
0
0
0
0
0
0
0
0
0
0
0
0
0
0
0
0
0
0
0
0
0
0
0
0
0
0
0
0
0
0
0
0
0
0
0
0
0
0
0
0
0
0
0
0
0
0
0
0
0
0
0
0
0
0
0
0
0
0
0
0
0
0
0
0
0
0
0
0
0
0
0
0
0
0
0
0
0
0
0
0
0
0
0
0
0
0
0
0
0
0
0
0
0
0
0
0
0
0
0
0
0
0
0
0
0
0
0
0
0
0
0
0
0
0
0
0
0
0
0
0
0
0
0
0
0
0
0
0
0
0
0
0
0
0
0
0
0
0
0
0
0
0
0
0
0
0
0
0
0
0
0
0
0
0
0
0
0
0
0
0
0
0
0
0
0
0
0
0
0
0
0
0
0
0
0
0
0
0
0
0
0
0
0
0
0
0
0
0
0
0
0
0
0
0
0
0
0
0
0
0
0
0
0
0
0
0
0
0
0
0
0
0
0
0
0
0
0
0
0
0
0
0
0
0
0
0
0
0
0
0
0
0
0
0
0
0
0
0
0
0
0
0
0
0
0
0
0
0
0
0
0
0
0
0
0
0
0
0
0
0
0
0
0
0
0
0
0
0
0
0
0
0
0
0
0
0
0
0
0
0
0
0
0
0
0
0
0
0
0
0
0
0
0
0
0
0
0
0
0
0
0
0
0
0
0
0
0
0
0
0
0
0
0
0
0
0
0
0
0
0
0
0
0
0
0
0
0
0
0
0
0
0
0
0
0
0
0
0
0
0
0
0
0
0
0
0
0
0
0
0
0
0
0
0
0
0
0
0
0
0
0
0
0
0
0
0
0
0
0
0
0
0
0
0
0
0
0
0
0
0
0
0
0
0
0
0
0
0
0
0
0
0
0
0
0
0
0
0
0
0
0
0
0
0
0
0
0
0
0
0
0
0
0
0
0
0
0
0
0
0
0
0
0
0
0
0
0
0
0
0
0
0
0
0
0
0
0
0
0
0
0
0
0
0
0
0
0
0
0
0
0
0
0
0
0
0
0
0
0
0
0
0
0
0
0
0
0
0
0
0
0
0
0
0
0
0
0
0
0
0
0
0
0
0
0
0
0
0
0
0
0
0
0
0
0
0
0
0
0
0
0
0
0
0
0
0
0
0
0
0
0
0
0
0
0
0
0
0
0
0
0
0
0
0
0
0
0
0
0
0
0
0
0
0
0
0
0
0
0
0
0
0
0
0
0
0
0
0
0
0
0
0
0
0
0
0
0
0
0
0
0
0
0
0
0
0
0
0
0
0
0
0
0
0
0
0
0
0
0
0
0
0
0
0
0
0
0
0
0
0
0
0
0
0
0
0
0
0
0
0
0
0
0
0
0
0
0
0
0
0
0
0
0
0
0
0
0
0
0
0
0
0
0
0
0
0
0
0
0
0
0
0
0
0
0
0
0
0
0
0
0
0
0
0
0
0
0
0
0
0
0
0
0
0
0
0
0
0
0
0
0
0
0
0
0
0
0
0
0
0
0
0
0
0
0
0
0
0
0
0
0
0
0
0
0
0
0
0
0
0
0
0
0
0
0
0
0
0
0
0
0
0
0
0
0
0
0
0
0
0
0
0
0
0
0
0
0
0
0
0
0
0
0
0
0
0
0
0
0
0
0
0
0
0
0
0
0
0
0
0
0
0
0
0
0
0
0
0
0
0
0
0
0
0
0
0
0
0
0
0
0
0
0
0
0
0
0
0
0
0
0
0
0
0
0
0
0
0
0
0
0
0
0
0
0
0
0
0
0
0
0
0
0
0
0
0
0
0
0
0
0
0
0
0
0
0
0
0
0
0
0
0
0
0
0
0
0
0
0
0
0
0
0
0
0
0
0
0
0
0
0
0
0
0
0
0
0
0
0
0
0
0
0
0
0
0
0
0
0
0
0
0
0
0
0
0
0
0
0
0
0
0
0
0
0
0
0
0
0
0
0
0
0
0
0
0
0
0
0
0
0
0
0
0
0
0
0
0
0
0
0
0
0
0
0
0
0
0
0
0
0
0
0
0
0
0
0
0
0
0
0
0
0
0
0
0
0
0
0
0
0
0
0
0
0
0
0
0
0
0
0
0
0
0
0
0
0
0
0
0
0
0
0
0
0
0
0
0
0
0
0
0
0
0
0
0
0
0
0
0
0
0
0
0
0
0
0
0
0
0
0
0
0
0
0
0
0
0
0
0
0
0
0
0
0
0
0
0
0
0
0
0
0
0
0
0
0
0
0
0
0
0
0
0
0
0
0
0
0
0
0
0
0
0
0
0
0
0
0
0
0
0
0
0
0
0
0
0
0
0
0
0
0
0
0
0
0
0
0
0
0
0
0
0
0
0
0
0
0
0
0
0
0
0
0
0
0
0
0
0
0
0
0
0
0
0
0
0
0
0
0
0
0
0
0
0
0
0
0
0
0
0
0
0
0
0
0
0
0
0
0
0
0
0
0
0
0
0
0
0
0
0
0
0
0
0
0
0
0
0
0
0
0
0
0
0
0
0
0
0
0
0
0
0
0
0
0
0
0
0
0
0
0
0
0
0
0
0
0
0
0
0
0
0
0
0
0
0
0
0
0
0
0
0
0
0
0
0
0
0
0
0
0
0
0
0
0
0
0
0
0
0
0
0
0
0
0
0
0
0
0
0
0
0
0
0
0
0
0
0
0
0
0
0
0
0
0
0
0
0
0
0
0
0
0
0
0
0
0
0
0
0
0
0
0
0
0
0
0
0
0
0
0
0
0
0
0
0
0
0
0
0
0
0
0
0
0
0
0
0
0
0
0
0
0
0
0
0
0
0
0
0
0
0
0
0
0
0
0
0
0
0
0
0
0
0
0
0
0
0
0
0
0
0
0
0
0
0
0
0
0
0
0
0
0
0
0
0
0
0
0
0
0
0
0
0
0
0
0
0
0
0
0
0
0
0
0
0
0
0
0
0
0
0
0
0
0
0
0
0
0
0
0
0
0
0
0
0
0
0
0
0
0
0
0
0
0
0
0
0
0
0
0
0
0
0
0
0
0
0
0
0
0
0
0
0
0
0
0
0
0
0
0
0
0
0
0
0
0
0
0
0
0
0
0
0
0
0
0
0
0
0
0
0
0
0
0
0
0
0
0
0
0
0
0
0
0
0
0
0
0
0
0
0
0
0
0
0
0
0
0
0
0
0
0
0
0
0
0
0
0
0
0
0
0
0
0
0
0
0
0
0
0
0
0
0
0
0
0
0
0
0
0
0
0
0
0
0
0
0
0
0
0
0
0
0
0
0
0
0
0
0
0
0
0
0
0
0
0
0
0
0
0
0
0
0
0
0
0
0
0
0
0
0
0
0
0
0
0
0
0
0
0
0
0
0
0
0
0
0
0
0
0
0
0
0
0
0
0
0
0
0
0
0
0
0
0
0
0
0
0
0
0
0
0
0
0
0
0
0
0
0
0
0
0
0
0
0
0
0
0
0
0
0
0
0
0
0
0
0
0
0
0
0
0
0
0
0
0
0
0
0
0
0
0
0
0
0
0
0
0
0
0
0
0
0
0
0
0
0
0
0
0
0
0
0
0
0
0
0
0
0
0
0
0
0
0
0
0
0
0
0
0
0
0
0
0
0
0
0
0
0
0
0
0
0
0
0
0
0
0
0
0
0
0
0
0
0
0
0
0
0
0
0
0
0
0
0
0
0
0
0
0
0
0
0
0
0
0
0
0
0
0
0
0
0
0
0
0
0
0
0
0
0
0
0
0
0
0
0
0
0
0
0
0
0
0
0
0
0
0
0
0
0
0
0
0
0
0
0
0
0
0
0
0
0
0
0
0
0
0
0
0
0
0
0
0
0
0
0
0
0
0
0
0
0
0
0
0
0
0
0
0
0
0
0
0
0
0
0
0
0
0
0
0
0
0
0
0
0
0
0
0
0
0
0
0
0
0
0
0
0
0
0
0
0
0
0
0
0
0
0
0
0
0
0
0
0
0
0
0
0
0
0
0
0
0
0
0
0
0
0
0
0
0
0
0
0
0
0
0
0
0
0
0
0
0
0
0
0
0
0
0
0
0
0
0
0
0
0
0
0
0
0
0
0
0
0
0
0
0
0
0
0
0
0
0
0
0
0
0
0
0
0
0
0
0
0
0
0
0
0
0
0
0
0
0
0
0
0
0
0
0
0
0
0
0
0
0
0
0
0
0
0
0
0
0
0
0
0
0
0
0
0
0
0
0
0
0
0
0
0
0
0
0
0
0
0
0
0
0
0
0
0
0
0
0
0
0
0
0
0
0
0
0
0
0
0
0
0
0
0
0
0
0
0
0
0
0
0
0
0
0
0
0
0
0
0
0
0
0
0
0
0
0
0
0
0
0
0
0
0
0
0
0
0
0
0
0
0
0
0
0
0
0
0
0
0
0
0
0
0
0
0
0
0
0
0
0
0
0
0
0
0
0
0
0
0
0
0
0
0
0
0
0
0
0
0
0
0
0
0
0
0
0
0
0
0
0
0
0
0
0
0
0
0
0
0
0
0
0
0
0
0
0
0
0
0
0
0
0
0
0
0
0
0
0
0
0
0
0
0
0
0
0
0
0
0
0
0
0
0
0
0
0
0
0
0
0
0
0
0
0
0
0
0
0
0
0
0
0
0
0
0
0
0
0
0
0
0
0
0
0
0
0
0
0
0
0
0
0
0
0
0
0
0
0
0
0
0
0
0
0
0
0
0
0
0
0
0
0
0
0
0
0
0
0
0
0
0
0
0
0
0
0
0
0
0
0
0
0
0
0
0
0
0
0
0
0
0
0
0
0
0
0
0
0
0
0
0
0
0
0
0
0
0
0
0
0
0
0
0
0
0
0
0
0
0
0
0
0
0
0
0
0
0
0
0
0
0
0
0
0
0
0
0
0
0
0
0
0
0
0
0
0
0
0
0
0
0
0
0
0
0
0
0
0
0
0
0
0
0
0
0
0
0
0
0
0
0
0
0
0
0
0
0
0
0
0
0
0
0
0
0
0
0
0
0
0
0
0
0
0
0
0
0
0
0
0
0
0
0
0
0
0
0
0
0
0
0
0
0
0
0
0
0
0
0
0
0
0
0
0
0
0
0
0
0
0
0
0
0
0
0
0
0
0
0
0
0
0
0
0
0
0
0
0
0
0
0
0
0
0
0
0
0
0
0
0
0
0
0
0
0
0
0
0
0
0
0
0
0
0
0
0
0
0
0
0
0
0
0
0
0
0
0
0
0
0
0
0
0
0
0
0
0
0
1.62106224e-299
9.49624959e-300
7.50623547e-297
4.4299827e-297
3.44685888e-294
2.04933122e-294
1.56961754e-291
9.40098255e-292
7.08798722e-289
4.27637328e-289
3.17394941e-286
1.92889549e-286
1.40933367e-283
8.62704322e-284
6.20515573e-281
3.82581941e-281
2.70897092e-278
1.68221946e-278
1.17261668e-275
7.33375763e-276
5.0326254e-273
3.16988975e-273
2.14144134e-270
1.35834789e-270
9.03392504e-268
5.77077493e-268
3.77824963e-265
2.43049056e-265
1.56651033e-262
1.0146222e-262
6.43855397e-260
4.19982224e-260
2.62324779e-257
1.72316299e-257
1.0594221e-254
7.00891723e-255
4.24091643e-252
2.82489552e-252
1.6826469e-249
1.12845263e-249
6.61682786e-247
4.46760594e-247
2.57875799e-244
1.75290106e-244
9.95989837e-242
6.81570386e-242
3.81207806e-239
2.62611561e-239
1.44580429e-236
1.00264023e-236
5.43344972e-234
3.79299422e-234
2.02319177e-231
1.42168001e-231
7.46396829e-229
5.27934748e-229
2.72803015e-226
1.94219418e-226
9.87756053e-224
7.0780488e-224
3.5427873e-221
2.55515125e-221
1.25865919e-218
9.13639006e-219
4.4290532e-216
3.23563504e-216
1.54356314e-213
1.13486008e-213
5.32744319e-211
3.94178633e-211
1.82080481e-208
1.35575411e-208
6.16206581e-206
4.61715015e-206
2.06478517e-203
1.55682353e-203
6.84975742e-201
5.19688547e-201
2.24953313e-198
1.71731606e-198
7.31291404e-196
5.61725939e-196
2.35305592e-193
1.81856384e-193
7.49340793e-191
5.82671683e-191
2.36152341e-188
1.84744184e-188
7.36427525e-186
5.79599583e-186
2.27222036e-183
1.79909196e-183
6.93601426e-181
5.52462577e-181
2.09441915e-178
1.67815213e-178
6.25554022e-176
5.04187425e-176
1.84784529e-173
1.49808556e-173
5.39779424e-171
4.40164732e-171
1.55907019e-168
1.27872246e-168
4.45205573e-166
3.6725392e-166
1.25674235e-163
1.04263073e-163
3.50643586e-161
2.92557666e-161
9.66853864e-159
8.11241745e-159
2.63433076e-156
2.22272558e-156
7.09139027e-154
6.01665206e-154
1.88572753e-151
1.60876249e-151
4.95273924e-149
4.24843605e-149
1.28457953e-146
1.10788843e-146
3.28967513e-144
2.85246178e-144
8.31660876e-142
7.24978102e-142
2.07521314e-139
1.81858131e-139
5.11000448e-137
4.50154802e-137
1.24147453e-134
1.09932929e-134
2.97525946e-132
2.64814998e-132
7.03220373e-130
6.29093033e-130
1.63886444e-127
1.47349846e-127
3.76514042e-125
3.40210842e-125
8.5251766e-123
7.74118303e-123
1.90196648e-120
1.73548161e-120
4.17992286e-118
3.83243161e-118
9.04655987e-116
8.33400842e-116
1.92764564e-113
1.78417268e-113
4.04271224e-111
3.75920624e-111
8.34234128e-109
7.79289583e-109
1.69330061e-106
1.58893471e-106
3.37960665e-104
3.18546026e-104
6.63028633e-102
6.27689441e-102
1.27812434e-99
1.21524559e-99
2.42003346e-97
2.31079828e-97
4.49884841e-95
4.31382357e-95
8.20782852e-93
7.90277304e-93
1.4689519e-90
1.42009671e-90
2.57771106e-88
2.50190779e-88
4.43294091e-86
4.31938054e-86
7.46710389e-84
7.30360083e-84
1.23132674e-81
1.20884765e-81
1.98654931e-79
1.95731389e-79
3.13371055e-77
3.09824362e-77
4.83018382e-75
4.79082465e-75
7.26954469e-73
7.22964074e-73
1.06748931e-70
1.06350876e-70
1.52821714e-68
1.52193913e-68
2.13109499e-66
2.11366017e-66
2.89215474e-64
2.86850277e-64
3.81582932e-62
3.73382936e-62
4.8898581e-60
4.88536489e-60
6.07699904e-58
6.06290745e-58
7.31842269e-56
7.29397891e-56
8.52744368e-54
8.50046655e-54
9.59962537e-52
9.58118895e-52
1.04238827e-49
1.04145202e-49
1.08990596e-47
1.08794149e-47
1.09522683e-45
1.09020846e-45
1.05548526e-43
1.04809332e-43
9.73197087e-42
9.64598092e-42
8.5626596e-40
8.4775158e-40
7.16799107e-38
7.09433017e-38
5.69018642e-36
5.6342438e-36
4.26737564e-34
4.23106811e-34
3.01043945e-32
2.99282839e-32
1.98780002e-30
1.98620122e-30
1.22142679e-28
1.21771402e-28
6.93777081e-27
6.9047552e-27
3.61274795e-25
3.59437062e-25
1.70771444e-23
1.70106934e-23
7.23817254e-22
7.22201152e-22
2.70859619e-20
2.70452615e-20
8.76949784e-19
8.75664233e-19
2.38988014e-17
2.38831326e-17
5.27006464e-16
5.27109495e-16
2.36567724e-14
2.37756975e-14
2.41705059e-10
2.54111295e-10
0.00153799739
0.00728343948
0.382231967
0.496729311
0.756686369
0.721695215
0.359202909
0.304090536
0.0826727742
0.0684097212
0.0173116527
0.0153937422
0.0041915051
0.00383464554
0.00091159587
0.000861429695
0.000180855792
0.000176282597
3.36622769e-05
3.34757326e-05
6.33543612e-06
6.32883488e-06
1.57094825e-06
1.57044292e-06
7.9562409e-07
7.95562225e-07
6.77591862e-07
6.77598679e-07
6.60734567e-07
6.60733391e-07
6.58457684e-07
6.58458437e-07
6.58166674e-07
6.58168388e-07
6.58131163e-07
6.58132857e-07
6.5812843e-07
6.58126744e-07
6.58128719e-07
6.58125834e-07
6.58128264e-07
6.58126618e-07
6.58127518e-07
6.58127155e-07
6.58128505e-07
6.58126961e-07
6.58127964e-07
6.58127657e-07
6.58127889e-07
6.58127908e-07
6.58128131e-07
6.58128287e-07
6.58127947e-07
6.58127736e-07
6.58127972e-07
6.58128084e-07
6.58127116e-07
6.58128905e-07
6.58127054e-07
6.58128599e-07
6.58126844e-07
6.58127617e-07
6.58127201e-07
6.58127789e-07
6.58126979e-07
6.58127397e-07
6.58126418e-07
6.58128372e-07
6.58126014e-07
6.58128486e-07
6.5812646e-07
6.58127561e-07
6.58126947e-07
6.58127887e-07
6.58126616e-07
6.58128831e-07
6.58125505e-07
6.58128968e-07
6.58127166e-07
6.58128622e-07
6.58126962e-07
6.58127567e-07
6.58127415e-07
6.58126904e-07
6.58127929e-07
6.58126922e-07
6.58127569e-07
6.5812623e-07
6.58128329e-07
6.58126739e-07
6.58129425e-07
6.58125974e-07
6.58128811e-07
6.58126713e-07
6.58129113e-07
6.58126754e-07
6.58128473e-07
6.58126976e-07
6.58127974e-07
6.58127532e-07
6.58128269e-07
6.581269e-07
6.58128231e-07
6.58127239e-07
6.58127167e-07
6.58127956e-07
6.58127305e-07
6.58127677e-07
6.58128365e-07
6.5812745e-07
6.58128081e-07
6.58127017e-07
6.58127034e-07
6.58127244e-07
6.58127001e-07
6.58127903e-07
6.58125902e-07
6.58128464e-07
6.58126799e-07
6.58128685e-07
6.58126635e-07
6.58128855e-07
6.58126553e-07
6.58128095e-07
6.58127152e-07
6.58128011e-07
6.58126814e-07
6.58128703e-07
6.58126592e-07
6.58129195e-07
6.58127213e-07
6.58128461e-07
6.58127728e-07
6.58128754e-07
6.58128131e-07
6.58128553e-07
6.58127247e-07
6.58128232e-07
6.58127411e-07
6.58127406e-07
6.58127114e-07
6.58127219e-07
6.58126835e-07
6.58128272e-07
6.58126056e-07
6.58127748e-07
6.58126568e-07
6.58127751e-07
6.58127033e-07
6.58126924e-07
6.58128975e-07
6.58126068e-07
6.58127982e-07
6.58126565e-07
6.5812908e-07
6.58126766e-07
6.58128228e-07
6.58126733e-07
6.58128714e-07
6.5812606e-07
6.58129064e-07
6.58126781e-07
6.58129404e-07
6.58127535e-07
6.58129345e-07
6.58127195e-07
6.58128259e-07
6.58127495e-07
6.58127522e-07
6.58127035e-07
6.5812748e-07
6.58127217e-07
6.58126911e-07
6.58129066e-07
6.58127644e-07
6.58135788e-07
6.58136615e-07
6.58174321e-07
6.58178291e-07
6.58283742e-07
6.58282633e-07
6.58174789e-07
6.58174072e-07
6.58136107e-07
6.58134844e-07
6.58129031e-07
6.58128454e-07
6.58128305e-07
6.58128058e-07
6.58127309e-07
6.58128146e-07
6.58127437e-07
6.58128834e-07
6.58127522e-07
6.58128301e-07
6.58126894e-07
6.58127902e-07
6.58127441e-07
6.58128466e-07
6.58126963e-07
6.58128562e-07
6.58127029e-07
6.58129764e-07
6.58127147e-07
6.58128789e-07
6.58127029e-07
6.58128454e-07
6.58127763e-07
6.58128711e-07
6.58127143e-07
6.58127874e-07
6.58127744e-07
6.58127625e-07
6.58127822e-07
6.58127967e-07
6.58127981e-07
6.58127012e-07
6.58128316e-07
6.58128229e-07
6.58128751e-07
6.58127466e-07
6.58128645e-07
6.58127977e-07
6.58129139e-07
6.58128311e-07
6.58127499e-07
6.58128651e-07
6.5812699e-07
6.58129389e-07
6.58126965e-07
6.58128345e-07
6.58127944e-07
6.58128416e-07
6.5812814e-07
6.58128014e-07
6.58128689e-07
6.58127949e-07
6.58128758e-07
6.58127945e-07
6.58128518e-07
6.58128699e-07
6.58129383e-07
6.58126996e-07
6.58129446e-07
6.58127025e-07
6.58129135e-07
6.58127693e-07
6.58128452e-07
6.58127672e-07
6.58127213e-07
6.5812847e-07
6.58128604e-07
6.58127449e-07
6.58128001e-07
6.58128256e-07
6.58127786e-07
6.58127589e-07
6.58128255e-07
6.58127953e-07
6.58129324e-07
6.5812792e-07
6.58129214e-07
6.58128544e-07
6.5812782e-07
6.58128967e-07
6.58126642e-07
6.5812895e-07
6.58126535e-07
6.5812814e-07
6.58127277e-07
6.58129458e-07
6.58127353e-07
6.58128443e-07
6.58127741e-07
6.58127799e-07
6.5812839e-07
6.58127654e-07
6.58127815e-07
6.5812768e-07
6.58127863e-07
6.58127589e-07
6.5812804e-07
6.58128269e-07
6.58128403e-07
6.58127874e-07
6.58127279e-07
6.58128001e-07
6.5812855e-07
6.58127824e-07
6.58128576e-07
6.5812817e-07
6.58128263e-07
6.58128632e-07
6.5812715e-07
6.58127761e-07
6.58128232e-07
6.58127459e-07
6.58128562e-07
6.58128579e-07
6.58129025e-07
6.58128233e-07
6.58128491e-07
6.58128766e-07
6.58128789e-07
6.58128077e-07
6.58128808e-07
6.58127819e-07
6.58128228e-07
6.58127586e-07
6.58128526e-07
6.5812659e-07
6.58128431e-07
6.58126937e-07
6.58128471e-07
6.58128278e-07
6.5812857e-07
6.58128499e-07
6.58127059e-07
6.58129784e-07
6.58126817e-07
6.58129492e-07
6.58126322e-07
6.58129601e-07
6.58127222e-07
6.5812937e-07
6.5812761e-07
6.58129059e-07
6.58127542e-07
6.58129033e-07
6.58127743e-07
6.58129283e-07
6.58128011e-07
6.58127916e-07
6.58128343e-07
6.58128471e-07
6.58128164e-07
6.58127975e-07
6.58129575e-07
6.58127983e-07
6.58128139e-07
6.58129144e-07
6.58128781e-07
6.58128189e-07
6.58128531e-07
6.58129048e-07
6.581279e-07
6.58128661e-07
6.5812768e-07
6.58129584e-07
6.58127922e-07
6.58128589e-07
6.58128796e-07
6.58128139e-07
6.58128013e-07
6.58127571e-07
6.58128014e-07
6.5812851e-07
6.58128111e-07
6.58128893e-07
6.58128085e-07
6.58128947e-07
6.58128117e-07
6.58128472e-07
6.58128313e-07
6.58128807e-07
6.58128087e-07
6.58128893e-07
6.58128828e-07
6.58129467e-07
6.58128182e-07
6.58128826e-07
6.58128626e-07
6.58128925e-07
6.58128628e-07
6.58129847e-07
6.58128082e-07
6.58129197e-07
6.58128139e-07
6.58129508e-07
6.5812793e-07
6.58129319e-07
6.58128591e-07
6.5812953e-07
6.58128085e-07
6.58129329e-07
6.58128353e-07
6.58127937e-07
6.58129116e-07
6.58127654e-07
6.58129173e-07
6.58127477e-07
6.58128501e-07
6.58127958e-07
6.5812847e-07
6.58128897e-07
6.58129152e-07
6.58127939e-07
6.58129019e-07
6.58128779e-07
6.5812915e-07
6.58128891e-07
6.58128356e-07
6.58127942e-07
6.58129443e-07
6.58126976e-07
6.58129272e-07
6.58127668e-07
6.58129252e-07
6.58128434e-07
6.58128616e-07
6.58129179e-07
6.58128199e-07
6.58129865e-07
6.58127865e-07
6.58128907e-07
6.58128537e-07
6.58127953e-07
6.5812931e-07
6.58128981e-07
6.58129333e-07
6.58128753e-07
6.58129105e-07
6.58128573e-07
6.58129987e-07
6.58128518e-07
6.58129814e-07
6.58129103e-07
6.58129119e-07
6.58128874e-07
6.58128942e-07
6.5812858e-07
6.58128998e-07
6.58129497e-07
6.58129054e-07
6.5812991e-07
6.58128936e-07
6.58129351e-07
6.581287e-07
6.58129102e-07
6.58129235e-07
6.58128875e-07
6.5812937e-07
6.58128367e-07
6.58129164e-07
6.58129073e-07
6.58130175e-07
6.58128702e-07
6.58129076e-07
6.58128992e-07
6.58129295e-07
6.5812873e-07
6.58129219e-07
6.58128701e-07
6.58128194e-07
6.58128247e-07
6.58128413e-07
6.58129094e-07
6.58128729e-07
6.58128443e-07
6.58129728e-07
6.58128877e-07
6.58129427e-07
6.58127365e-07
6.58130202e-07
6.58128113e-07
6.58130223e-07
6.58128903e-07
6.5812952e-07
6.58129201e-07
6.58129471e-07
6.58128374e-07
6.58129678e-07
6.58128513e-07
6.58128681e-07
6.58129125e-07
6.58128924e-07
6.58128805e-07
6.58129598e-07
6.58128716e-07
6.58129168e-07
6.58128621e-07
6.58128626e-07
6.58129077e-07
6.58129371e-07
6.58128249e-07
6.58129155e-07
6.58128976e-07
6.58128073e-07
6.58130124e-07
6.58127732e-07
6.58130111e-07
6.5812881e-07
6.5813002e-07
6.58128267e-07
6.58130749e-07
6.58127779e-07
6.58130609e-07
6.58128434e-07
6.58128908e-07
6.58129355e-07
6.5812891e-07
6.58129162e-07
6.58129036e-07
6.58129852e-07
6.58128976e-07
6.58128083e-07
6.58129799e-07
6.58128893e-07
6.5812923e-07
6.58129397e-07
6.58129191e-07
6.58128574e-07
6.58129185e-07
6.58128992e-07
6.58129342e-07
6.58128904e-07
6.58129416e-07
6.58129387e-07
6.58129076e-07
6.58129062e-07
6.58129276e-07
6.58129307e-07
6.58129355e-07
6.58129142e-07
6.58129442e-07
6.58129228e-07
6.58129329e-07
6.58129367e-07
6.58129465e-07
6.58129373e-07
6.58129462e-07
6.58129555e-07
6.58129586e-07
6.58129544e-07
6.58129653e-07
6.58129711e-07
6.58129692e-07
6.58129779e-07
6.58129837e-07
6.58129958e-07
6.58129994e-07
6.58130059e-07
6.58130159e-07
6.58130218e-07
6.58130327e-07
6.58130462e-07
6.58130596e-07
6.58130668e-07
6.58130861e-07
6.58131025e-07
6.58131221e-07
6.58131438e-07
6.58131685e-07
6.58132003e-07
6.58132369e-07
6.58132757e-07
6.58133142e-07
6.58133499e-07
6.58133825e-07
6.58134072e-07
6.58134173e-07
6.58134267e-07
6.58134289e-07
6.58134285e-07
6.58134309e-07
6.58134314e-07
6.58134298e-07
6.5813432e-07
6.58134297e-07
6.58134297e-07
6.58134295e-07
6.58134298e-07
6.58134292e-07
6.58134289e-07
6.58134296e-07
6.58134297e-07
6.58134278e-07
6.58134319e-07
)
;

boundaryField
{
    closed
    {
        type            calculated;
        value           uniform 0;
    }
    open
    {
        type            calculated;
        value           uniform 0;
    }
    sides
    {
        type            empty;
    }
}


// ************************************************************************* //
