/*--------------------------------*- C++ -*----------------------------------*\
| =========                 |                                                 |
| \\      /  F ield         | OpenFOAM: The Open Source CFD Toolbox           |
|  \\    /   O peration     | Version:  2206                                  |
|   \\  /    A nd           | Website:  www.openfoam.com                      |
|    \\/     M anipulation  |                                                 |
\*---------------------------------------------------------------------------*/
FoamFile
{
    version     2.0;
    format      ascii;
    arch        "LSB;label=32;scalar=64";
    class       volScalarField;
    location    "1.96e-05";
    object      rho;
}
// * * * * * * * * * * * * * * * * * * * * * * * * * * * * * * * * * * * * * //

dimensions      [1 -3 0 0 0 0 0];

internalField   nonuniform List<scalar> 
3183
(
1.03926466
1.03926466
1.03926466
1.03926466
1.03926466
1.03926466
1.03926466
1.03926466
1.03926466
1.03926466
1.03926466
1.03926466
1.03926466
1.03926466
1.03926466
1.03926466
1.03926466
1.03926466
1.03926466
1.03926466
1.03926466
1.03926466
1.03926466
1.03926466
1.03926466
1.03926466
1.03926466
1.03926466
1.03926466
1.03926466
1.03926466
1.03926466
1.03926466
1.03926466
1.03926466
1.03926466
1.03926466
1.03926466
1.03926466
1.03926466
1.03926466
1.03926466
1.03926466
1.03926466
1.03926466
1.03926466
1.03926466
1.03926466
1.03926466
1.03926466
1.03926466
1.03926466
1.03926466
1.03926466
1.03926466
1.03926466
1.03926466
1.03926466
1.03926466
1.03926466
1.03926466
1.03926466
1.03926466
1.03926466
1.03926466
1.03926466
1.03926466
1.03926466
1.03926466
1.03926466
1.03926466
1.03926466
1.03926466
1.03926466
1.03926466
1.03926466
1.03926466
1.03926466
1.03926466
1.03926466
1.03926466
1.03926466
1.03926466
1.03926466
1.03926466
1.03926466
1.03926466
1.03926466
1.03926466
1.03926466
1.03926466
1.03926466
1.03926466
1.03926466
1.03926466
1.03926466
1.03926466
1.03926466
1.03926466
1.03926466
1.03926466
1.03926466
1.03926466
1.03926466
1.03926466
1.03926466
1.03926466
1.03926466
1.03926466
1.03926466
1.03926466
1.03926466
1.03926466
1.03926466
1.03926466
1.03926466
1.03926466
1.03926466
1.03926466
1.03926466
1.03926466
1.03926466
1.03926466
1.03926466
1.03926466
1.03926466
1.03926466
1.03926466
1.03926466
1.03926466
1.03926466
1.03926466
1.03926466
1.03926466
1.03926466
1.03926466
1.03926466
1.03926466
1.03926466
1.03926466
1.03926466
1.03926466
1.03926466
1.03926466
1.03926466
1.03926466
1.03926466
1.03926466
1.03926466
1.03926466
1.03926466
1.03926466
1.03926466
1.03926466
1.03926466
1.03926466
1.03926466
1.03926466
1.03926466
1.03926466
1.03926466
1.03926466
1.03926466
1.03926466
1.03926466
1.03926466
1.03926466
1.03926466
1.03926466
1.03926466
1.03926466
1.03926466
1.03926466
1.03926466
1.03926466
1.03926466
1.03926466
1.03926466
1.03926466
1.03926466
1.03926466
1.03926466
1.03926466
1.03926466
1.03926466
1.03926466
1.03926466
1.03926466
1.03926466
1.03926466
1.03926466
1.03926466
1.03926466
1.03926466
1.03926466
1.03926466
1.03926466
1.03926466
1.03926466
1.03926466
1.03926466
1.03926466
1.03926466
1.03926466
1.03926466
1.03926466
1.03926466
1.03926466
1.03926466
1.03926466
1.03926466
1.03926466
1.03926466
1.03926466
1.03926466
1.03926466
1.03926466
1.03926466
1.03926466
1.03926466
1.03926466
1.03926466
1.03926466
1.03926466
1.03926466
1.03926466
1.03926466
1.03926466
1.03926466
1.03926466
1.03926466
1.03926466
1.03926466
1.03926466
1.03926466
1.03926466
1.03926466
1.03926466
1.03926466
1.03926466
1.03926466
1.03926466
1.03926466
1.03926466
1.03926466
1.03926466
1.03926466
1.03926466
1.03926466
1.03926466
1.03926466
1.03926466
1.03926466
1.03926466
1.03926466
1.03926466
1.03926466
1.03926466
1.03926466
1.03926466
1.03926466
1.03926466
1.03926466
1.03926466
1.03926466
1.03926466
1.03926466
1.03926466
1.03926466
1.03926466
1.03926466
1.03926466
1.03926466
1.03926466
1.03926466
1.03926466
1.03926466
1.03926466
1.03926466
1.03926466
1.03926466
1.03926466
1.03926466
1.03926466
1.03926466
1.03926466
1.03926466
1.03926466
1.03926466
1.03926466
1.03926466
1.03926466
1.03926466
1.03926466
1.03926466
1.03926466
1.03926466
1.03926466
1.03926466
1.03926466
1.03926466
1.03926466
1.03926466
1.03926466
1.03926466
1.03926466
1.03926466
1.03926466
1.03926466
1.03926466
1.03926466
1.03926466
1.03926466
1.03926466
1.03926466
1.03926466
1.03926466
1.03926466
1.03926466
1.03926466
1.03926466
1.03926466
1.03926466
1.03926466
1.03926466
1.03926466
1.03926466
1.03926466
1.03926466
1.03926466
1.03926466
1.03926466
1.03926466
1.03926466
1.03926466
1.03926466
1.03926466
1.03926466
1.03926466
1.03926466
1.03926466
1.03926466
1.03926466
1.03926466
1.03926466
1.03926466
1.03926466
1.03926466
1.03926466
1.03926466
1.03926466
1.03926466
1.03926466
1.03926466
1.03926466
1.03926466
1.03926466
1.03926466
1.03926466
1.03926466
1.03926466
1.03926466
1.03926466
1.03926466
1.03926466
1.03926466
1.03926466
1.03926466
1.03926466
1.03926466
1.03926466
1.03926466
1.03926466
1.03926466
1.03926466
1.03926466
1.03926466
1.03926466
1.03926466
1.03926466
1.03926466
1.03926466
1.03926466
1.03926466
1.03926466
1.03926466
1.03926466
1.03926466
1.03926466
1.03926466
1.03926466
1.03926466
1.03926466
1.03926466
1.03926466
1.03926466
1.03926466
1.03926466
1.03926466
1.03926466
1.03926466
1.03926466
1.03926466
1.03926466
1.03926466
1.03926466
1.03926466
1.03926466
1.03926466
1.03926466
1.03926466
1.03926466
1.03926466
1.03926466
1.03926466
1.03926466
1.03926466
1.03926466
1.03926466
1.03926466
1.03926466
1.03926466
1.03926466
1.03926466
1.03926466
1.03926466
1.03926466
1.03926466
1.03926466
1.03926466
1.03926466
1.03926466
1.03926466
1.03926466
1.03926466
1.03926466
1.03926466
1.03926466
1.03926466
1.03926466
1.03926466
1.03926466
1.03926466
1.03926466
1.03926466
1.03926466
1.03926466
1.03926466
1.03926466
1.03926466
1.03926466
1.03926466
1.03926466
1.03926466
1.03926466
1.03926466
1.03926466
1.03926466
1.03926466
1.03926466
1.03926466
1.03926466
1.03926466
1.03926466
1.03926466
1.03926466
1.03926466
1.03926466
1.03926466
1.03926466
1.03926466
1.03926466
1.03926466
1.03926466
1.03926466
1.03926466
1.03926466
1.03926466
1.03926466
1.03926466
1.03926466
1.03926466
1.03926466
1.03926466
1.03926466
1.03926466
1.03926466
1.03926466
1.03926466
1.03926466
1.03926466
1.03926466
1.03926466
1.03926466
1.03926466
1.03926466
1.03926466
1.03926466
1.03926466
1.03926466
1.03926466
1.03926466
1.03926466
1.03926466
1.03926466
1.03926466
1.03926466
1.03926466
1.03926466
1.03926466
1.03926466
1.03926466
1.03926466
1.03926466
1.03926466
1.03926466
1.03926466
1.03926466
1.03926466
1.03926466
1.03926466
1.03926466
1.03926466
1.03926466
1.03926466
1.03926466
1.03926466
1.03926466
1.03926466
1.03926466
1.03926466
1.03926466
1.03926466
1.03926466
1.03926466
1.03926466
1.03926466
1.03926466
1.03926466
1.03926466
1.03926466
1.03926466
1.03926466
1.03926466
1.03926466
1.03926466
1.03926466
1.03926466
1.03926466
1.03926466
1.03926466
1.03926466
1.03926466
1.03926466
1.03926466
1.03926466
1.03926466
1.03926466
1.03926466
1.03926466
1.03926466
1.03926466
1.03926466
1.03926466
1.03926466
1.03926466
1.03926466
1.03926466
1.03926466
1.03926466
1.03926466
1.03926466
1.03926466
1.03926466
1.03926466
1.03926466
1.03926466
1.03926466
1.03926466
1.03926466
1.03926466
1.03926466
1.03926466
1.03926466
1.03926466
1.03926466
1.03926466
1.03926466
1.03926466
1.03926466
1.03926466
1.03926466
1.03926466
1.03926466
1.03926466
1.03926466
1.03926466
1.03926466
1.03926466
1.03926466
1.03926466
1.03926466
1.03926466
1.03926466
1.03926466
1.03926466
1.03926466
1.03926466
1.03926466
1.03926466
1.03926466
1.03926466
1.03926466
1.03926466
1.03926466
1.03926466
1.03926466
1.03926466
1.03926466
1.03926466
1.03926466
1.03926466
1.03926466
1.03926466
1.03926466
1.03926466
1.03926466
1.03926466
1.03926466
1.03926466
1.03926466
1.03926466
1.03926466
1.03926466
1.03926466
1.03926466
1.03926466
1.03926466
1.03926466
1.03926466
1.03926466
1.03926466
1.03926466
1.03926466
1.03926466
1.03926466
1.03926466
1.03926466
1.03926466
1.03926466
1.03926466
1.03926466
1.03926466
1.03926466
1.03926466
1.03926466
1.03926466
1.03926466
1.03926466
1.03926466
1.03926466
1.03926466
1.03926466
1.03926466
1.03926466
1.03926466
1.03926466
1.03926466
1.03926466
1.03926466
1.03926466
1.03926466
1.03926466
1.03926466
1.03926466
1.03926466
1.03926466
1.03926466
1.03926466
1.03926466
1.03926466
1.03926466
1.03926466
1.03926466
1.03926466
1.03926466
1.03926466
1.03926466
1.03926466
1.03926466
1.03926466
1.03926466
1.03926466
1.03926466
1.03926466
1.03926466
1.03926466
1.03926466
1.03926466
1.03926466
1.03926466
1.03926466
1.03926466
1.03926466
1.03926466
1.03926466
1.03926466
1.03926466
1.03926466
1.03926466
1.03926466
1.03926466
1.03926466
1.03926466
1.03926466
1.03926466
1.03926466
1.03926466
1.03926466
1.03926466
1.03926466
1.03926466
1.03926466
1.03926466
1.03926466
1.03926466
1.03926466
1.03926466
1.03926466
1.03926466
1.03926466
1.03926466
1.03926466
1.03926466
1.03926466
1.03926466
1.03926466
1.03926466
1.03926466
1.03926466
1.03926466
1.03926466
1.03926466
1.03926466
1.03926466
1.03926466
1.03926466
1.03926466
1.03926466
1.03926466
1.03926466
1.03926466
1.03926466
1.03926466
1.03926466
1.03926466
1.03926466
1.03926466
1.03926466
1.03926466
1.03926466
1.03926466
1.03926466
1.03926466
1.03926466
1.03926466
1.03926466
1.03926466
1.03926466
1.03926466
1.03926466
1.03926466
1.03926466
1.03926466
1.03926466
1.03926466
1.03926466
1.03926466
1.03926466
1.03926466
1.03926466
1.03926466
1.03926466
1.03926466
1.03926466
1.03926466
1.03926466
1.03926466
1.03926466
1.03926466
1.03926466
1.03926466
1.03926466
1.03926466
1.03926466
1.03926466
1.03926466
1.03926466
1.03926466
1.03926466
1.03926466
1.03926466
1.03926466
1.03926466
1.03926466
1.03926466
1.03926466
1.03926466
1.03926466
1.03926466
1.03926466
1.03926466
1.03926466
1.03926466
1.03926466
1.03926466
1.03926466
1.03926466
1.03926466
1.03926466
1.03926466
1.03926466
1.03926466
1.03926466
1.03926466
1.03926466
1.03926466
1.03926466
1.03926466
1.03926466
1.03926466
1.03926466
1.03926466
1.03926466
1.03926466
1.03926466
1.03926466
1.03926466
1.03926466
1.03926466
1.03926466
1.03926466
1.03926466
1.03926466
1.03926466
1.03926466
1.03926466
1.03926466
1.03926466
1.03926466
1.03926466
1.03926466
1.03926466
1.03926466
1.03926466
1.03926466
1.03926466
1.03926466
1.03926466
1.03926466
1.03926466
1.03926466
1.03926466
1.03926466
1.03926466
1.03926466
1.03926466
1.03926466
1.03926466
1.03926466
1.03926466
1.03926466
1.03926466
1.03926466
1.03926466
1.03926466
1.03926466
1.03926466
1.03926466
1.03926466
1.03926466
1.03926466
1.03926466
1.03926466
1.03926466
1.03926466
1.03926466
1.03926466
1.03926466
1.03926466
1.03926466
1.03926466
1.03926466
1.03926466
1.03926466
1.03926466
1.03926466
1.03926466
1.03926466
1.03926466
1.03926466
1.03926466
1.03926466
1.03926466
1.03926466
1.03926466
1.03926466
1.03926466
1.03926466
1.03926466
1.03926466
1.03926466
1.03926466
1.03926466
1.03926466
1.03926466
1.03926466
1.03926466
1.03926466
1.03926466
1.03926466
1.03926466
1.03926466
1.03926466
1.03926466
1.03926466
1.03926466
1.03926466
1.03926466
1.03926466
1.03926466
1.03926466
1.03926466
1.03926466
1.03926466
1.03926466
1.03926466
1.03926466
1.03926466
1.03926466
1.03926466
1.03926466
1.03926466
1.03926466
1.03926466
1.03926466
1.03926466
1.03926466
1.03926466
1.03926466
1.03926466
1.03926466
1.03926466
1.03926466
1.03926466
1.03926466
1.03926466
1.03926466
1.03926466
1.03926466
1.03926466
1.03926466
1.03926466
1.03926466
1.03926466
1.03926466
1.03926466
1.03926466
1.03926466
1.03926466
1.03926466
1.03926466
1.03926466
1.03926466
1.03926466
1.03926466
1.03926466
1.03926466
1.03926466
1.03926466
1.03926466
1.03926466
1.03926466
1.03926466
1.03926466
1.03926466
1.03926466
1.03926466
1.03926466
1.03926466
1.03926466
1.03926466
1.03926466
1.03926466
1.03926466
1.03926466
1.03926466
1.03926466
1.03926466
1.03926466
1.03926466
1.03926466
1.03926466
1.03926466
1.03926466
1.03926466
1.03926466
1.03926466
1.03926466
1.03926466
1.03926466
1.03926466
1.03926466
1.03926466
1.03926466
1.03926466
1.03926466
1.03926466
1.03926466
1.03926466
1.03926466
1.03926466
1.03926466
1.03926466
1.03926466
1.03926466
1.03926466
1.03926466
1.03926466
1.03926466
1.03926466
1.03926466
1.03926466
1.03926466
1.03926466
1.03926466
1.03926466
1.03926466
1.03926466
1.03926466
1.03926466
1.03926466
1.03926466
1.03926466
1.03926466
1.03926466
1.03926466
1.03926466
1.03926466
1.03926466
1.03926466
1.03926466
1.03926466
1.03926466
1.03926466
1.03926466
1.03926466
1.03926466
1.03926466
1.03926466
1.03926466
1.03926466
1.03926466
1.03926466
1.03926466
1.03926466
1.03926466
1.03926466
1.03926466
1.03926466
1.03926466
1.03926466
1.03926466
1.03926466
1.03926466
1.03926466
1.03926466
1.03926466
1.03926466
1.03926466
1.03926466
1.03926466
1.03926466
1.03926466
1.03926466
1.03926466
1.03926466
1.03926466
1.03926466
1.03926466
1.03926466
1.03926466
1.03926466
1.03926466
1.03926466
1.03926466
1.03926466
1.03926466
1.03926466
1.03926466
1.03926466
1.03926466
1.03926466
1.03926466
1.03926466
1.03926466
1.03926466
1.03926466
1.03926466
1.03926466
1.03926466
1.03926466
1.03926466
1.03926466
1.03926466
1.03926466
1.03926466
1.03926466
1.03926466
1.03926466
1.03926466
1.03926466
1.03926466
1.03926466
1.03926466
1.03926466
1.03926466
1.03926466
1.03926466
1.03926466
1.03926466
1.03926466
1.03926466
1.03926466
1.03926466
1.03926466
1.03926466
1.03926466
1.03926466
1.03926466
1.03926466
1.03926466
1.03926466
1.03926466
1.03926466
1.03926466
1.03926466
1.03926466
1.03926466
1.03926466
1.03926466
1.03926466
1.03926466
1.03926466
1.03926466
1.03926466
1.03926466
1.03926466
1.03926466
1.03926466
1.03926466
1.03926466
1.03926466
1.03926466
1.03926466
1.03926466
1.03926466
1.03926466
1.03926466
1.03926466
1.03926466
1.03926466
1.03926466
1.03926466
1.03926466
1.03926466
1.03926466
1.03926466
1.03926466
1.03926466
1.03926466
1.03926466
1.03926466
1.03926466
1.03926466
1.03926466
1.03926466
1.03926466
1.03926466
1.03926466
1.03926466
1.03926466
1.03926466
1.03926466
1.03926466
1.03926466
1.03926466
1.03926466
1.03926466
1.03926466
1.03926466
1.03926466
1.03926466
1.03926466
1.03926466
1.03926466
1.03926466
1.03926466
1.03926466
1.03926466
1.03926466
1.03926466
1.03926466
1.03926466
1.03926466
1.03926466
1.03926466
1.03926466
1.03926466
1.03926466
1.03926466
1.03926466
1.03926466
1.03926466
1.03926466
1.03926466
1.03926466
1.03926466
1.03926466
1.03926466
1.03926466
1.03926466
1.03926466
1.03926466
1.03926466
1.03926466
1.03926466
1.03926466
1.03926466
1.03926466
1.03926466
1.03926466
1.03926466
1.03926466
1.03926466
1.03926466
1.03926466
1.03926466
1.03926466
1.03926466
1.03926466
1.03926466
1.03926466
1.03926466
1.03926466
1.03926466
1.03926466
1.03926466
1.03926466
1.03926466
1.03926466
1.03926466
1.03926466
1.03926466
1.03926466
1.03926466
1.03926466
1.03926466
1.03926466
1.03926466
1.03926466
1.03926466
1.03926466
1.03926466
1.03926466
1.03926466
1.03926466
1.03926466
1.03926466
1.03926466
1.03926466
1.03926466
1.03926466
1.03926466
1.03926466
1.03926466
1.03926466
1.03926466
1.03926466
1.03926466
1.03926466
1.03926466
1.03926466
1.03926466
1.03926466
1.03926466
1.03926466
1.03926466
1.03926466
1.03926466
1.03926466
1.03926466
1.03926466
1.03926466
1.03926466
1.03926466
1.03926466
1.03926466
1.03926466
1.03926466
1.03926466
1.03926466
1.03926466
1.03926466
1.03926466
1.03926466
1.03926466
1.03926466
1.03926466
1.03926466
1.03926466
1.03926466
1.03926466
1.03926466
1.03926466
1.03926466
1.03926466
1.03926466
1.03926466
1.03926466
1.03926466
1.03926466
1.03926466
1.03926466
1.03926466
1.03926466
1.03926466
1.03926466
1.03926466
1.03926466
1.03926466
1.03926466
1.03926466
1.03926466
1.03926466
1.03926466
1.03926466
1.03926466
1.03926466
1.03926466
1.03926466
1.03926466
1.03926466
1.03926466
1.03926466
1.03926466
1.03926466
1.03926466
1.03926466
1.03926466
1.03926466
1.03926466
1.03926466
1.03926466
1.03926466
1.03926466
1.03926466
1.03926466
1.03926466
1.03926466
1.03926466
1.03926466
1.03926466
1.03926466
1.03926466
1.03926466
1.03926466
1.03926466
1.03926466
1.03926466
1.03926466
1.03926466
1.03926466
1.03926466
1.03926466
1.03926466
1.03926466
1.03926466
1.03926466
1.03926466
1.03926466
1.03926466
1.03926466
1.03926466
1.03926466
1.03926466
1.03926466
1.03926466
1.03926466
1.03926466
1.03926466
1.03926466
1.03926466
1.03926466
1.03926466
1.03926466
1.03926466
1.03926466
1.03926466
1.03926466
1.03926466
1.03926466
1.03926466
1.03926466
1.03926466
1.03926466
1.03926466
1.03926466
1.03926466
1.03926466
1.03926466
1.03926466
1.03926466
1.03926466
1.03926466
1.03926466
1.03926466
1.03926466
1.03926466
1.03926466
1.03926466
1.03926466
1.03926466
1.03926466
1.03926466
1.03926466
1.03926466
1.03926466
1.03926466
1.03926466
1.03926466
1.03926466
1.03926466
1.03926466
1.03926466
1.03926466
1.03926466
1.03926466
1.03926466
1.03926466
1.03926466
1.03926466
1.03926466
1.03926466
1.03926466
1.03926466
1.03926466
1.03926466
1.03926466
1.03926466
1.03926466
1.03926466
1.03926466
1.03926466
1.03926466
1.03926466
1.03926466
1.03926466
1.03926466
1.03926466
1.03926466
1.03926466
1.03926466
1.03926466
1.03926466
1.03926466
1.03926466
1.03926466
1.03926466
1.03926466
1.03926466
1.03926466
1.03926466
1.03926466
1.03926466
1.03926466
1.03926466
1.03926466
1.03926466
1.03926466
1.03926466
1.03926466
1.03926466
1.03926466
1.03926466
1.03926466
1.03926466
1.03926466
1.03926466
1.03926466
1.03926466
1.03926466
1.03926466
1.03926466
1.03926466
1.03926466
1.03926466
1.03926466
1.03926466
1.03926466
1.03926466
1.03926466
1.03926466
1.03926466
1.03926466
1.03926466
1.03926466
1.03926466
1.03926466
1.03926466
1.03926466
1.03926466
1.03926466
1.03926466
1.03926466
1.03926466
1.03926466
1.03926466
1.03926466
1.03926466
1.03926466
1.03926466
1.03926466
1.03926466
1.03926466
1.03926466
1.03926466
1.03926466
1.03926466
1.03926466
1.03926466
1.03926466
1.03926466
1.03926466
1.03926466
1.03926466
1.03926466
1.03926466
1.03926466
1.03926466
1.03926466
1.03926466
1.03926466
1.03926466
1.03926466
1.03926466
1.03926466
1.03926466
1.03926466
1.03926466
1.03926466
1.03926466
1.03926466
1.03926466
1.03926466
1.03926466
1.03926466
1.03926466
1.03926466
1.03926466
1.03926466
1.03926466
1.03926466
1.03926466
1.03926466
1.03926466
1.03926466
1.03926466
1.03926466
1.03926466
1.03926466
1.03926466
1.03926466
1.03926466
1.03926466
1.03926466
1.03926466
1.03926466
1.03926466
1.03926466
1.03926466
1.03926466
1.03926466
1.03926466
1.03926466
1.03926466
1.03926466
1.03926466
1.03926466
1.03926466
1.03926466
1.03926466
1.03926466
1.03926466
1.03926466
1.03926466
1.03926466
1.03926466
1.03926466
1.03926466
1.03926466
1.03926466
1.03926466
1.03926466
1.03926466
1.03926466
1.03926466
1.03926466
1.03926466
1.03926466
1.03926466
1.03926466
1.03926466
1.03926466
1.03926466
1.03926466
1.03926466
1.03926466
1.03926466
1.03926466
1.03926466
1.03926466
1.03926466
1.03926466
1.03926466
1.03926466
1.03926466
1.03926466
1.03926466
1.03926466
1.03926466
1.03926466
1.03926466
1.03926466
1.03926466
1.03926466
1.03926466
1.03926466
1.03926466
1.03926466
1.03926466
1.03926466
1.03926466
1.03926466
1.03926466
1.03926466
1.03926466
1.03926466
1.03926466
1.03926466
1.03926466
1.03926466
1.03926466
1.03926466
1.03926466
1.03926466
1.03926466
1.03926466
1.03926466
1.03926466
1.03926466
1.03926466
1.03926466
1.03926466
1.03926466
1.03926466
1.03926466
1.03926466
1.03926466
1.03926466
1.03926466
1.03926466
1.03926466
1.03926466
1.03926466
1.03926466
1.03926466
1.03926466
1.03926465
1.03926465
1.03926465
1.03926465
1.03926465
1.03926465
1.03926465
1.03926465
1.03926465
1.03926465
1.03926465
1.03926465
1.03926465
1.03926465
1.03926465
1.03926465
1.03926464
1.03926464
1.03926464
1.03926464
1.03926464
1.03926464
1.03926464
1.03926464
1.03926463
1.03926463
1.03926463
1.03926463
1.03926463
1.03926463
1.03926462
1.03926462
1.03926462
1.03926462
1.03926462
1.03926461
1.03926461
1.03926461
1.03926461
1.0392646
1.0392646
1.0392646
1.03926459
1.03926459
1.03926459
1.03926458
1.03926458
1.03926457
1.03926457
1.03926456
1.03926456
1.03926455
1.03926455
1.03926454
1.03926454
1.03926453
1.03926452
1.03926452
1.03926451
1.0392645
1.03926449
1.03926448
1.03926448
1.03926447
1.03926446
1.03926445
1.03926444
1.03926443
1.03926441
1.0392644
1.03926439
1.03926438
1.03926436
1.03926435
1.03926433
1.03926432
1.0392643
1.03926429
1.03926427
1.03926425
1.03926423
1.03926421
1.03926419
1.03926417
1.03926414
1.03926412
1.03926409
1.03926407
1.03926404
1.03926401
1.03926398
1.03926395
1.03926392
1.03926389
1.03926385
1.03926382
1.03926378
1.03926374
1.0392637
1.03926366
1.03926361
1.03926357
1.03926352
1.03926347
1.03926342
1.03926336
1.03926331
1.03926325
1.03926319
1.03926313
1.03926306
1.03926299
1.03926292
1.03926285
1.03926277
1.03926269
1.03926261
1.03926253
1.03926244
1.03926235
1.03926225
1.03926215
1.03926205
1.03926195
1.03926184
1.03926172
1.0392616
1.03926148
1.03926135
1.03926122
1.03926109
1.03926095
1.0392608
1.03926065
1.03926049
1.03926033
1.03926017
1.03925999
1.03925981
1.03925963
1.03925944
1.03925924
1.03925904
1.03925883
1.03925861
1.03925838
1.03925815
1.03925791
1.03925766
1.0392574
1.03925714
1.03925687
1.03925659
1.0392563
1.039256
1.03925569
1.03925537
1.03925504
1.0392547
1.03925436
1.039254
1.03925363
1.03925325
1.03925286
1.03925245
1.03925204
1.03925161
1.03925117
1.03925072
1.03925026
1.03924978
1.03924929
1.03924878
1.03924826
1.03924773
1.03924718
1.03924662
1.03924604
1.03924545
1.03924484
1.03924422
1.03924358
1.03924292
1.03924225
1.03924156
1.03924085
1.03924013
1.03923938
1.03923862
1.03923784
1.03923704
1.03923622
1.03923539
1.03923453
1.03923365
1.03923276
1.03923184
1.0392309
1.03922994
1.03922896
1.03922796
1.03922694
1.0392259
1.03922483
1.03922374
1.03922263
1.03922149
1.03922034
1.03921916
1.03921795
1.03921672
1.03921547
1.0392142
1.0392129
1.03921158
1.03921023
1.03920886
1.03920746
1.03920604
1.0392046
1.03920313
1.03920163
1.03920011
1.03919857
1.039197
1.0391954
1.03919378
1.03919214
1.03919047
1.03918878
1.03918706
1.03918532
1.03918355
1.03918176
1.03917994
1.0391781
1.03917624
1.03917435
1.03917244
1.0391705
1.03916855
1.03916657
1.03916456
1.03916254
1.03916049
1.03915843
1.03915634
1.03915423
1.0391521
1.03914995
1.03914778
1.0391456
1.03914339
1.03914117
1.03913893
1.03913667
1.0391344
1.03913211
1.0391298
1.03912749
1.03912515
1.03912281
1.03912045
1.03911808
1.03911571
1.03911332
1.03911092
1.03910851
1.0391061
1.03910368
1.03910125
1.03909882
1.03909638
1.03909394
1.0390915
1.03908906
1.03908661
1.03908417
1.03908173
1.03907929
1.03907685
1.03907442
1.039072
1.03906958
1.03906716
1.03906476
1.03906236
1.03905998
1.03905761
1.03905525
1.0390529
1.03905057
1.03904825
1.03904595
1.03904367
1.03904141
1.03903916
1.03903694
1.03903474
1.03903256
1.03903041
1.03902828
1.03902618
1.0390241
1.03902206
1.03902004
1.03901805
1.03901609
1.03901416
1.03901227
1.03901041
1.03900858
1.03900679
1.03900504
1.03900332
1.03900164
1.03899999
1.03899839
1.03899683
1.0389953
1.03899382
1.03899238
1.03899098
1.03898963
1.03898831
1.03898704
1.03898582
1.03898464
1.03898351
1.03898242
1.03898137
1.03898038
1.03897943
1.03897852
1.03897767
1.03897686
1.03897609
1.03897538
1.03897471
1.03897409
1.03897352
1.03897299
1.03897251
1.03897208
1.0389717
1.03897136
1.03897107
1.03897083
1.03897063
1.03897047
1.03897037
1.03897031
1.03897029
1.03897031
1.03897038
1.0389705
1.03897065
1.03897085
1.03897109
1.03897137
1.03897169
1.03897205
1.03897245
1.03897289
1.03897336
1.03897388
1.03897442
1.038975
1.03897562
1.03897627
1.03897695
1.03897767
1.03897841
1.03897918
1.03897999
1.03898082
1.03898167
1.03898256
1.03898347
1.0389844
1.03898536
1.03898634
1.03898734
1.03898836
1.03898939
1.03899045
1.03899153
1.03899262
1.03899373
1.03899485
1.03899598
1.03899713
1.03899829
1.03899946
1.03900064
1.03900183
1.03900302
1.03900423
1.03900543
1.03900665
1.03900787
1.03900909
1.03901032
1.03901155
1.03901278
1.03901401
1.03901524
1.03901646
1.03901769
1.03901892
1.03902014
1.03902136
1.03902257
1.03902378
1.03902498
1.03902618
1.03902737
1.03902856
1.03902974
1.0390309
1.03903207
1.03903322
1.03903436
1.03903549
1.03903662
1.03903773
1.03903884
1.03903993
1.03904101
1.03904208
1.03904314
1.03904418
1.03904522
1.03904624
1.03904725
1.03904825
1.03904924
1.03905021
1.03905117
1.03905212
1.03905305
1.03905398
1.03905489
1.03905579
1.03905667
1.03905754
1.0390584
1.03905925
1.03906009
1.03906091
1.03906172
1.03906252
1.0390633
1.03906408
1.03906484
1.03906559
1.03906634
1.03906706
1.03906778
1.03906849
1.03906919
1.03906987
1.03907055
1.03907121
1.03907187
1.03907252
1.03907315
1.03907378
1.0390744
1.03907501
1.03907561
1.0390762
1.03907678
1.03907736
1.03907792
1.03907848
1.03907904
1.03907958
1.03908012
1.03908065
1.03908117
1.03908169
1.0390822
1.03908271
1.03908321
1.0390837
1.03908419
1.03908467
1.03908514
1.03908561
1.03908608
1.03908654
1.03908699
1.03908744
1.03908789
1.03908833
1.03908877
1.0390892
1.03908963
1.03909005
1.03909048
1.03909089
1.0390913
1.03909171
1.03909212
1.03909252
1.03909292
1.03909331
1.0390937
1.03909409
1.03909447
1.03909485
1.03909523
1.0390956
1.03909597
1.03909633
1.0390967
1.03909706
1.03909741
1.03909777
1.03909812
1.03909846
1.03909881
1.03909915
1.03909948
1.03909982
1.03910015
1.03910047
1.0391008
1.03910112
1.03910144
1.03910175
1.03910206
1.03910237
1.03910267
1.03910298
1.03910327
1.03910357
1.03910386
1.03910415
1.03910443
1.03910471
1.03910499
1.03910527
1.03910554
1.03910581
1.03910608
1.03910634
1.0391066
1.03910686
1.03910711
1.03910736
1.03910761
1.03910785
1.03910809
1.03910833
1.03910857
1.0391088
1.03910903
1.03910926
1.03910949
1.03910971
1.03910993
1.03911015
1.03911037
1.03911058
1.03911079
1.039111
1.03911121
1.03911141
1.03911162
1.03911182
1.03911202
1.03911222
1.03911241
1.03911261
1.0391128
1.039113
1.03911319
1.03911338
1.03911357
1.03911375
1.03911394
1.03911413
1.03911431
1.0391145
1.03911468
1.03911486
1.03911505
1.03911523
1.03911541
1.03911559
1.03911578
1.03911596
1.03911614
1.03911632
1.0391165
1.03911668
1.03911687
1.03911705
1.03911723
1.03911741
1.03911759
1.03911778
1.03911796
1.03911815
1.03911833
1.03911851
1.0391187
1.03911888
1.03911907
1.03911926
1.03911944
1.03911963
1.03911982
1.03912001
1.03912019
1.03912038
1.03912057
1.03912076
1.03912095
1.03912114
1.03912133
1.03912152
1.03912171
1.0391219
1.03912209
1.03912228
1.03912247
1.03912266
1.03912285
1.03912304
1.03912323
1.03912342
1.03912361
1.03912379
1.03912398
1.03912417
1.03912435
1.03912454
1.03912472
1.03912491
1.03912509
1.03912527
1.03912546
1.03912564
1.03912581
1.03912599
1.03912617
1.03912635
1.03912652
1.03912669
1.03912687
1.03912704
1.0391272
1.03912737
1.03912754
1.0391277
1.03912787
1.03912803
1.03912819
1.03912835
1.0391285
1.03912866
1.03912881
1.03912897
1.03912912
1.03912926
1.03912941
1.03912956
1.0391297
1.03912984
1.03912999
1.03913013
1.03913026
1.0391304
1.03913053
1.03913067
1.0391308
1.03913093
1.03913106
1.03913119
1.03913131
1.03913144
1.03913156
1.03913169
1.03913181
1.03913193
1.03913205
1.03913217
1.03913228
1.0391324
1.03913251
1.03913263
1.03913274
1.03913285
1.03913296
1.03913307
1.03913318
1.03913329
1.0391334
1.03913351
1.03913362
1.03913372
1.03913383
1.03913393
1.03913404
1.03913414
1.03913425
1.03913435
1.03913445
1.03913456
1.03913466
1.03913476
1.03913486
1.03913497
1.03913507
1.03913517
1.03913527
1.03913538
1.03913548
1.03913558
1.03913568
1.03913579
1.03913589
1.03913599
1.0391361
1.0391362
1.03913631
1.03913641
1.03913652
1.03913663
1.03913674
1.03913685
1.03913696
1.03913707
1.03913719
1.0391373
1.03913742
1.03913754
1.03913766
1.03913778
1.03913791
1.03913803
1.03913816
1.0391383
1.03913843
1.03913857
1.03913871
1.03913886
1.03913901
1.03913916
1.03913931
1.03913947
1.03913964
1.03913981
1.03913998
1.03914016
1.03914035
1.03914054
1.03914074
1.03914094
1.03914115
1.03914137
1.03914159
1.03914182
1.03914206
1.03914231
1.03914256
1.03914283
1.0391431
1.03914338
1.03914367
1.03914397
1.03914428
1.0391446
1.03914494
1.03914528
1.03914563
1.039146
1.03914638
1.03914676
1.03914716
1.03914758
1.039148
1.03914844
1.03914889
1.03914935
1.03914983
1.03915032
1.03915082
1.03915133
1.03915186
1.0391524
1.03915295
1.03915352
1.03915409
1.03915468
1.03915528
1.03915589
1.03915651
1.03915714
1.03915779
1.03915844
1.0391591
1.03915976
1.03916044
1.03916112
1.03916181
1.0391625
1.0391632
1.0391639
1.0391646
1.03916531
1.03916602
1.03916673
1.03916744
1.03916814
1.03916885
1.03916955
1.03917025
1.03917094
1.03917163
1.03917232
1.03917299
1.03917366
1.03917432
1.03917497
1.03917562
1.03917625
1.03917688
1.03917749
1.0391781
1.0391787
1.03917928
1.03917986
1.03918042
1.03918098
1.03918152
1.03918206
1.03918259
1.03918311
1.03918362
1.03918413
1.03918462
1.03918511
1.0391856
1.03918608
1.03918655
1.03918702
1.03918748
1.03918794
1.0391884
1.03918885
1.03918929
1.03918973
1.03919017
1.0391906
1.03919102
1.03919143
1.03919184
1.03919223
1.03919261
1.03919298
1.03919333
1.03919367
1.03919398
1.03919428
1.03919455
1.03919479
1.03919501
1.0391952
1.03919535
1.03919547
1.03919555
1.0391956
1.03919561
1.03919558
1.03919551
1.0391954
1.03919525
1.03919507
1.03919485
1.03919459
1.03919431
1.039194
1.03919366
1.03919331
1.03919294
1.03919256
1.03919218
1.0391918
1.03919142
1.03919106
1.03919071
1.03919038
1.03919007
1.03918979
1.03918954
1.03918932
1.03918913
1.03918896
1.03918883
1.03918872
1.03918863
1.03918858
1.03918852
1.039189
1.03918896
1.03920304
1.03920298
1.03951132
1.03951136
1.03844014
1.03840726
0.851278971
0.849713189
0.452711475
0.424751881
0.32981443
0.320295259
0.288751549
0.285225451
0.272447551
0.271151046
0.265895168
0.265492386
0.263644916
0.263551639
0.263006716
0.262989363
0.262847176
0.262844739
0.262811637
0.262811419
0.262804487
0.262804486
0.262803174
0.262803185
0.262802966
0.26280298
0.262802958
0.262802976
0.26280299
0.262803011
0.262803034
0.26280306
0.262803087
0.262803116
0.262803147
0.26280318
0.262803215
0.262803251
0.262803289
0.262803328
0.262803368
0.26280341
0.262803452
0.262803496
0.26280354
0.262803584
0.262803629