/*--------------------------------*- C++ -*----------------------------------*\
| =========                 |                                                 |
| \\      /  F ield         | OpenFOAM: The Open Source CFD Toolbox           |
|  \\    /   O peration     | Version:  2206                                  |
|   \\  /    A nd           | Website:  www.openfoam.com                      |
|    \\/     M anipulation  |                                                 |
\*---------------------------------------------------------------------------*/
FoamFile
{
    version     2.0;
    format      ascii;
    arch        "LSB;label=32;scalar=64";
    class       volScalarField;
    location    "1.96e-05";
    object      sourcePV;
}
// * * * * * * * * * * * * * * * * * * * * * * * * * * * * * * * * * * * * * //

dimensions      [1 -3 -1 0 0 0 0];

internalField   nonuniform List<scalar> 
3183
(
0
0
0
0
0
0
0
0
0
0
0
0
0
0
0
0
0
0
0
0
0
0
0
0
0
0
0
0
0
0
0
0
0
0
0
0
0
0
0
0
0
0
0
0
0
0
0
0
0
0
0
0
0
0
0
0
0
0
0
0
0
0
0
0
0
0
0
0
0
0
0
0
0
0
0
0
0
0
0
0
0
0
0
0
0
0
0
0
0
0
0
0
0
0
0
0
0
0
0
0
0
0
0
0
0
0
0
0
0
0
0
0
0
0
0
0
0
0
0
0
0
0
0
0
0
0
0
0
0
0
0
0
0
0
0
0
0
0
0
0
0
0
0
0
0
0
0
0
0
0
0
0
0
0
0
0
0
0
0
0
0
0
0
0
0
0
0
0
0
0
0
0
0
0
0
0
0
0
0
0
0
0
0
0
0
0
0
0
0
0
0
0
0
0
0
0
0
0
0
0
0
0
0
0
0
0
0
0
0
0
0
0
0
0
0
0
0
0
0
0
0
0
0
0
0
0
0
0
0
0
0
0
0
0
0
0
0
0
0
0
0
0
0
0
0
0
0
0
0
0
0
0
0
0
0
0
0
0
0
0
0
0
0
0
0
0
0
0
0
0
0
0
0
0
0
0
0
0
0
0
0
0
0
0
0
0
0
0
0
0
0
0
0
0
0
0
0
0
0
0
0
0
0
0
0
0
0
0
0
0
0
0
0
0
0
0
0
0
0
0
0
0
0
0
0
0
0
0
0
0
0
0
0
0
0
0
0
0
0
0
0
0
0
0
0
0
0
0
0
0
0
0
0
0
0
0
0
0
0
0
0
0
0
0
0
0
0
0
0
0
0
0
0
0
0
0
0
0
0
0
0
0
0
0
0
0
0
0
0
0
0
0
0
0
0
0
0
0
0
0
0
0
0
0
0
0
0
0
0
0
0
0
0
0
0
0
0
0
0
0
0
0
0
0
0
0
0
0
0
0
0
0
0
0
0
0
0
0
0
0
0
0
0
0
0
0
0
0
0
0
0
0
0
0
0
0
0
0
0
0
0
0
0
0
0
0
0
0
0
0
0
0
0
0
0
0
0
0
0
0
0
0
0
0
0
0
0
0
0
0
0
0
0
0
0
0
0
0
0
0
0
0
0
0
0
0
0
0
0
0
0
0
0
0
0
0
0
0
0
0
0
0
0
0
0
0
0
0
0
0
0
0
0
0
0
0
0
0
0
0
0
0
0
0
0
0
0
0
0
0
0
0
0
0
0
0
0
0
0
0
0
0
0
0
0
0
0
0
0
0
0
0
0
0
0
0
0
0
0
0
0
0
0
0
0
0
0
0
0
0
0
0
0
0
0
0
0
0
0
0
0
0
0
0
0
0
0
0
0
0
0
0
0
0
0
0
0
0
0
0
0
0
0
0
0
0
0
0
0
0
0
0
0
0
0
0
0
0
0
0
0
0
0
0
0
0
0
0
0
0
0
0
0
0
0
0
0
0
0
0
0
0
0
0
0
0
0
0
0
0
0
0
0
0
0
0
0
0
0
0
0
0
0
0
0
0
0
0
0
0
0
0
0
0
0
0
0
0
0
0
0
0
0
0
0
0
0
0
0
0
0
0
0
0
0
0
0
0
0
0
0
0
0
0
0
0
0
0
0
0
0
0
0
0
0
0
0
0
0
0
0
0
0
0
0
0
0
0
0
0
0
0
0
0
0
0
0
0
0
0
0
0
0
0
0
0
0
0
0
0
0
0
0
0
0
0
0
0
0
0
0
0
0
0
0
0
0
0
0
0
0
0
0
0
0
0
0
0
0
0
0
0
0
0
0
0
0
0
0
0
0
0
0
0
0
0
0
0
0
0
0
0
0
0
0
0
0
0
0
0
0
0
0
0
0
0
0
0
0
0
0
0
0
0
0
0
0
0
0
0
0
0
0
0
0
0
0
0
0
0
0
0
0
0
0
0
0
0
0
0
0
0
0
0
0
0
0
0
0
0
0
0
0
0
0
0
0
0
0
0
0
0
0
0
0
0
0
0
0
0
0
0
0
0
0
0
0
0
0
0
0
0
0
0
0
0
0
0
0
0
0
0
0
0
0
0
0
0
0
0
0
0
0
0
0
0
0
0
0
0
0
0
0
0
0
0
0
0
0
0
0
0
0
0
0
0
0
0
0
0
0
0
0
0
0
0
0
0
0
0
0
0
0
0
0
0
0
0
0
0
0
0
0
0
0
0
0
0
0
0
0
0
0
0
0
0
0
0
0
0
0
0
0
0
0
0
0
0
0
0
0
0
0
0
0
0
0
0
0
0
0
0
0
0
0
0
0
0
0
0
0
0
0
0
0
0
0
0
0
0
0
0
0
0
0
0
0
0
0
0
0
0
0
0
0
0
0
0
0
0
0
0
0
0
0
0
0
0
0
0
0
0
0
0
0
0
0
0
0
0
0
0
0
0
0
0
0
0
0
0
0
0
0
0
0
0
0
0
0
0
0
0
0
0
0
0
0
0
0
0
0
0
0
0
0
0
0
0
0
0
0
0
0
0
0
0
0
0
0
0
0
0
0
0
0
0
0
0
0
0
0
0
0
0
0
0
0
0
0
0
0
0
0
0
0
0
0
0
0
0
0
0
0
0
0
0
0
0
0
0
0
0
0
0
0
0
0
0
0
0
0
0
0
0
0
0
0
0
0
0
0
0
0
0
0
0
0
0
0
0
0
0
0
0
0
0
0
0
0
0
0
0
0
0
0
0
0
0
0
0
0
0
0
0
0
0
0
0
0
0
0
0
0
0
0
0
0
0
0
0
0
0
0
0
0
0
0
0
0
0
0
0
0
0
0
0
0
0
0
0
0
0
0
0
0
0
0
0
0
0
0
0
0
0
0
0
0
0
0
0
0
0
0
0
0
0
0
0
0
0
0
0
0
0
0
0
0
0
0
0
0
0
0
0
0
0
0
0
0
0
0
0
0
0
0
0
0
0
0
0
0
0
0
0
0
0
0
0
0
0
0
0
0
0
0
0
0
0
0
0
0
0
0
0
0
0
0
0
0
0
0
0
0
0
0
0
0
0
0
0
0
0
0
0
0
0
0
0
0
0
0
0
0
0
0
0
0
0
0
0
0
0
0
0
0
0
0
0
0
0
0
0
0
0
0
0
0
0
0
0
0
0
0
0
0
0
0
0
0
0
0
0
0
0
0
0
0
0
0
0
0
0
0
0
0
0
0
0
0
0
0
0
0
0
0
0
0
0
0
0
0
0
0
0
0
0
0
0
0
0
0
0
0
0
0
0
0
0
0
0
0
0
0
0
0
0
0
0
0
0
0
0
0
0
0
0
0
0
0
0
0
0
0
0
0
0
0
0
0
0
0
0
0
0
0
0
0
0
0
0
0
0
0
0
0
0
0
0
0
0
0
0
0
0
0
0
0
0
0
0
0
0
0
0
0
0
0
0
0
0
0
0
0
0
0
0
0
0
0
0
0
0
0
0
0
0
0
0
0
0
0
0
0
0
0
0
0
0
0
0
0
0
0
0
0
0
0
0
0
0
0
0
0
0
0
0
0
0
0
0
0
0
0
0
0
0
0
0
0
0
0
0
0
0
0
0
0
0
0
0
0
0
0
0
0
0
0
0
0
0
0
0
0
0
0
0
0
0
0
0
0
0
0
0
0
0
0
0
0
0
0
0
0
0
0
0
0
0
0
0
0
0
0
0
0
0
0
0
0
0
0
0
0
0
0
0
0
0
0
0
0
0
0
0
0
0
0
0
0
0
0
0
0
0
0
0
0
0
0
0
0
0
0
0
0
0
0
0
0
0
0
0
0
0
0
0
0
0
0
0
0
0
0
0
0
0
0
0
0
0
0
0
0
0
0
0
0
0
0
0
0
0
0
0
0
0
0
0
0
0
0
0
0
0
0
0
0
0
0
0
0
0
0
0
0
0
0
0
0
0
0
0
0
0
0
0
0
0
0
0
0
0
0
0
0
0
0
0
0
0
0
0
0
0
0
0
0
0
0
0
0
0
0
0
0
0
0
0
0
0
0
0
0
0
0
0
0
0
0
0
0
0
0
0
0
0
0
0
0
0
0
0
0
0
0
0
0
0
0
0
0
0
0
0
0
0
0
0
0
0
0
0
0
0
0
0
0
0
0
0
0
0
0
0
0
0
0
0
0
0
0
0
0
0
0
0
0
0
0
0
0
0
0
0
0
0
0
0
0
0
0
0
0
0
0
0
0
0
0
0
0
0
0
0
0
0
0
0
0
0
0
0
0
0
0
0
0
0
0
0
0
0
0
0
0
0
0
0
0
0
0
0
0
0
0
0
0
0
0
0
0
0
0
0
0
0
0
0
0
0
0
0
0
0
0
0
0
0
0
0
0
0
0
0
0
0
0
0
0
0
0
0
0
0
0
0
0
0
0
0
0
0
0
0
0
0
0
0
0
0
0
0
0
0
0
0
0
0
0
0
0
0
0
0
0
0
0
0
0
0
0
0
0
0
0
0
0
0
0
0
0
0
0
0
0
0
0
0
0
0
0
0
0
0
0
0
0
0
0
0
0
0
0
0
0
0
0
0
0
0
0
0
0
0
0
0
0
0
0
0
0
0
0
0
0
0
0
0
0
0
0
0
0
0
0
0
0
0
0
0
0
0
0
0
0
0
0
0
0
0
0
0
0
0
0
0
0
0
0
0
0
0
0
0
0
0
0
0
0
0
0
0
0
0
0
0
0
0
0
0
0
0
0
0
0
0
0
0
0
0
0
0
0
0
0
0
0
0
0
0
0
0
0
0
0
0
0
0
0
0
0
0
0
0
0
0
0
0
0
0
0
0
0
0
0
0
0
0
0
0
0
0
0
0
0
0
0
0
0
0
0
0
0
0
0
0
0
0
0
0
0
0
0
0
0
0
0
0
0
0
0
0
0
0
0
0
0
0
0
0
0
0
0
0
0
0
0
0
0
0
0
0
0
0
0
0
0
0
0
0
0
0
0
0
0
0
0
0
0
0
0
0
0
0
0
0
0
0
0
0
0
0
0
0
0
0
0
0
0
0
0
0
0
0
0
0
0
0
0
0
0
0
0
0
0
0
0
0
0
0
0
0
0
0
0
0
0
0
0
0
0
0
0
0
0
0
0
0
0
0
0
0
0
0
0
0
0
0
0
0
0
0
0
0
0
0
0
0
0
0
0
0
0
0
0
0
0
0
0
0
0
0
0
0
0
0
0
0
0
0
0
0
0
0
0
0
0
0
0
0
0
0
0
0
0
0
0
0
0
0
0
0
0
0
0
0
0
0
0
0
0
0
0
6.06156286e-299
3.52444299e-299
2.83021179e-296
1.65794976e-296
1.31051329e-293
7.73430465e-294
6.01786927e-291
3.57792639e-291
2.74039451e-288
1.64131709e-288
1.23749135e-285
7.46611806e-286
5.54139674e-283
3.3676577e-283
2.46055498e-280
1.50619506e-280
1.08335784e-277
6.67949627e-278
4.72959102e-275
2.93698615e-275
2.04727089e-272
1.28040039e-272
8.78645826e-270
5.53430899e-270
3.7387414e-267
2.37153893e-267
1.57723254e-264
1.00751932e-264
6.59644421e-262
4.24339229e-262
2.73496963e-259
1.77142842e-259
1.12410683e-256
7.33246762e-257
4.57992705e-254
3.00846943e-254
1.84964453e-251
1.22368652e-251
7.40421396e-249
4.93198372e-249
2.93773242e-246
1.9701649e-246
1.15523166e-243
7.79999106e-244
4.50225233e-241
3.06038911e-241
1.73889818e-238
1.18995341e-238
6.65550525e-236
4.58493398e-236
2.52422902e-233
1.7505091e-233
9.48625725e-231
6.62218679e-231
3.53228954e-228
2.48211045e-228
1.30313386e-225
9.21721022e-226
4.76286652e-223
3.39087589e-223
1.72452282e-220
1.2357562e-220
6.18535065e-218
4.46103734e-218
2.19749248e-215
1.5951219e-215
7.73268185e-213
5.64909366e-213
2.69490615e-210
1.98135166e-210
9.3011805e-208
6.88196286e-208
3.17894224e-205
2.36701045e-205
1.07583477e-202
8.06108022e-203
3.60490743e-200
2.71805745e-200
1.19589882e-197
9.07323983e-198
3.92745882e-195
2.99826129e-195
1.27676131e-192
9.80717046e-193
4.1081992e-190
3.17502973e-190
1.30827373e-187
1.01728621e-187
4.12298258e-185
3.22544782e-185
1.28572846e-182
1.01192263e-182
3.96706842e-180
3.14103379e-180
1.2109584e-177
9.64544148e-178
3.65664538e-175
2.92988499e-175
1.09215447e-172
8.80260582e-173
3.22615221e-170
2.61550685e-170
9.42400636e-168
7.68483393e-168
2.72197989e-165
2.23252094e-165
7.77284195e-163
6.41188443e-163
2.19414586e-160
1.82032849e-160
6.12188468e-158
5.10776288e-158
1.6880297e-155
1.41634657e-155
4.5992768e-153
3.88065552e-153
1.23808549e-150
1.05044699e-150
3.29229078e-148
2.80873766e-148
8.64698506e-146
7.41734246e-146
2.24274679e-143
1.93426187e-143
5.74344223e-141
4.98011165e-141
1.45199632e-138
1.26573892e-138
3.62311363e-136
3.17506023e-136
8.92155436e-134
7.85925051e-134
2.16748978e-131
1.91931847e-131
5.19450406e-129
4.62340377e-129
1.22775211e-126
1.09833322e-126
2.86129264e-124
2.57258025e-124
6.57355685e-122
5.93973945e-122
1.48841017e-119
1.35153277e-119
3.32064236e-117
3.02997651e-117
7.2977253e-115
6.6910405e-115
1.57943845e-112
1.45503413e-112
3.36547559e-110
3.11498623e-110
7.05816935e-108
6.56319636e-108
1.45648896e-105
1.36056131e-105
2.95633272e-103
2.77412035e-103
5.90045362e-101
5.56149353e-101
1.15758137e-98
1.09588269e-98
2.23147668e-96
2.12169669e-96
4.22513526e-94
4.03442161e-94
7.85453726e-92
7.5315025e-92
1.43300439e-89
1.37974477e-89
2.56464241e-87
2.47934616e-87
4.5004245e-85
4.3680796e-85
7.73946941e-83
7.5412044e-83
1.30368131e-80
1.27513532e-80
2.14977277e-78
2.11052653e-78
3.46831548e-76
3.41727338e-76
5.47114373e-74
5.40922205e-74
8.4330156e-72
8.36429844e-72
1.26918946e-69
1.26222263e-69
1.86372907e-67
1.85677943e-67
2.66811356e-65
2.6571528e-65
3.72067771e-63
3.69023828e-63
5.04941156e-61
5.0081176e-61
6.66205458e-59
6.51889089e-59
8.53720091e-57
8.5293562e-57
1.06098297e-54
1.05852272e-54
1.27772306e-52
1.27345543e-52
1.48880598e-50
1.48409605e-50
1.67599813e-48
1.67277932e-48
1.81990517e-46
1.81827057e-46
1.9028663e-44
1.89943653e-44
1.912156e-42
1.90339442e-42
1.84277121e-40
1.82986563e-40
1.69910433e-38
1.68409134e-38
1.49495433e-36
1.48008908e-36
1.25145922e-34
1.23859876e-34
9.93449373e-33
9.83682354e-33
7.45040907e-31
7.38701978e-31
5.25592479e-29
5.22517765e-29
3.4704991e-27
3.46770775e-27
2.13248844e-25
2.12600631e-25
1.21126507e-23
1.20550088e-23
6.3074949e-22
6.27540993e-22
2.98149782e-20
2.96989615e-20
1.2637122e-18
1.26089064e-18
4.72893678e-17
4.7218309e-17
1.53106621e-15
1.52882176e-15
4.17249058e-14
4.16975497e-14
9.20100331e-13
9.20280214e-13
2.42300499e-11
2.43196097e-11
2.74674517e-08
2.86227905e-08
0.0380720529
0.163532162
5.96793761
7.44490623
9.84596288
9.24219049
4.35168385
3.66439544
0.976702097
0.807395658
0.203327623
0.180801514
0.0492297721
0.0450384099
0.0107068089
0.0101176006
0.00212417104
0.00207045828
0.000395363946
0.000393172959
7.44066241e-05
7.43290916e-05
1.84470905e-05
1.84411552e-05
9.34080668e-06
9.34008008e-06
7.95450272e-06
7.95458279e-06
7.75651158e-06
7.75649777e-06
7.7297693e-06
7.72977814e-06
7.72635134e-06
7.72637148e-06
7.72593426e-06
7.72595416e-06
7.72590216e-06
7.72588236e-06
7.72590556e-06
7.72587167e-06
7.72590021e-06
7.72588088e-06
7.72589145e-06
7.72588718e-06
7.72590304e-06
7.72588491e-06
7.72589669e-06
7.72589308e-06
7.72589581e-06
7.72589603e-06
7.72589866e-06
7.72590048e-06
7.72589648e-06
7.72589402e-06
7.72589678e-06
7.72589809e-06
7.72588673e-06
7.72590774e-06
7.725886e-06
7.72590415e-06
7.72588353e-06
7.72589262e-06
7.72588773e-06
7.72589463e-06
7.72588512e-06
7.72589002e-06
7.72587853e-06
7.72590148e-06
7.72587379e-06
7.72590282e-06
7.72587903e-06
7.72589195e-06
7.72588474e-06
7.72589578e-06
7.72588085e-06
7.72590687e-06
7.7258678e-06
7.72590848e-06
7.72588731e-06
7.72590442e-06
7.72588492e-06
7.72589203e-06
7.72589024e-06
7.72588424e-06
7.72589628e-06
7.72588445e-06
7.72589205e-06
7.72587632e-06
7.72590097e-06
7.7258823e-06
7.72591384e-06
7.72587331e-06
7.72590664e-06
7.725882e-06
7.72591018e-06
7.72588247e-06
7.72590267e-06
7.72588509e-06
7.7258968e-06
7.72589161e-06
7.72590028e-06
7.72588419e-06
7.72589982e-06
7.72588817e-06
7.72588733e-06
7.72589659e-06
7.72588895e-06
7.72589332e-06
7.7259014e-06
7.72589065e-06
7.72589806e-06
7.72588556e-06
7.72588577e-06
7.72588823e-06
7.72588537e-06
7.72589598e-06
7.72587247e-06
7.72590256e-06
7.725883e-06
7.72590516e-06
7.72588107e-06
7.72590715e-06
7.72588012e-06
7.72589823e-06
7.72588715e-06
7.72589725e-06
7.72588318e-06
7.72590537e-06
7.72588058e-06
7.72591114e-06
7.72588787e-06
7.72590253e-06
7.72589392e-06
7.72590596e-06
7.72589866e-06
7.72590361e-06
7.72588827e-06
7.72589983e-06
7.72589019e-06
7.72589013e-06
7.72588671e-06
7.72588794e-06
7.72588343e-06
7.72590031e-06
7.72587427e-06
7.72589415e-06
7.72588029e-06
7.72589419e-06
7.72588576e-06
7.72588447e-06
7.72590857e-06
7.72587442e-06
7.7258969e-06
7.72588026e-06
7.7259098e-06
7.72588262e-06
7.72589979e-06
7.72588223e-06
7.7259055e-06
7.72587433e-06
7.72590961e-06
7.72588279e-06
7.7259136e-06
7.72589165e-06
7.72591291e-06
7.72588765e-06
7.72590015e-06
7.72589118e-06
7.7258915e-06
7.72588578e-06
7.72589101e-06
7.72588792e-06
7.72588433e-06
7.72590963e-06
7.72589294e-06
7.72598858e-06
7.7259983e-06
7.72644115e-06
7.72648779e-06
7.72772632e-06
7.7277133e-06
7.72644665e-06
7.72643823e-06
7.72599233e-06
7.7259775e-06
7.72590923e-06
7.72590245e-06
7.72590069e-06
7.7258978e-06
7.725889e-06
7.72589882e-06
7.7258905e-06
7.72590691e-06
7.7258915e-06
7.72590065e-06
7.72588412e-06
7.72589597e-06
7.72589054e-06
7.72590258e-06
7.72588493e-06
7.72590371e-06
7.72588571e-06
7.72591783e-06
7.72588709e-06
7.72590638e-06
7.7258857e-06
7.72590245e-06
7.72589432e-06
7.72590547e-06
7.72588705e-06
7.72589563e-06
7.7258941e-06
7.7258927e-06
7.72589502e-06
7.72589673e-06
7.72589689e-06
7.72588551e-06
7.72590083e-06
7.7258998e-06
7.72590593e-06
7.72589084e-06
7.72590469e-06
7.72589684e-06
7.72591049e-06
7.72590076e-06
7.72589123e-06
7.72590476e-06
7.72588525e-06
7.72591343e-06
7.72588496e-06
7.72590117e-06
7.72589645e-06
7.725902e-06
7.72589875e-06
7.72589728e-06
7.7259052e-06
7.72589652e-06
7.72590602e-06
7.72589646e-06
7.7259032e-06
7.72590532e-06
7.72591336e-06
7.72588532e-06
7.7259141e-06
7.72588566e-06
7.72591044e-06
7.72589351e-06
7.72590242e-06
7.72589326e-06
7.72588787e-06
7.72590263e-06
7.7259042e-06
7.72589064e-06
7.72589712e-06
7.72590012e-06
7.7258946e-06
7.72589228e-06
7.72590011e-06
7.72589656e-06
7.72591267e-06
7.72589617e-06
7.72591136e-06
7.72590351e-06
7.725895e-06
7.72590847e-06
7.72588116e-06
7.72590827e-06
7.72587991e-06
7.72589876e-06
7.72588861e-06
7.72591423e-06
7.72588952e-06
7.72590231e-06
7.72589407e-06
7.72589475e-06
7.72590169e-06
7.72589304e-06
7.72589494e-06
7.72589335e-06
7.7258955e-06
7.72589229e-06
7.72589759e-06
7.72590028e-06
7.72590184e-06
7.72589564e-06
7.72588865e-06
7.72589712e-06
7.72590357e-06
7.72589504e-06
7.72590388e-06
7.72589911e-06
7.7259002e-06
7.72590453e-06
7.72588713e-06
7.7258943e-06
7.72589983e-06
7.72589075e-06
7.72590371e-06
7.72590391e-06
7.72590915e-06
7.72589985e-06
7.72590288e-06
7.72590611e-06
7.72590638e-06
7.72589802e-06
7.7259066e-06
7.72589499e-06
7.72589979e-06
7.72589225e-06
7.72590329e-06
7.72588055e-06
7.72590217e-06
7.72588462e-06
7.72590265e-06
7.72590038e-06
7.7259038e-06
7.72590298e-06
7.72588606e-06
7.72591807e-06
7.72588321e-06
7.72591464e-06
7.7258774e-06
7.72591592e-06
7.72588797e-06
7.7259132e-06
7.72589253e-06
7.72590955e-06
7.72589173e-06
7.72590925e-06
7.72589409e-06
7.72591218e-06
7.72589725e-06
7.72589612e-06
7.72590114e-06
7.72590265e-06
7.72589904e-06
7.72589681e-06
7.72591561e-06
7.72589691e-06
7.72589874e-06
7.72591055e-06
7.72590628e-06
7.72589933e-06
7.72590335e-06
7.72590942e-06
7.72589593e-06
7.72590487e-06
7.72589335e-06
7.72591572e-06
7.7258962e-06
7.72590402e-06
7.72590646e-06
7.72589874e-06
7.72589727e-06
7.72589208e-06
7.72589728e-06
7.7259031e-06
7.72589841e-06
7.7259076e-06
7.7258981e-06
7.72590823e-06
7.72589849e-06
7.72590266e-06
7.72590078e-06
7.72590659e-06
7.72589814e-06
7.72590759e-06
7.72590684e-06
7.72591434e-06
7.72589925e-06
7.72590681e-06
7.72590446e-06
7.72590798e-06
7.72590449e-06
7.72591881e-06
7.72589807e-06
7.72591117e-06
7.72589874e-06
7.72591483e-06
7.72589629e-06
7.7259126e-06
7.72590406e-06
7.72591508e-06
7.7258981e-06
7.72591272e-06
7.72590126e-06
7.72589637e-06
7.72591022e-06
7.72589305e-06
7.72591089e-06
7.72589097e-06
7.725903e-06
7.72589662e-06
7.72590263e-06
7.72590765e-06
7.72591064e-06
7.7258964e-06
7.72590908e-06
7.72590626e-06
7.72591062e-06
7.72590757e-06
7.72590129e-06
7.72589643e-06
7.72591405e-06
7.72588509e-06
7.72591205e-06
7.72589321e-06
7.72591182e-06
7.7259022e-06
7.72590434e-06
7.72591096e-06
7.72589945e-06
7.72591901e-06
7.72589552e-06
7.72590776e-06
7.72590342e-06
7.72589656e-06
7.7259125e-06
7.72590863e-06
7.72591276e-06
7.72590595e-06
7.72591009e-06
7.72590384e-06
7.72592045e-06
7.7259032e-06
7.72591842e-06
7.72591006e-06
7.72591025e-06
7.72590737e-06
7.72590818e-06
7.72590393e-06
7.72590883e-06
7.72591469e-06
7.72590949e-06
7.72591954e-06
7.7259081e-06
7.72591298e-06
7.72590534e-06
7.72591005e-06
7.72591162e-06
7.72590739e-06
7.72591321e-06
7.72590142e-06
7.72591078e-06
7.72590971e-06
7.72592265e-06
7.72590536e-06
7.72590975e-06
7.72590876e-06
7.72591232e-06
7.72590569e-06
7.72591143e-06
7.72590535e-06
7.72589939e-06
7.72590001e-06
7.72590196e-06
7.72590997e-06
7.72590568e-06
7.72590231e-06
7.7259174e-06
7.72590741e-06
7.72591387e-06
7.72588965e-06
7.72592297e-06
7.72589844e-06
7.72592323e-06
7.72590772e-06
7.72591497e-06
7.72591122e-06
7.72591438e-06
7.7259015e-06
7.72591682e-06
7.72590314e-06
7.72590512e-06
7.72591033e-06
7.72590796e-06
7.72590657e-06
7.72591588e-06
7.72590552e-06
7.72591084e-06
7.72590441e-06
7.72590447e-06
7.72590977e-06
7.72591322e-06
7.72590003e-06
7.72591068e-06
7.72590858e-06
7.72589797e-06
7.72592206e-06
7.72589396e-06
7.7259219e-06
7.72590663e-06
7.72592083e-06
7.72590024e-06
7.7259294e-06
7.72589451e-06
7.72592776e-06
7.7259022e-06
7.72590777e-06
7.72591303e-06
7.7259078e-06
7.72591076e-06
7.72590928e-06
7.72591886e-06
7.72590858e-06
7.72589808e-06
7.72591824e-06
7.7259076e-06
7.72591156e-06
7.72591353e-06
7.7259111e-06
7.72590386e-06
7.72591103e-06
7.72590876e-06
7.72591288e-06
7.72590773e-06
7.72591375e-06
7.7259134e-06
7.72590974e-06
7.72590959e-06
7.7259121e-06
7.72591247e-06
7.72591303e-06
7.72591053e-06
7.72591404e-06
7.72591153e-06
7.72591272e-06
7.72591317e-06
7.72591432e-06
7.72591324e-06
7.72591428e-06
7.72591538e-06
7.72591574e-06
7.72591524e-06
7.72591652e-06
7.72591721e-06
7.72591699e-06
7.72591801e-06
7.72591868e-06
7.72592011e-06
7.72592053e-06
7.7259213e-06
7.72592247e-06
7.72592316e-06
7.72592444e-06
7.72592603e-06
7.7259276e-06
7.72592845e-06
7.72593071e-06
7.72593264e-06
7.72593494e-06
7.72593749e-06
7.72594039e-06
7.72594412e-06
7.72594842e-06
7.72595299e-06
7.72595751e-06
7.72596169e-06
7.72596553e-06
7.72596843e-06
7.72596962e-06
7.72597072e-06
7.72597098e-06
7.72597093e-06
7.72597122e-06
7.72597127e-06
7.72597108e-06
7.72597134e-06
7.72597107e-06
7.72597107e-06
7.72597105e-06
7.72597109e-06
7.72597101e-06
7.72597097e-06
7.72597106e-06
7.72597107e-06
7.72597084e-06
7.72597133e-06
)
;

boundaryField
{
    closed
    {
        type            calculated;
        value           uniform 0;
    }
    open
    {
        type            calculated;
        value           uniform 0;
    }
    sides
    {
        type            empty;
    }
}


// ************************************************************************* //
