/*--------------------------------*- C++ -*----------------------------------*\
| =========                 |                                                 |
| \\      /  F ield         | OpenFOAM: The Open Source CFD Toolbox           |
|  \\    /   O peration     | Version:  2206                                  |
|   \\  /    A nd           | Website:  www.openfoam.com                      |
|    \\/     M anipulation  |                                                 |
\*---------------------------------------------------------------------------*/
FoamFile
{
    version     2.0;
    format      ascii;
    arch        "LSB;label=32;scalar=64";
    class       volVectorField;
    location    "1.96e-05";
    object      U;
}
// * * * * * * * * * * * * * * * * * * * * * * * * * * * * * * * * * * * * * //

dimensions      [0 1 -1 0 0 0 0];

internalField   nonuniform List<vector> 
3183
(
(5.99269284e-13 0 0)
(3.2433928e-13 0 0)
(-4.43662337e-13 0 0)
(-5.88574122e-13 0 0)
(-2.07849009e-13 0 0)
(-1.77386384e-17 0 0)
(-1.31345123e-18 0 0)
(-1.4143512e-22 0 0)
(2.22269551e-19 0 0)
(5.48561243e-18 0 0)
(7.98418251e-14 0 0)
(3.92932907e-13 0 0)
(8.77141754e-13 0 0)
(3.95215579e-13 0 0)
(2.41144733e-13 0 0)
(-5.151003e-14 0 0)
(-5.06941456e-13 0 0)
(-8.14299225e-13 0 0)
(-1.15187945e-12 0 0)
(-3.92326322e-13 0 0)
(3.59980517e-13 0 0)
(1.05092771e-13 0 0)
(1.78709375e-13 0 0)
(5.91362932e-13 0 0)
(8.25976672e-13 0 0)
(1.01578253e-12 0 0)
(7.85285735e-13 0 0)
(4.94304974e-13 0 0)
(2.07534743e-13 0 0)
(2.09508572e-13 0 0)
(4.97888339e-16 0 0)
(8.24069061e-14 0 0)
(-3.4943239e-13 0 0)
(-7.07486289e-13 0 0)
(-9.19560669e-13 0 0)
(-1.00930918e-12 0 0)
(-9.21391959e-13 0 0)
(-6.64615717e-13 0 0)
(-5.46740331e-13 0 0)
(-4.6215847e-13 0 0)
(-1.0383866e-13 0 0)
(3.88814031e-13 0 0)
(9.12820079e-13 0 0)
(7.38592001e-13 0 0)
(9.33486991e-13 0 0)
(8.61815393e-13 0 0)
(3.62387641e-14 0 0)
(-6.58555897e-13 0 0)
(-1.28144052e-12 0 0)
(-1.76835275e-12 0 0)
(-2.46927098e-12 0 0)
(-2.93043579e-12 0 0)
(-4.05894372e-12 0 0)
(-4.25783556e-12 0 0)
(-4.67473685e-12 0 0)
(-5.21231433e-12 0 0)
(-5.58476753e-12 0 0)
(-5.81402289e-12 0 0)
(-6.14229978e-12 0 0)
(-6.16500958e-12 0 0)
(-6.5564012e-12 0 0)
(-7.41737664e-12 0 0)
(-7.11363453e-12 0 0)
(-7.9004987e-12 0 0)
(-7.73687851e-12 0 0)
(-8.42030217e-12 0 0)
(-8.76443052e-12 0 0)
(-8.80359618e-12 0 0)
(-9.19008135e-12 0 0)
(-9.76781305e-12 0 0)
(-9.90667484e-12 0 0)
(-1.00043811e-11 0 0)
(-9.61555083e-12 0 0)
(-1.04216441e-11 0 0)
(-1.11570429e-11 0 0)
(-1.04592189e-11 0 0)
(-1.10621864e-11 0 0)
(-1.04523752e-11 0 0)
(-1.04850417e-11 0 0)
(-1.09042751e-11 0 0)
(-1.18528499e-11 0 0)
(-1.04371671e-11 0 0)
(-1.06952266e-11 0 0)
(-1.13951149e-11 0 0)
(-1.12921214e-11 0 0)
(-1.08428701e-11 0 0)
(-1.07191202e-11 0 0)
(-1.14601651e-11 0 0)
(-1.04835539e-11 0 0)
(-1.16680873e-11 0 0)
(-1.16009121e-11 0 0)
(-1.14537852e-11 0 0)
(-1.15987997e-11 0 0)
(-1.17105025e-11 0 0)
(-1.19247775e-11 0 0)
(-1.25399191e-11 0 0)
(-1.11122591e-11 0 0)
(-1.25547267e-11 0 0)
(-1.20959985e-11 0 0)
(-1.22572014e-11 0 0)
(-1.14331712e-11 0 0)
(-1.30489176e-11 0 0)
(-1.24502087e-11 0 0)
(-1.2376169e-11 0 0)
(-1.17359805e-11 0 0)
(-1.28291408e-11 0 0)
(-1.34061867e-11 0 0)
(-1.29779487e-11 0 0)
(-1.4167359e-11 0 0)
(-1.3568356e-11 0 0)
(-1.21599229e-11 0 0)
(-1.28940662e-11 0 0)
(-1.27588457e-11 0 0)
(-1.39839428e-11 0 0)
(-1.21480658e-11 0 0)
(-1.36291676e-11 0 0)
(-1.41115324e-11 0 0)
(-1.28543026e-11 0 0)
(-1.35855098e-11 0 0)
(-1.45559347e-11 0 0)
(-1.39299689e-11 0 0)
(-1.35546603e-11 0 0)
(-1.35157622e-11 0 0)
(-1.46903685e-11 0 0)
(-1.45116784e-11 0 0)
(-1.56786507e-11 0 0)
(-1.46590944e-11 0 0)
(-1.57983947e-11 0 0)
(-1.40366593e-11 0 0)
(-1.51262387e-11 0 0)
(-1.52317907e-11 0 0)
(-1.52244543e-11 0 0)
(-1.60754643e-11 0 0)
(-1.70703659e-11 0 0)
(-1.4613597e-11 0 0)
(-1.6215394e-11 0 0)
(-1.61721669e-11 0 0)
(-1.58546732e-11 0 0)
(-1.52873721e-11 0 0)
(-1.56539278e-11 0 0)
(-1.62460961e-11 0 0)
(-1.64279289e-11 0 0)
(-1.71603062e-11 0 0)
(-1.57739806e-11 0 0)
(-1.52409763e-11 0 0)
(-1.66277832e-11 0 0)
(-1.56141302e-11 0 0)
(-1.6574822e-11 0 0)
(-1.56740105e-11 0 0)
(-1.57216071e-11 0 0)
(-1.61443424e-11 0 0)
(-1.59601785e-11 0 0)
(-1.69171327e-11 0 0)
(-1.59095391e-11 0 0)
(-1.56814208e-11 0 0)
(-1.55032308e-11 0 0)
(-1.62031675e-11 0 0)
(-1.58700556e-11 0 0)
(-1.58283271e-11 0 0)
(-1.5927499e-11 0 0)
(-1.5255251e-11 0 0)
(-1.54148017e-11 0 0)
(-1.56936306e-11 0 0)
(-1.56279167e-11 0 0)
(-1.58096117e-11 0 0)
(-1.57305279e-11 0 0)
(-1.52467001e-11 0 0)
(-1.5429253e-11 0 0)
(-1.51159358e-11 0 0)
(-1.53313128e-11 0 0)
(-1.53400447e-11 0 0)
(-1.46357008e-11 0 0)
(-1.5643511e-11 0 0)
(-1.54622025e-11 0 0)
(-1.51358344e-11 0 0)
(-1.57730608e-11 0 0)
(-1.59815555e-11 0 0)
(-1.50120316e-11 0 0)
(-1.65296753e-11 0 0)
(-1.74830714e-11 0 0)
(-1.55807124e-11 0 0)
(-1.58533182e-11 0 0)
(-1.59201672e-11 0 0)
(-1.62882309e-11 0 0)
(-1.69811976e-11 0 0)
(-1.70278655e-11 0 0)
(-1.5630154e-11 0 0)
(-1.59804543e-11 0 0)
(-1.74105509e-11 0 0)
(-1.63141561e-11 0 0)
(-1.73879493e-11 0 0)
(-1.74303757e-11 0 0)
(-1.81253059e-11 0 0)
(-1.74027133e-11 0 0)
(-1.78230867e-11 0 0)
(-1.72654986e-11 0 0)
(-1.69681258e-11 0 0)
(-1.78776242e-11 0 0)
(-1.7622212e-11 0 0)
(-1.83933234e-11 0 0)
(-1.85696853e-11 0 0)
(-1.79515103e-11 0 0)
(-1.82972271e-11 0 0)
(-1.7579014e-11 0 0)
(-1.83176926e-11 0 0)
(-1.82082829e-11 0 0)
(-1.80515663e-11 0 0)
(-1.83692612e-11 0 0)
(-1.83728773e-11 0 0)
(-1.81219266e-11 0 0)
(-1.77153412e-11 0 0)
(-1.8789926e-11 0 0)
(-1.83477492e-11 0 0)
(-1.8152841e-11 0 0)
(-1.82215656e-11 0 0)
(-1.83153064e-11 0 0)
(-1.89179927e-11 0 0)
(-1.83439758e-11 0 0)
(-1.88777751e-11 0 0)
(-1.8652761e-11 0 0)
(-2.0114344e-11 0 0)
(-1.94581139e-11 0 0)
(-2.05036022e-11 0 0)
(-1.93862664e-11 0 0)
(-1.87464953e-11 0 0)
(-1.98812188e-11 0 0)
(-1.91052115e-11 0 0)
(-1.88923529e-11 0 0)
(-1.96689319e-11 0 0)
(-1.87056478e-11 0 0)
(-1.93489516e-11 0 0)
(-1.95911603e-11 0 0)
(-1.81737001e-11 0 0)
(-1.93951472e-11 0 0)
(-1.85645764e-11 0 0)
(-1.84819637e-11 0 0)
(-1.8071536e-11 0 0)
(-1.77599275e-11 0 0)
(-1.73668674e-11 0 0)
(-1.78202178e-11 0 0)
(-1.81293432e-11 0 0)
(-1.79754792e-11 0 0)
(-1.87091607e-11 0 0)
(-1.78772622e-11 0 0)
(-1.97508056e-11 0 0)
(-1.95508254e-11 0 0)
(-1.79078709e-11 0 0)
(-1.93426199e-11 0 0)
(-1.8345893e-11 0 0)
(-1.97874932e-11 0 0)
(-1.92509249e-11 0 0)
(-1.8475828e-11 0 0)
(-1.913858e-11 0 0)
(-1.91110476e-11 0 0)
(-1.79816564e-11 0 0)
(-1.86271097e-11 0 0)
(-1.85346643e-11 0 0)
(-1.82339947e-11 0 0)
(-1.82854642e-11 0 0)
(-1.89451099e-11 0 0)
(-1.77419758e-11 0 0)
(-1.89279399e-11 0 0)
(-1.87296508e-11 0 0)
(-1.88665463e-11 0 0)
(-1.86591295e-11 0 0)
(-2.01265333e-11 0 0)
(-1.85234199e-11 0 0)
(-1.98675849e-11 0 0)
(-1.9220954e-11 0 0)
(-1.77295826e-11 0 0)
(-1.92382202e-11 0 0)
(-1.8786766e-11 0 0)
(-2.00225703e-11 0 0)
(-1.89664879e-11 0 0)
(-1.92910251e-11 0 0)
(-1.89156196e-11 0 0)
(-1.92107531e-11 0 0)
(-1.94802495e-11 0 0)
(-1.87489493e-11 0 0)
(-1.83849683e-11 0 0)
(-1.94669769e-11 0 0)
(-1.88821601e-11 0 0)
(-1.98427413e-11 0 0)
(-2.05473518e-11 0 0)
(-1.945552e-11 0 0)
(-2.01321714e-11 0 0)
(-1.92765812e-11 0 0)
(-2.01847061e-11 0 0)
(-2.01432918e-11 0 0)
(-1.9851297e-11 0 0)
(-2.00952383e-11 0 0)
(-2.06692822e-11 0 0)
(-2.09691456e-11 0 0)
(-2.02031133e-11 0 0)
(-2.09579034e-11 0 0)
(-2.10722176e-11 0 0)
(-2.14168793e-11 0 0)
(-2.13746687e-11 0 0)
(-2.06897946e-11 0 0)
(-2.17140357e-11 0 0)
(-2.08534831e-11 0 0)
(-2.04627478e-11 0 0)
(-2.11282922e-11 0 0)
(-2.09521152e-11 0 0)
(-2.18852471e-11 0 0)
(-2.17010918e-11 0 0)
(-2.14938192e-11 0 0)
(-2.14743293e-11 0 0)
(-2.30598341e-11 0 0)
(-2.20496066e-11 0 0)
(-2.30203759e-11 0 0)
(-2.23067104e-11 0 0)
(-2.13847652e-11 0 0)
(-2.29285744e-11 0 0)
(-2.21256366e-11 0 0)
(-2.34246563e-11 0 0)
(-2.17100796e-11 0 0)
(-2.30505342e-11 0 0)
(-2.20655722e-11 0 0)
(-2.14495594e-11 0 0)
(-2.19292555e-11 0 0)
(-2.2030782e-11 0 0)
(-2.26931593e-11 0 0)
(-2.17539618e-11 0 0)
(-2.17763377e-11 0 0)
(-2.1942383e-11 0 0)
(-2.18808385e-11 0 0)
(-2.20639193e-11 0 0)
(-2.10757806e-11 0 0)
(-2.07085989e-11 0 0)
(-2.11803015e-11 0 0)
(-2.11905008e-11 0 0)
(-2.18542796e-11 0 0)
(-2.10474204e-11 0 0)
(-2.13624267e-11 0 0)
(-2.05303455e-11 0 0)
(-2.08171935e-11 0 0)
(-2.1123648e-11 0 0)
(-2.10835137e-11 0 0)
(-2.21217578e-11 0 0)
(-2.12880951e-11 0 0)
(-2.16633456e-11 0 0)
(-2.08989077e-11 0 0)
(-2.00513337e-11 0 0)
(-2.02931567e-11 0 0)
(-1.99316139e-11 0 0)
(-2.04260043e-11 0 0)
(-1.93664821e-11 0 0)
(-2.02330634e-11 0 0)
(-1.97149556e-11 0 0)
(-2.04300168e-11 0 0)
(-1.97674377e-11 0 0)
(-2.04431978e-11 0 0)
(-1.99314726e-11 0 0)
(-1.97607767e-11 0 0)
(-1.91655284e-11 0 0)
(-2.06734883e-11 0 0)
(-1.99172397e-11 0 0)
(-1.98171516e-11 0 0)
(-1.88586806e-11 0 0)
(-2.00253233e-11 0 0)
(-2.00010493e-11 0 0)
(-1.98776007e-11 0 0)
(-1.95066895e-11 0 0)
(-1.89975088e-11 0 0)
(-2.01590043e-11 0 0)
(-1.95189413e-11 0 0)
(-2.01437313e-11 0 0)
(-1.90240595e-11 0 0)
(-1.94457769e-11 0 0)
(-1.90689798e-11 0 0)
(-1.86791938e-11 0 0)
(-1.94400082e-11 0 0)
(-1.88032273e-11 0 0)
(-1.94222441e-11 0 0)
(-2.06131194e-11 0 0)
(-1.96233169e-11 0 0)
(-1.95873821e-11 0 0)
(-1.93123966e-11 0 0)
(-2.06329188e-11 0 0)
(-1.85373805e-11 0 0)
(-1.85305434e-11 0 0)
(-1.93508856e-11 0 0)
(-1.91378845e-11 0 0)
(-1.88519007e-11 0 0)
(-1.95353621e-11 0 0)
(-1.93559561e-11 0 0)
(-1.91484542e-11 0 0)
(-1.95573208e-11 0 0)
(-1.84020753e-11 0 0)
(-1.80689267e-11 0 0)
(-1.79713095e-11 0 0)
(-1.87768952e-11 0 0)
(-1.88202501e-11 0 0)
(-1.87807277e-11 0 0)
(-1.8875069e-11 0 0)
(-1.85197094e-11 0 0)
(-1.81262933e-11 0 0)
(-1.86572494e-11 0 0)
(-1.7471076e-11 0 0)
(-1.78605874e-11 0 0)
(-1.88050453e-11 0 0)
(-1.7500618e-11 0 0)
(-1.85958108e-11 0 0)
(-1.72440785e-11 0 0)
(-1.70567283e-11 0 0)
(-1.72928554e-11 0 0)
(-1.70699716e-11 0 0)
(-1.64166546e-11 0 0)
(-1.68105752e-11 0 0)
(-1.67572231e-11 0 0)
(-1.54510619e-11 0 0)
(-1.45953974e-11 0 0)
(-1.42107391e-11 0 0)
(-1.63393005e-11 0 0)
(-1.57651067e-11 0 0)
(-1.56114943e-11 0 0)
(-1.49883472e-11 0 0)
(-1.54223765e-11 0 0)
(-1.57715824e-11 0 0)
(-1.47711599e-11 0 0)
(-1.51587763e-11 0 0)
(-1.43109276e-11 0 0)
(-1.38614913e-11 0 0)
(-1.4617505e-11 0 0)
(-1.53552223e-11 0 0)
(-1.46600022e-11 0 0)
(-1.44664081e-11 0 0)
(-1.4449464e-11 0 0)
(-1.41798403e-11 0 0)
(-1.47783683e-11 0 0)
(-1.48691778e-11 0 0)
(-1.48661691e-11 0 0)
(-1.43236254e-11 0 0)
(-1.37993248e-11 0 0)
(-1.50486601e-11 0 0)
(-1.45593474e-11 0 0)
(-1.36709886e-11 0 0)
(-1.33956136e-11 0 0)
(-1.37564362e-11 0 0)
(-1.31291885e-11 0 0)
(-1.43220352e-11 0 0)
(-1.34394951e-11 0 0)
(-1.46027022e-11 0 0)
(-1.38981213e-11 0 0)
(-1.36694522e-11 0 0)
(-1.35929383e-11 0 0)
(-1.44641318e-11 0 0)
(-1.46272224e-11 0 0)
(-1.33005867e-11 0 0)
(-1.44531254e-11 0 0)
(-1.40540038e-11 0 0)
(-1.40118309e-11 0 0)
(-1.4394245e-11 0 0)
(-1.28913315e-11 0 0)
(-1.27523629e-11 0 0)
(-1.30578013e-11 0 0)
(-1.13575507e-11 0 0)
(-1.28788996e-11 0 0)
(-1.22819305e-11 0 0)
(-1.15223917e-11 0 0)
(-9.9070281e-12 0 0)
(-1.07024315e-11 0 0)
(-1.09068842e-11 0 0)
(-1.04109356e-11 0 0)
(-1.07019855e-11 0 0)
(-9.96758561e-12 0 0)
(-1.00459729e-11 0 0)
(-1.05026534e-11 0 0)
(-1.04285658e-11 0 0)
(-1.08734965e-11 0 0)
(-1.04783886e-11 0 0)
(-1.06997731e-11 0 0)
(-1.05747199e-11 0 0)
(-9.8211651e-12 0 0)
(-1.04299086e-11 0 0)
(-1.16731577e-11 0 0)
(-1.09949445e-11 0 0)
(-1.0578116e-11 0 0)
(-1.04928519e-11 0 0)
(-1.00147731e-11 0 0)
(-1.00598262e-11 0 0)
(-9.75204783e-12 0 0)
(-9.9089873e-12 0 0)
(-8.85819101e-12 0 0)
(-9.0956976e-12 0 0)
(-1.01773418e-11 0 0)
(-9.94056329e-12 0 0)
(-9.71587343e-12 0 0)
(-9.49022817e-12 0 0)
(-1.01597994e-11 0 0)
(-9.52611615e-12 0 0)
(-1.02263676e-11 0 0)
(-9.92856536e-12 0 0)
(-1.02513404e-11 0 0)
(-9.20660967e-12 0 0)
(-1.00760384e-11 0 0)
(-9.00698501e-12 0 0)
(-9.99755199e-12 0 0)
(-9.40092353e-12 0 0)
(-1.01899361e-11 0 0)
(-1.03830866e-11 0 0)
(-9.2809939e-12 0 0)
(-9.37036554e-12 0 0)
(-9.5376057e-12 0 0)
(-1.02986513e-11 0 0)
(-9.93919208e-12 0 0)
(-8.04751609e-12 0 0)
(-9.48398711e-12 0 0)
(-8.47390529e-12 0 0)
(-9.16318314e-12 0 0)
(-9.84745968e-12 0 0)
(-9.22098744e-12 0 0)
(-8.62934109e-12 0 0)
(-8.84015362e-12 0 0)
(-8.64537081e-12 0 0)
(-8.96576582e-12 0 0)
(-8.11934929e-12 0 0)
(-8.19614757e-12 0 0)
(-8.68592665e-12 0 0)
(-8.83071995e-12 0 0)
(-8.67457919e-12 0 0)
(-7.3026426e-12 0 0)
(-8.45211441e-12 0 0)
(-8.73211298e-12 0 0)
(-8.2452029e-12 0 0)
(-8.06829221e-12 0 0)
(-7.77550571e-12 0 0)
(-6.64244522e-12 0 0)
(-8.35027191e-12 0 0)
(-8.74621825e-12 0 0)
(-7.49713045e-12 0 0)
(-7.67106307e-12 0 0)
(-8.45062236e-12 0 0)
(-7.84458857e-12 0 0)
(-7.10936112e-12 0 0)
(-6.97020826e-12 0 0)
(-7.17280764e-12 0 0)
(-6.61711019e-12 0 0)
(-6.02071287e-12 0 0)
(-6.1400978e-12 0 0)
(-6.05688109e-12 0 0)
(-5.68963619e-12 0 0)
(-5.95932048e-12 0 0)
(-5.86901414e-12 0 0)
(-4.68693136e-12 0 0)
(-5.35676641e-12 0 0)
(-4.90997563e-12 0 0)
(-5.13544394e-12 0 0)
(-4.41641562e-12 0 0)
(-4.61662212e-12 0 0)
(-4.53829648e-12 0 0)
(-4.6451949e-12 0 0)
(-4.29416092e-12 0 0)
(-4.85914187e-12 0 0)
(-4.33603633e-12 0 0)
(-3.3124582e-12 0 0)
(-3.32592872e-12 0 0)
(-4.530211e-12 0 0)
(-3.78714682e-12 0 0)
(-3.4051673e-12 0 0)
(-4.68572592e-12 0 0)
(-4.08773527e-12 0 0)
(-3.89839399e-12 0 0)
(-4.83137676e-12 0 0)
(-2.93203776e-12 0 0)
(-3.6912621e-12 0 0)
(-3.88622105e-12 0 0)
(-3.25439332e-12 0 0)
(-2.5584182e-12 0 0)
(-3.7976386e-12 0 0)
(-3.89188941e-12 0 0)
(-2.57270383e-12 0 0)
(-2.94955541e-12 0 0)
(-2.5208316e-12 0 0)
(-2.34930093e-12 0 0)
(-4.14800393e-12 0 0)
(-2.48192629e-12 0 0)
(-3.417037e-12 0 0)
(-2.69923314e-12 0 0)
(-4.03797135e-12 0 0)
(-2.86204194e-12 0 0)
(-2.12595566e-12 0 0)
(-2.75662146e-12 0 0)
(-2.89612303e-12 0 0)
(-1.47047711e-12 0 0)
(-1.94442345e-12 0 0)
(-2.48151231e-12 0 0)
(-1.76420295e-12 0 0)
(-2.86024941e-12 0 0)
(-1.70822501e-12 0 0)
(-1.43054123e-12 0 0)
(-1.72314622e-12 0 0)
(-1.7188416e-12 0 0)
(-1.80502971e-12 0 0)
(-2.41172047e-12 0 0)
(-1.49145602e-12 0 0)
(-2.03698866e-12 0 0)
(-1.4156549e-12 0 0)
(-2.6156183e-13 0 0)
(-1.28986047e-12 0 0)
(-1.33697125e-12 0 0)
(-1.37561169e-12 0 0)
(-1.78675828e-12 0 0)
(-6.05281433e-13 0 0)
(-8.25166604e-13 0 0)
(-1.11956683e-12 0 0)
(-9.27830868e-13 0 0)
(-1.48767646e-12 0 0)
(-1.26914717e-12 0 0)
(-1.11383191e-12 0 0)
(-1.19186286e-12 0 0)
(-1.52090234e-13 0 0)
(-3.41367155e-13 0 0)
(-1.16187139e-13 0 0)
(-1.78874447e-13 0 0)
(8.10077925e-13 0 0)
(6.3522083e-13 0 0)
(1.91787788e-14 0 0)
(1.08229378e-12 0 0)
(1.39697549e-13 0 0)
(1.12021563e-12 0 0)
(5.49189092e-13 0 0)
(4.13695905e-13 0 0)
(2.15510459e-12 0 0)
(6.00397395e-14 0 0)
(1.12794639e-12 0 0)
(1.01609855e-12 0 0)
(8.8894363e-13 0 0)
(1.11297354e-12 0 0)
(1.04255524e-12 0 0)
(1.54499589e-12 0 0)
(1.19087183e-12 0 0)
(1.70343045e-12 0 0)
(1.79596407e-12 0 0)
(1.3438805e-12 0 0)
(1.81045622e-12 0 0)
(2.43749521e-12 0 0)
(1.29171795e-12 0 0)
(2.33410956e-12 0 0)
(2.71559194e-12 0 0)
(2.20029814e-12 0 0)
(2.54542202e-12 0 0)
(2.53131489e-12 0 0)
(2.42498541e-12 0 0)
(1.95534704e-12 0 0)
(2.2162634e-12 0 0)
(2.26044293e-12 0 0)
(2.39809605e-12 0 0)
(2.57525633e-12 0 0)
(3.22284726e-12 0 0)
(2.80179455e-12 0 0)
(2.64820366e-12 0 0)
(3.11065202e-12 0 0)
(2.89521108e-12 0 0)
(3.11248381e-12 0 0)
(2.71505717e-12 0 0)
(3.08009865e-12 0 0)
(2.84214573e-12 0 0)
(1.68565846e-12 0 0)
(3.08857071e-12 0 0)
(4.00683506e-12 0 0)
(2.52530488e-12 0 0)
(3.27677399e-12 0 0)
(3.12364539e-12 0 0)
(2.34844785e-12 0 0)
(2.32350992e-12 0 0)
(3.35548146e-12 0 0)
(2.85861181e-12 0 0)
(2.19627389e-12 0 0)
(3.11753154e-12 0 0)
(1.90027791e-12 0 0)
(2.47222342e-12 0 0)
(3.11115964e-12 0 0)
(1.63290793e-12 0 0)
(3.51716552e-12 0 0)
(2.73049952e-12 0 0)
(3.2185668e-12 0 0)
(2.40910863e-12 0 0)
(2.38336554e-12 0 0)
(2.54352483e-12 0 0)
(2.85531219e-12 0 0)
(2.11610082e-12 0 0)
(2.89520109e-12 0 0)
(2.53471622e-12 0 0)
(2.11170043e-12 0 0)
(2.00841182e-12 0 0)
(3.37139757e-12 0 0)
(2.44652112e-12 0 0)
(3.01289937e-12 0 0)
(3.7110355e-12 0 0)
(4.60267307e-12 0 0)
(2.39640615e-12 0 0)
(4.14171781e-12 0 0)
(4.60642356e-12 0 0)
(4.19509832e-12 0 0)
(3.68154864e-12 0 0)
(4.08244299e-12 0 0)
(4.33198206e-12 0 0)
(5.00656537e-12 0 0)
(4.17467768e-12 0 0)
(3.80569808e-12 0 0)
(4.00928019e-12 0 0)
(3.87603447e-12 0 0)
(4.63627023e-12 0 0)
(4.59035551e-12 0 0)
(5.07666903e-12 0 0)
(5.22062114e-12 0 0)
(4.30693481e-12 0 0)
(5.35749709e-12 0 0)
(4.20513291e-12 0 0)
(4.65317186e-12 0 0)
(4.49937498e-12 0 0)
(4.72585242e-12 0 0)
(4.48944544e-12 0 0)
(3.95604379e-12 0 0)
(4.44477212e-12 0 0)
(4.07952729e-12 0 0)
(4.96728301e-12 0 0)
(4.54027805e-12 0 0)
(5.19716008e-12 0 0)
(3.07887874e-12 0 0)
(4.99043914e-12 0 0)
(4.64314763e-12 0 0)
(4.74709703e-12 0 0)
(4.30339517e-12 0 0)
(5.00185209e-12 0 0)
(5.18665996e-12 0 0)
(4.57411535e-12 0 0)
(5.53213046e-12 0 0)
(5.90599882e-12 0 0)
(5.14055429e-12 0 0)
(5.23414484e-12 0 0)
(4.65187582e-12 0 0)
(5.03957497e-12 0 0)
(5.991755e-12 0 0)
(5.02102785e-12 0 0)
(4.84877885e-12 0 0)
(5.12622742e-12 0 0)
(5.88962562e-12 0 0)
(5.16021526e-12 0 0)
(5.39928124e-12 0 0)
(5.5475839e-12 0 0)
(5.49825249e-12 0 0)
(5.80472616e-12 0 0)
(4.85325858e-12 0 0)
(5.67817864e-12 0 0)
(5.51961033e-12 0 0)
(5.38149013e-12 0 0)
(5.26505103e-12 0 0)
(4.94829084e-12 0 0)
(5.83114411e-12 0 0)
(5.68327975e-12 0 0)
(5.07879543e-12 0 0)
(6.53994624e-12 0 0)
(4.82868198e-12 0 0)
(5.29331103e-12 0 0)
(4.8216619e-12 0 0)
(5.45639059e-12 0 0)
(5.34271956e-12 0 0)
(4.75498057e-12 0 0)
(5.71117612e-12 0 0)
(5.13654143e-12 0 0)
(4.70352718e-12 0 0)
(5.1208271e-12 0 0)
(6.15687365e-12 0 0)
(5.86681076e-12 0 0)
(5.82550147e-12 0 0)
(7.04381644e-12 0 0)
(5.89449205e-12 0 0)
(5.97581811e-12 0 0)
(5.9395575e-12 0 0)
(5.82309058e-12 0 0)
(6.01965654e-12 0 0)
(6.15931132e-12 0 0)
(6.50725967e-12 0 0)
(6.69836103e-12 0 0)
(5.72053608e-12 0 0)
(6.37847066e-12 0 0)
(7.25831087e-12 0 0)
(6.75093359e-12 0 0)
(6.9833917e-12 0 0)
(7.66481374e-12 0 0)
(6.51377903e-12 0 0)
(7.01669688e-12 0 0)
(6.92839959e-12 0 0)
(6.77431726e-12 0 0)
(6.21941148e-12 0 0)
(6.93370263e-12 0 0)
(6.91046961e-12 0 0)
(7.45522854e-12 0 0)
(6.71059829e-12 0 0)
(6.96205259e-12 0 0)
(6.18487419e-12 0 0)
(6.77754553e-12 0 0)
(7.04171532e-12 0 0)
(6.77369437e-12 0 0)
(7.2121504e-12 0 0)
(5.7748839e-12 0 0)
(7.09479742e-12 0 0)
(5.95641007e-12 0 0)
(6.9724412e-12 0 0)
(6.91973673e-12 0 0)
(6.76354873e-12 0 0)
(7.27909732e-12 0 0)
(7.64224849e-12 0 0)
(6.94679905e-12 0 0)
(6.96922908e-12 0 0)
(7.13843851e-12 0 0)
(7.01057787e-12 0 0)
(6.88130796e-12 0 0)
(7.44406819e-12 0 0)
(6.17588972e-12 0 0)
(7.93614632e-12 0 0)
(6.56205903e-12 0 0)
(6.6068143e-12 0 0)
(7.49768864e-12 0 0)
(5.72361289e-12 0 0)
(6.73897304e-12 0 0)
(7.13617873e-12 0 0)
(5.69488322e-12 0 0)
(7.00092846e-12 0 0)
(7.92776584e-12 0 0)
(6.26372001e-12 0 0)
(6.6661819e-12 0 0)
(6.271591e-12 0 0)
(6.6701689e-12 0 0)
(6.12667349e-12 0 0)
(6.43782646e-12 0 0)
(6.50610322e-12 0 0)
(6.77439781e-12 0 0)
(6.26141134e-12 0 0)
(6.07697861e-12 0 0)
(6.52041815e-12 0 0)
(6.82160188e-12 0 0)
(6.24468232e-12 0 0)
(6.23743593e-12 0 0)
(5.5924644e-12 0 0)
(7.22696237e-12 0 0)
(6.34956461e-12 0 0)
(5.70899138e-12 0 0)
(5.51574694e-12 0 0)
(7.18615838e-12 0 0)
(6.56771854e-12 0 0)
(6.47543458e-12 0 0)
(6.80612391e-12 0 0)
(7.76161736e-12 0 0)
(7.31353778e-12 0 0)
(8.11045013e-12 0 0)
(7.02868952e-12 0 0)
(7.54208991e-12 0 0)
(7.82462783e-12 0 0)
(8.27659348e-12 0 0)
(7.41683197e-12 0 0)
(7.74052065e-12 0 0)
(7.62456957e-12 0 0)
(7.35530715e-12 0 0)
(7.01948459e-12 0 0)
(8.33075268e-12 0 0)
(7.74272065e-12 0 0)
(7.35146134e-12 0 0)
(7.37860973e-12 0 0)
(7.34507307e-12 0 0)
(7.90062113e-12 0 0)
(7.20951756e-12 0 0)
(8.01484815e-12 0 0)
(8.44957048e-12 0 0)
(7.76778728e-12 0 0)
(6.97848699e-12 0 0)
(8.56521973e-12 0 0)
(8.16057933e-12 0 0)
(6.13145682e-12 0 0)
(8.16013232e-12 0 0)
(7.84101159e-12 0 0)
(8.52179818e-12 0 0)
(7.18785414e-12 0 0)
(7.87515723e-12 0 0)
(8.31625359e-12 0 0)
(8.87617119e-12 0 0)
(8.01709705e-12 0 0)
(7.42581773e-12 0 0)
(8.74673122e-12 0 0)
(8.88075211e-12 0 0)
(9.04417538e-12 0 0)
(8.72199241e-12 0 0)
(9.06091494e-12 0 0)
(9.63406199e-12 0 0)
(9.88173937e-12 0 0)
(9.68375378e-12 0 0)
(8.67918514e-12 0 0)
(8.94844188e-12 0 0)
(1.02223338e-11 0 0)
(1.01390413e-11 0 0)
(9.92462645e-12 0 0)
(8.78123984e-12 0 0)
(9.64405741e-12 0 0)
(8.73617214e-12 0 0)
(9.76455549e-12 0 0)
(8.93291328e-12 0 0)
(8.75578939e-12 0 0)
(8.19572661e-12 0 0)
(8.39500316e-12 0 0)
(9.00932274e-12 0 0)
(9.03377015e-12 0 0)
(9.07185336e-12 0 0)
(9.62143689e-12 0 0)
(8.14075327e-12 0 0)
(9.02953475e-12 0 0)
(1.00914302e-11 0 0)
(1.0154989e-11 0 0)
(1.07063854e-11 0 0)
(1.02902267e-11 0 0)
(1.00797878e-11 0 0)
(9.3218402e-12 0 0)
(1.01255318e-11 0 0)
(8.97845094e-12 0 0)
(9.83207639e-12 0 0)
(8.95996291e-12 0 0)
(9.52957875e-12 0 0)
(1.01299315e-11 0 0)
(9.851541e-12 0 0)
(9.95761458e-12 0 0)
(1.00061805e-11 0 0)
(1.0375376e-11 0 0)
(1.07405488e-11 0 0)
(1.07609779e-11 0 0)
(1.12141597e-11 0 0)
(1.05365063e-11 0 0)
(9.57142538e-12 0 0)
(1.11477564e-11 0 0)
(1.04761038e-11 0 0)
(1.03429345e-11 0 0)
(1.04849409e-11 0 0)
(9.97053598e-12 0 0)
(1.08177224e-11 0 0)
(1.05344993e-11 0 0)
(9.85775534e-12 0 0)
(1.04171129e-11 0 0)
(1.03019372e-11 0 0)
(1.0065511e-11 0 0)
(9.38898951e-12 0 0)
(9.55215255e-12 0 0)
(1.07779998e-11 0 0)
(9.81047843e-12 0 0)
(9.08941861e-12 0 0)
(1.00980029e-11 0 0)
(1.01867202e-11 0 0)
(9.32219935e-12 0 0)
(9.71285853e-12 0 0)
(9.65904626e-12 0 0)
(9.76292802e-12 0 0)
(9.93833776e-12 0 0)
(8.94389646e-12 0 0)
(9.57430327e-12 0 0)
(9.5702608e-12 0 0)
(9.77951382e-12 0 0)
(1.01165414e-11 0 0)
(1.06702608e-11 0 0)
(9.28923537e-12 0 0)
(1.0240655e-11 0 0)
(1.02932543e-11 0 0)
(1.06884182e-11 0 0)
(9.91614015e-12 0 0)
(1.01993673e-11 0 0)
(9.99226925e-12 0 0)
(9.55049887e-12 0 0)
(1.06448881e-11 0 0)
(1.01206721e-11 0 0)
(1.12541625e-11 0 0)
(1.12795306e-11 0 0)
(9.99797639e-12 0 0)
(1.07679608e-11 0 0)
(1.07402539e-11 0 0)
(1.06554502e-11 0 0)
(1.07426126e-11 0 0)
(1.02979447e-11 0 0)
(1.02731384e-11 0 0)
(1.01051945e-11 0 0)
(9.9773404e-12 0 0)
(1.04793795e-11 0 0)
(1.08489594e-11 0 0)
(1.0713282e-11 0 0)
(9.4795511e-12 0 0)
(9.58631049e-12 0 0)
(9.52250504e-12 0 0)
(9.74751084e-12 0 0)
(8.96753926e-12 0 0)
(9.10594408e-12 0 0)
(9.97363969e-12 0 0)
(8.83468937e-12 0 0)
(9.30727265e-12 0 0)
(8.10870227e-12 0 0)
(8.57609769e-12 0 0)
(8.39093454e-12 0 0)
(9.02387854e-12 0 0)
(8.46727428e-12 0 0)
(7.80260721e-12 0 0)
(8.63552233e-12 0 0)
(8.19997206e-12 0 0)
(7.42220141e-12 0 0)
(7.99173152e-12 0 0)
(8.29019778e-12 0 0)
(7.85637456e-12 0 0)
(8.34575783e-12 0 0)
(8.7752428e-12 0 0)
(8.47455546e-12 0 0)
(8.97598924e-12 0 0)
(8.61355675e-12 0 0)
(8.25871512e-12 0 0)
(7.86875852e-12 0 0)
(7.69090032e-12 0 0)
(8.13790797e-12 0 0)
(8.4058503e-12 0 0)
(7.76153836e-12 0 0)
(7.95547018e-12 0 0)
(7.73235618e-12 0 0)
(8.07453948e-12 0 0)
(7.88177201e-12 0 0)
(8.44585517e-12 0 0)
(7.79207609e-12 0 0)
(7.62849525e-12 0 0)
(7.42409837e-12 0 0)
(6.9346902e-12 0 0)
(6.81507704e-12 0 0)
(7.10697138e-12 0 0)
(6.46746078e-12 0 0)
(6.74908826e-12 0 0)
(5.76159569e-12 0 0)
(5.68861537e-12 0 0)
(4.76009688e-12 0 0)
(4.78926017e-12 0 0)
(5.61461658e-12 0 0)
(4.5943892e-12 0 0)
(4.93732488e-12 0 0)
(4.84389716e-12 0 0)
(4.376516e-12 0 0)
(4.04047099e-12 0 0)
(4.12402249e-12 0 0)
(3.40891886e-12 0 0)
(3.26104294e-12 0 0)
(2.96569745e-12 0 0)
(3.43154393e-12 0 0)
(3.96252129e-12 0 0)
(3.58958203e-12 0 0)
(3.59589786e-12 0 0)
(2.88495944e-12 0 0)
(3.30721599e-12 0 0)
(3.55059688e-12 0 0)
(3.09344479e-12 0 0)
(3.06842741e-12 0 0)
(3.65739326e-12 0 0)
(2.77306535e-12 0 0)
(3.73166117e-12 0 0)
(3.47768905e-12 0 0)
(3.06343183e-12 0 0)
(3.92205451e-12 0 0)
(2.92388339e-12 0 0)
(3.94411329e-12 0 0)
(3.00635337e-12 0 0)
(2.63199975e-12 0 0)
(2.59200783e-12 0 0)
(3.0299655e-12 0 0)
(2.47317671e-12 0 0)
(1.95640792e-12 0 0)
(2.32418934e-12 0 0)
(3.03099939e-12 0 0)
(1.58907633e-12 0 0)
(1.72346265e-12 0 0)
(2.35050336e-12 0 0)
(2.5634485e-12 0 0)
(2.6197427e-12 0 0)
(2.63102041e-12 0 0)
(2.676813e-12 0 0)
(2.34912328e-12 0 0)
(2.26748552e-12 0 0)
(2.54094591e-12 0 0)
(1.8825672e-12 0 0)
(2.50351753e-12 0 0)
(3.01012973e-12 0 0)
(2.25743306e-12 0 0)
(2.8027685e-12 0 0)
(2.71287808e-12 0 0)
(2.43624465e-12 0 0)
(1.91570633e-12 0 0)
(9.87794443e-13 0 0)
(9.90491016e-13 0 0)
(1.53243127e-12 0 0)
(9.74357922e-13 0 0)
(8.65240879e-13 0 0)
(2.18074078e-12 0 0)
(8.30800959e-13 0 0)
(7.50222493e-13 0 0)
(2.80093781e-13 0 0)
(7.85665506e-13 0 0)
(-7.45138659e-13 0 0)
(1.46039107e-13 0 0)
(1.80733609e-13 0 0)
(-7.44805598e-13 0 0)
(-8.59648657e-13 0 0)
(-7.4357688e-13 0 0)
(-7.74582154e-13 0 0)
(-1.14913277e-12 0 0)
(-9.51824047e-13 0 0)
(-2.13275751e-12 0 0)
(-1.60433151e-12 0 0)
(-2.60182694e-12 0 0)
(-1.35849343e-12 0 0)
(-1.64944125e-12 0 0)
(-3.59721201e-12 0 0)
(-2.98717615e-12 0 0)
(-3.50291255e-12 0 0)
(-2.43726855e-12 0 0)
(-3.0369545e-12 0 0)
(-2.97362529e-12 0 0)
(-2.92017241e-12 0 0)
(-2.95545498e-12 0 0)
(-3.00679116e-12 0 0)
(-4.09038125e-12 0 0)
(-3.66560128e-12 0 0)
(-4.05820233e-12 0 0)
(-4.08745087e-12 0 0)
(-3.80328647e-12 0 0)
(-4.22892537e-12 0 0)
(-4.64847149e-12 0 0)
(-5.06911894e-12 0 0)
(-4.09029508e-12 0 0)
(-4.87009173e-12 0 0)
(-5.06424745e-12 0 0)
(-6.39714605e-12 0 0)
(-5.44423927e-12 0 0)
(-4.3226657e-12 0 0)
(-5.07381833e-12 0 0)
(-5.296588e-12 0 0)
(-5.6852162e-12 0 0)
(-6.44922217e-12 0 0)
(-6.53254394e-12 0 0)
(-6.07883648e-12 0 0)
(-5.53360547e-12 0 0)
(-6.76943566e-12 0 0)
(-6.33697362e-12 0 0)
(-5.55227584e-12 0 0)
(-5.48942814e-12 0 0)
(-6.00534272e-12 0 0)
(-5.51005424e-12 0 0)
(-5.82553442e-12 0 0)
(-5.92700918e-12 0 0)
(-6.22942309e-12 0 0)
(-7.28177406e-12 0 0)
(-4.8619674e-12 0 0)
(-5.33583982e-12 0 0)
(-5.09303664e-12 0 0)
(-5.85642085e-12 0 0)
(-6.45529095e-12 0 0)
(-6.34744908e-12 0 0)
(-6.38053212e-12 0 0)
(-6.79258168e-12 0 0)
(-7.13534729e-12 0 0)
(-6.06126528e-12 0 0)
(-6.26650182e-12 0 0)
(-6.88285089e-12 0 0)
(-6.67761029e-12 0 0)
(-7.12526623e-12 0 0)
(-6.74999712e-12 0 0)
(-7.23551812e-12 0 0)
(-7.51772099e-12 0 0)
(-6.74851341e-12 0 0)
(-7.05287688e-12 0 0)
(-6.94579088e-12 0 0)
(-6.80698441e-12 0 0)
(-7.66932095e-12 0 0)
(-6.3527937e-12 0 0)
(-7.36487688e-12 0 0)
(-7.2120894e-12 0 0)
(-6.54702053e-12 0 0)
(-7.37677054e-12 0 0)
(-7.11597222e-12 0 0)
(-7.33494185e-12 0 0)
(-7.93722553e-12 0 0)
(-7.33499843e-12 0 0)
(-8.07204574e-12 0 0)
(-7.98077398e-12 0 0)
(-7.89005374e-12 0 0)
(-7.57806895e-12 0 0)
(-7.67180832e-12 0 0)
(-8.81213742e-12 0 0)
(-7.99434731e-12 0 0)
(-8.27246424e-12 0 0)
(-9.06597564e-12 0 0)
(-8.12384941e-12 0 0)
(-8.00262277e-12 0 0)
(-9.211068e-12 0 0)
(-8.47108189e-12 0 0)
(-9.4491925e-12 0 0)
(-9.08159438e-12 0 0)
(-7.91629641e-12 0 0)
(-9.80046471e-12 0 0)
(-9.53088222e-12 0 0)
(-9.51577823e-12 0 0)
(-9.22866281e-12 0 0)
(-1.06136909e-11 0 0)
(-9.65968302e-12 0 0)
(-1.01629237e-11 0 0)
(-1.0985658e-11 0 0)
(-1.03975116e-11 0 0)
(-1.07114385e-11 0 0)
(-1.1006159e-11 0 0)
(-9.66131988e-12 0 0)
(-9.80264538e-12 0 0)
(-1.07307893e-11 0 0)
(-1.10215238e-11 0 0)
(-1.03439833e-11 0 0)
(-1.04982616e-11 0 0)
(-1.0360979e-11 0 0)
(-9.76883819e-12 0 0)
(-1.07800181e-11 0 0)
(-1.18658132e-11 0 0)
(-1.10908259e-11 0 0)
(-1.08429032e-11 0 0)
(-1.12452458e-11 0 0)
(-1.09386469e-11 0 0)
(-1.05901541e-11 0 0)
(-1.06444919e-11 0 0)
(-1.05619234e-11 0 0)
(-9.74017133e-12 0 0)
(-1.01071882e-11 0 0)
(-1.0890211e-11 0 0)
(-9.58087173e-12 0 0)
(-9.79258008e-12 0 0)
(-9.34883526e-12 0 0)
(-1.02075358e-11 0 0)
(-9.18246043e-12 0 0)
(-9.85357221e-12 0 0)
(-9.48624817e-12 0 0)
(-9.45484187e-12 0 0)
(-1.05323114e-11 0 0)
(-9.21283793e-12 0 0)
(-9.56192644e-12 0 0)
(-9.53892297e-12 0 0)
(-9.38503693e-12 0 0)
(-9.25278474e-12 0 0)
(-9.18942752e-12 0 0)
(-9.04276998e-12 0 0)
(-9.58889087e-12 0 0)
(-9.22514822e-12 0 0)
(-8.96408128e-12 0 0)
(-9.68927617e-12 0 0)
(-9.83183183e-12 0 0)
(-1.00947575e-11 0 0)
(-9.69247695e-12 0 0)
(-1.04945028e-11 0 0)
(-1.0484389e-11 0 0)
(-9.60076148e-12 0 0)
(-9.67407573e-12 0 0)
(-9.64543446e-12 0 0)
(-9.61179648e-12 0 0)
(-9.56384061e-12 0 0)
(-1.00286303e-11 0 0)
(-9.81630038e-12 0 0)
(-9.64103086e-12 0 0)
(-9.14269598e-12 0 0)
(-8.94832177e-12 0 0)
(-9.04298853e-12 0 0)
(-9.5798556e-12 0 0)
(-9.19388599e-12 0 0)
(-8.9851644e-12 0 0)
(-9.32639094e-12 0 0)
(-8.81288903e-12 0 0)
(-8.79592189e-12 0 0)
(-7.97696251e-12 0 0)
(-9.74818981e-12 0 0)
(-9.39890411e-12 0 0)
(-8.95143767e-12 0 0)
(-9.40222469e-12 0 0)
(-9.75202137e-12 0 0)
(-8.94619858e-12 0 0)
(-9.20097737e-12 0 0)
(-9.02229462e-12 0 0)
(-9.67044453e-12 0 0)
(-9.29731335e-12 0 0)
(-8.49683463e-12 0 0)
(-9.24280932e-12 0 0)
(-8.78172553e-12 0 0)
(-9.28809233e-12 0 0)
(-1.0206205e-11 0 0)
(-9.94552728e-12 0 0)
(-9.78829207e-12 0 0)
(-9.2278866e-12 0 0)
(-9.24216207e-12 0 0)
(-1.0644163e-11 0 0)
(-9.27525502e-12 0 0)
(-1.02149209e-11 0 0)
(-1.01458084e-11 0 0)
(-1.01427468e-11 0 0)
(-1.00408702e-11 0 0)
(-9.17085521e-12 0 0)
(-9.91460668e-12 0 0)
(-9.95880543e-12 0 0)
(-9.92278152e-12 0 0)
(-1.01316418e-11 0 0)
(-9.85075118e-12 0 0)
(-9.8949885e-12 0 0)
(-9.21077413e-12 0 0)
(-8.09779833e-12 0 0)
(-9.95312324e-12 0 0)
(-9.84939217e-12 0 0)
(-9.28678098e-12 0 0)
(-1.02323033e-11 0 0)
(-9.75117856e-12 0 0)
(-1.00058839e-11 0 0)
(-9.50850342e-12 0 0)
(-9.92400774e-12 0 0)
(-9.33753982e-12 0 0)
(-1.05260272e-11 0 0)
(-9.8856407e-12 0 0)
(-1.06475898e-11 0 0)
(-9.74060523e-12 0 0)
(-9.3911277e-12 0 0)
(-1.00278202e-11 0 0)
(-9.17708849e-12 0 0)
(-8.71707323e-12 0 0)
(-1.00266464e-11 0 0)
(-9.54460851e-12 0 0)
(-1.05873721e-11 0 0)
(-1.02241359e-11 0 0)
(-9.98349842e-12 0 0)
(-9.93534835e-12 0 0)
(-1.02278735e-11 0 0)
(-1.17354568e-11 0 0)
(-9.63686286e-12 0 0)
(-9.83932621e-12 0 0)
(-9.6458592e-12 0 0)
(-1.05623936e-11 0 0)
(-9.89264349e-12 0 0)
(-9.34936846e-12 0 0)
(-1.04950312e-11 0 0)
(-1.02694144e-11 0 0)
(-9.62238164e-12 0 0)
(-9.25027867e-12 0 0)
(-1.07402872e-11 0 0)
(-9.60546236e-12 0 0)
(-9.27775973e-12 0 0)
(-9.74447109e-12 0 0)
(-9.01672938e-12 0 0)
(-7.36847235e-12 0 0)
(-8.89299416e-12 0 0)
(-9.22539753e-12 0 0)
(-9.10865927e-12 0 0)
(-9.31863774e-12 0 0)
(-8.19509121e-12 0 0)
(-8.91167829e-12 0 0)
(-9.30655999e-12 0 0)
(-8.90179477e-12 0 0)