/*--------------------------------*- C++ -*----------------------------------*\
| =========                 |                                                 |
| \\      /  F ield         | OpenFOAM: The Open Source CFD Toolbox           |
|  \\    /   O peration     | Version:  2206                                  |
|   \\  /    A nd           | Website:  www.openfoam.com                      |
|    \\/     M anipulation  |                                                 |
\*---------------------------------------------------------------------------*/
FoamFile
{
    version     2.0;
    format      ascii;
    arch        "LSB;label=32;scalar=64";
    class       volScalarField;
    location    "2e-05";
    object      p;
}
// * * * * * * * * * * * * * * * * * * * * * * * * * * * * * * * * * * * * * //

dimensions      [1 -1 -2 0 0 0 0];

internalField   nonuniform List<scalar> 
3183
(
101325
101325
101325
101325
101325
101325
101325
101325
101325
101325
101325
101325
101325
101325
101325
101325
101325
101325
101325
101325
101325
101325
101325
101325
101325
101325
101325
101325
101325
101325
101325
101325
101325
101325
101325
101325
101325
101325
101325
101325
101325
101325
101325
101325
101325
101325
101325
101325
101325
101325
101325
101325
101325
101325
101325
101325
101325
101325
101325
101325
101325
101325
101325
101325
101325
101325
101325
101325
101325
101325
101325
101325
101325
101325
101325
101325
101325
101325
101325
101325
101325
101325
101325
101325
101325
101325
101325
101325
101325
101325
101325
101325
101325
101325
101325
101325
101325
101325
101325
101325
101325
101325
101325
101325
101325
101325
101325
101325
101325
101325
101325
101325
101325
101325
101325
101325
101325
101325
101325
101325
101325
101325
101325
101325
101325
101325
101325
101325
101325
101325
101325
101325
101325
101325
101325
101325
101325
101325
101325
101325
101325
101325
101325
101325
101325
101325
101325
101325
101325
101325
101325
101325
101325
101325
101325
101325
101325
101325
101325
101325
101325
101325
101325
101325
101325
101325
101325
101325
101325
101325
101325
101325
101325
101325
101325
101325
101325
101325
101325
101325
101325
101325
101325
101325
101325
101325
101325
101325
101325
101325
101325
101325
101325
101325
101325
101325
101325
101325
101325
101325
101325
101325
101325
101325
101325
101325
101325
101325
101325
101325
101325
101325
101325
101325
101325
101325
101325
101325
101325
101325
101325
101325
101325
101325
101325
101325
101325
101325
101325
101325
101325
101325
101325
101325
101325
101325
101325
101325
101325
101325
101325
101325
101325
101325
101325
101325
101325
101325
101325
101325
101325
101325
101325
101325
101325
101325
101325
101325
101325
101325
101325
101325
101325
101325
101325
101325
101325
101325
101325
101325
101325
101325
101325
101325
101325
101325
101325
101325
101325
101325
101325
101325
101325
101325
101325
101325
101325
101325
101325
101325
101325
101325
101325
101325
101325
101325
101325
101325
101325
101325
101325
101325
101325
101325
101325
101325
101325
101325
101325
101325
101325
101325
101325
101325
101325
101325
101325
101325
101325
101325
101325
101325
101325
101325
101325
101325
101325
101325
101325
101325
101325
101325
101325
101325
101325
101325
101325
101325
101325
101325
101325
101325
101325
101325
101325
101325
101325
101325
101325
101325
101325
101325
101325
101325
101325
101325
101325
101325
101325
101325
101325
101325
101325
101325
101325
101325
101325
101325
101325
101325
101325
101325
101325
101325
101325
101325
101325
101325
101325
101325
101325
101325
101325
101325
101325
101325
101325
101325
101325
101325
101325
101325
101325
101325
101325
101325
101325
101325
101325
101325
101325
101325
101325
101325
101325
101325
101325
101325
101325
101325
101325
101325
101325
101325
101325
101325
101325
101325
101325
101325
101325
101325
101325
101325
101325
101325
101325
101325
101325
101325
101325
101325
101325
101325
101325
101325
101325
101325
101325
101325
101325
101325
101325
101325
101325
101325
101325
101325
101325
101325
101325
101325
101325
101325
101325
101325
101325
101325
101325
101325
101325
101325
101325
101325
101325
101325
101325
101325
101325
101325
101325
101325
101325
101325
101325
101325
101325
101325
101325
101325
101325
101325
101325
101325
101325
101325
101325
101325
101325
101325
101325
101325
101325
101325
101325
101325
101325
101325
101325
101325
101325
101325
101325
101325
101325
101325
101325
101325
101325
101325
101325
101325
101325
101325
101325
101325
101325
101325
101325
101325
101325
101325
101325
101325
101325
101325
101325
101325
101325
101325
101325
101325
101325
101325
101325
101325
101325
101325
101325
101325
101325
101325
101325
101325
101325
101325
101325
101325
101325
101325
101325
101325
101325
101325
101325
101325
101325
101325
101325
101325
101325
101325
101325
101325
101325
101325
101325
101325
101325
101325
101325
101325
101325
101325
101325
101325
101325
101325
101325
101325
101325
101325
101325
101325
101325
101325
101325
101325
101325
101325
101325
101325
101325
101325
101325
101325
101325
101325
101325
101325
101325
101325
101325
101325
101325
101325
101325
101325
101325
101325
101325
101325
101325
101325
101325
101325
101325
101325
101325
101325
101325
101325
101325
101325
101325
101325
101325
101325
101325
101325
101325
101325
101325
101325
101325
101325
101325
101325
101325
101325
101325
101325
101325
101325
101325
101325
101325
101325
101325
101325
101325
101325
101325
101325
101325
101325
101325
101325
101325
101325
101325
101325
101325
101325
101325
101325
101325
101325
101325
101325
101325
101325
101325
101325
101325
101325
101325
101325
101325
101325
101325
101325
101325
101325
101325
101325
101325
101325
101325
101325
101325
101325
101325
101325
101325
101325
101325
101325
101325
101325
101325
101325
101325
101325
101325
101325
101325
101325
101325
101325
101325
101325
101325
101325
101325
101325
101325
101325
101325
101325
101325
101325
101325
101325
101325
101325
101325
101325
101325
101325
101325
101325
101325
101325
101325
101325
101325
101325
101325
101325
101325
101325
101325
101325
101325
101325
101325
101325
101325
101325
101325
101325
101325
101325
101325
101325
101325
101325
101325
101325
101325
101325
101325
101325
101325
101325
101325
101325
101325
101325
101325
101325
101325
101325
101325
101325
101325
101325
101325
101325
101325
101325
101325
101325
101325
101325
101325
101325
101325
101325
101325
101325
101325
101325
101325
101325
101325
101325
101325
101325
101325
101325
101325
101325
101325
101325
101325
101325
101325
101325
101325
101325
101325
101325
101325
101325
101325
101325
101325
101325
101325
101325
101325
101325
101325
101325
101325
101325
101325
101325
101325
101325
101325
101325
101325
101325
101325
101325
101325
101325
101325
101325
101325
101325
101325
101325
101325
101325
101325
101325
101325
101325
101325
101325
101325
101325
101325
101325
101325
101325
101325
101325
101325
101325
101325
101325
101325
101325
101325
101325
101325
101325
101325
101325
101325
101325
101325
101325
101325
101325
101325
101325
101325
101325
101325
101325
101325
101325
101325
101325
101325
101325
101325
101325
101325
101325
101325
101325
101325
101325
101325
101325
101325
101325
101325
101325
101325
101325
101325
101325
101325
101325
101325
101325
101325
101325
101325
101325
101325
101325
101325
101325
101325
101325
101325
101325
101325
101325
101325
101325
101325
101325
101325
101325
101325
101325
101325
101325
101325
101325
101325
101325
101325
101325
101325
101325
101325
101325
101325
101325
101325
101325
101325
101325
101325
101325
101325
101325
101325
101325
101325
101325
101325
101325
101325
101325
101325
101325
101325
101325
101325
101325
101325
101325
101325
101325
101325
101325
101325
101325
101325
101325
101325
101325
101325
101325
101325
101325
101325
101325
101325
101325
101325
101325
101325
101325
101325
101325
101325
101325
101325
101325
101325
101325
101325
101325
101325
101325
101325
101325
101325
101325
101325
101325
101325
101325
101325
101325
101325
101325
101325
101325
101325
101325
101325
101325
101325
101325
101325
101325
101325
101325
101325
101325
101325
101325
101325
101325
101325
101325
101325
101325
101325
101325
101325
101325
101325
101325
101325
101325
101325
101325
101325
101325
101325
101325
101325
101325
101325
101325
101325
101325
101325
101325
101325
101325
101325
101325
101325
101325
101325
101325
101325
101325
101325
101325
101325
101325
101325
101325
101325
101325
101325
101325
101325
101325
101325
101325
101325
101325
101325
101325
101325
101325
101325
101325
101325
101325
101325
101325
101325
101325
101325
101325
101325
101325
101325
101325
101325
101325
101325
101325
101325
101325
101325
101325
101325
101325
101325
101325
101325
101325
101325
101325
101325
101325
101325
101325
101325
101325
101325
101325
101325
101325
101325
101325
101325
101325
101325
101325
101325
101325
101325
101325
101325
101325
101325
101325
101325
101325
101325
101325
101325
101325
101325
101325
101325
101325
101325
101325
101325
101325
101325
101325
101325
101325
101325
101325
101325
101325
101325
101325
101325
101325
101325
101325
101325
101325
101325
101325
101325
101325
101325
101325
101325
101325
101325
101325
101325
101325
101325
101325
101325
101325
101325
101325
101325
101325
101325
101325
101325
101325
101325
101325
101325
101325
101325
101325
101325
101325
101325
101325
101325
101325
101325
101325
101325
101325
101325
101325
101325
101325
101325
101325
101325
101325
101325
101325
101325
101325
101325
101325
101325
101325
101325
101325
101325
101325
101325
101325
101325
101325
101325
101325
101325
101325
101325
101325
101325
101325
101325
101325
101325
101325
101325
101325
101325
101325
101325
101325
101325
101325
101325
101325
101325
101325
101325
101325
101325
101325
101325
101325
101325
101325
101325
101325
101325
101325
101325
101325
101325
101325
101325
101325
101325
101325
101325
101325
101325
101325
101325
101325
101325
101325
101325
101325
101325
101325
101325
101325
101325
101325
101325
101325
101325
101325
101325
101325
101325
101325
101325
101325
101325
101325
101325
101325
101325
101325
101325
101325
101325
101325
101325
101325
101325
101325
101325
101325
101325
101325
101325
101325
101325
101325
101325
101325
101325
101325
101325
101325
101325
101325
101325
101325
101325
101325
101325
101325
101325
101325
101325
101325
101325
101325
101325
101325
101325
101325
101325
101325
101325
101325
101325
101325
101325
101325
101325
101325
101325
101325
101325
101325
101325
101325
101325
101325
101325
101325
101325
101325
101325
101325
101325
101325
101325
101325
101325
101325
101325
101325
101325
101325
101325
101325
101325
101325
101325
101325
101325
101325
101325
101325
101325
101325
101325
101325
101325
101325
101325
101325
101325
101325
101325
101325
101325
101325
101325
101325
101325
101325
101325
101325
101325
101325
101325
101325
101325
101325
101325
101325
101325
101325
101325
101325
101325
101325
101325
101325
101325
101325
101325
101325
101325
101325
101325
101325
101325
101325
101325
101325
101325
101325
101325
101325
101325
101325
101325
101325
101325
101325
101325
101325
101325
101325
101325
101325
101325
101325
101325
101325
101325
101325
101325
101325
101325
101325
101325
101325
101325
101325
101325
101325
101325
101325
101325
101325
101325
101325
101325
101325
101325
101325
101325
101325
101325
101325
101325
101325
101325
101325
101325
101325
101325
101325
101325
101325
101325
101325
101325
101325
101325
101325
101325
101325
101325
101325
101325
101325
101325
101325
101325
101325
101325
101325
101325
101325
101325
101325
101325
101325
101325
101325
101325
101325
101325
101325
101325
101325
101325
101325
101325
101325
101325
101325
101325
101325
101325
101325
101325
101325
101325
101325
101325
101325
101325
101325
101325
101325
101325
101325
101325
101325
101325
101325
101325
101325
101325
101325
101325
101325
101325
101325
101325
101325
101325
101325
101325
101325
101325
101325
101325
101325
101325
101325
101325
101325
101325
101325
101325
101325
101325
101325
101325
101325
101325
101325
101325
101325
101325
101325
101325
101325
101325
101325
101325
101325
101325
101325
101325
101325
101325
101325
101325
101325
101325
101325
101325
101325
101325
101325
101325
101325
101325
101325
101325
101325
101325
101325
101325
101325
101325
101325
101325
101325
101325
101325
101325
101325
101325
101325
101325
101325
101325
101325
101325
101325
101325
101325
101325
101325
101325
101325
101325
101325
101325
101325
101325
101325
101325
101325
101325
101325
101325
101325
101325
101325
101324.999
101324.999
101324.999
101324.999
101324.999
101324.999
101324.999
101324.999
101324.999
101324.999
101324.999
101324.999
101324.999
101324.999
101324.999
101324.999
101324.999
101324.999
101324.999
101324.999
101324.999
101324.998
101324.998
101324.998
101324.998
101324.998
101324.998
101324.998
101324.998
101324.998
101324.997
101324.997
101324.997
101324.997
101324.997
101324.997
101324.997
101324.996
101324.996
101324.996
101324.996
101324.996
101324.995
101324.995
101324.995
101324.995
101324.994
101324.994
101324.994
101324.993
101324.993
101324.993
101324.992
101324.992
101324.991
101324.991
101324.99
101324.99
101324.99
101324.989
101324.988
101324.988
101324.987
101324.987
101324.986
101324.985
101324.985
101324.984
101324.983
101324.982
101324.981
101324.98
101324.979
101324.978
101324.977
101324.976
101324.975
101324.974
101324.973
101324.971
101324.97
101324.969
101324.967
101324.966
101324.964
101324.962
101324.961
101324.959
101324.957
101324.955
101324.953
101324.951
101324.948
101324.946
101324.944
101324.941
101324.938
101324.936
101324.933
101324.93
101324.927
101324.923
101324.92
101324.916
101324.913
101324.909
101324.905
101324.901
101324.896
101324.892
101324.887
101324.882
101324.877
101324.872
101324.867
101324.861
101324.855
101324.849
101324.842
101324.836
101324.829
101324.822
101324.814
101324.807
101324.799
101324.791
101324.782
101324.773
101324.764
101324.754
101324.744
101324.734
101324.723
101324.712
101324.701
101324.689
101324.677
101324.664
101324.651
101324.637
101324.623
101324.609
101324.594
101324.578
101324.562
101324.545
101324.528
101324.51
101324.492
101324.473
101324.453
101324.433
101324.412
101324.39
101324.368
101324.344
101324.321
101324.296
101324.271
101324.244
101324.217
101324.189
101324.161
101324.131
101324.101
101324.069
101324.037
101324.003
101323.969
101323.934
101323.897
101323.86
101323.821
101323.781
101323.74
101323.698
101323.655
101323.611
101323.565
101323.518
101323.47
101323.42
101323.369
101323.317
101323.263
101323.208
101323.151
101323.093
101323.034
101322.973
101322.91
101322.846
101322.78
101322.712
101322.643
101322.572
101322.5
101322.425
101322.349
101322.271
101322.192
101322.11
101322.027
101321.941
101321.854
101321.765
101321.673
101321.58
101321.485
101321.387
101321.288
101321.187
101321.083
101320.977
101320.869
101320.759
101320.647
101320.532
101320.416
101320.297
101320.176
101320.052
101319.926
101319.798
101319.668
101319.535
101319.4
101319.263
101319.123
101318.981
101318.837
101318.69
101318.541
101318.389
101318.235
101318.079
101317.92
101317.759
101317.596
101317.43
101317.262
101317.092
101316.919
101316.744
101316.567
101316.388
101316.206
101316.022
101315.836
101315.647
101315.457
101315.264
101315.07
101314.873
101314.674
101314.473
101314.27
101314.066
101313.859
101313.651
101313.441
101313.229
101313.015
101312.8
101312.583
101312.365
101312.145
101311.924
101311.702
101311.478
101311.253
101311.027
101310.799
101310.571
101310.342
101310.112
101309.881
101309.649
101309.417
101309.184
101308.95
101308.716
101308.482
101308.248
101308.014
101307.779
101307.544
101307.31
101307.076
101306.842
101306.608
101306.375
101306.143
101305.911
101305.68
101305.45
101305.221
101304.993
101304.766
101304.541
101304.316
101304.093
101303.872
101303.653
101303.435
101303.219
101303.005
101302.793
101302.583
101302.375
101302.17
101301.967
101301.767
101301.569
101301.374
101301.182
101300.993
101300.806
101300.623
101300.443
101300.266
101300.092
101299.922
101299.755
101299.592
101299.432
101299.276
101299.123
101298.975
101298.83
101298.689
101298.552
101298.42
101298.291
101298.166
101298.046
101297.93
101297.818
101297.71
101297.607
101297.508
101297.413
101297.323
101297.238
101297.156
101297.08
101297.007
101296.939
101296.876
101296.817
101296.763
101296.713
101296.668
101296.627
101296.59
101296.558
101296.531
101296.507
101296.489
101296.474
101296.464
101296.458
101296.456
101296.459
101296.465
101296.476
101296.49
101296.509
101296.532
101296.558
101296.589
101296.623
101296.66
101296.702
101296.747
101296.795
101296.847
101296.902
101296.96
101297.021
101297.086
101297.154
101297.224
101297.297
101297.373
101297.452
101297.534
101297.617
101297.704
101297.792
101297.883
101297.976
101298.07
101298.167
101298.266
101298.366
101298.469
101298.572
101298.677
101298.784
101298.892
101299.001
101299.111
101299.223
101299.335
101299.448
101299.562
101299.677
101299.792
101299.908
101300.024
101300.141
101300.258
101300.375
101300.492
101300.61
101300.727
101300.845
101300.962
101301.079
101301.196
101301.313
101301.429
101301.545
101301.66
101301.775
101301.89
101302.003
101302.116
101302.229
101302.34
101302.451
101302.561
101302.67
101302.778
101302.885
101302.992
101303.097
101303.201
101303.304
101303.407
101303.508
101303.608
101303.707
101303.804
101303.901
101303.996
101304.091
101304.184
101304.276
101304.366
101304.456
101304.544
101304.632
101304.718
101304.802
101304.886
101304.968
101305.05
101305.13
101305.209
101305.287
101305.363
101305.439
101305.514
101305.587
101305.659
101305.73
101305.801
101305.87
101305.938
101306.005
101306.071
101306.136
101306.201
101306.264
101306.326
101306.388
101306.448
101306.508
101306.567
101306.625
101306.682
101306.738
101306.794
101306.849
101306.903
101306.956
101307.009
101307.061
101307.112
101307.163
101307.213
101307.263
101307.312
101307.36
101307.408
101307.455
101307.501
101307.547
101307.593
101307.638
101307.683
101307.727
101307.77
101307.813
101307.856
101307.898
101307.94
101307.982
101308.023
101308.063
101308.104
101308.143
101308.183
101308.222
101308.261
101308.299
101308.337
101308.375
101308.412
101308.449
101308.486
101308.522
101308.558
101308.593
101308.629
101308.664
101308.698
101308.732
101308.766
101308.8
101308.833
101308.867
101308.899
101308.932
101308.964
101308.995
101309.027
101309.058
101309.089
101309.119
101309.15
101309.179
101309.209
101309.238
101309.267
101309.296
101309.324
101309.352
101309.38
101309.407
101309.434
101309.461
101309.488
101309.514
101309.54
101309.566
101309.591
101309.616
101309.641
101309.665
101309.689
101309.713
101309.737
101309.76
101309.783
101309.806
101309.829
101309.851
101309.873
101309.895
101309.917
101309.938
101309.96
101309.981
101310.001
101310.022
101310.042
101310.063
101310.083
101310.103
101310.122
101310.142
101310.161
101310.18
101310.2
101310.219
101310.237
101310.256
101310.275
101310.293
101310.312
101310.33
101310.348
101310.367
101310.385
101310.403
101310.421
101310.439
101310.457
101310.475
101310.493
101310.511
101310.528
101310.546
101310.564
101310.582
101310.6
101310.618
101310.635
101310.653
101310.671
101310.689
101310.707
101310.725
101310.743
101310.761
101310.779
101310.797
101310.815
101310.833
101310.851
101310.87
101310.888
101310.906
101310.924
101310.943
101310.961
101310.979
101310.997
101311.016
101311.034
101311.052
101311.071
101311.089
101311.108
101311.126
101311.144
101311.163
101311.181
101311.199
101311.217
101311.236
101311.254
101311.272
101311.29
101311.308
101311.326
101311.344
101311.361
101311.379
101311.397
101311.414
101311.432
101311.449
101311.467
101311.484
101311.501
101311.518
101311.535
101311.551
101311.568
101311.584
101311.601
101311.617
101311.633
101311.649
101311.665
101311.68
101311.696
101311.711
101311.727
101311.742
101311.757
101311.771
101311.786
101311.8
101311.815
101311.829
101311.843
101311.857
101311.871
101311.884
101311.898
101311.911
101311.924
101311.937
101311.95
101311.963
101311.976
101311.988
101312.001
101312.013
101312.025
101312.037
101312.049
101312.061
101312.073
101312.084
101312.096
101312.107
101312.118
101312.13
101312.141
101312.152
101312.163
101312.174
101312.184
101312.195
101312.206
101312.216
101312.227
101312.238
101312.248
101312.258
101312.269
101312.279
101312.289
101312.3
101312.31
101312.32
101312.33
101312.341
101312.351
101312.361
101312.371
101312.381
101312.392
101312.402
101312.412
101312.422
101312.433
101312.443
101312.454
101312.464
101312.475
101312.485
101312.496
101312.507
101312.518
101312.529
101312.54
101312.551
101312.563
101312.574
101312.586
101312.598
101312.61
101312.622
101312.635
101312.647
101312.66
101312.674
101312.687
101312.701
101312.715
101312.73
101312.744
101312.76
101312.775
101312.791
101312.807
101312.824
101312.841
101312.859
101312.877
101312.896
101312.915
101312.935
101312.956
101312.977
101312.999
101313.021
101313.044
101313.068
101313.093
101313.118
101313.145
101313.172
101313.2
101313.228
101313.258
101313.289
101313.32
101313.353
101313.386
101313.421
101313.456
101313.493
101313.53
101313.569
101313.609
101313.65
101313.692
101313.735
101313.779
101313.824
101313.871
101313.918
101313.967
101314.017
101314.068
101314.12
101314.173
101314.227
101314.282
101314.338
101314.396
101314.454
101314.513
101314.573
101314.633
101314.695
101314.757
101314.82
101314.883
101314.947
101315.012
101315.077
101315.143
101315.208
101315.275
101315.341
101315.407
101315.474
101315.54
101315.607
101315.673
101315.739
101315.805
101315.87
101315.936
101316
101316.064
101316.128
101316.191
101316.254
101316.315
101316.376
101316.436
101316.496
101316.555
101316.612
101316.669
101316.725
101316.781
101316.835
101316.888
101316.941
101316.993
101317.044
101317.094
101317.143
101317.191
101317.239
101317.286
101317.332
101317.377
101317.421
101317.465
101317.508
101317.55
101317.591
101317.631
101317.67
101317.709
101317.746
101317.783
101317.818
101317.852
101317.885
101317.917
101317.947
101317.976
101318.003
101318.028
101318.051
101318.073
101318.092
101318.109
101318.124
101318.137
101318.147
101318.154
101318.159
101318.162
101318.161
101318.158
101318.153
101318.145
101318.134
101318.121
101318.106
101318.088
101318.069
101318.048
101318.025
101318.001
101317.975
101317.949
101317.923
101317.896
101317.869
101317.842
101317.816
101317.791
101317.767
101317.744
101317.723
101317.703
101317.685
101317.668
101317.654
101317.641
101317.631
101317.622
101317.615
101317.609
101317.605
101317.603
101317.602
101317.602
101317.603
101317.605
101317.608
101317.611
101317.615
101317.619
101317.624
101317.629
101317.633
101317.637
101317.638
101317.644
101317.682
101317.658
101317.923
101318.067
101318.04
101317.653
101317.531
101317.469
101317.509
101317.518
101317.56
101317.572
101317.623
101317.631
101317.651
101317.652
101317.654
101317.649
101317.644
101317.637
101317.63
101317.624
101317.618
101317.612
101317.607
101317.603
101317.599
101317.595
101317.592
101317.59
101317.588
101317.586
101317.585
101317.584
101317.583
101317.583
101317.584
101317.585
101317.586
101317.588
101317.59
101317.593
101317.596
101317.6
101317.604
101317.608
101317.613
101317.619
101317.625
101317.631
101317.638
101317.645
101317.653
101317.661
101317.67
101317.679
101317.689
101317.698
101317.709
101317.719
101317.73
101317.741
101317.752
101317.764
101317.776
101317.787
101317.799
101317.811
101317.823
101317.835
101317.848
101317.859
101317.871
101317.883
101317.894
101317.906
101317.917
101317.927
101317.938
101317.948
101317.957
101317.966
101317.975
101317.984
101317.991
101317.999
101318.005
101318.012
101318.017
101318.022
101318.027
101318.03
101318.034
101318.036
101318.038
101318.039
101318.04
101318.04
101318.039
101318.038
101318.036
101318.033
101318.03
101318.026
101318.022
101318.017
101318.011
101318.005
101317.998
101317.99
101317.982
101317.974
101317.965
101317.955
101317.945
101317.934
101317.923
101317.911
101317.899
101317.886
101317.873
101317.86
101317.846
101317.831
101317.817
101317.802
101317.786
101317.77
101317.754
101317.738
101317.721
101317.703
101317.686
101317.668
101317.65
101317.632
101317.613
101317.594
101317.575
101317.555
101317.535
101317.515
101317.495
101317.474
101317.453
101317.432
101317.411
101317.389
101317.368
101317.346
101317.323
101317.301
101317.278
101317.255
101317.232
101317.208
101317.185
101317.161
101317.136
101317.112
101317.087
101317.063
101317.037
101317.012
101316.987
101316.961
101316.935
101316.909
101316.882
101316.855
101316.829
101316.801
101316.774
101316.747
101316.719
101316.691
101316.663
101316.634
101316.606
101316.577
101316.548
101316.518
101316.488
101316.458
101316.427
101316.397
101316.366
101316.336
101316.305
101316.274
101316.243
101316.212
101316.181
101316.149
101316.118
101316.086
101316.054
101316.022
101315.99
101315.958
101315.925
101315.893
101315.86
101315.827
101315.795
101315.762
101315.729
101315.696
101315.663
101315.63
101315.597
101315.564
101315.531
101315.498
101315.465
101315.431
101315.398
101315.365
101315.332
101315.3
101315.267
101315.234
101315.201
101315.169
101315.136
101315.104
101315.071
101315.039
101315.007
101314.975
101314.943
101314.912
101314.88
101314.849
101314.817
101314.786
101314.756
101314.725
101314.694
101314.664
101314.634
101314.604
101314.574
101314.545
101314.516
101314.487
101314.458
101314.429
101314.401
101314.373
101314.345
101314.318
101314.29
101314.263
101314.237
101314.21
101314.184
101314.158
101314.132
101314.107
101314.081
101314.056
101314.032
101314.007
101313.983
101313.96
101313.936
101313.913
101313.89
101313.867
101313.845
101313.823
101313.801
101313.779
101313.758
101313.737
101313.716
101313.696
101313.676
101313.656
101313.636
101313.617
101313.598
101313.579
101313.56
101313.542
101313.524
101313.506
101313.488
101313.471
101313.454
101313.437
101313.421
101313.405
101313.389
101313.373
101313.357
101313.342
101313.327
101313.312
101313.297
101313.283
101313.269
101313.255
101313.241
101313.227
101313.214
101313.201
101313.188
101313.175
101313.163
101313.15
101313.138
101313.126
101313.114
101313.103
101313.091
101313.08
101313.069
101313.058
101313.047
101313.037
101313.026
101313.016
101313.006
101312.996
101312.986
101312.976
101312.967
101312.957
101312.948
101312.939
101312.93
101312.921
101312.912
101312.904
101312.895
101312.887
101312.878
101312.87
101312.862
101312.854
101312.846
101312.838
101312.831
101312.823
101312.816
101312.808
101312.801
101312.794
101312.787
101312.78
101312.773
101312.766
101312.759
101312.752
101312.745
101312.739
101312.732
101312.726
101312.719
101312.713
101312.707
101312.7
101312.694
101312.688
101312.682
101312.676
101312.67
101312.664
101312.658
101312.652
101312.646
101312.64
101312.635
101312.629
101312.623
101312.618
101312.612
101312.606
101312.601
101312.595
101312.59
101312.585
101312.579
101312.574
101312.568
101312.563
101312.558
101312.552
101312.547
101312.542
101312.536
101312.531
101312.526
101312.521
101312.516
101312.51
101312.505
101312.5
101312.495
101312.49
101312.485
101312.479
101312.474
101312.469
101312.464
101312.459
101312.454
101312.449
101312.444
101312.438
101312.433
101312.428
101312.423
101312.418
101312.413
101312.408
101312.403
101312.398
101312.392
101312.387
101312.382
101312.377
101312.372
101312.367
101312.362
101312.356
101312.351
101312.346
101312.341
101312.336
101312.33
101312.325
101312.32
101312.315
101312.309
101312.304
101312.299
101312.294
101312.288
101312.283
101312.278
101312.272
101312.267
101312.261
101312.256
101312.251
101312.245
101312.24
101312.234
101312.229
101312.223
101312.218
101312.212
101312.207
101312.201
101312.195
101312.19
101312.184
101312.178
101312.173
101312.167
101312.161
101312.155
101312.149
101312.144
101312.138
101312.132
101312.126
101312.12
101312.114
101312.108
101312.102
101312.096
101312.09
101312.084
101312.078
101312.072
101312.065
101312.059
101312.053
101312.047
101312.04
101312.034
101312.028
101312.021
101312.015
101312.008
101312.002
101311.995
101311.989
101311.982
101311.975
101311.969
101311.962
101311.955
101311.949
101311.942
101311.935
101311.928
101311.921
101311.914
101311.907
101311.9
101311.893
101311.885
101311.877
101311.867
101311.858
101311.847
101311.835
101311.823
101311.809
101311.795
101311.779
101311.762
101311.744
101311.724
101311.702
101311.679
101311.653
101311.625
101311.595
101311.563
101311.527
101311.488
101311.446
101311.401
101311.351
101311.298
101311.24
101311.177
101311.109
101311.036
101310.958
101310.875
101310.785
101310.69
101310.588
101310.478
101310.359
101310.229
101310.085
101309.921
101309.731
101309.509
101309.246
101308.936
101308.568
101308.135
101307.62
101306.996
101306.206
101305.159
101303.726
101301.793
101299.387
101296.889
101295.18
101295.444
101298.515
101304.168
101310.963
101316.973
101321.098
101323.379
101324.421
101324.821
101324.952
101324.989
101324.998
101325
101325.001
101325.001
101325.001
101325.001
101325.001
101325.001
101325.001
101325.001
101325
)
;

boundaryField
{
    closed
    {
        type            zeroGradient;
    }
    open
    {
        type            waveTransmissive;
        gamma           1.25;
        fieldInf        101325;
        lInf            1;
        value           uniform 101325;
    }
    sides
    {
        type            empty;
    }
}


// ************************************************************************* //
