/*--------------------------------*- C++ -*----------------------------------*\
| =========                 |                                                 |
| \\      /  F ield         | OpenFOAM: The Open Source CFD Toolbox           |
|  \\    /   O peration     | Version:  2206                                  |
|   \\  /    A nd           | Website:  www.openfoam.com                      |
|    \\/     M anipulation  |                                                 |
\*---------------------------------------------------------------------------*/
FoamFile
{
    version     2.0;
    format      ascii;
    arch        "LSB;label=32;scalar=64";
    class       surfaceScalarField;
    location    "2e-05";
    object      phi;
}
// * * * * * * * * * * * * * * * * * * * * * * * * * * * * * * * * * * * * * //

dimensions      [1 0 -1 0 0 0 0];

oriented        oriented;

internalField   nonuniform List<scalar> 
3182
(
7.02560636e-18
-1.54346515e-18
-4.33008937e-18
-2.72063244e-18
-1.4618742e-20
-6.31466602e-23
-4.32810979e-24
8.47297359e-25
2.09547689e-23
9.38473482e-22
4.41584252e-19
5.89003053e-18
3.93349377e-18
2.64601065e-18
7.33955687e-19
-1.83475233e-18
-6.33907081e-18
-5.32918743e-18
-6.73022323e-18
3.76157815e-18
1.01395537e-19
1.0096922e-18
1.69756147e-18
5.58828062e-18
6.71017059e-18
3.89932831e-18
5.55126205e-18
8.15316468e-19
1.12833079e-18
2.485162e-20
-4.45592775e-19
-1.31214991e-18
-3.84845315e-18
-5.49899726e-18
-6.20629761e-18
-7.08275342e-18
-3.59338988e-18
-1.68650237e-18
-1.95405507e-18
-6.71748916e-19
6.63977516e-19
3.74058075e-18
4.99378472e-18
5.45359837e-18
2.32048391e-18
1.02362595e-19
-4.70143341e-18
-1.01148893e-17
-1.35756587e-17
-1.75650419e-17
-2.23251032e-17
-2.58779449e-17
-3.00283409e-17
-3.2385404e-17
-3.51216888e-17
-3.83486487e-17
-3.96749855e-17
-4.13939919e-17
-4.27221252e-17
-4.46981702e-17
-4.68661856e-17
-5.01890388e-17
-5.17590095e-17
-5.45180596e-17
-5.64008749e-17
-5.9015837e-17
-6.12135455e-17
-6.33253899e-17
-6.46590968e-17
-6.61111246e-17
-6.77470028e-17
-6.87989789e-17
-6.94123832e-17
-7.09872232e-17
-7.10601661e-17
-7.14103739e-17
-7.18490348e-17
-7.14008423e-17
-7.12042585e-17
-7.09408391e-17
-7.07680328e-17
-7.07655937e-17
-7.09804389e-17
-7.18725193e-17
-7.2488343e-17
-7.2945299e-17
-7.29779591e-17
-7.52048746e-17
-7.60455471e-17
-7.67071699e-17
-7.89044885e-17
-7.99052453e-17
-8.20118854e-17
-7.95744289e-17
-7.99347068e-17
-8.19597555e-17
-8.01412322e-17
-8.31247844e-17
-8.34342605e-17
-8.05291192e-17
-8.27611643e-17
-8.36937085e-17
-8.54882803e-17
-8.36152398e-17
-8.73770394e-17
-8.83931451e-17
-8.97890134e-17
-8.94356472e-17
-8.72205374e-17
-9.02730481e-17
-9.01285996e-17
-8.96650134e-17
-9.26093903e-17
-9.33418724e-17
-9.34442245e-17
-9.34735014e-17
-9.57223054e-17
-9.60725195e-17
-9.59534711e-17
-1.0007459e-16
-1.01471372e-16
-1.00722731e-16
-1.00857248e-16
-9.99935839e-17
-1.00594195e-16
-1.01649353e-16
-1.03576057e-16
-1.02975464e-16
-1.05762054e-16
-1.08727805e-16
-1.05346849e-16
-1.05369379e-16
-1.02773533e-16
-1.05583898e-16
-1.05971131e-16
-1.04404934e-16
-1.01919066e-16
-1.01870488e-16
-1.00700616e-16
-9.85873567e-17
-1.02659023e-16
-1.0151435e-16
-1.02697174e-16
-1.03708273e-16
-1.00824365e-16
-9.91549649e-17
-1.0167632e-16
-9.98795558e-17
-9.87345243e-17
-1.01033184e-16
-1.03815926e-16
-1.04282603e-16
-1.00088918e-16
-1.0121605e-16
-1.01782077e-16
-1.02586527e-16
-1.00015799e-16
-1.02230647e-16
-1.0240737e-16
-1.04711638e-16
-1.05006857e-16
-1.03985658e-16
-1.06364197e-16
-1.05651219e-16
-1.04597009e-16
-1.02758943e-16
-1.02926598e-16
-1.04448348e-16
-1.05921449e-16
-1.08006828e-16
-1.05884096e-16
-1.07346016e-16
-1.04171351e-16
-1.00948473e-16
-1.03974581e-16
-1.03124446e-16
-1.02665718e-16
-1.06138485e-16
-1.01359475e-16
-1.01865965e-16
-1.03179692e-16
-1.02007209e-16
-1.06554407e-16
-1.07318565e-16
-1.07747078e-16
-1.08210146e-16
-1.10666245e-16
-1.11281823e-16
-1.14899569e-16
-1.13462144e-16
-1.12812686e-16
-1.12251947e-16
-1.15212156e-16
-1.17057426e-16
-1.15602807e-16
-1.15695702e-16
-1.17283444e-16
-1.17919292e-16
-1.19434717e-16
-1.19995554e-16
-1.20754701e-16
-1.19526159e-16
-1.16726511e-16
-1.17120078e-16
-1.16897986e-16
-1.17790098e-16
-1.17945091e-16
-1.17246188e-16
-1.17707406e-16
-1.17698905e-16
-1.1641892e-16
-1.15772725e-16
-1.17683875e-16
-1.1743561e-16
-1.18114115e-16
-1.2003485e-16
-1.21619953e-16
-1.2324227e-16
-1.25334998e-16
-1.23029177e-16
-1.24971127e-16
-1.23703179e-16
-1.2354014e-16
-1.24873573e-16
-1.26760094e-16
-1.28394496e-16
-1.30667279e-16
-1.27629914e-16
-1.26773632e-16
-1.26215394e-16
-1.22241373e-16
-1.19625971e-16
-1.19605813e-16
-1.18624353e-16
-1.21666857e-16
-1.21561484e-16
-1.20966016e-16
-1.2211144e-16
-1.20653042e-16
-1.21245215e-16
-1.25388946e-16
-1.23234683e-16
-1.1898423e-16
-1.16109886e-16
-1.17756293e-16
-1.17785035e-16
-1.18724251e-16
-1.18799052e-16
-1.17403756e-16
-1.19327423e-16
-1.20277884e-16
-1.20611244e-16
-1.23810749e-16
-1.22600401e-16
-1.22488883e-16
-1.21847293e-16
-1.20358523e-16
-1.1874804e-16
-1.22436698e-16
-1.2261421e-16
-1.25016745e-16
-1.2274315e-16
-1.236164e-16
-1.24178121e-16
-1.27804266e-16
-1.28957242e-16
-1.28390082e-16
-1.25400082e-16
-1.2942504e-16
-1.2723273e-16
-1.27511413e-16
-1.2879394e-16
-1.25505008e-16
-1.29463974e-16
-1.29289335e-16
-1.2878181e-16
-1.29873194e-16
-1.33142549e-16
-1.32306634e-16
-1.34078599e-16
-1.31491778e-16
-1.32972362e-16
-1.34463589e-16
-1.33351912e-16
-1.36309735e-16
-1.37501936e-16
-1.37282889e-16
-1.38724609e-16
-1.38688312e-16
-1.36784839e-16
-1.37054391e-16
-1.36858468e-16
-1.346231e-16
-1.34630304e-16
-1.36061884e-16
-1.3316607e-16
-1.34472799e-16
-1.3523068e-16
-1.35700883e-16
-1.36680233e-16
-1.34314302e-16
-1.34012786e-16
-1.37566117e-16
-1.37957393e-16
-1.42079126e-16
-1.39819613e-16
-1.42827176e-16
-1.463788e-16
-1.4603046e-16
-1.45243011e-16
-1.45862166e-16
-1.43302955e-16
-1.42723992e-16
-1.43864634e-16
-1.43857366e-16
-1.45192481e-16
-1.44279015e-16
-1.44157054e-16
-1.45901381e-16
-1.45399748e-16
-1.43708152e-16
-1.44951233e-16
-1.47686197e-16
-1.45134457e-16
-1.43925753e-16
-1.41816758e-16
-1.4425052e-16
-1.45566759e-16
-1.4432762e-16
-1.42284457e-16
-1.40335191e-16
-1.39578677e-16
-1.36199902e-16
-1.3575369e-16
-1.30630997e-16
-1.31798152e-16
-1.3430329e-16
-1.3253766e-16
-1.35630938e-16
-1.3449232e-16
-1.34826547e-16
-1.33128717e-16
-1.34748279e-16
-1.33524768e-16
-1.3110079e-16
-1.34562612e-16
-1.34508527e-16
-1.3524042e-16
-1.34696847e-16
-1.35152336e-16
-1.33303519e-16
-1.33418978e-16
-1.31522754e-16
-1.30202281e-16
-1.30755324e-16
-1.29451241e-16
-1.30261007e-16
-1.32103436e-16
-1.31559585e-16
-1.35254647e-16
-1.33980238e-16
-1.31991172e-16
-1.3482605e-16
-1.36337315e-16
-1.37125477e-16
-1.34624603e-16
-1.30667791e-16
-1.29939986e-16
-1.29110401e-16
-1.31090772e-16
-1.29521173e-16
-1.2897939e-16
-1.29971839e-16
-1.27157242e-16
-1.29482212e-16
-1.28063194e-16
-1.27390591e-16
-1.30212194e-16
-1.28605637e-16
-1.29511649e-16
-1.27460595e-16
-1.24651867e-16
-1.22480066e-16
-1.2280068e-16
-1.24698803e-16
-1.21790334e-16
-1.27874625e-16
-1.25633429e-16
-1.28003225e-16
-1.29054615e-16
-1.26505063e-16
-1.26734939e-16
-1.20911005e-16
-1.18455395e-16
-1.17731032e-16
-1.19878594e-16
-1.18926931e-16
-1.22064483e-16
-1.19234248e-16
-1.20590722e-16
-1.18454202e-16
-1.17659915e-16
-1.15033128e-16
-1.13519112e-16
-1.10626568e-16
-1.14054819e-16
-1.10909336e-16
-1.09971603e-16
-1.10757568e-16
-1.11049055e-16
-1.08292229e-16
-1.07662579e-16
-1.06848897e-16
-1.04937617e-16
-1.05218047e-16
-1.04849923e-16
-1.02348115e-16
-9.86635714e-17
-9.80387399e-17
-1.0058927e-16
-1.02276491e-16
-9.76747319e-17
-9.59907143e-17
-9.17375718e-17
-9.2249196e-17
-9.47018306e-17
-9.33060677e-17
-9.3461676e-17
-9.51226047e-17
-9.33106066e-17
-9.30002164e-17
-9.43435549e-17
-8.9058559e-17
-9.08093827e-17
-8.78901571e-17
-9.24482553e-17
-9.03199406e-17
-8.80045352e-17
-8.82564649e-17
-8.9505312e-17
-8.96820582e-17
-9.02163487e-17
-9.14726966e-17
-8.76881724e-17
-8.59634396e-17
-8.64600614e-17
-8.47262052e-17
-8.32250009e-17
-8.43083774e-17
-8.37919885e-17
-8.35569906e-17
-8.48923988e-17
-8.30459195e-17
-8.14743236e-17
-7.75366841e-17
-7.76222946e-17
-7.51978338e-17
-7.90310758e-17
-7.80984793e-17
-7.87548319e-17
-7.65986545e-17
-7.61472035e-17
-7.39405103e-17
-7.44124456e-17
-7.4250263e-17
-7.41392883e-17
-7.18909639e-17
-7.1876467e-17
-6.74646337e-17
-6.74775887e-17
-6.86988998e-17
-6.76192864e-17
-6.54929128e-17
-6.60447362e-17
-6.62486131e-17
-6.5738166e-17
-6.68259815e-17
-6.90384073e-17
-6.93924462e-17
-6.71198394e-17
-6.48424e-17
-6.36913995e-17
-6.30736652e-17
-6.07689509e-17
-6.17934202e-17
-6.11120976e-17
-6.27194203e-17
-6.51999446e-17
-6.35155733e-17
-6.81957244e-17
-6.53312929e-17
-6.73636537e-17
-6.67983386e-17
-6.47116262e-17
-6.83856003e-17
-6.69548119e-17
-6.82802175e-17
-6.87777563e-17
-6.8885856e-17
-6.63139144e-17
-6.46477694e-17
-6.48057157e-17
-6.14625771e-17
-6.41835572e-17
-6.38810697e-17
-6.11252348e-17
-5.79572277e-17
-5.55379615e-17
-5.29790264e-17
-5.30505634e-17
-5.53582092e-17
-5.60772889e-17
-5.67894556e-17
-5.7443511e-17
-5.69002216e-17
-5.24961627e-17
-5.67517464e-17
-5.38035413e-17
-5.36226334e-17
-5.22680207e-17
-5.25677092e-17
-5.09541108e-17
-4.85266801e-17
-4.87405537e-17
-4.68125208e-17
-4.86237186e-17
-4.59377808e-17
-4.53585908e-17
-4.31225823e-17
-4.61674176e-17
-4.80066806e-17
-4.32335935e-17
-4.46378843e-17
-4.25816313e-17
-4.18145059e-17
-3.96270026e-17
-3.95385919e-17
-4.11146774e-17
-4.03562178e-17
-4.09224197e-17
-3.7935777e-17
-3.96311086e-17
-3.60819509e-17
-3.98801889e-17
-3.45950617e-17
-3.68721383e-17
-3.41422984e-17
-3.35053757e-17
-3.12199751e-17
-3.19314634e-17
-2.95704655e-17
-2.79967443e-17
-2.64387894e-17
-2.79928245e-17
-2.71740055e-17
-2.58985545e-17
-2.77017134e-17
-2.96581642e-17
-3.13267724e-17
-3.43638065e-17
-3.38350024e-17
-3.2322442e-17
-3.33683795e-17
-3.28920139e-17
-3.02822591e-17
-2.93358433e-17
-2.84130561e-17
-2.71092966e-17
-2.880827e-17
-2.65175359e-17
-2.73053205e-17
-2.58465896e-17
-2.28767146e-17
-1.9916675e-17
-1.74400495e-17
-1.83621732e-17
-2.06370368e-17
-2.28425277e-17
-1.97852638e-17
-2.10738399e-17
-1.99583651e-17
-2.06652805e-17
-2.26850476e-17
-1.93420536e-17
-1.87629507e-17
-1.60497941e-17
-1.3961491e-17
-1.37751749e-17
-1.5154634e-17
-1.27840749e-17
-1.59006483e-17
-1.49984712e-17
-1.6769439e-17
-1.56847931e-17
-1.09932128e-17
-1.41181365e-17
-9.55439592e-18
-7.15782221e-18
-7.18372997e-18
-4.7443703e-18
-7.10069163e-18
-7.41192574e-18
-4.74415946e-18
-6.30528721e-18
-2.63132612e-18
-2.60101679e-18
-1.9251326e-18
-2.2199316e-18
-2.74646514e-18
-3.67893393e-18
-5.98409147e-18
-3.40139201e-18
-6.65735235e-19
2.40619209e-19
-1.08860024e-18
-2.5617985e-18
-5.43799434e-19
-1.82570252e-18
-1.09640729e-18
5.40734264e-19
1.40897231e-19
-4.94837874e-19
1.00307903e-19
-4.58733921e-19
-1.20598284e-18
-2.81796733e-18
-4.46970166e-18
-3.24967097e-18
-2.49889903e-18
-3.05907354e-18
1.26529714e-19
-2.40275683e-19
3.45788048e-18
4.99144433e-18
3.20030765e-18
7.7813439e-18
8.67510932e-18
1.07384313e-17
9.23793275e-18
1.09349077e-17
7.84636275e-18
3.6900143e-18
4.70106642e-18
7.02651447e-18
9.53914188e-18
8.84292024e-18
9.72022806e-18
1.22335577e-17
1.56262748e-17
1.64245051e-17
1.32982351e-17
1.43749301e-17
1.70583904e-17
1.27127799e-17
1.71008453e-17
1.8813576e-17
1.86186226e-17
1.8190668e-17
1.76801508e-17
2.05417991e-17
2.11970132e-17
1.799041e-17
1.5806635e-17
1.51910357e-17
1.80510451e-17
2.07924344e-17
2.06113204e-17
2.05166263e-17
1.71023619e-17
1.75197536e-17
1.70359802e-17
1.61565973e-17
1.79831813e-17
1.52872845e-17
1.4919581e-17
1.6217824e-17
2.04878384e-17
1.97918772e-17
1.86084836e-17
2.01999282e-17
1.84435188e-17
1.97384418e-17
2.19626783e-17
2.4358378e-17
2.50394947e-17
2.37604927e-17
2.18201552e-17
2.2309756e-17
2.4360963e-17
2.56702295e-17
2.55729087e-17
2.28713985e-17
1.95550719e-17
2.07473228e-17
2.26085497e-17
1.9300326e-17
1.88813404e-17
1.8890814e-17
2.20546853e-17
2.64066921e-17
2.71463437e-17
2.69746452e-17
2.85529696e-17
2.97434222e-17
2.97163642e-17
2.90633066e-17
2.76294374e-17
2.94195748e-17
2.79569252e-17
2.58068467e-17
2.6357224e-17
2.29461903e-17
2.51041132e-17
2.614245e-17
2.61109774e-17
2.79622202e-17
2.76103377e-17
2.84291382e-17
2.76832228e-17
2.86852483e-17
2.80309714e-17
2.99747932e-17
3.11702504e-17
2.95082137e-17
2.72070097e-17
3.02534316e-17
2.92194559e-17
3.17139228e-17
3.05136863e-17
2.95134805e-17
3.20726402e-17
2.95000831e-17
2.79735498e-17
3.15771195e-17
3.18981363e-17
3.13025823e-17
3.18602186e-17
3.46621548e-17
3.61806236e-17
3.53120819e-17
3.6440859e-17
3.41399612e-17
3.52179197e-17
3.33449942e-17
3.39870535e-17
3.4697672e-17
3.56065956e-17
3.42857301e-17
3.417119e-17
3.12599448e-17
3.10279463e-17
3.02797487e-17
3.05735146e-17
2.99121053e-17
3.35120644e-17
3.31708798e-17
3.32615104e-17
3.4404781e-17
3.38592393e-17
3.31523112e-17
3.53941889e-17
3.47082862e-17
3.51336522e-17
3.58223565e-17
3.41924547e-17
3.46216839e-17
3.85525044e-17
3.75976376e-17
3.65958375e-17
3.76097493e-17
3.78763123e-17
3.49235902e-17
3.28893905e-17
3.64446891e-17
3.91948485e-17
3.87754845e-17
3.98022442e-17
4.13062623e-17
4.28126272e-17
3.95304443e-17
3.99226396e-17
4.27120714e-17
4.15059001e-17
3.97827671e-17
3.85577324e-17
4.23924136e-17
4.44670858e-17
4.44512899e-17
4.60246821e-17
4.57840818e-17
4.48641911e-17
4.39693802e-17
4.3336028e-17
4.49123094e-17
4.07339485e-17
4.52784452e-17
4.5854594e-17
4.69338974e-17
4.64577644e-17
4.63727078e-17
4.13957672e-17
4.57867833e-17
5.05821264e-17
5.01057829e-17
5.06531352e-17
5.26687913e-17
4.97253827e-17
4.7611663e-17
4.97522385e-17
4.65744435e-17
4.42564264e-17
4.28151639e-17
4.17324952e-17
4.32398376e-17
4.4031534e-17
4.33576134e-17
4.21614626e-17
4.19377248e-17
4.26584623e-17
4.2876727e-17
3.86825866e-17
3.95784538e-17
4.21462597e-17
4.04294082e-17
3.9178474e-17
4.13403884e-17
3.6207346e-17
3.66628284e-17
3.54784364e-17
3.69775458e-17
3.69289511e-17
3.66045129e-17
3.62261926e-17
3.8889304e-17
3.62634709e-17
3.4643734e-17
3.62598825e-17
3.38131247e-17
3.54538855e-17
3.38988704e-17
3.50970838e-17
3.73423964e-17
3.76291086e-17
3.71638429e-17
3.70762967e-17
3.83606848e-17
3.89483193e-17
4.10294387e-17
4.12527887e-17
4.22379835e-17
4.33743721e-17
4.25389391e-17
4.61918825e-17
4.66506048e-17
4.3073337e-17
3.9583572e-17
3.77379321e-17
4.08068725e-17
3.96810075e-17
4.48869921e-17
4.49073487e-17
4.25921101e-17
4.26355751e-17
4.31939187e-17
4.41684738e-17
4.08354388e-17
4.1843678e-17
4.29298153e-17
4.37459215e-17
4.38622447e-17
4.69535674e-17
4.66915549e-17
4.63436345e-17
4.70542415e-17
4.85287755e-17
4.96814769e-17
4.97527353e-17
5.09343901e-17
5.06702156e-17
5.24855826e-17
5.29594218e-17
5.19101822e-17
5.35032489e-17
4.94387905e-17
4.781698e-17
4.96297256e-17
5.36251195e-17
5.28484257e-17
4.99917537e-17
5.41409502e-17
5.39858541e-17
5.58979008e-17
5.64748164e-17
5.94149845e-17
5.97558181e-17
5.68656793e-17
5.71128149e-17
5.84433308e-17
5.7427993e-17
6.30004931e-17
5.92961205e-17
6.18176558e-17
6.44596903e-17
6.42852603e-17
6.27887921e-17
6.21544055e-17
6.07110968e-17
6.10235824e-17
6.08443797e-17
5.93614908e-17
5.86161275e-17
5.84654386e-17
6.0284201e-17
6.38926326e-17
6.25235554e-17
6.01006458e-17
6.32601608e-17
6.20780049e-17
6.16359333e-17
6.17644821e-17
6.05317151e-17
6.31146124e-17
6.44466386e-17
6.4721581e-17
6.67363062e-17
6.75989997e-17
6.94278853e-17
6.59481719e-17
6.60494101e-17
6.41360729e-17
6.55836499e-17
6.73996564e-17
7.08324786e-17
6.85369336e-17
6.52621857e-17
6.11889726e-17
6.3971053e-17
6.58237885e-17
6.66045881e-17
6.42503162e-17
6.30685711e-17
6.41173323e-17
6.57942985e-17
6.35229193e-17
6.26948105e-17
6.31415415e-17
6.71961616e-17
6.53846186e-17
6.70932586e-17
7.02808022e-17
6.78432192e-17
6.6595145e-17
6.57171412e-17
6.57192366e-17
6.44110918e-17
6.28872074e-17
6.38903142e-17
6.30286277e-17
6.46491512e-17
6.61814945e-17
6.67824889e-17
6.95948785e-17
6.87275107e-17
6.744407e-17
6.79786078e-17
6.86118337e-17
6.92164213e-17
6.77157588e-17
6.92319217e-17
6.73486517e-17
6.49352125e-17
6.68525405e-17
6.77867164e-17
6.91673305e-17
7.1321183e-17
7.18620193e-17
6.87444942e-17
6.74243671e-17
6.60709252e-17
6.50206036e-17
6.49929527e-17
6.47487902e-17
6.57711594e-17
6.58960829e-17
6.64290094e-17
6.37046002e-17
6.31361958e-17
6.30878304e-17
6.21905482e-17
6.09800837e-17
5.85184492e-17
6.13171932e-17
5.73012852e-17
5.34126757e-17
5.60524696e-17
5.37987077e-17
5.27025417e-17
5.01213957e-17
5.24600795e-17
5.29850357e-17
5.0123676e-17
4.92493848e-17
4.61890467e-17
4.92220253e-17
4.62074479e-17
4.64672928e-17
4.86160592e-17
4.53406985e-17
4.72762494e-17
4.36934887e-17
4.40919089e-17
4.18413439e-17
4.21683682e-17
4.15790044e-17
3.98439052e-17
4.09974247e-17
3.98430235e-17
3.57471063e-17
3.65533101e-17
3.58751325e-17
3.92560064e-17
4.42831118e-17
3.91752956e-17
4.05704961e-17
4.14531879e-17
3.79112982e-17
3.71979459e-17
3.69814687e-17
3.61719976e-17
3.54106441e-17
3.44810873e-17
3.29547895e-17
2.89890215e-17
2.88910718e-17
2.43927446e-17
2.64236492e-17
2.80262821e-17
2.60244759e-17
2.31960429e-17
2.41626188e-17
2.34857661e-17
2.45183332e-17
2.82522939e-17
2.5521383e-17
2.32866756e-17
2.24062558e-17
2.36415927e-17
2.15076599e-17
2.27365538e-17
2.23764986e-17
1.88797204e-17
1.47051674e-17
1.42378391e-17
1.75587455e-17
1.00094998e-17
1.18273256e-17
1.4520231e-17
9.97452245e-18
1.23229443e-17
9.07191677e-18
1.04566156e-17
1.18686662e-17
1.08475971e-17
1.44725362e-17
1.69164805e-17
1.31395137e-17
1.59231074e-17
1.71398369e-17
1.57191489e-17
1.71628504e-17
1.73390731e-17
1.87618547e-17
1.52448202e-17
1.77065676e-17
1.88296143e-17
1.79580069e-17
1.69763798e-17
1.68905714e-17
1.82177479e-17
1.86457839e-17
1.45846821e-17
1.324268e-17
1.45478347e-17
1.48642377e-17
1.70263505e-17
1.86076674e-17
1.41335669e-17
1.38818944e-17
1.3336739e-17
1.03007156e-17
9.93115402e-18
6.62458106e-18
6.14795957e-18
7.30883561e-18
8.56794355e-18
3.3815474e-18
2.22518026e-18
-2.60011161e-19
-7.54327048e-19
-5.97097105e-18
-7.83815197e-18
-8.21026302e-18
-1.14574387e-17
-1.15439806e-17
-9.33357818e-18
-1.14280686e-17
-1.39600321e-17
-1.74986416e-17
-1.92171729e-17
-2.04690091e-17
-2.26347827e-17
-1.93925902e-17
-1.89906455e-17
-2.00014628e-17
-2.27461954e-17
-2.10372556e-17
-2.42889823e-17
-2.44950302e-17
-2.53469982e-17
-2.76424261e-17
-2.64546047e-17
-2.78717319e-17
-2.7993966e-17
-3.115666e-17
-3.00717837e-17
-2.97808696e-17
-2.78380499e-17
-3.35222245e-17
-3.3632968e-17
-3.64977946e-17
-3.7236243e-17
-3.54836395e-17
-3.50468967e-17
-3.82790577e-17
-4.03489823e-17
-4.33391299e-17
-3.96086143e-17
-4.22711861e-17
-4.08400808e-17
-4.38073272e-17
-4.56575929e-17
-4.31713204e-17
-4.79065229e-17
-4.41622483e-17
-4.21558637e-17
-4.00262097e-17
-4.04789029e-17
-4.09345374e-17
-4.10707286e-17
-3.96809847e-17
-4.19049099e-17
-3.87446694e-17
-3.86631658e-17
-3.95515019e-17
-3.93723755e-17
-3.94584702e-17
-3.94572479e-17
-4.19696877e-17
-4.4232838e-17
-4.74036348e-17
-4.81567466e-17
-4.66493958e-17
-4.62760305e-17
-4.69750771e-17
-4.6447046e-17
-4.39775475e-17
-4.49803222e-17
-4.3791358e-17
-4.17827692e-17
-4.53303526e-17
-4.5994744e-17
-4.72908233e-17
-4.69405333e-17
-4.57928961e-17
-4.96172934e-17
-4.96335129e-17
-4.73002792e-17
-4.84640698e-17
-4.93339067e-17
-4.91013002e-17
-5.01092469e-17
-4.68897794e-17
-4.73864657e-17
-5.14222028e-17
-5.16815508e-17
-5.43099163e-17
-5.13412644e-17
-5.79136554e-17
-5.81938838e-17
-5.84028814e-17
-5.72249481e-17
-5.98109184e-17
-6.00946578e-17
-5.70692195e-17
-5.74844023e-17
-5.85485471e-17
-5.92715729e-17
-6.07463084e-17
-6.43089314e-17
-6.69194538e-17
-6.60423359e-17
-6.66106908e-17
-6.57207548e-17
-6.72197964e-17
-6.79788488e-17
-6.83490224e-17
-6.89288194e-17
-6.93720497e-17
-6.72944686e-17
-6.84681443e-17
-6.65165858e-17
-7.06657135e-17
-6.66587541e-17
-6.81708176e-17
-6.6895683e-17
-6.41034082e-17
-6.50316529e-17
-6.43921407e-17
-6.37381586e-17
-6.67126694e-17
-6.63133408e-17
-6.68545347e-17
-6.4661369e-17
-6.66966095e-17
-6.81904202e-17
-6.49013705e-17
-6.72391218e-17
-6.63990376e-17
-6.51073861e-17
-6.5478263e-17
-6.71541418e-17
-6.50140756e-17
-6.72249191e-17
-6.68307774e-17
-6.79316785e-17
-6.48447942e-17
-6.75107254e-17
-6.60098906e-17
-6.75341212e-17
-6.52265747e-17
-6.77210611e-17
-6.32003075e-17
-6.48363052e-17
-6.41584249e-17
-6.19292791e-17
-6.42979709e-17
-6.55673977e-17
-6.43559852e-17
-6.63686366e-17
-6.35001942e-17
-6.3462719e-17
-5.88272665e-17
-6.02682043e-17
-5.8724437e-17
-5.75112012e-17
-5.63878164e-17
-5.58237899e-17
-5.56858233e-17
-5.89637684e-17
-6.14638368e-17
-6.41075662e-17
-6.37395082e-17
-6.15611179e-17
-6.52330758e-17
-6.21351423e-17
-5.96645559e-17
-6.40725593e-17
-6.25248809e-17
-5.93970351e-17
-5.75396855e-17
-5.8301288e-17
-5.76054581e-17
-5.9699852e-17
-5.86388994e-17
-6.10107239e-17
-6.10960398e-17
-6.50797377e-17
-6.28028086e-17
-6.28179174e-17
-6.32063433e-17
-6.2081044e-17
-5.97644117e-17
-6.11734764e-17
-6.21941801e-17
-6.19736807e-17
-6.45778295e-17
-6.45040858e-17
-6.54510476e-17
-6.64566306e-17
-6.27071412e-17
-6.22259702e-17
-6.11591412e-17
-6.11762028e-17
-6.33888224e-17
-6.01511992e-17
-6.09132728e-17
-6.00028683e-17
-6.06752427e-17
-6.12420458e-17
-6.00830883e-17
-6.19694174e-17
-5.93701278e-17
-5.71265831e-17
-5.68059566e-17
-5.48959035e-17
-5.58686599e-17
-5.54834083e-17
-5.79107361e-17
-5.72630102e-17
-5.95181113e-17
-5.86847858e-17
-5.72888834e-17
-5.82900382e-17
-5.82356449e-17
-5.88224667e-17
-5.53036915e-17
-5.47346469e-17
-5.77119639e-17
-5.72998744e-17
-5.53582153e-17
-5.21366709e-17
-5.45727691e-17
-5.41130756e-17
-4.95849103e-17
-5.41281093e-17
-5.49523042e-17
-5.71755053e-17
-5.86839606e-17
-5.68653123e-17
-5.56900606e-17
-5.81669949e-17
-5.54751066e-17
-5.68689886e-17
-5.62140648e-17
-6.11556831e-17
-5.97946777e-17
-5.81819822e-17
-5.67329276e-17
-5.67543608e-17
-5.63013665e-17
-5.41013862e-17
-5.46537569e-17
-5.41717054e-17
-5.18097927e-17
-5.34721293e-17
-5.46307387e-17
-5.17234202e-17
-5.42193236e-17
-5.17153081e-17
-5.32038412e-17
-5.28498131e-17
-5.14281794e-17
-5.47432165e-17
-5.5395626e-17
-5.4370955e-17
-5.57869606e-17
-5.45231851e-17
-5.74703962e-17
-5.6415726e-17
-5.35321829e-17
-5.35769025e-17
-5.14178021e-17
-5.04655611e-17
-4.98399706e-17
-4.97491675e-17
-4.83565019e-17
-5.00315234e-17
-4.93837456e-17
-4.90598975e-17
-4.81306982e-17
-4.65260648e-17
-4.54389328e-17
-4.80230169e-17
-5.00231579e-17
-4.74899722e-17
-4.93601386e-17
-4.57426197e-17
-4.89637894e-17
-4.64175409e-17
-4.80701557e-17
-5.01399383e-17
-5.16109842e-17
-5.2206367e-17
-5.06240371e-17
-5.05069916e-17
-4.94544744e-17
-5.04106429e-17
-5.07063264e-17
-5.08187778e-17
-4.92196662e-17
-4.70191216e-17
-4.7582095e-17
-4.79250907e-17
-4.99313877e-17
-5.07772432e-17
-4.79564338e-17
-5.05358538e-17
-4.89584927e-17
-4.59941376e-17
-4.9662289e-17
-5.09911774e-17
-5.00308814e-17
-5.12198055e-17
-4.73571011e-17
-4.77387468e-17
-4.64959174e-17
-4.6779321e-17
-4.61545563e-17
-4.6621851e-17
-4.41200639e-17
-4.64446474e-17
-4.57944206e-17
-4.4628768e-17
-4.17855873e-17
-3.65658457e-17
-4.14711392e-17
-4.23903128e-17
-4.13166846e-17
-4.34689828e-17
-4.00689435e-17
-3.64228196e-17
-3.77881794e-17
-3.79450786e-17
-3.68047803e-17
-3.66133107e-17
-3.60011856e-17
-3.58417461e-17
-3.54751887e-17
-3.77520627e-17
-3.71873482e-17
-3.67604618e-17
-3.8840181e-17
-3.75229005e-17
-3.79363854e-17
-3.4484781e-17
-3.63443087e-17
-3.68390381e-17
-3.5771452e-17
-3.13080267e-17
-2.96989549e-17
-2.42621971e-17
-2.5795657e-17
-2.3719716e-17
-2.45879559e-17
-2.45424567e-17
-2.81756399e-17
-2.33400158e-17
-2.49180627e-17
-2.2944759e-17
-2.05292063e-17
-2.25905858e-17
-2.69520246e-17
-2.510659e-17
-2.71515947e-17
-2.46860683e-17
-2.20429001e-17
-2.37854604e-17
-2.26411263e-17
-1.99287817e-17
-1.29850286e-17
-9.49645237e-18
-8.20579124e-18
-5.53453769e-18
-1.90042088e-18
-1.64455834e-18
1.70075844e-18
4.63524314e-18
7.72662047e-18
1.04166703e-17
1.05704258e-17
1.31195943e-17
1.43015095e-17
1.94083854e-17
1.80343912e-17
2.24483267e-17
2.78570609e-17
2.78204485e-17
3.5509044e-17
3.86635879e-17
4.52883404e-17
5.16092946e-17
5.580871e-17
5.87354612e-17
6.52594206e-17
7.19368732e-17
7.91709729e-17
8.451826e-17
8.97565738e-17
9.84466764e-17
1.09626376e-16
1.18308903e-16
1.26519104e-16
1.37280433e-16
1.47485972e-16
1.57212993e-16
1.70849164e-16
1.87019025e-16
1.9930522e-16
2.16910962e-16
2.3270788e-16
2.51584028e-16
2.71065685e-16
2.91338344e-16
3.14712723e-16
3.41351929e-16
3.65282883e-16
3.94378932e-16
4.23449336e-16
4.58463471e-16
4.90254597e-16
5.24276426e-16
5.65537406e-16
6.04457908e-16
6.5366843e-16
7.0157445e-16
7.54175141e-16
8.07734012e-16
8.66682546e-16
9.28124849e-16
9.95136062e-16
1.07049086e-15
1.1466564e-15
1.22892597e-15
1.32023843e-15
1.41428141e-15
1.51523956e-15
1.6241287e-15
1.7416074e-15
1.8646688e-15
1.99413336e-15
2.13675549e-15
2.28984751e-15
2.45123524e-15
2.62758457e-15
2.81135092e-15
3.0095258e-15
3.22154534e-15
3.45099183e-15
3.69206899e-15
3.95318727e-15
4.23093117e-15
4.52559957e-15
4.83808684e-15
5.18024553e-15
5.53654339e-15
5.92933367e-15
6.34167921e-15
6.78475702e-15
7.25308799e-15
7.75492873e-15
8.29015851e-15
8.86143586e-15
9.4705727e-15
1.01248474e-14
1.08177722e-14
1.15598378e-14
1.23523269e-14
1.3198501e-14
1.40992779e-14
1.50658587e-14
1.60934525e-14
1.71918637e-14
1.83632717e-14
1.96072156e-14
2.09404138e-14
2.23582152e-14
2.38710366e-14
2.54796686e-14
2.71983364e-14
2.90338209e-14
3.09884398e-14
3.30709727e-14
3.52890812e-14
3.76497134e-14
4.01744326e-14
4.28634123e-14
4.57190095e-14
4.87706008e-14
5.20150964e-14
5.5476304e-14
5.91562288e-14
6.30761468e-14
6.72501384e-14
7.16898404e-14
7.64226545e-14
8.1449582e-14
8.680655e-14
9.25055378e-14
9.85688238e-14
1.0502019e-13
1.11881088e-13
1.19183325e-13
1.26952069e-13
1.35214284e-13
1.43998197e-13
1.53342958e-13
1.63274781e-13
1.73832542e-13
1.85057329e-13
1.96986769e-13
2.09669219e-13
2.23137694e-13
2.37459375e-13
2.52673259e-13
2.68832907e-13
2.85998697e-13
3.04233388e-13
3.23598746e-13
3.44161286e-13
3.6599925e-13
3.89183453e-13
4.13797744e-13
4.39923547e-13
4.67652493e-13
4.97078114e-13
5.28310333e-13
5.6144574e-13
5.96599964e-13
6.33895428e-13
6.73452629e-13
7.15410894e-13
7.59907817e-13
8.07095053e-13
8.57121962e-13
9.10158769e-13
9.66383178e-13
1.02597771e-12
1.08914043e-12
1.15607106e-12
1.22699726e-12
1.30213861e-12
1.38174366e-12
1.46606589e-12
1.55537738e-12
1.64995931e-12
1.75011687e-12
1.85616706e-12
1.968438e-12
2.08728599e-12
2.21308582e-12
2.34622547e-12
2.48711859e-12
2.63620042e-12
2.79393006e-12
2.96078772e-12
3.13728572e-12
3.32396183e-12
3.52137639e-12
3.73012219e-12
3.95083129e-12
4.18415903e-12
4.43080002e-12
4.69148469e-12
4.96698441e-12
5.25810314e-12
5.56570405e-12
5.89067064e-12
6.23394389e-12
6.59652725e-12
6.97944571e-12
7.38380143e-12
7.81074835e-12
8.26149696e-12
8.73731638e-12
9.23954097e-12
9.76957926e-12
1.03289016e-11
1.0919066e-11
1.15416915e-11
1.2198494e-11
1.28912656e-11
1.36218891e-11
1.43923422e-11
1.52047019e-11
1.60611467e-11
1.6963963e-11
1.79155425e-11
1.89184088e-11
1.997519e-11
2.10886582e-11
2.22617159e-11
2.34974012e-11
2.47988967e-11
2.61695514e-11
2.76128585e-11
2.91324853e-11
3.07322766e-11
3.24162536e-11
3.41886298e-11
3.60538191e-11
3.80164376e-11
4.00813284e-11
4.22535464e-11
4.45383908e-11
4.69414036e-11
4.94683834e-11
5.21253889e-11
5.49187714e-11
5.78551546e-11
6.09414813e-11
6.41849965e-11
6.75932743e-11
7.11742325e-11
7.49361494e-11
7.88876615e-11
8.30378046e-11
8.73959997e-11
9.19720951e-11
9.677637e-11
1.01819556e-10
1.07112852e-10
1.12667939e-10
1.18497018e-10
1.24612806e-10
1.3102857e-10
1.37758144e-10
1.44815963e-10
1.52217061e-10
1.59977121e-10
1.68112482e-10
1.7664016e-10
1.85577899e-10
1.9494417e-10
2.04758222e-10
2.15040083e-10
2.25810618e-10
2.37091535e-10
2.48905435e-10
2.61275832e-10
2.74227195e-10
2.87784962e-10
3.0197561e-10
3.16826653e-10
3.3236671e-10
3.48625515e-10
3.65633985e-10
3.83424233e-10
4.02029633e-10
4.21484839e-10
4.41825853e-10
4.63090042e-10
4.85316214e-10
5.08544638e-10
5.32817117e-10
5.58177007e-10
5.84669294e-10
6.12340632e-10
6.41239416e-10
6.71415792e-10
7.02921765e-10
7.35811218e-10
7.70139992e-10
8.05965933e-10
8.43348955e-10
8.82351111e-10
9.23036631e-10
9.65472021e-10
1.0097261e-09
1.05587007e-09
1.10397762e-09
1.15412494e-09
1.20639084e-09
1.26085677e-09
1.31760695e-09
1.37672841e-09
1.43831108e-09
1.50244784e-09
1.56923462e-09
1.63877051e-09
1.71115776e-09
1.78650193e-09
1.86491194e-09
1.94650018e-09
2.03138253e-09
2.11967854e-09
2.21151143e-09
2.30700823e-09
2.40629983e-09
2.5095211e-09
2.61681095e-09
2.72831243e-09
2.84417284e-09
2.96454378e-09
3.08958125e-09
3.21944577e-09
3.35430245e-09
3.49432105e-09
3.63967613e-09
3.79054709e-09
3.94711828e-09
4.1095791e-09
4.27812404e-09
4.45295283e-09
4.63427049e-09
4.82228742e-09
5.0172195e-09
5.21928816e-09
5.42872046e-09
5.64574918e-09
5.87061289e-09
6.10355604e-09
6.34482903e-09
6.59468827e-09
6.85339626e-09
7.12122168e-09
7.39843941e-09
7.68533064e-09
7.98218289e-09
8.2892901e-09
8.60695263e-09
8.9354774e-09
9.27517783e-09
9.62637394e-09
9.9893924e-09
1.03645665e-08
1.07522362e-08
1.11527483e-08
1.15664561e-08
1.19937198e-08
1.24349063e-08
1.2890389e-08
1.33605485e-08
1.38457717e-08
1.43464523e-08
1.48629907e-08
1.53957939e-08
1.59452754e-08
1.65118554e-08
1.70959603e-08
1.76980231e-08
1.8318483e-08
1.89577854e-08
1.9616382e-08
2.02947303e-08
2.09932939e-08
2.17125419e-08
2.24529492e-08
2.32149963e-08
2.39991689e-08
2.48059577e-08
2.56358587e-08
2.64893723e-08
2.73670039e-08
2.82692629e-08
2.91966629e-08
3.01497215e-08
3.11289598e-08
3.21349022e-08
3.31680765e-08
3.42290128e-08
3.53182441e-08
3.64363051e-08
3.75837327e-08
3.87610651e-08
3.99688416e-08
4.12076021e-08
4.24778869e-08
4.37802364e-08
4.51151901e-08
4.64832869e-08
4.78850642e-08
4.93210575e-08
5.07917999e-08
5.22978218e-08
5.38396503e-08
5.54178085e-08
5.70328153e-08
5.86851844e-08
6.03754244e-08
6.21040374e-08
6.38715192e-08
6.56783582e-08
6.7525035e-08
6.94120216e-08
7.13397812e-08
7.3308767e-08
7.53194217e-08
7.73721772e-08
7.94674536e-08
8.16056583e-08
8.37871861e-08
8.60124174e-08
8.82817185e-08
9.05954403e-08
9.29539177e-08
9.5357469e-08
9.78063951e-08