/*--------------------------------*- C++ -*----------------------------------*\
| =========                 |                                                 |
| \\      /  F ield         | OpenFOAM: The Open Source CFD Toolbox           |
|  \\    /   O peration     | Version:  2206                                  |
|   \\  /    A nd           | Website:  www.openfoam.com                      |
|    \\/     M anipulation  |                                                 |
\*---------------------------------------------------------------------------*/
FoamFile
{
    version     2.0;
    format      ascii;
    arch        "LSB;label=32;scalar=64";
    class       volScalarField;
    location    "2e-05";
    object      PVsourcePV;
}
// * * * * * * * * * * * * * * * * * * * * * * * * * * * * * * * * * * * * * //

dimensions      [1 -3 -1 0 0 0 0];

internalField   nonuniform List<scalar> 
3183
(
0
0
0
0
0
0
0
0
0
0
0
0
0
0
0
0
0
0
0
0
0
0
0
0
0
0
0
0
0
0
0
0
0
0
0
0
0
0
0
0
0
0
0
0
0
0
0
0
0
0
0
0
0
0
0
0
0
0
0
0
0
0
0
0
0
0
0
0
0
0
0
0
0
0
0
0
0
0
0
0
0
0
0
0
0
0
0
0
0
0
0
0
0
0
0
0
0
0
0
0
0
0
0
0
0
0
0
0
0
0
0
0
0
0
0
0
0
0
0
0
0
0
0
0
0
0
0
0
0
0
0
0
0
0
0
0
0
0
0
0
0
0
0
0
0
0
0
0
0
0
0
0
0
0
0
0
0
0
0
0
0
0
0
0
0
0
0
0
0
0
0
0
0
0
0
0
0
0
0
0
0
0
0
0
0
0
0
0
0
0
0
0
0
0
0
0
0
0
0
0
0
0
0
0
0
0
0
0
0
0
0
0
0
0
0
0
0
0
0
0
0
0
0
0
0
0
0
0
0
0
0
0
0
0
0
0
0
0
0
0
0
0
0
0
0
0
0
0
0
0
0
0
0
0
0
0
0
0
0
0
0
0
0
0
0
0
0
0
0
0
0
0
0
0
0
0
0
0
0
0
0
0
0
0
0
0
0
0
0
0
0
0
0
0
0
0
0
0
0
0
0
0
0
0
0
0
0
0
0
0
0
0
0
0
0
0
0
0
0
0
0
0
0
0
0
0
0
0
0
0
0
0
0
0
0
0
0
0
0
0
0
0
0
0
0
0
0
0
0
0
0
0
0
0
0
0
0
0
0
0
0
0
0
0
0
0
0
0
0
0
0
0
0
0
0
0
0
0
0
0
0
0
0
0
0
0
0
0
0
0
0
0
0
0
0
0
0
0
0
0
0
0
0
0
0
0
0
0
0
0
0
0
0
0
0
0
0
0
0
0
0
0
0
0
0
0
0
0
0
0
0
0
0
0
0
0
0
0
0
0
0
0
0
0
0
0
0
0
0
0
0
0
0
0
0
0
0
0
0
0
0
0
0
0
0
0
0
0
0
0
0
0
0
0
0
0
0
0
0
0
0
0
0
0
0
0
0
0
0
0
0
0
0
0
0
0
0
0
0
0
0
0
0
0
0
0
0
0
0
0
0
0
0
0
0
0
0
0
0
0
0
0
0
0
0
0
0
0
0
0
0
0
0
0
0
0
0
0
0
0
0
0
0
0
0
0
0
0
0
0
0
0
0
0
0
0
0
0
0
0
0
0
0
0
0
0
0
0
0
0
0
0
0
0
0
0
0
0
0
0
0
0
0
0
0
0
0
0
0
0
0
0
0
0
0
0
0
0
0
0
0
0
0
0
0
0
0
0
0
0
0
0
0
0
0
0
0
0
0
0
0
0
0
0
0
0
0
0
0
0
0
0
0
0
0
0
0
0
0
0
0
0
0
0
0
0
0
0
0
0
0
0
0
0
0
0
0
0
0
0
0
0
0
0
0
0
0
0
0
0
0
0
0
0
0
0
0
0
0
0
0
0
0
0
0
0
0
0
0
0
0
0
0
0
0
0
0
0
0
0
0
0
0
0
0
0
0
0
0
0
0
0
0
0
0
0
0
0
0
0
0
0
0
0
0
0
0
0
0
0
0
0
0
0
0
0
0
0
0
0
0
0
0
0
0
0
0
0
0
0
0
0
0
0
0
0
0
0
0
0
0
0
0
0
0
0
0
0
0
0
0
0
0
0
0
0
0
0
0
0
0
0
0
0
0
0
0
0
0
0
0
0
0
0
0
0
0
0
0
0
0
0
0
0
0
0
0
0
0
0
0
0
0
0
0
0
0
0
0
0
0
0
0
0
0
0
0
0
0
0
0
0
0
0
0
0
0
0
0
0
0
0
0
0
0
0
0
0
0
0
0
0
0
0
0
0
0
0
0
0
0
0
0
0
0
0
0
0
0
0
0
0
0
0
0
0
0
0
0
0
0
0
0
0
0
0
0
0
0
0
0
0
0
0
0
0
0
0
0
0
0
0
0
0
0
0
0
0
0
0
0
0
0
0
0
0
0
0
0
0
0
0
0
0
0
0
0
0
0
0
0
0
0
0
0
0
0
0
0
0
0
0
0
0
0
0
0
0
0
0
0
0
0
0
0
0
0
0
0
0
0
0
0
0
0
0
0
0
0
0
0
0
0
0
0
0
0
0
0
0
0
0
0
0
0
0
0
0
0
0
0
0
0
0
0
0
0
0
0
0
0
0
0
0
0
0
0
0
0
0
0
0
0
0
0
0
0
0
0
0
0
0
0
0
0
0
0
0
0
0
0
0
0
0
0
0
0
0
0
0
0
0
0
0
0
0
0
0
0
0
0
0
0
0
0
0
0
0
0
0
0
0
0
0
0
0
0
0
0
0
0
0
0
0
0
0
0
0
0
0
0
0
0
0
0
0
0
0
0
0
0
0
0
0
0
0
0
0
0
0
0
0
0
0
0
0
0
0
0
0
0
0
0
0
0
0
0
0
0
0
0
0
0
0
0
0
0
0
0
0
0
0
0
0
0
0
0
0
0
0
0
0
0
0
0
0
0
0
0
0
0
0
0
0
0
0
0
0
0
0
0
0
0
0
0
0
0
0
0
0
0
0
0
0
0
0
0
0
0
0
0
0
0
0
0
0
0
0
0
0
0
0
0
0
0
0
0
0
0
0
0
0
0
0
0
0
0
0
0
0
0
0
0
0
0
0
0
0
0
0
0
0
0
0
0
0
0
0
0
0
0
0
0
0
0
0
0
0
0
0
0
0
0
0
0
0
0
0
0
0
0
0
0
0
0
0
0
0
0
0
0
0
0
0
0
0
0
0
0
0
0
0
0
0
0
0
0
0
0
0
0
0
0
0
0
0
0
0
0
0
0
0
0
0
0
0
0
0
0
0
0
0
0
0
0
0
0
0
0
0
0
0
0
0
0
0
0
0
0
0
0
0
0
0
0
0
0
0
0
0
0
0
0
0
0
0
0
0
0
0
0
0
0
0
0
0
0
0
0
0
0
0
0
0
0
0
0
0
0
0
0
0
0
0
0
0
0
0
0
0
0
0
0
0
0
0
0
0
0
0
0
0
0
0
0
0
0
0
0
0
0
0
0
0
0
0
0
0
0
0
0
0
0
0
0
0
0
0
0
0
0
0
0
0
0
0
0
0
0
0
0
0
0
0
0
0
0
0
0
0
0
0
0
0
0
0
0
0
0
0
0
0
0
0
0
0
0
0
0
0
0
0
0
0
0
0
0
0
0
0
0
0
0
0
0
0
0
0
0
0
0
0
0
0
0
0
0
0
0
0
0
0
0
0
0
0
0
0
0
0
0
0
0
0
0
0
0
0
0
0
0
0
0
0
0
0
0
0
0
0
0
0
0
0
0
0
0
0
0
0
0
0
0
0
0
0
0
0
0
0
0
0
0
0
0
0
0
0
0
0
0
0
0
0
0
0
0
0
0
0
0
0
0
0
0
0
0
0
0
0
0
0
0
0
0
0
0
0
0
0
0
0
0
0
0
0
0
0
0
0
0
0
0
0
0
0
0
0
0
0
0
0
0
0
0
0
0
0
0
0
0
0
0
0
0
0
0
0
0
0
0
0
0
0
0
0
0
0
0
0
0
0
0
0
0
0
0
0
0
0
0
0
0
0
0
0
0
0
0
0
0
0
0
0
0
0
0
0
0
0
0
0
0
0
0
0
0
0
0
0
0
0
0
0
0
0
0
0
0
0
0
0
0
0
0
0
0
0
0
0
0
0
0
0
0
0
0
0
0
0
0
0
0
0
0
0
0
0
0
0
0
0
0
0
0
0
0
0
0
0
0
0
0
0
0
0
0
0
0
0
0
0
0
0
0
0
0
0
0
0
0
0
0
0
0
0
0
0
0
0
0
0
0
0
0
0
0
0
0
0
0
0
0
0
0
0
0
0
0
0
0
0
0
0
0
0
0
0
0
0
0
0
0
0
0
0
0
0
0
0
0
0
0
0
0
0
0
0
0
0
0
0
0
0
0
0
0
0
0
0
0
0
0
0
0
0
0
0
0
0
0
0
0
0
0
0
0
0
0
0
0
0
0
0
0
0
0
0
0
0
0
0
0
0
0
0
0
0
0
0
0
0
0
0
0
0
0
0
0
0
0
0
0
0
0
0
0
0
0
0
0
0
0
0
0
0
0
0
0
0
0
0
0
0
0
0
0
0
0
0
0
0
0
0
0
0
0
0
0
0
0
0
0
0
0
0
0
0
0
0
0
0
0
0
0
0
0
0
0
0
0
0
0
0
0
0
0
0
0
0
0
0
0
0
0
0
0
0
0
0
0
0
0
0
0
0
0
0
0
0
0
0
0
0
0
0
0
0
0
0
0
0
0
0
0
0
0
0
0
0
0
0
0
0
0
0
0
0
0
0
0
0
0
0
0
0
0
0
0
0
0
0
0
0
0
0
0
0
0
0
0
0
0
0
0
0
0
0
0
0
0
0
0
0
0
0
0
0
0
0
0
0
0
0
0
0
0
0
0
0
0
0
0
0
0
0
0
0
0
0
0
0
0
0
0
0
0
0
0
0
0
0
0
0
0
0
0
0
0
0
0
0
0
0
0
0
0
0
0
0
0
0
0
0
0
0
0
0
0
0
0
0
0
0
0
0
0
0
0
0
0
0
0
0
0
0
0
0
0
0
0
0
0
0
0
0
0
0
0
0
0
0
0
0
0
0
0
0
0
0
0
0
0
0
0
0
0
0
0
0
0
0
0
0
0
0
0
0
0
0
0
0
0
0
0
0
0
0
0
0
0
0
0
0
0
0
0
0
0
0
0
0
0
0
0
0
0
0
0
0
0
0
0
0
0
0
0
0
0
0
0
0
0
0
0
0
0
0
0
0
0
0
0
0
0
0
0
0
0
0
0
0
0
0
0
0
0
0
0
0
0
0
0
0
0
0
0
0
0
0
0
0
0
0
0
0
0
0
0
0
0
0
0
0
0
0
0
0
0
0
0
0
0
0
0
0
0
0
0
0
0
0
0
0
0
0
0
0
0
0
0
0
0
0
0
0
0
0
0
0
0
0
0
0
0
0
0
0
0
0
0
0
0
0
0
0
0
0
0
0
0
0
0
0
0
0
0
0
0
0
0
0
0
0
0
0
0
0
0
0
0
0
0
0
0
0
0
0
0
0
0
0
0
0
0
0
0
0
0
0
0
0
0
0
0
0
0
0
0
0
0
0
0
0
0
0
0
0
0
0
0
0
0
0
0
0
0
0
0
0
0
0
0
0
0
1.50046407e-298
9.00403824e-299
6.80447937e-296
4.11239468e-296
3.06048497e-293
1.86278235e-293
1.36521516e-290
8.36814497e-291
6.03971511e-288
3.7280822e-288
2.64987161e-285
1.64709877e-285
1.15296014e-282
7.21639496e-283
4.97476326e-280
3.1352749e-280
2.12856192e-277
1.35073935e-277
9.03113825e-275
5.77028199e-275
3.79950574e-272
2.44421404e-272
1.58498696e-269
1.02653559e-269
6.55576368e-267
4.27470162e-267
2.68846501e-264
1.76487858e-264
1.09308249e-261
7.22301687e-262
4.40607937e-259
2.93138177e-259
1.76069991e-256
1.17932885e-256
6.9748398e-254
4.70392923e-254
2.73892808e-251
1.85933397e-251
1.06611861e-248
7.2848472e-249
4.11328989e-246
2.82898316e-246
1.5729385e-243
1.08884721e-243
5.96144974e-241
4.15345303e-241
2.23917561e-238
1.57013097e-238
8.33485908e-236
5.88199149e-236
3.07439178e-233
2.18349318e-233
1.12369196e-230
8.03145956e-231
4.06947119e-228
2.92703421e-228
1.46017891e-225
1.05688203e-225
5.19069509e-223
3.78063302e-223
1.82797167e-220
1.33972268e-220
6.37690882e-218
4.70272836e-218
2.20353117e-215
1.63508687e-215
7.54166062e-213
5.63064523e-213
2.556367e-210
1.92031032e-210
8.58136825e-208
6.48558487e-208
2.85255945e-205
2.16899688e-205
9.38910946e-203
7.18236238e-203
3.0597877e-200
2.35472288e-200
9.87188219e-198
7.64259438e-198
3.15292677e-195
2.4554643e-195
9.96770951e-193
7.80872935e-193
3.11892951e-190
2.45777415e-190
9.65838103e-188
7.65558011e-188
2.95971785e-185
2.35964765e-185
8.97430391e-183
7.19624891e-183
2.69222669e-180
2.17125497e-180
7.98982647e-178
6.48060159e-178
2.34547564e-175
1.91325298e-175
6.80994823e-173
5.58641533e-173
1.955356e-170
1.61304822e-170
5.55168956e-168
4.6053502e-168
1.55843339e-165
1.29994591e-165
4.32473656e-163
3.62726693e-163
1.18626614e-160
1.00038639e-160
3.21585465e-158
2.72665678e-158
8.6147201e-156
7.34354868e-156
2.28009498e-153
1.95402665e-153
5.96164324e-151
5.13615266e-151
1.53961531e-148
1.33339826e-148
3.92664007e-146
3.41842036e-146
9.88825061e-144
8.65289017e-144
2.45828073e-141
2.16217509e-141
6.03223753e-139
5.33255603e-139
1.46075926e-136
1.29781521e-136
3.49017569e-134
3.11629078e-134
8.22614248e-132
7.38112045e-132
1.91220238e-129
1.72414525e-129
4.38293368e-127
3.97097373e-127
9.90353469e-125
9.01555136e-125
2.20549779e-122
2.01723318e-122
4.83956783e-120
4.44713752e-120
1.0461116e-117
9.65724402e-118
2.22691707e-115
2.06517452e-115
4.66726717e-113
4.34779256e-113
9.62778648e-111
9.00868786e-111
1.95416952e-108
1.83654392e-108
3.90149201e-106
3.6825479e-106
7.65924749e-104
7.26033226e-104
1.47800405e-101
1.40692943e-101
2.80245801e-99
2.67876807e-99
5.21925459e-97
5.00928962e-97
9.54348833e-95
9.19640401e-95
1.71257433e-92
1.65681556e-92
3.01467075e-90
2.92784278e-90
5.20322448e-88
5.0726039e-88
8.8009627e-86
8.61198917e-86
1.45808635e-83
1.4319592e-83
2.36477083e-81
2.33055782e-81
3.75224018e-79
3.71033822e-79
5.82123978e-77
5.77398469e-77
8.82418113e-75
8.77534903e-75
1.3060509e-72
1.3010717e-72
1.8860174e-70
1.87950091e-70
2.65511094e-68
2.64147214e-68
3.64081671e-66
3.61111031e-66
4.85837179e-64
4.81016608e-64
6.30259582e-62
6.22436912e-62
7.940106e-60
7.93598304e-60
9.70197642e-58
9.68638233e-58
1.14861532e-55
1.14621231e-55
1.31563384e-53
1.31349828e-53
1.45580174e-51
1.45479476e-51
1.5537518e-49
1.55302242e-49
1.5966717e-47
1.59362152e-47
1.57677796e-45
1.56972197e-45
1.49320612e-43
1.48332075e-43
1.35279334e-41
1.34175502e-41
1.16939812e-39
1.15888694e-39
9.61683491e-38
9.52966536e-38
7.49890597e-36
7.43629815e-36
5.5235994e-34
5.48660143e-34
3.82676337e-32
3.81210389e-32
2.48121365e-30
2.48040994e-30
1.49694925e-28
1.49337768e-28
8.3472127e-27
8.31542574e-27
4.26661091e-25
4.249993e-25
1.97936828e-23
1.97406033e-23
8.23285666e-22
8.22306668e-22
3.02289832e-20
3.02122484e-20
9.60204218e-19
9.59553636e-19
2.56709398e-17
2.56804669e-17
5.55313312e-16
5.54775539e-16
2.58178486e-14
2.57339057e-14
2.61454807e-10
2.73663581e-10
0.00141622462
0.00671713566
0.370092906
0.48393633
0.7608266
0.729144193
0.374055748
0.317764966
0.0886321191
0.073550459
0.0185520622
0.0164727778
0.00456924301
0.00416999686
0.00101113318
0.000952400305
0.000204000339
0.000198198734
3.84870647e-05
3.82093718e-05
7.26881828e-06
7.25896593e-06
1.73729712e-06
1.73775063e-06
8.22805055e-07
8.22926522e-07
6.81182773e-07
6.8122511e-07
6.60608234e-07
6.60611675e-07
6.57783056e-07
6.57783705e-07
6.57415181e-07
6.57416467e-07
6.57369105e-07
6.57370848e-07
6.57365046e-07
6.57363787e-07
6.57364953e-07
6.57362407e-07
6.5736484e-07
6.5736314e-07
6.57364035e-07
6.57363944e-07
6.57365081e-07
6.57363467e-07
6.5736446e-07
6.5736412e-07
6.57364464e-07
6.57364467e-07
6.57364598e-07
6.5736475e-07
6.57364851e-07
6.57364224e-07
6.57364343e-07
6.57364619e-07
6.57363951e-07
6.573653e-07
6.57363782e-07
6.57365233e-07
6.57363375e-07
6.57364143e-07
6.57363675e-07
6.5736427e-07
6.57363497e-07
6.57363879e-07
6.57363061e-07
6.5736462e-07
6.57363032e-07
6.57365189e-07
6.57362617e-07
6.57364455e-07
6.57363172e-07
6.57364722e-07
6.57363081e-07
6.57365441e-07
6.57361691e-07
6.57365753e-07
6.5736383e-07
6.57365135e-07
6.57363695e-07
6.57364281e-07
6.57364099e-07
6.57363374e-07
6.57364732e-07
6.57363334e-07
6.57364156e-07
6.57362463e-07
6.5736521e-07
6.5736298e-07
6.57366116e-07
6.57362703e-07
6.57365429e-07
6.5736322e-07
6.57365827e-07
6.57363265e-07
6.57365058e-07
6.57363354e-07
6.57364578e-07
6.5736451e-07
6.5736461e-07
6.57363437e-07
6.57364772e-07
6.57364268e-07
6.57363902e-07
6.57364454e-07
6.57364072e-07
6.5736425e-07
6.57364933e-07
6.57363989e-07
6.57364546e-07
6.57363589e-07
6.57363728e-07
6.57363741e-07
6.57363629e-07
6.573646e-07
6.57362468e-07
6.57365236e-07
6.57363318e-07
6.57365219e-07
6.57362983e-07
6.57365555e-07
6.57363035e-07
6.57364774e-07
6.57363704e-07
6.57364555e-07
6.57363237e-07
6.57365403e-07
6.57363406e-07
6.57365925e-07
6.5736369e-07
6.57365018e-07
6.57364385e-07
6.57365452e-07
6.57364315e-07
6.57365162e-07
6.57363802e-07
6.57364769e-07
6.5736399e-07
6.57364058e-07
6.57363901e-07
6.57363762e-07
6.57363429e-07
6.57364788e-07
6.5736261e-07
6.57364349e-07
6.57363028e-07
6.57364456e-07
6.57363703e-07
6.57363601e-07
6.57365531e-07
6.5736263e-07
6.57364542e-07
6.57363461e-07
6.57365695e-07
6.57363349e-07
6.57364659e-07
6.57363242e-07
6.57365486e-07
6.57362325e-07
6.57365951e-07
6.57363297e-07
6.57365858e-07
6.57363808e-07
6.57365839e-07
6.57363994e-07
6.57364798e-07
6.57363933e-07
6.57364082e-07
6.57363503e-07
6.57364117e-07
6.57363674e-07
6.57363887e-07
6.57365846e-07
6.57364256e-07
6.57373725e-07
6.5737455e-07
6.57413203e-07
6.57417468e-07
6.57512153e-07
6.57511148e-07
6.57413366e-07
6.57413138e-07
6.57373648e-07
6.57372667e-07
6.57365851e-07
6.57365201e-07
6.57365058e-07
6.57364347e-07
6.5736397e-07
6.57364949e-07
6.57363754e-07
6.57365599e-07
6.57363797e-07
6.57365035e-07
6.57363557e-07
6.57364554e-07
6.57364053e-07
6.57365081e-07
6.57363477e-07
6.57365285e-07
6.57363677e-07
6.5736627e-07
6.57363753e-07
6.57365561e-07
6.57363328e-07
6.57365463e-07
6.57364231e-07
6.57365214e-07
6.57363784e-07
6.57364396e-07
6.5736463e-07
6.57363839e-07
6.57364248e-07
6.57364621e-07
6.57364529e-07
6.57363966e-07
6.57364864e-07
6.57364924e-07
6.57365289e-07
6.57363782e-07
6.57365336e-07
6.57364002e-07
6.57365786e-07
6.57364907e-07
6.57364242e-07
6.57365061e-07
6.57363254e-07
6.57366202e-07
6.57363343e-07
6.57365161e-07
6.5736419e-07
6.5736505e-07
6.57364828e-07
6.57364317e-07
6.57365311e-07
6.5736462e-07
6.57365311e-07
6.57364342e-07
6.57365253e-07
6.57365008e-07
6.5736655e-07
6.57363284e-07
6.57366101e-07
6.57363946e-07
6.57365775e-07
6.57364267e-07
6.57365224e-07
6.57364451e-07
6.57363835e-07
6.57364757e-07
6.57365243e-07
6.57364021e-07
6.57364697e-07
6.57364869e-07
6.57364287e-07
6.57364103e-07
6.57364897e-07
6.573646e-07
6.57365848e-07
6.57364072e-07
6.57366016e-07
6.57365061e-07
6.57364373e-07
6.57365544e-07
6.57363154e-07
6.5736552e-07
6.57363152e-07
6.57364644e-07
6.57363807e-07
6.57365623e-07
6.57364076e-07
6.57364794e-07
6.57364173e-07
6.5736424e-07
6.57364686e-07
6.57364226e-07
6.57364708e-07
6.57364398e-07
6.57364205e-07
6.57364871e-07
6.57364293e-07
6.57364858e-07
6.57365072e-07
6.57364113e-07
6.57364213e-07
6.57364258e-07
6.57365106e-07
6.57364249e-07
6.57365292e-07
6.5736495e-07
6.57364809e-07
6.5736531e-07
6.57363857e-07
6.57364265e-07
6.57364784e-07
6.57364024e-07
6.57365156e-07
6.57364972e-07
6.57365498e-07
6.57364657e-07
6.57364768e-07
6.57365382e-07
6.57365142e-07
6.57364652e-07
6.57365326e-07
6.57364502e-07
6.57364919e-07
6.5736405e-07
6.57365321e-07
6.57363214e-07
6.57365106e-07
6.5736355e-07
6.57364916e-07
6.5736474e-07
6.57364971e-07
6.57365042e-07
6.57363719e-07
6.57365802e-07
6.57363476e-07
6.57366385e-07
6.57362796e-07
6.57366303e-07
6.57363894e-07
6.57365687e-07
6.57364088e-07
6.57365476e-07
6.5736371e-07
6.57365507e-07
6.57364438e-07
6.57365852e-07
6.57363874e-07
6.57364815e-07
6.5736481e-07
6.57365049e-07
6.57365146e-07
6.57364218e-07
6.57366226e-07
6.57364349e-07
6.57364786e-07
6.5736556e-07
6.5736517e-07
6.57364607e-07
6.57365252e-07
6.57365419e-07
6.57364347e-07
6.573651e-07
6.57364365e-07
6.57366143e-07
6.57364403e-07
6.57364998e-07
6.57365318e-07
6.57365024e-07
6.57364714e-07
6.57364092e-07
6.57364722e-07
6.57364731e-07
6.57364788e-07
6.57365267e-07
6.57365063e-07
6.57365498e-07
6.57364653e-07
6.57365048e-07
6.57364788e-07
6.57365338e-07
6.5736452e-07
6.57365409e-07
6.57365146e-07
6.57365961e-07
6.57364398e-07
6.57365256e-07
6.57365054e-07
6.57365583e-07
6.5736523e-07
6.57366232e-07
6.57365017e-07
6.57365691e-07
6.57364622e-07
6.5736591e-07
6.57364584e-07
6.57365869e-07
6.57365312e-07
6.57366004e-07
6.57364572e-07
6.57366226e-07
6.57364785e-07
6.5736449e-07
6.57365843e-07
6.57364217e-07
6.57365657e-07
6.57364296e-07
6.57364947e-07
6.57364426e-07
6.57364801e-07
6.57365594e-07
6.57365724e-07
6.5736482e-07
6.57365325e-07
6.57365174e-07
6.57365667e-07
6.57365534e-07
6.57364717e-07
6.57364574e-07
6.57365932e-07
6.57363793e-07
6.57365901e-07
6.57363901e-07
6.57365897e-07
6.57365353e-07
6.57365435e-07
6.57365273e-07
6.57364817e-07
6.57366395e-07
6.57364457e-07
6.57365478e-07
6.57365084e-07
6.57364424e-07
6.5736566e-07
6.57365816e-07
6.5736571e-07
6.57365271e-07
6.57365789e-07
6.57364698e-07
6.57366353e-07
6.57364863e-07
6.57366563e-07
6.57365247e-07
6.57365967e-07
6.57365462e-07
6.5736578e-07
6.57364801e-07
6.57365891e-07
6.57366125e-07
6.57365607e-07
6.57366495e-07
6.57365421e-07
6.57365964e-07
6.57365154e-07
6.57365677e-07
6.57365723e-07
6.57365298e-07
6.57365849e-07
6.57364972e-07
6.57365996e-07
6.57365654e-07
6.57366439e-07
6.57365248e-07
6.57366075e-07
6.57365263e-07
6.57365511e-07
6.57365426e-07
6.57365732e-07
6.57365111e-07
6.57364875e-07
6.57364682e-07
6.57364976e-07
6.57365665e-07
6.57365536e-07
6.57364759e-07
6.57366609e-07
6.57365155e-07
6.57366136e-07
6.5736392e-07
6.57366415e-07
6.57364637e-07
6.57366761e-07
6.57365431e-07
6.57366038e-07
6.57365815e-07
6.57365646e-07
6.57365248e-07
6.57366213e-07
6.57365031e-07
6.57365531e-07
6.57365315e-07
6.5736566e-07
6.57365289e-07
6.57366178e-07
6.57365499e-07
6.57365531e-07
6.57365084e-07
6.57365325e-07
6.57365972e-07
6.5736554e-07
6.57364919e-07
6.57365469e-07
6.57365283e-07
6.57364566e-07
6.57366552e-07
6.57364379e-07
6.57366476e-07
6.57365284e-07
6.5736674e-07
6.57364579e-07
6.57367386e-07
6.57364313e-07
6.57367235e-07
6.57365038e-07
6.57365182e-07
6.57365965e-07
6.57365285e-07
6.57365471e-07
6.57365624e-07
6.57366113e-07
6.57365743e-07
6.5736462e-07
6.57366217e-07
6.57365561e-07
6.57365696e-07
6.57365963e-07
6.57365764e-07
6.57365054e-07
6.57365798e-07
6.57365485e-07
6.57365843e-07
6.57365448e-07
6.57365934e-07
6.57365901e-07
6.57365565e-07
6.5736561e-07
6.57365795e-07
6.57365858e-07
6.573659e-07
6.57365667e-07
6.57365958e-07
6.57365755e-07
6.57365855e-07
6.57365898e-07
6.57366008e-07
6.57365896e-07
6.5736598e-07
6.57366074e-07
6.57366112e-07
6.57366065e-07
6.57366173e-07
6.57366226e-07
6.57366213e-07
6.57366296e-07
6.57366358e-07
6.57366477e-07
6.57366509e-07
6.57366576e-07
6.57366672e-07
6.57366726e-07
6.57366834e-07
6.57366969e-07
6.57367097e-07
6.57367164e-07
6.57367351e-07
6.57367504e-07
6.57367695e-07
6.57367897e-07
6.57368131e-07
6.57368431e-07
6.57368779e-07
6.57369159e-07
6.57369554e-07
6.5736994e-07
6.57370309e-07
6.57370611e-07
6.57370749e-07
6.57370869e-07
6.57370909e-07
6.57370907e-07
6.57370935e-07
6.57370938e-07
6.57370924e-07
6.57370946e-07
6.57370921e-07
6.57370919e-07
6.57370923e-07
6.57370925e-07
6.57370918e-07
6.57370915e-07
6.57370922e-07
6.57370925e-07
6.57370904e-07
6.57370944e-07
)
;

boundaryField
{
    closed
    {
        type            calculated;
        value           uniform 0;
    }
    open
    {
        type            calculated;
        value           uniform 0;
    }
    sides
    {
        type            empty;
    }
}


// ************************************************************************* //
