/*--------------------------------*- C++ -*----------------------------------*\
| =========                 |                                                 |
| \\      /  F ield         | OpenFOAM: The Open Source CFD Toolbox           |
|  \\    /   O peration     | Version:  2206                                  |
|   \\  /    A nd           | Website:  www.openfoam.com                      |
|    \\/     M anipulation  |                                                 |
\*---------------------------------------------------------------------------*/
FoamFile
{
    version     2.0;
    format      ascii;
    arch        "LSB;label=32;scalar=64";
    class       volScalarField;
    location    "2e-05";
    object      rho;
}
// * * * * * * * * * * * * * * * * * * * * * * * * * * * * * * * * * * * * * //

dimensions      [1 -3 0 0 0 0 0];

internalField   nonuniform List<scalar> 
3183
(
1.03926466
1.03926466
1.03926466
1.03926466
1.03926466
1.03926466
1.03926466
1.03926466
1.03926466
1.03926466
1.03926466
1.03926466
1.03926466
1.03926466
1.03926466
1.03926466
1.03926466
1.03926466
1.03926466
1.03926466
1.03926466
1.03926466
1.03926466
1.03926466
1.03926466
1.03926466
1.03926466
1.03926466
1.03926466
1.03926466
1.03926466
1.03926466
1.03926466
1.03926466
1.03926466
1.03926466
1.03926466
1.03926466
1.03926466
1.03926466
1.03926466
1.03926466
1.03926466
1.03926466
1.03926466
1.03926466
1.03926466
1.03926466
1.03926466
1.03926466
1.03926466
1.03926466
1.03926466
1.03926466
1.03926466
1.03926466
1.03926466
1.03926466
1.03926466
1.03926466
1.03926466
1.03926466
1.03926466
1.03926466
1.03926466
1.03926466
1.03926466
1.03926466
1.03926466
1.03926466
1.03926466
1.03926466
1.03926466
1.03926466
1.03926466
1.03926466
1.03926466
1.03926466
1.03926466
1.03926466
1.03926466
1.03926466
1.03926466
1.03926466
1.03926466
1.03926466
1.03926466
1.03926466
1.03926466
1.03926466
1.03926466
1.03926466
1.03926466
1.03926466
1.03926466
1.03926466
1.03926466
1.03926466
1.03926466
1.03926466
1.03926466
1.03926466
1.03926466
1.03926466
1.03926466
1.03926466
1.03926466
1.03926466
1.03926466
1.03926466
1.03926466
1.03926466
1.03926466
1.03926466
1.03926466
1.03926466
1.03926466
1.03926466
1.03926466
1.03926466
1.03926466
1.03926466
1.03926466
1.03926466
1.03926466
1.03926466
1.03926466
1.03926466
1.03926466
1.03926466
1.03926466
1.03926466
1.03926466
1.03926466
1.03926466
1.03926466
1.03926466
1.03926466
1.03926466
1.03926466
1.03926466
1.03926466
1.03926466
1.03926466
1.03926466
1.03926466
1.03926466
1.03926466
1.03926466
1.03926466
1.03926466
1.03926466
1.03926466
1.03926466
1.03926466
1.03926466
1.03926466
1.03926466
1.03926466
1.03926466
1.03926466
1.03926466
1.03926466
1.03926466
1.03926466
1.03926466
1.03926466
1.03926466
1.03926466
1.03926466
1.03926466
1.03926466
1.03926466
1.03926466
1.03926466
1.03926466
1.03926466
1.03926466
1.03926466
1.03926466
1.03926466
1.03926466
1.03926466
1.03926466
1.03926466
1.03926466
1.03926466
1.03926466
1.03926466
1.03926466
1.03926466
1.03926466
1.03926466
1.03926466
1.03926466
1.03926466
1.03926466
1.03926466
1.03926466
1.03926466
1.03926466
1.03926466
1.03926466
1.03926466
1.03926466
1.03926466
1.03926466
1.03926466
1.03926466
1.03926466
1.03926466
1.03926466
1.03926466
1.03926466
1.03926466
1.03926466
1.03926466
1.03926466
1.03926466
1.03926466
1.03926466
1.03926466
1.03926466
1.03926466
1.03926466
1.03926466
1.03926466
1.03926466
1.03926466
1.03926466
1.03926466
1.03926466
1.03926466
1.03926466
1.03926466
1.03926466
1.03926466
1.03926466
1.03926466
1.03926466
1.03926466
1.03926466
1.03926466
1.03926466
1.03926466
1.03926466
1.03926466
1.03926466
1.03926466
1.03926466
1.03926466
1.03926466
1.03926466
1.03926466
1.03926466
1.03926466
1.03926466
1.03926466
1.03926466
1.03926466
1.03926466
1.03926466
1.03926466
1.03926466
1.03926466
1.03926466
1.03926466
1.03926466
1.03926466
1.03926466
1.03926466
1.03926466
1.03926466
1.03926466
1.03926466
1.03926466
1.03926466
1.03926466
1.03926466
1.03926466
1.03926466
1.03926466
1.03926466
1.03926466
1.03926466
1.03926466
1.03926466
1.03926466
1.03926466
1.03926466
1.03926466
1.03926466
1.03926466
1.03926466
1.03926466
1.03926466
1.03926466
1.03926466
1.03926466
1.03926466
1.03926466
1.03926466
1.03926466
1.03926466
1.03926466
1.03926466
1.03926466
1.03926466
1.03926466
1.03926466
1.03926466
1.03926466
1.03926466
1.03926466
1.03926466
1.03926466
1.03926466
1.03926466
1.03926466
1.03926466
1.03926466
1.03926466
1.03926466
1.03926466
1.03926466
1.03926466
1.03926466
1.03926466
1.03926466
1.03926466
1.03926466
1.03926466
1.03926466
1.03926466
1.03926466
1.03926466
1.03926466
1.03926466
1.03926466
1.03926466
1.03926466
1.03926466
1.03926466
1.03926466
1.03926466
1.03926466
1.03926466
1.03926466
1.03926466
1.03926466
1.03926466
1.03926466
1.03926466
1.03926466
1.03926466
1.03926466
1.03926466
1.03926466
1.03926466
1.03926466
1.03926466
1.03926466
1.03926466
1.03926466
1.03926466
1.03926466
1.03926466
1.03926466
1.03926466
1.03926466
1.03926466
1.03926466
1.03926466
1.03926466
1.03926466
1.03926466
1.03926466
1.03926466
1.03926466
1.03926466
1.03926466
1.03926466
1.03926466
1.03926466
1.03926466
1.03926466
1.03926466
1.03926466
1.03926466
1.03926466
1.03926466
1.03926466
1.03926466
1.03926466
1.03926466
1.03926466
1.03926466
1.03926466
1.03926466
1.03926466
1.03926466
1.03926466
1.03926466
1.03926466
1.03926466
1.03926466
1.03926466
1.03926466
1.03926466
1.03926466
1.03926466
1.03926466
1.03926466
1.03926466
1.03926466
1.03926466
1.03926466
1.03926466
1.03926466
1.03926466
1.03926466
1.03926466
1.03926466
1.03926466
1.03926466
1.03926466
1.03926466
1.03926466
1.03926466
1.03926466
1.03926466
1.03926466
1.03926466
1.03926466
1.03926466
1.03926466
1.03926466
1.03926466
1.03926466
1.03926466
1.03926466
1.03926466
1.03926466
1.03926466
1.03926466
1.03926466
1.03926466
1.03926466
1.03926466
1.03926466
1.03926466
1.03926466
1.03926466
1.03926466
1.03926466
1.03926466
1.03926466
1.03926466
1.03926466
1.03926466
1.03926466
1.03926466
1.03926466
1.03926466
1.03926466
1.03926466
1.03926466
1.03926466
1.03926466
1.03926466
1.03926466
1.03926466
1.03926466
1.03926466
1.03926466
1.03926466
1.03926466
1.03926466
1.03926466
1.03926466
1.03926466
1.03926466
1.03926466
1.03926466
1.03926466
1.03926466
1.03926466
1.03926466
1.03926466
1.03926466
1.03926466
1.03926466
1.03926466
1.03926466
1.03926466
1.03926466
1.03926466
1.03926466
1.03926466
1.03926466
1.03926466
1.03926466
1.03926466
1.03926466
1.03926466
1.03926466
1.03926466
1.03926466
1.03926466
1.03926466
1.03926466
1.03926466
1.03926466
1.03926466
1.03926466
1.03926466
1.03926466
1.03926466
1.03926466
1.03926466
1.03926466
1.03926466
1.03926466
1.03926466
1.03926466
1.03926466
1.03926466
1.03926466
1.03926466
1.03926466
1.03926466
1.03926466
1.03926466
1.03926466
1.03926466
1.03926466
1.03926466
1.03926466
1.03926466
1.03926466
1.03926466
1.03926466
1.03926466
1.03926466
1.03926466
1.03926466
1.03926466
1.03926466
1.03926466
1.03926466
1.03926466
1.03926466
1.03926466
1.03926466
1.03926466
1.03926466
1.03926466
1.03926466
1.03926466
1.03926466
1.03926466
1.03926466
1.03926466
1.03926466
1.03926466
1.03926466
1.03926466
1.03926466
1.03926466
1.03926466
1.03926466
1.03926466
1.03926466
1.03926466
1.03926466
1.03926466
1.03926466
1.03926466
1.03926466
1.03926466
1.03926466
1.03926466
1.03926466
1.03926466
1.03926466
1.03926466
1.03926466
1.03926466
1.03926466
1.03926466
1.03926466
1.03926466
1.03926466
1.03926466
1.03926466
1.03926466
1.03926466
1.03926466
1.03926466
1.03926466
1.03926466
1.03926466
1.03926466
1.03926466
1.03926466
1.03926466
1.03926466
1.03926466
1.03926466
1.03926466
1.03926466
1.03926466
1.03926466
1.03926466
1.03926466
1.03926466
1.03926466
1.03926466
1.03926466
1.03926466
1.03926466
1.03926466
1.03926466
1.03926466
1.03926466
1.03926466
1.03926466
1.03926466
1.03926466
1.03926466
1.03926466
1.03926466
1.03926466
1.03926466
1.03926466
1.03926466
1.03926466
1.03926466
1.03926466
1.03926466
1.03926466
1.03926466
1.03926466
1.03926466
1.03926466
1.03926466
1.03926466
1.03926466
1.03926466
1.03926466
1.03926466
1.03926466
1.03926466
1.03926466
1.03926466
1.03926466
1.03926466
1.03926466
1.03926466
1.03926466
1.03926466
1.03926466
1.03926466
1.03926466
1.03926466
1.03926466
1.03926466
1.03926466
1.03926466
1.03926466
1.03926466
1.03926466
1.03926466
1.03926466
1.03926466
1.03926466
1.03926466
1.03926466
1.03926466
1.03926466
1.03926466
1.03926466
1.03926466
1.03926466
1.03926466
1.03926466
1.03926466
1.03926466
1.03926466
1.03926466
1.03926466
1.03926466
1.03926466
1.03926466
1.03926466
1.03926466
1.03926466
1.03926466
1.03926466
1.03926466
1.03926466
1.03926466
1.03926466
1.03926466
1.03926466
1.03926466
1.03926466
1.03926466
1.03926466
1.03926466
1.03926466
1.03926466
1.03926466
1.03926466
1.03926466
1.03926466
1.03926466
1.03926466
1.03926466
1.03926466
1.03926466
1.03926466
1.03926466
1.03926466
1.03926466
1.03926466
1.03926466
1.03926466
1.03926466
1.03926466
1.03926466
1.03926466
1.03926466
1.03926466
1.03926466
1.03926466
1.03926466
1.03926466
1.03926466
1.03926466
1.03926466
1.03926466
1.03926466
1.03926466
1.03926466
1.03926466
1.03926466
1.03926466
1.03926466
1.03926466
1.03926466
1.03926466
1.03926466
1.03926466
1.03926466
1.03926466
1.03926466
1.03926466
1.03926466
1.03926466
1.03926466
1.03926466
1.03926466
1.03926466
1.03926466
1.03926466
1.03926466
1.03926466
1.03926466
1.03926466
1.03926466
1.03926466
1.03926466
1.03926466
1.03926466
1.03926466
1.03926466
1.03926466
1.03926466
1.03926466
1.03926466
1.03926466
1.03926466
1.03926466
1.03926466
1.03926466
1.03926466
1.03926466
1.03926466
1.03926466
1.03926466
1.03926466
1.03926466
1.03926466
1.03926466
1.03926466
1.03926466
1.03926466
1.03926466
1.03926466
1.03926466
1.03926466
1.03926466
1.03926466
1.03926466
1.03926466
1.03926466
1.03926466
1.03926466
1.03926466
1.03926466
1.03926466
1.03926466
1.03926466
1.03926466
1.03926466
1.03926466
1.03926466
1.03926466
1.03926466
1.03926466
1.03926466
1.03926466
1.03926466
1.03926466
1.03926466
1.03926466
1.03926466
1.03926466
1.03926466
1.03926466
1.03926466
1.03926466
1.03926466
1.03926466
1.03926466
1.03926466
1.03926466
1.03926466
1.03926466
1.03926466
1.03926466
1.03926466
1.03926466
1.03926466
1.03926466
1.03926466
1.03926466
1.03926466
1.03926466
1.03926466
1.03926466
1.03926466
1.03926466
1.03926466
1.03926466
1.03926466
1.03926466
1.03926466
1.03926466
1.03926466
1.03926466
1.03926466
1.03926466
1.03926466
1.03926466
1.03926466
1.03926466
1.03926466
1.03926466
1.03926466
1.03926466
1.03926466
1.03926466
1.03926466
1.03926466
1.03926466
1.03926466
1.03926466
1.03926466
1.03926466
1.03926466
1.03926466
1.03926466
1.03926466
1.03926466
1.03926466
1.03926466
1.03926466
1.03926466
1.03926466
1.03926466
1.03926466
1.03926466
1.03926466
1.03926466
1.03926466
1.03926466
1.03926466
1.03926466
1.03926466
1.03926466
1.03926466
1.03926466
1.03926466
1.03926466
1.03926466
1.03926466
1.03926466
1.03926466
1.03926466
1.03926466
1.03926466
1.03926466
1.03926466
1.03926466
1.03926466
1.03926466
1.03926466
1.03926466
1.03926466
1.03926466
1.03926466
1.03926466
1.03926466
1.03926466
1.03926466
1.03926466
1.03926466
1.03926466
1.03926466
1.03926466
1.03926466
1.03926466
1.03926466
1.03926466
1.03926466
1.03926466
1.03926466
1.03926466
1.03926466
1.03926466
1.03926466
1.03926466
1.03926466
1.03926466
1.03926466
1.03926466
1.03926466
1.03926466
1.03926466
1.03926466
1.03926466
1.03926466
1.03926466
1.03926466
1.03926466
1.03926466
1.03926466
1.03926466
1.03926466
1.03926466
1.03926466
1.03926466
1.03926466
1.03926466
1.03926466
1.03926466
1.03926466
1.03926466
1.03926466
1.03926466
1.03926466
1.03926466
1.03926466
1.03926466
1.03926466
1.03926466
1.03926466
1.03926466
1.03926466
1.03926466
1.03926466
1.03926466
1.03926466
1.03926466
1.03926466
1.03926466
1.03926466
1.03926466
1.03926466
1.03926466
1.03926466
1.03926466
1.03926466
1.03926466
1.03926466
1.03926466
1.03926466
1.03926466
1.03926466
1.03926466
1.03926466
1.03926466
1.03926466
1.03926466
1.03926466
1.03926466
1.03926466
1.03926466
1.03926466
1.03926466
1.03926466
1.03926466
1.03926466
1.03926466
1.03926466
1.03926466
1.03926466
1.03926466
1.03926466
1.03926466
1.03926466
1.03926466
1.03926466
1.03926466
1.03926466
1.03926466
1.03926466
1.03926466
1.03926466
1.03926466
1.03926466
1.03926466
1.03926466
1.03926466
1.03926466
1.03926466
1.03926466
1.03926466
1.03926466
1.03926466
1.03926466
1.03926466
1.03926466
1.03926466
1.03926466
1.03926466
1.03926466
1.03926466
1.03926466
1.03926466
1.03926466
1.03926466
1.03926466
1.03926466
1.03926466
1.03926466
1.03926466
1.03926466
1.03926466
1.03926466
1.03926466
1.03926466
1.03926466
1.03926466
1.03926466
1.03926466
1.03926466
1.03926466
1.03926466
1.03926466
1.03926466
1.03926466
1.03926466
1.03926466
1.03926466
1.03926466
1.03926466
1.03926466
1.03926466
1.03926466
1.03926466
1.03926466
1.03926466
1.03926466
1.03926466
1.03926466
1.03926466
1.03926466
1.03926466
1.03926466
1.03926466
1.03926466
1.03926466
1.03926466
1.03926466
1.03926466
1.03926466
1.03926466
1.03926466
1.03926466
1.03926466
1.03926466
1.03926466
1.03926466
1.03926466
1.03926466
1.03926466
1.03926466
1.03926466
1.03926466
1.03926466
1.03926466
1.03926466
1.03926466
1.03926466
1.03926466
1.03926466
1.03926466
1.03926466
1.03926466
1.03926466
1.03926466
1.03926466
1.03926466
1.03926466
1.03926466
1.03926466
1.03926466
1.03926466
1.03926466
1.03926466
1.03926466
1.03926466
1.03926466
1.03926466
1.03926466
1.03926466
1.03926466
1.03926466
1.03926466
1.03926466
1.03926466
1.03926466
1.03926466
1.03926466
1.03926466
1.03926466
1.03926466
1.03926466
1.03926466
1.03926466
1.03926466
1.03926466
1.03926466
1.03926466
1.03926466
1.03926466
1.03926466
1.03926466
1.03926466
1.03926466
1.03926466
1.03926466
1.03926466
1.03926466
1.03926466
1.03926466
1.03926466
1.03926466
1.03926466
1.03926466
1.03926466
1.03926466
1.03926466
1.03926466
1.03926466
1.03926466
1.03926466
1.03926466
1.03926466
1.03926466
1.03926466
1.03926466
1.03926466
1.03926466
1.03926466
1.03926466
1.03926466
1.03926466
1.03926466
1.03926466
1.03926466
1.03926466
1.03926466
1.03926466
1.03926466
1.03926466
1.03926466
1.03926466
1.03926466
1.03926466
1.03926466
1.03926466
1.03926466
1.03926466
1.03926466
1.03926466
1.03926466
1.03926466
1.03926466
1.03926466
1.03926466
1.03926466
1.03926466
1.03926466
1.03926466
1.03926466
1.03926466
1.03926466
1.03926466
1.03926466
1.03926466
1.03926466
1.03926466
1.03926466
1.03926466
1.03926466
1.03926466
1.03926466
1.03926466
1.03926466
1.03926466
1.03926466
1.03926466
1.03926466
1.03926466
1.03926466
1.03926466
1.03926466
1.03926466
1.03926466
1.03926466
1.03926466
1.03926466
1.03926466
1.03926466
1.03926466
1.03926466
1.03926466
1.03926466
1.03926466
1.03926466
1.03926466
1.03926466
1.03926466
1.03926466
1.03926466
1.03926466
1.03926466
1.03926466
1.03926466
1.03926466
1.03926466
1.03926466
1.03926466
1.03926466
1.03926466
1.03926466
1.03926466
1.03926466
1.03926466
1.03926466
1.03926466
1.03926466
1.03926466
1.03926466
1.03926466
1.03926466
1.03926466
1.03926466
1.03926466
1.03926466
1.03926466
1.03926466
1.03926466
1.03926466
1.03926466
1.03926466
1.03926466
1.03926466
1.03926466
1.03926466
1.03926466
1.03926466
1.03926466
1.03926466
1.03926466
1.03926466
1.03926466
1.03926466
1.03926466
1.03926466
1.03926466
1.03926466
1.03926466
1.03926466
1.03926466
1.03926466
1.03926466
1.03926466
1.03926466
1.03926466
1.03926466
1.03926466
1.03926466
1.03926466
1.03926466
1.03926466
1.03926466
1.03926466
1.03926466
1.03926466
1.03926466
1.03926466
1.03926466
1.03926466
1.03926466
1.03926466
1.03926466
1.03926466
1.03926466
1.03926466
1.03926466
1.03926466
1.03926466
1.03926466
1.03926466
1.03926466
1.03926466
1.03926466
1.03926466
1.03926466
1.03926466
1.03926466
1.03926466
1.03926466
1.03926466
1.03926466
1.03926466
1.03926466
1.03926466
1.03926466
1.03926466
1.03926466
1.03926466
1.03926466
1.03926466
1.03926466
1.03926466
1.03926466
1.03926466
1.03926466
1.03926466
1.03926466
1.03926466
1.03926466
1.03926466
1.03926466
1.03926466
1.03926466
1.03926466
1.03926466
1.03926466
1.03926466
1.03926466
1.03926466
1.03926466
1.03926466
1.03926466
1.03926466
1.03926466
1.03926466
1.03926466
1.03926466
1.03926466
1.03926466
1.03926466
1.03926466
1.03926466
1.03926466
1.03926466
1.03926466
1.03926466
1.03926466
1.03926466
1.03926466
1.03926466
1.03926466
1.03926466
1.03926466
1.03926466
1.03926466
1.03926466
1.03926466
1.03926466
1.03926466
1.03926466
1.03926466
1.03926466
1.03926466
1.03926466
1.03926466
1.03926466
1.03926466
1.03926466
1.03926466
1.03926466
1.03926466
1.03926466
1.03926466
1.03926466
1.03926466
1.03926466
1.03926466
1.03926466
1.03926466
1.03926466
1.03926466
1.03926466
1.03926466
1.03926466
1.03926466
1.03926466
1.03926466
1.03926466
1.03926466
1.03926466
1.03926466
1.03926466
1.03926466
1.03926466
1.03926466
1.03926466
1.03926466
1.03926466
1.03926466
1.03926466
1.03926466
1.03926466
1.03926466
1.03926466
1.03926466
1.03926466
1.03926466
1.03926466
1.03926466
1.03926466
1.03926466
1.03926466
1.03926466
1.03926466
1.03926466
1.03926466
1.03926466
1.03926466
1.03926466
1.03926466
1.03926466
1.03926466
1.03926466
1.03926466
1.03926466
1.03926466
1.03926466
1.03926466
1.03926466
1.03926466
1.03926466
1.03926466
1.03926466
1.03926466
1.03926466
1.03926466
1.03926466
1.03926466
1.03926466
1.03926466
1.03926466
1.03926466
1.03926466
1.03926466
1.03926466
1.03926466
1.03926466
1.03926466
1.03926466
1.03926466
1.03926466
1.03926466
1.03926466
1.03926466
1.03926466
1.03926466
1.03926466
1.03926466
1.03926466
1.03926466
1.03926466
1.03926466
1.03926466
1.03926466
1.03926466
1.03926466
1.03926466
1.03926466
1.03926466
1.03926466
1.03926466
1.03926466
1.03926466
1.03926466
1.03926466
1.03926466
1.03926466
1.03926466
1.03926466
1.03926466
1.03926466
1.03926466
1.03926466
1.03926466
1.03926466
1.03926466
1.03926466
1.03926466
1.03926466
1.03926466
1.03926466
1.03926466
1.03926466
1.03926466
1.03926466
1.03926466
1.03926466
1.03926466
1.03926466
1.03926466
1.03926466
1.03926466
1.03926466
1.03926466
1.03926466
1.03926466
1.03926466
1.03926466
1.03926466
1.03926466
1.03926466
1.03926466
1.03926466
1.03926466
1.03926466
1.03926466
1.03926466
1.03926466
1.03926466
1.03926466
1.03926466
1.03926466
1.03926466
1.03926466
1.03926466
1.03926466
1.03926466
1.03926466
1.03926466
1.03926466
1.03926466
1.03926466
1.03926466
1.03926466
1.03926466
1.03926466
1.03926466
1.03926466
1.03926466
1.03926466
1.03926466
1.03926466
1.03926466
1.03926466
1.03926466
1.03926466
1.03926466
1.03926466
1.03926466
1.03926466
1.03926466
1.03926466
1.03926466
1.03926466
1.03926466
1.03926466
1.03926466
1.03926466
1.03926466
1.03926466
1.03926466
1.03926466
1.03926466
1.03926466
1.03926466
1.03926466
1.03926466
1.03926466
1.03926466
1.03926466
1.03926466
1.03926466
1.03926466
1.03926466
1.03926466
1.03926466
1.03926466
1.03926466
1.03926466
1.03926466
1.03926466
1.03926466
1.03926466
1.03926466
1.03926466
1.03926466
1.03926466
1.03926466
1.03926466
1.03926466
1.03926466
1.03926466
1.03926466
1.03926466
1.03926466
1.03926466
1.03926466
1.03926466
1.03926466
1.03926466
1.03926466
1.03926466
1.03926466
1.03926466
1.03926466
1.03926466
1.03926466
1.03926466
1.03926466
1.03926466
1.03926466
1.03926466
1.03926466
1.03926466
1.03926466
1.03926466
1.03926466
1.03926466
1.03926466
1.03926466
1.03926466
1.03926466
1.03926466
1.03926466
1.03926465
1.03926465
1.03926465
1.03926465
1.03926465
1.03926465
1.03926465
1.03926465
1.03926465
1.03926465
1.03926465
1.03926465
1.03926465
1.03926465
1.03926465
1.03926465
1.03926464
1.03926464
1.03926464
1.03926464
1.03926464
1.03926464
1.03926464
1.03926464
1.03926463
1.03926463
1.03926463
1.03926463
1.03926463
1.03926463
1.03926462
1.03926462
1.03926462
1.03926462
1.03926462
1.03926461
1.03926461
1.03926461
1.03926461
1.0392646
1.0392646
1.0392646
1.03926459
1.03926459
1.03926459
1.03926458
1.03926458
1.03926457
1.03926457
1.03926456
1.03926456
1.03926455
1.03926455
1.03926454
1.03926454
1.03926453
1.03926453
1.03926452
1.03926451
1.0392645
1.0392645
1.03926449
1.03926448
1.03926447
1.03926446
1.03926445
1.03926444
1.03926443
1.03926442
1.03926441
1.0392644
1.03926438
1.03926437
1.03926436
1.03926434
1.03926433
1.03926431
1.03926429
1.03926428
1.03926426
1.03926424
1.03926422
1.0392642
1.03926418
1.03926416
1.03926413
1.03926411
1.03926408
1.03926406
1.03926403
1.039264
1.03926397
1.03926394
1.03926391
1.03926388
1.03926384
1.0392638
1.03926377
1.03926373
1.03926369
1.03926364
1.0392636
1.03926355
1.03926351
1.03926346
1.0392634
1.03926335
1.03926329
1.03926324
1.03926317
1.03926311
1.03926305
1.03926298
1.03926291
1.03926284
1.03926276
1.03926268
1.0392626
1.03926251
1.03926243
1.03926233
1.03926224
1.03926214
1.03926204
1.03926194
1.03926183
1.03926171
1.0392616
1.03926147
1.03926135
1.03926122
1.03926108
1.03926094
1.0392608
1.03926065
1.03926049
1.03926033
1.03926017
1.03926
1.03925982
1.03925964
1.03925945
1.03925925
1.03925905
1.03925884
1.03925863
1.03925841
1.03925818
1.03925794
1.03925769
1.03925744
1.03925718
1.03925691
1.03925663
1.03925635
1.03925605
1.03925575
1.03925544
1.03925511
1.03925478
1.03925444
1.03925409
1.03925372
1.03925335
1.03925297
1.03925257
1.03925216
1.03925174
1.03925131
1.03925087
1.03925041
1.03924994
1.03924946
1.03924897
1.03924846
1.03924794
1.0392474
1.03924685
1.03924628
1.0392457
1.03924511
1.0392445
1.03924387
1.03924323
1.03924257
1.03924189
1.0392412
1.03924049
1.03923976
1.03923902
1.03923826
1.03923747
1.03923668
1.03923586
1.03923502
1.03923416
1.03923329
1.03923239
1.03923148
1.03923054
1.03922958
1.03922861
1.03922761
1.03922659
1.03922555
1.03922449
1.0392234
1.03922229
1.03922117
1.03922001
1.03921884
1.03921764
1.03921642
1.03921518
1.03921391
1.03921262
1.03921131
1.03920997
1.03920861
1.03920723
1.03920582
1.03920438
1.03920293
1.03920145
1.03919994
1.03919841
1.03919686
1.03919528
1.03919367
1.03919205
1.0391904
1.03918872
1.03918702
1.0391853
1.03918355
1.03918178
1.03917999
1.03917817
1.03917633
1.03917446
1.03917258
1.03917067
1.03916873
1.03916678
1.03916481
1.03916281
1.03916079
1.03915875
1.03915669
1.03915461
1.03915251
1.0391504
1.03914826
1.0391461
1.03914393
1.03914174
1.03913953
1.03913731
1.03913507
1.03913282
1.03913055
1.03912826
1.03912597
1.03912366
1.03912134
1.03911901
1.03911667
1.03911432
1.03911195
1.03910959
1.03910721
1.03910483
1.03910244
1.03910004
1.03909765
1.03909525
1.03909284
1.03909044
1.03908803
1.03908563
1.03908322
1.03908082
1.03907842
1.03907603
1.03907364
1.03907125
1.03906887
1.03906651
1.03906415
1.0390618
1.03905946
1.03905713
1.03905481
1.03905251
1.03905023
1.03904796
1.03904571
1.03904347
1.03904126
1.03903906
1.03903689
1.03903474
1.03903261
1.0390305
1.03902842
1.03902637
1.03902434
1.03902234
1.03902037
1.03901842
1.03901651
1.03901463
1.03901278
1.03901097
1.03900919
1.03900744
1.03900573
1.03900405
1.03900242
1.03900081
1.03899925
1.03899773
1.03899624
1.0389948
1.0389934
1.03899204
1.03899072
1.03898944
1.0389882
1.03898701
1.03898586
1.03898476
1.0389837
1.03898268
1.03898171
1.03898079
1.03897991
1.03897908
1.03897829
1.03897755
1.03897685
1.0389762
1.0389756
1.03897504
1.03897453
1.03897406
1.03897364
1.03897327
1.03897294
1.03897266
1.03897242
1.03897223
1.03897208
1.03897197
1.03897191
1.03897189
1.03897192
1.03897199
1.0389721
1.03897225
1.03897244
1.03897267
1.03897294
1.03897325
1.0389736
1.03897399
1.03897441
1.03897487
1.03897537
1.0389759
1.03897647
1.03897706
1.03897769
1.03897836
1.03897905
1.03897977
1.03898052
1.0389813
1.03898211
1.03898295
1.03898381
1.03898469
1.0389856
1.03898653
1.03898748
1.03898845
1.03898945
1.03899046
1.03899149
1.03899254
1.0389936
1.03899468
1.03899577
1.03899688
1.038998
1.03899913
1.03900027
1.03900142
1.03900258
1.03900375
1.03900493
1.03900611
1.0390073
1.03900849
1.03900969
1.03901089
1.03901209
1.03901329
1.0390145
1.0390157
1.03901691
1.03901811
1.03901931
1.03902051
1.03902171
1.0390229
1.03902409
1.03902527
1.03902645
1.03902762
1.03902879
1.03902995
1.0390311
1.03903225
1.03903338
1.03903451
1.03903563
1.03903674
1.03903784
1.03903893
1.03904001
1.03904108
1.03904214
1.03904318
1.03904422
1.03904525
1.03904626
1.03904726
1.03904825
1.03904923
1.0390502
1.03905116
1.0390521
1.03905303
1.03905395
1.03905485
1.03905575
1.03905663
1.0390575
1.03905836
1.0390592
1.03906004
1.03906086
1.03906167
1.03906247
1.03906326
1.03906403
1.03906479
1.03906555
1.03906629
1.03906702
1.03906774
1.03906845
1.03906915
1.03906984
1.03907051
1.03907118
1.03907184
1.03907249
1.03907313
1.03907376
1.03907438
1.03907499
1.0390756
1.03907619
1.03907678
1.03907736
1.03907793
1.03907849
1.03907904
1.03907959
1.03908013
1.03908067
1.03908119
1.03908171
1.03908223
1.03908274
1.03908324
1.03908373
1.03908422
1.0390847
1.03908518
1.03908566
1.03908612
1.03908658
1.03908704
1.03908749
1.03908794
1.03908838
1.03908882
1.03908926
1.03908969
1.03909011
1.03909053
1.03909095
1.03909136
1.03909177
1.03909217
1.03909257
1.03909297
1.03909336
1.03909375
1.03909414
1.03909452
1.0390949
1.03909528
1.03909565
1.03909602
1.03909638
1.03909675
1.0390971
1.03909746
1.03909781
1.03909816
1.0390985
1.03909885
1.03909919
1.03909952
1.03909985
1.03910018
1.03910051
1.03910083
1.03910115
1.03910147
1.03910178
1.03910209
1.03910239
1.0391027
1.039103
1.0391033
1.03910359
1.03910388
1.03910417
1.03910445
1.03910473
1.03910501
1.03910529
1.03910556
1.03910583
1.03910609
1.03910635
1.03910661
1.03910687
1.03910713
1.03910738
1.03910762
1.03910787
1.03910811
1.03910835
1.03910859
1.03910882
1.03910906
1.03910929
1.03910951
1.03910974
1.03910996
1.03911018
1.0391104
1.03911061
1.03911083
1.03911104
1.03911125
1.03911145
1.03911166
1.03911186
1.03911207
1.03911227
1.03911246
1.03911266
1.03911286
1.03911305
1.03911325
1.03911344
1.03911363
1.03911382
1.03911401
1.0391142
1.03911438
1.03911457
1.03911476
1.03911494
1.03911513
1.03911531
1.0391155
1.03911568
1.03911586
1.03911605
1.03911623
1.03911641
1.0391166
1.03911678
1.03911696
1.03911715
1.03911733
1.03911751
1.0391177
1.03911788
1.03911806
1.03911825
1.03911843
1.03911862
1.0391188
1.03911899
1.03911917
1.03911936
1.03911954
1.03911973
1.03911992
1.0391201
1.03912029
1.03912048
1.03912067
1.03912085
1.03912104
1.03912123
1.03912142
1.03912161
1.03912179
1.03912198
1.03912217
1.03912236
1.03912255
1.03912274
1.03912292
1.03912311
1.0391233
1.03912348
1.03912367
1.03912386
1.03912404
1.03912423
1.03912441
1.03912459
1.03912478
1.03912496
1.03912514
1.03912532
1.0391255
1.03912568
1.03912585
1.03912603
1.0391262
1.03912638
1.03912655
1.03912672
1.03912689
1.03912706
1.03912723
1.0391274
1.03912756
1.03912772
1.03912789
1.03912805
1.03912821
1.03912836
1.03912852
1.03912867
1.03912883
1.03912898
1.03912913
1.03912928
1.03912943
1.03912957
1.03912971
1.03912986
1.03913
1.03913014
1.03913028
1.03913041
1.03913055
1.03913068
1.03913081
1.03913095
1.03913108
1.0391312
1.03913133
1.03913146
1.03913158
1.03913171
1.03913183
1.03913195
1.03913207
1.03913219
1.03913231
1.03913242
1.03913254
1.03913265
1.03913277
1.03913288
1.03913299
1.03913311
1.03913322
1.03913333
1.03913344
1.03913354
1.03913365
1.03913376
1.03913387
1.03913397
1.03913408
1.03913419
1.03913429
1.0391344
1.0391345
1.03913461
1.03913471
1.03913482
1.03913492
1.03913503
1.03913513
1.03913524
1.03913534
1.03913545
1.03913555
1.03913566
1.03913576
1.03913587
1.03913598
1.03913608
1.03913619
1.0391363
1.03913641
1.03913652
1.03913663
1.03913675
1.03913686
1.03913698
1.03913709
1.03913721
1.03913733
1.03913746
1.03913758
1.03913771
1.03913783
1.03913797
1.0391381
1.03913823
1.03913837
1.03913851
1.03913866
1.03913881
1.03913896
1.03913911
1.03913927
1.03913944
1.03913961
1.03913978
1.03913995
1.03914014
1.03914032
1.03914052
1.03914071
1.03914092
1.03914113
1.03914135
1.03914157
1.0391418
1.03914204
1.03914228
1.03914254
1.0391428
1.03914306
1.03914334
1.03914363
1.03914392
1.03914423
1.03914454
1.03914486
1.0391452
1.03914554
1.0391459
1.03914626
1.03914663
1.03914702
1.03914742
1.03914783
1.03914824
1.03914868
1.03914912
1.03914957
1.03915004
1.03915051
1.039151
1.0391515
1.03915201
1.03915253
1.03915307
1.03915361
1.03915417
1.03915473
1.03915531
1.0391559
1.03915649
1.0391571
1.03915771
1.03915833
1.03915896
1.0391596
1.03916025
1.0391609
1.03916156
1.03916222
1.03916289
1.03916356
1.03916423
1.03916491
1.03916559
1.03916627
1.03916695
1.03916764
1.03916832
1.039169
1.03916968
1.03917035
1.03917102
1.03917169
1.03917235
1.03917301
1.03917367
1.03917431
1.03917495
1.03917558
1.03917621
1.03917683
1.03917744
1.03917804
1.03917863
1.03917922
1.03917979
1.03918036
1.03918092
1.03918146
1.039182
1.03918253
1.03918306
1.03918357
1.03918408
1.03918457
1.03918506
1.03918554
1.03918601
1.03918647
1.03918693
1.03918738
1.03918782
1.03918825
1.03918867
1.03918908
1.03918948
1.03918988
1.03919026
1.03919064
1.039191
1.03919135
1.03919169
1.03919201
1.03919232
1.03919261
1.03919289
1.03919315
1.03919339
1.03919361
1.03919381
1.03919398
1.03919414
1.03919427
1.03919437
1.03919445
1.0391945
1.03919452
1.03919452
1.03919449
1.03919443
1.03919435
1.03919424
1.03919411
1.03919395
1.03919377
1.03919357
1.03919335
1.03919312
1.03919287
1.03919261
1.03919234
1.03919207
1.0391918
1.03919152
1.03919125
1.03919098
1.03919072
1.03919047
1.03919024
1.03919002
1.03918982
1.03918963
1.03918946
1.03918931
1.03918919
1.03918908
1.03918899
1.03918891
1.03918886
1.03918882
1.03918879
1.03918878
1.03918878
1.03918879
1.03918881
1.03918884
1.03918888
1.03918894
1.03918898
1.0391896
1.03918965
1.03920484
1.03920488
1.03952955
1.03952928
1.03784946
1.0378722
0.848785227
0.847245086
0.454137704
0.426325131
0.330920181
0.321304524
0.289390572
0.285798594
0.272802562
0.27146502
0.266063851
0.265637922
0.263705579
0.26360443
0.263025369
0.263005932
0.262852251
0.262849375
0.262812952
0.262812652
0.262804867
0.262804839
0.262803321
0.262803309
0.26280303
0.262803021
0.262802969
0.262802962
0.26280295
0.262802945
0.262802941
0.262802939
0.262802938
0.262802938
0.262802939
0.262802942
0.262802945
0.26280295
0.262802956
0.262802963
0.262802971
0.26280298
0.262802991
0.262803002
0.262803015
0.26280303
0.262803045