/*--------------------------------*- C++ -*----------------------------------*\
| =========                 |                                                 |
| \\      /  F ield         | OpenFOAM: The Open Source CFD Toolbox           |
|  \\    /   O peration     | Version:  2206                                  |
|   \\  /    A nd           | Website:  www.openfoam.com                      |
|    \\/     M anipulation  |                                                 |
\*---------------------------------------------------------------------------*/
FoamFile
{
    version     2.0;
    format      ascii;
    arch        "LSB;label=32;scalar=64";
    class       volScalarField;
    location    "2e-05";
    object      sourcePV;
}
// * * * * * * * * * * * * * * * * * * * * * * * * * * * * * * * * * * * * * //

dimensions      [1 -3 -1 0 0 0 0];

internalField   nonuniform List<scalar> 
3183
(
0
0
0
0
0
0
0
0
0
0
0
0
0
0
0
0
0
0
0
0
0
0
0
0
0
0
0
0
0
0
0
0
0
0
0
0
0
0
0
0
0
0
0
0
0
0
0
0
0
0
0
0
0
0
0
0
0
0
0
0
0
0
0
0
0
0
0
0
0
0
0
0
0
0
0
0
0
0
0
0
0
0
0
0
0
0
0
0
0
0
0
0
0
0
0
0
0
0
0
0
0
0
0
0
0
0
0
0
0
0
0
0
0
0
0
0
0
0
0
0
0
0
0
0
0
0
0
0
0
0
0
0
0
0
0
0
0
0
0
0
0
0
0
0
0
0
0
0
0
0
0
0
0
0
0
0
0
0
0
0
0
0
0
0
0
0
0
0
0
0
0
0
0
0
0
0
0
0
0
0
0
0
0
0
0
0
0
0
0
0
0
0
0
0
0
0
0
0
0
0
0
0
0
0
0
0
0
0
0
0
0
0
0
0
0
0
0
0
0
0
0
0
0
0
0
0
0
0
0
0
0
0
0
0
0
0
0
0
0
0
0
0
0
0
0
0
0
0
0
0
0
0
0
0
0
0
0
0
0
0
0
0
0
0
0
0
0
0
0
0
0
0
0
0
0
0
0
0
0
0
0
0
0
0
0
0
0
0
0
0
0
0
0
0
0
0
0
0
0
0
0
0
0
0
0
0
0
0
0
0
0
0
0
0
0
0
0
0
0
0
0
0
0
0
0
0
0
0
0
0
0
0
0
0
0
0
0
0
0
0
0
0
0
0
0
0
0
0
0
0
0
0
0
0
0
0
0
0
0
0
0
0
0
0
0
0
0
0
0
0
0
0
0
0
0
0
0
0
0
0
0
0
0
0
0
0
0
0
0
0
0
0
0
0
0
0
0
0
0
0
0
0
0
0
0
0
0
0
0
0
0
0
0
0
0
0
0
0
0
0
0
0
0
0
0
0
0
0
0
0
0
0
0
0
0
0
0
0
0
0
0
0
0
0
0
0
0
0
0
0
0
0
0
0
0
0
0
0
0
0
0
0
0
0
0
0
0
0
0
0
0
0
0
0
0
0
0
0
0
0
0
0
0
0
0
0
0
0
0
0
0
0
0
0
0
0
0
0
0
0
0
0
0
0
0
0
0
0
0
0
0
0
0
0
0
0
0
0
0
0
0
0
0
0
0
0
0
0
0
0
0
0
0
0
0
0
0
0
0
0
0
0
0
0
0
0
0
0
0
0
0
0
0
0
0
0
0
0
0
0
0
0
0
0
0
0
0
0
0
0
0
0
0
0
0
0
0
0
0
0
0
0
0
0
0
0
0
0
0
0
0
0
0
0
0
0
0
0
0
0
0
0
0
0
0
0
0
0
0
0
0
0
0
0
0
0
0
0
0
0
0
0
0
0
0
0
0
0
0
0
0
0
0
0
0
0
0
0
0
0
0
0
0
0
0
0
0
0
0
0
0
0
0
0
0
0
0
0
0
0
0
0
0
0
0
0
0
0
0
0
0
0
0
0
0
0
0
0
0
0
0
0
0
0
0
0
0
0
0
0
0
0
0
0
0
0
0
0
0
0
0
0
0
0
0
0
0
0
0
0
0
0
0
0
0
0
0
0
0
0
0
0
0
0
0
0
0
0
0
0
0
0
0
0
0
0
0
0
0
0
0
0
0
0
0
0
0
0
0
0
0
0
0
0
0
0
0
0
0
0
0
0
0
0
0
0
0
0
0
0
0
0
0
0
0
0
0
0
0
0
0
0
0
0
0
0
0
0
0
0
0
0
0
0
0
0
0
0
0
0
0
0
0
0
0
0
0
0
0
0
0
0
0
0
0
0
0
0
0
0
0
0
0
0
0
0
0
0
0
0
0
0
0
0
0
0
0
0
0
0
0
0
0
0
0
0
0
0
0
0
0
0
0
0
0
0
0
0
0
0
0
0
0
0
0
0
0
0
0
0
0
0
0
0
0
0
0
0
0
0
0
0
0
0
0
0
0
0
0
0
0
0
0
0
0
0
0
0
0
0
0
0
0
0
0
0
0
0
0
0
0
0
0
0
0
0
0
0
0
0
0
0
0
0
0
0
0
0
0
0
0
0
0
0
0
0
0
0
0
0
0
0
0
0
0
0
0
0
0
0
0
0
0
0
0
0
0
0
0
0
0
0
0
0
0
0
0
0
0
0
0
0
0
0
0
0
0
0
0
0
0
0
0
0
0
0
0
0
0
0
0
0
0
0
0
0
0
0
0
0
0
0
0
0
0
0
0
0
0
0
0
0
0
0
0
0
0
0
0
0
0
0
0
0
0
0
0
0
0
0
0
0
0
0
0
0
0
0
0
0
0
0
0
0
0
0
0
0
0
0
0
0
0
0
0
0
0
0
0
0
0
0
0
0
0
0
0
0
0
0
0
0
0
0
0
0
0
0
0
0
0
0
0
0
0
0
0
0
0
0
0
0
0
0
0
0
0
0
0
0
0
0
0
0
0
0
0
0
0
0
0
0
0
0
0
0
0
0
0
0
0
0
0
0
0
0
0
0
0
0
0
0
0
0
0
0
0
0
0
0
0
0
0
0
0
0
0
0
0
0
0
0
0
0
0
0
0
0
0
0
0
0
0
0
0
0
0
0
0
0
0
0
0
0
0
0
0
0
0
0
0
0
0
0
0
0
0
0
0
0
0
0
0
0
0
0
0
0
0
0
0
0
0
0
0
0
0
0
0
0
0
0
0
0
0
0
0
0
0
0
0
0
0
0
0
0
0
0
0
0
0
0
0
0
0
0
0
0
0
0
0
0
0
0
0
0
0
0
0
0
0
0
0
0
0
0
0
0
0
0
0
0
0
0
0
0
0
0
0
0
0
0
0
0
0
0
0
0
0
0
0
0
0
0
0
0
0
0
0
0
0
0
0
0
0
0
0
0
0
0
0
0
0
0
0
0
0
0
0
0
0
0
0
0
0
0
0
0
0
0
0
0
0
0
0
0
0
0
0
0
0
0
0
0
0
0
0
0
0
0
0
0
0
0
0
0
0
0
0
0
0
0
0
0
0
0
0
0
0
0
0
0
0
0
0
0
0
0
0
0
0
0
0
0
0
0
0
0
0
0
0
0
0
0
0
0
0
0
0
0
0
0
0
0
0
0
0
0
0
0
0
0
0
0
0
0
0
0
0
0
0
0
0
0
0
0
0
0
0
0
0
0
0
0
0
0
0
0
0
0
0
0
0
0
0
0
0
0
0
0
0
0
0
0
0
0
0
0
0
0
0
0
0
0
0
0
0
0
0
0
0
0
0
0
0
0
0
0
0
0
0
0
0
0
0
0
0
0
0
0
0
0
0
0
0
0
0
0
0
0
0
0
0
0
0
0
0
0
0
0
0
0
0
0
0
0
0
0
0
0
0
0
0
0
0
0
0
0
0
0
0
0
0
0
0
0
0
0
0
0
0
0
0
0
0
0
0
0
0
0
0
0
0
0
0
0
0
0
0
0
0
0
0
0
0
0
0
0
0
0
0
0
0
0
0
0
0
0
0
0
0
0
0
0
0
0
0
0
0
0
0
0
0
0
0
0
0
0
0
0
0
0
0
0
0
0
0
0
0
0
0
0
0
0
0
0
0
0
0
0
0
0
0
0
0
0
0
0
0
0
0
0
0
0
0
0
0
0
0
0
0
0
0
0
0
0
0
0
0
0
0
0
0
0
0
0
0
0
0
0
0
0
0
0
0
0
0
0
0
0
0
0
0
0
0
0
0
0
0
0
0
0
0
0
0
0
0
0
0
0
0
0
0
0
0
0
0
0
0
0
0
0
0
0
0
0
0
0
0
0
0
0
0
0
0
0
0
0
0
0
0
0
0
0
0
0
0
0
0
0
0
0
0
0
0
0
0
0
0
0
0
0
0
0
0
0
0
0
0
0
0
0
0
0
0
0
0
0
0
0
0
0
0
0
0
0
0
0
0
0
0
0
0
0
0
0
0
0
0
0
0
0
0
0
0
0
0
0
0
0
0
0
0
0
0
0
0
0
0
0
0
0
0
0
0
0
0
0
0
0
0
0
0
0
0
0
0
0
0
0
0
0
0
0
0
0
0
0
0
0
0
0
0
0
0
0
0
0
0
0
0
0
0
0
0
0
0
0
0
0
0
0
0
0
0
0
0
0
0
0
0
0
0
0
0
0
0
0
0
0
0
0
0
0
0
0
0
0
0
0
0
0
0
0
0
0
0
0
0
0
0
0
0
0
0
0
0
0
0
0
0
0
0
0
0
0
0
0
0
0
0
0
0
0
0
0
0
0
0
0
0
0
0
0
0
0
0
0
0
0
0
0
0
0
0
0
0
0
0
0
0
0
0
0
0
0
0
0
0
0
0
0
0
0
0
0
0
0
0
0
0
0
0
0
0
0
0
0
0
0
0
0
0
0
0
0
0
0
0
0
0
0
0
0
0
0
0
0
0
0
0
0
0
0
0
0
0
0
0
0
0
0
0
0
0
0
0
0
0
0
0
0
0
0
0
0
0
0
0
0
0
0
0
0
0
0
0
0
0
0
0
0
0
0
0
0
0
0
0
0
0
0
0
0
0
0
0
0
0
0
0
0
0
0
0
0
0
0
0
0
0
0
0
0
0
0
0
0
0
0
0
0
0
0
0
0
0
0
0
0
0
0
0
0
0
0
0
0
0
0
0
0
0
0
0
0
0
0
0
0
0
0
0
0
0
0
0
0
0
0
0
0
0
0
0
0
0
0
0
0
0
0
0
0
0
0
0
0
0
0
0
0
0
0
0
0
0
0
0
0
0
0
0
0
0
0
0
0
0
0
0
0
0
0
0
0
0
0
0
0
0
0
0
0
0
0
0
0
0
0
0
0
0
0
0
0
0
0
0
0
0
0
0
0
0
0
0
0
0
0
0
0
0
0
0
0
0
0
0
0
0
0
0
0
0
0
0
0
0
0
0
0
0
0
0
0
0
0
0
0
0
0
0
0
0
0
0
0
0
0
0
0
0
0
0
0
0
0
0
0
0
0
0
0
0
0
0
0
0
0
0
0
0
0
0
0
0
0
0
0
0
0
0
0
0
0
0
0
0
0
0
0
0
0
0
0
0
0
0
0
0
0
0
0
0
0
0
0
0
0
0
0
0
0
0
0
0
0
0
0
0
0
0
0
0
0
0
0
0
0
0
0
0
0
0
0
0
0
0
0
0
0
0
0
0
0
0
0
0
0
0
0
0
0
0
0
0
0
0
0
0
0
0
0
0
0
0
0
0
0
0
0
0
0
0
0
0
0
0
0
0
1.24286602e-300
0
5.72943353e-298
3.4136475e-298
2.61965949e-295
1.5720146e-295
1.18799373e-292
7.17982789e-293
5.34329924e-290
3.25223081e-290
2.3835285e-287
1.46099403e-287
1.05447357e-284
6.50885691e-285
4.62640956e-282
2.87566894e-282
2.01295256e-279
1.25991005e-279
8.68543678e-277
5.47387494e-277
3.71625523e-274
2.35825518e-274
1.57674599e-271
1.00743325e-271
6.63355525e-269
4.26735212e-269
2.76722797e-266
1.79222799e-266
1.14457046e-263
7.4631995e-264
4.69378976e-261
3.08130066e-261
1.90841219e-258
1.26106617e-258
7.69257185e-256
5.11789803e-256
3.07400512e-253
2.05898968e-253
1.21773694e-250
8.21258778e-251
4.78189321e-248
3.24621028e-248
1.86133598e-245
1.27186112e-245
7.18139083e-243
4.93912033e-243
2.74619258e-240
1.90101781e-240
1.04080922e-237
7.25151164e-238
3.90937562e-235
2.7412909e-235
1.45518265e-232
1.02693661e-232
5.36757913e-230
3.81215969e-230
1.96185326e-227
1.40221214e-227
7.10488778e-225
5.11030762e-225
2.54932566e-222
1.84520982e-222
9.06243206e-220
6.60060537e-220
3.19145487e-217
2.33902118e-217
1.1133442e-214
8.21049119e-215
3.84714401e-212
2.85469737e-212
1.31669817e-209
9.8305408e-210
4.46315992e-207
3.35266887e-207
1.49822067e-204
1.13231795e-204
4.98028217e-202
3.78685061e-202
1.63924417e-199
1.2539683e-199
5.34208186e-197
4.11110954e-197
1.72353144e-194
1.33432018e-194
5.50469332e-192
4.28699394e-192
1.74026192e-189
1.36332568e-189
5.44533753e-187
4.2910267e-187
1.68625628e-184
1.33658736e-184
5.16736996e-182
4.11970769e-182
1.56682329e-179
1.25639275e-179
4.70035729e-177
3.790793e-177
1.39494342e-174
1.13144792e-174
4.09496479e-172
3.34034745e-172
1.18894853e-169
9.75331983e-170
3.41385509e-167
2.8162201e-167
9.69269213e-165
8.04047869e-165
2.7208681e-162
2.26957493e-162
7.55055548e-160
6.33284359e-160
2.07110148e-157
1.74657411e-157
5.61455908e-155
4.76046876e-155
1.50404357e-152
1.28210981e-152
3.98081673e-150
3.41153418e-150
1.04084301e-147
8.96720646e-148
2.68801362e-145
2.32797938e-145
6.85551902e-143
5.96821847e-143
1.7263892e-140
1.51070768e-140
4.29191115e-138
3.77494045e-138
1.05316806e-135
9.310107e-136
2.55033888e-133
2.26585494e-133
6.09349605e-131
5.44073057e-131
1.43620182e-128
1.28866946e-128
3.33851322e-126
3.01018435e-126
7.65216181e-124
6.93292112e-124
1.72905764e-121
1.57402468e-121
3.85057753e-119
3.52188644e-119
8.44939914e-117
7.76425525e-117
1.82640574e-114
1.68605777e-114
3.88797345e-112
3.6055872e-112
8.14857951e-110
7.59080894e-110
1.68091478e-107
1.57282638e-107
3.41178362e-105
3.20642115e-105
6.81161302e-103
6.4293586e-103
1.33722765e-100
1.26758106e-100
2.58044656e-98
2.45635742e-98
4.8928101e-96
4.67685989e-96
9.11229408e-94
8.74571634e-94
1.66619717e-91
1.60559973e-91
2.9899827e-89
2.89263349e-89
5.26331222e-87
5.11171931e-87
9.08430712e-85
8.85625671e-85
1.53655965e-82
1.50356678e-82
2.54567226e-80
2.50005688e-80
4.12865225e-78
4.06891978e-78
6.55103432e-76
6.47787772e-76
1.01632997e-73
1.00807971e-73
1.54061336e-71
1.53208776e-71
2.28023365e-69
2.27154045e-69
3.29279687e-67
3.28141974e-67
4.63555692e-65
4.61174493e-65
6.35650015e-63
6.30463575e-63
8.48222896e-61
8.39806665e-61
1.1003699e-58
1.0867123e-58
1.38626272e-56
1.3855429e-56
1.6938676e-54
1.69114503e-54
2.00536694e-52
2.00117151e-52
2.29696448e-50
2.29323602e-50
2.54168356e-48
2.53992547e-48
2.71269453e-46
2.71142109e-46
2.78762835e-44
2.78230304e-44
2.75289589e-42
2.74057684e-42
2.60698785e-40
2.58972898e-40
2.36184124e-38
2.34256945e-38
2.04165161e-36
2.02330015e-36
1.67900274e-34
1.66378382e-34
1.30923363e-32
1.29830294e-32
9.64364952e-31
9.57905479e-31
6.68114433e-29
6.65555034e-29
4.33194972e-27
4.33054652e-27
2.61352298e-25
2.60728736e-25
1.45733946e-23
1.45178978e-23
7.44907393e-22
7.42006074e-22
3.45577813e-20
3.44651098e-20
1.43737405e-18
1.43566482e-18
5.27767672e-17
5.274755e-17
1.67642008e-15
1.67528423e-15
4.48188815e-14
4.48355148e-14
9.69521244e-13
9.68582347e-13
2.58575067e-11
2.57942912e-11
2.93066598e-08
3.04436097e-08
0.0352330469
0.151595035
5.80491903
7.28499005
9.92837148
9.36170946
4.53796497
3.8332653
1.04744119
0.868417658
0.217896395
0.193474927
0.0536663533
0.048977155
0.0118758876
0.0111860623
0.00239600678
0.00232786617
0.00045203171
0.000448770171
8.53693198e-05
8.52536025e-05
2.04008797e-05
2.04062062e-05
9.66005068e-06
9.66147732e-06
7.99667844e-06
7.99717569e-06
7.75502779e-06
7.7550682e-06
7.7218457e-06
7.72185332e-06
7.71752496e-06
7.71754006e-06
7.71698379e-06
7.71700426e-06
7.71693612e-06
7.71692134e-06
7.71693502e-06
7.71690512e-06
7.7169337e-06
7.71691373e-06
7.71692424e-06
7.71692318e-06
7.71693652e-06
7.71691758e-06
7.71692924e-06
7.71692524e-06
7.71692928e-06
7.71692932e-06
7.71693086e-06
7.71693264e-06
7.71693382e-06
7.71692646e-06
7.71692786e-06
7.7169311e-06
7.71692325e-06
7.7169391e-06
7.71692127e-06
7.71693831e-06
7.7169165e-06
7.71692551e-06
7.71692001e-06
7.716927e-06
7.71691793e-06
7.71692242e-06
7.7169128e-06
7.71693111e-06
7.71691246e-06
7.71693779e-06
7.71690759e-06
7.71692917e-06
7.71691411e-06
7.71693231e-06
7.71691303e-06
7.71694076e-06
7.71689671e-06
7.71694442e-06
7.71692183e-06
7.71693716e-06
7.71692026e-06
7.71692713e-06
7.71692499e-06
7.71691647e-06
7.71693242e-06
7.71691601e-06
7.71692567e-06
7.71690578e-06
7.71693805e-06
7.71691186e-06
7.71694868e-06
7.71690859e-06
7.71694061e-06
7.71691467e-06
7.71694529e-06
7.7169152e-06
7.71693626e-06
7.71691624e-06
7.71693062e-06
7.71692982e-06
7.71693099e-06
7.71691722e-06
7.7169329e-06
7.71692698e-06
7.71692268e-06
7.71692916e-06
7.71692467e-06
7.71692677e-06
7.71693479e-06
7.7169237e-06
7.71693024e-06
7.71691901e-06
7.71692064e-06
7.71692078e-06
7.71691947e-06
7.71693088e-06
7.71690584e-06
7.71693834e-06
7.71691582e-06
7.71693815e-06
7.71691189e-06
7.71694209e-06
7.7169125e-06
7.71693292e-06
7.71692035e-06
7.71693035e-06
7.71691486e-06
7.71694031e-06
7.71691686e-06
7.71694644e-06
7.71692019e-06
7.71693579e-06
7.71692836e-06
7.71694089e-06
7.71692753e-06
7.71693748e-06
7.7169215e-06
7.71693286e-06
7.71692372e-06
7.71692451e-06
7.71692267e-06
7.71692104e-06
7.71691713e-06
7.71693309e-06
7.7169075e-06
7.71692793e-06
7.71691242e-06
7.71692918e-06
7.71692034e-06
7.71691914e-06
7.71694181e-06
7.71690774e-06
7.7169302e-06
7.7169175e-06
7.71694374e-06
7.71691619e-06
7.71693158e-06
7.71691493e-06
7.71694129e-06
7.71690416e-06
7.71694674e-06
7.71691557e-06
7.71694565e-06
7.71692158e-06
7.71694543e-06
7.71692376e-06
7.71693321e-06
7.71692304e-06
7.7169248e-06
7.716918e-06
7.7169252e-06
7.71692e-06
7.7169225e-06
7.71694551e-06
7.71692684e-06
7.71703805e-06
7.71704774e-06
7.71750173e-06
7.71755182e-06
7.71866391e-06
7.71865211e-06
7.71750364e-06
7.71750097e-06
7.71703715e-06
7.71702563e-06
7.71694557e-06
7.71693793e-06
7.71693626e-06
7.71692791e-06
7.71692347e-06
7.71693498e-06
7.71692094e-06
7.71694261e-06
7.71692145e-06
7.71693599e-06
7.71691862e-06
7.71693034e-06
7.71692445e-06
7.71693652e-06
7.71691769e-06
7.71693893e-06
7.71692004e-06
7.71695049e-06
7.71692093e-06
7.71694217e-06
7.71691594e-06
7.71694101e-06
7.71692655e-06
7.71693809e-06
7.71692129e-06
7.71692848e-06
7.71693123e-06
7.71692194e-06
7.71692675e-06
7.71693112e-06
7.71693004e-06
7.71692343e-06
7.71693398e-06
7.71693468e-06
7.71693897e-06
7.71692127e-06
7.71693952e-06
7.71692386e-06
7.71694481e-06
7.71693449e-06
7.71692667e-06
7.71693629e-06
7.71691507e-06
7.7169497e-06
7.71691611e-06
7.71693747e-06
7.71692606e-06
7.71693616e-06
7.71693356e-06
7.71692755e-06
7.71693923e-06
7.71693111e-06
7.71693923e-06
7.71692785e-06
7.71693855e-06
7.71693568e-06
7.71695379e-06
7.71691543e-06
7.71694851e-06
7.7169232e-06
7.71694468e-06
7.71692697e-06
7.71693821e-06
7.71692913e-06
7.7169219e-06
7.71693272e-06
7.71693843e-06
7.71692408e-06
7.71693202e-06
7.71693403e-06
7.7169272e-06
7.71692504e-06
7.71693436e-06
7.71693088e-06
7.71694554e-06
7.71692467e-06
7.71694751e-06
7.71693629e-06
7.71692821e-06
7.71694197e-06
7.7169139e-06
7.71694168e-06
7.71691387e-06
7.7169314e-06
7.71692157e-06
7.7169429e-06
7.71692472e-06
7.71693316e-06
7.71692586e-06
7.71692665e-06
7.71693188e-06
7.71692648e-06
7.71693215e-06
7.71692851e-06
7.71692624e-06
7.71693407e-06
7.71692728e-06
7.71693391e-06
7.71693643e-06
7.71692516e-06
7.71692633e-06
7.71692686e-06
7.71693682e-06
7.71692676e-06
7.71693901e-06
7.71693499e-06
7.71693334e-06
7.71693921e-06
7.71692215e-06
7.71692695e-06
7.71693304e-06
7.71692411e-06
7.71693741e-06
7.71693525e-06
7.71694143e-06
7.71693155e-06
7.71693285e-06
7.71694006e-06
7.71693724e-06
7.71693149e-06
7.7169394e-06
7.71692972e-06
7.71693463e-06
7.71692442e-06
7.71693935e-06
7.7169146e-06
7.71693682e-06
7.71691855e-06
7.7169346e-06
7.71693252e-06
7.71693524e-06
7.71693607e-06
7.71692053e-06
7.716945e-06
7.71691768e-06
7.71695185e-06
7.7169097e-06
7.71695088e-06
7.71692259e-06
7.71694364e-06
7.71692486e-06
7.71694117e-06
7.71692042e-06
7.71694153e-06
7.71692897e-06
7.71694559e-06
7.71692235e-06
7.7169334e-06
7.71693335e-06
7.71693615e-06
7.71693729e-06
7.71692639e-06
7.71694997e-06
7.71692793e-06
7.71693306e-06
7.71694216e-06
7.71693757e-06
7.71693096e-06
7.71693854e-06
7.71694049e-06
7.7169279e-06
7.71693675e-06
7.71692812e-06
7.716949e-06
7.71692857e-06
7.71693555e-06
7.71693931e-06
7.71693586e-06
7.71693221e-06
7.71692492e-06
7.71693231e-06
7.71693241e-06
7.71693308e-06
7.71693872e-06
7.71693631e-06
7.71694143e-06
7.7169315e-06
7.71693614e-06
7.71693309e-06
7.71693954e-06
7.71692994e-06
7.71694038e-06
7.7169373e-06
7.71694686e-06
7.71692851e-06
7.71693859e-06
7.71693621e-06
7.71694242e-06
7.71693828e-06
7.71695005e-06
7.71693577e-06
7.71694369e-06
7.71693114e-06
7.71694627e-06
7.71693069e-06
7.71694578e-06
7.71693924e-06
7.71694737e-06
7.71693055e-06
7.71694997e-06
7.71693305e-06
7.71692959e-06
7.71694548e-06
7.71692638e-06
7.71694329e-06
7.71692731e-06
7.71693496e-06
7.71692883e-06
7.71693324e-06
7.71694255e-06
7.71694407e-06
7.71693346e-06
7.71693939e-06
7.71693762e-06
7.71694341e-06
7.71694185e-06
7.71693225e-06
7.71693057e-06
7.71694652e-06
7.7169214e-06
7.71694616e-06
7.71692267e-06
7.71694611e-06
7.71693972e-06
7.71694069e-06
7.71693878e-06
7.71693343e-06
7.71695196e-06
7.71692919e-06
7.71694119e-06
7.71693657e-06
7.71692881e-06
7.71694333e-06
7.71694517e-06
7.71694392e-06
7.71693876e-06
7.71694485e-06
7.71693203e-06
7.71695147e-06
7.71693397e-06
7.71695393e-06
7.71693847e-06
7.71694693e-06
7.716941e-06
7.71694474e-06
7.71693324e-06
7.71694604e-06
7.71694879e-06
7.71694271e-06
7.71695314e-06
7.71694053e-06
7.7169469e-06
7.71693738e-06
7.71694352e-06
7.71694406e-06
7.71693908e-06
7.71694555e-06
7.71693525e-06
7.71694727e-06
7.71694326e-06
7.71695247e-06
7.71693849e-06
7.71694821e-06
7.71693866e-06
7.71694158e-06
7.71694058e-06
7.71694417e-06
7.71693688e-06
7.71693411e-06
7.71693184e-06
7.71693529e-06
7.71694339e-06
7.71694187e-06
7.71693274e-06
7.71695448e-06
7.7169374e-06
7.71694891e-06
7.71692289e-06
7.7169522e-06
7.71693131e-06
7.71695625e-06
7.71694064e-06
7.71694777e-06
7.71694514e-06
7.71694316e-06
7.71693849e-06
7.71694983e-06
7.71693594e-06
7.71694181e-06
7.71693928e-06
7.71694332e-06
7.71693897e-06
7.71694941e-06
7.71694144e-06
7.71694182e-06
7.71693657e-06
7.71693939e-06
7.716947e-06
7.71694192e-06
7.71693463e-06
7.71694109e-06
7.71693891e-06
7.71693048e-06
7.71695381e-06
7.71692828e-06
7.71695292e-06
7.71693892e-06
7.71695601e-06
7.71693063e-06
7.7169636e-06
7.71692751e-06
7.71696183e-06
7.71693603e-06
7.71693771e-06
7.71694691e-06
7.71693893e-06
7.71694111e-06
7.71694291e-06
7.71694865e-06
7.71694431e-06
7.71693111e-06
7.71694987e-06
7.71694217e-06
7.71694376e-06
7.71694689e-06
7.71694455e-06
7.71693622e-06
7.71694495e-06
7.71694127e-06
7.71694548e-06
7.71694083e-06
7.71694654e-06
7.71694616e-06
7.71694221e-06
7.71694274e-06
7.71694491e-06
7.71694565e-06
7.71694615e-06
7.71694341e-06
7.71694683e-06
7.71694445e-06
7.71694562e-06
7.71694613e-06
7.71694741e-06
7.7169461e-06
7.71694708e-06
7.71694819e-06
7.71694864e-06
7.71694809e-06
7.71694935e-06
7.71694997e-06
7.71694983e-06
7.7169508e-06
7.71695153e-06
7.71695293e-06
7.7169533e-06
7.71695408e-06
7.71695522e-06
7.71695585e-06
7.71695712e-06
7.7169587e-06
7.7169602e-06
7.71696099e-06
7.71696319e-06
7.71696498e-06
7.71696723e-06
7.7169696e-06
7.71697235e-06
7.71697588e-06
7.71697996e-06
7.71698443e-06
7.71698907e-06
7.7169936e-06
7.71699793e-06
7.71700148e-06
7.7170031e-06
7.71700451e-06
7.71700497e-06
7.71700495e-06
7.71700528e-06
7.71700532e-06
7.71700515e-06
7.71700542e-06
7.71700512e-06
7.7170051e-06
7.71700514e-06
7.71700516e-06
7.71700508e-06
7.71700505e-06
7.71700513e-06
7.71700516e-06
7.71700492e-06
7.71700539e-06
)
;

boundaryField
{
    closed
    {
        type            calculated;
        value           uniform 0;
    }
    open
    {
        type            calculated;
        value           uniform 0;
    }
    sides
    {
        type            empty;
    }
}


// ************************************************************************* //
