/*--------------------------------*- C++ -*----------------------------------*\
| =========                 |                                                 |
| \\      /  F ield         | OpenFOAM: The Open Source CFD Toolbox           |
|  \\    /   O peration     | Version:  2206                                  |
|   \\  /    A nd           | Website:  www.openfoam.com                      |
|    \\/     M anipulation  |                                                 |
\*---------------------------------------------------------------------------*/
FoamFile
{
    version     2.0;
    format      ascii;
    arch        "LSB;label=32;scalar=64";
    class       volVectorField;
    location    "2e-05";
    object      U;
}
// * * * * * * * * * * * * * * * * * * * * * * * * * * * * * * * * * * * * * //

dimensions      [0 1 -1 0 0 0 0];

internalField   nonuniform List<vector> 
3183
(
(6.11252855e-13 0 0)
(3.38753442e-13 0 0)
(-4.55037463e-13 0 0)
(-6.08524714e-13 0 0)
(-2.12048497e-13 0 0)
(-1.85127974e-17 0 0)
(-1.3673382e-18 0 0)
(-1.4861952e-22 0 0)
(2.54553425e-19 0 0)
(6.05003526e-18 0 0)
(8.55437211e-14 0 0)
(4.04930289e-13 0 0)
(8.96070167e-13 0 0)
(4.08500751e-13 0 0)
(2.48132175e-13 0 0)
(-5.88656967e-14 0 0)
(-4.99202157e-13 0 0)
(-8.38727044e-13 0 0)
(-1.18613803e-12 0 0)
(-4.10358454e-13 0 0)
(3.59964656e-13 0 0)
(1.25064187e-13 0 0)
(1.78717799e-13 0 0)
(6.46630064e-13 0 0)
(8.89947997e-13 0 0)
(9.42334863e-13 0 0)
(7.65963013e-13 0 0)
(5.07856847e-13 0 0)
(2.07545588e-13 0 0)
(2.39512718e-13 0 0)
(8.40504715e-15 0 0)
(9.06894302e-14 0 0)
(-3.31948806e-13 0 0)
(-7.53470023e-13 0 0)
(-9.48589714e-13 0 0)
(-9.9910532e-13 0 0)
(-8.46347916e-13 0 0)
(-5.06724855e-13 0 0)
(-2.61932284e-13 0 0)
(-3.24754979e-13 0 0)
(-1.03797959e-13 0 0)
(3.8881965e-13 0 0)
(9.85435233e-13 0 0)
(5.85537092e-13 0 0)
(5.79004682e-13 0 0)
(4.54757893e-13 0 0)
(-4.63247008e-13 0 0)
(-1.22169844e-12 0 0)
(-1.93323043e-12 0 0)
(-2.39198699e-12 0 0)
(-3.05973922e-12 0 0)
(-3.50602983e-12 0 0)
(-4.49451363e-12 0 0)
(-4.61470743e-12 0 0)
(-5.05025295e-12 0 0)
(-5.60721468e-12 0 0)
(-5.9113026e-12 0 0)
(-6.12658502e-12 0 0)
(-6.47085786e-12 0 0)
(-6.51129423e-12 0 0)
(-6.920948e-12 0 0)
(-7.87591404e-12 0 0)
(-7.63875812e-12 0 0)
(-8.53557182e-12 0 0)
(-8.31811145e-12 0 0)
(-8.98360051e-12 0 0)
(-9.4060461e-12 0 0)
(-9.37628116e-12 0 0)
(-9.73778132e-12 0 0)
(-1.02278291e-11 0 0)
(-1.04516649e-11 0 0)
(-1.05768416e-11 0 0)
(-1.00221789e-11 0 0)
(-1.07746085e-11 0 0)
(-1.15230738e-11 0 0)
(-1.0854456e-11 0 0)
(-1.13037242e-11 0 0)
(-1.06276722e-11 0 0)
(-1.07600707e-11 0 0)
(-1.07170434e-11 0 0)
(-1.18358836e-11 0 0)
(-1.04503287e-11 0 0)
(-1.07014482e-11 0 0)
(-1.13889381e-11 0 0)
(-1.12913677e-11 0 0)
(-1.0850857e-11 0 0)
(-1.08735118e-11 0 0)
(-1.18672629e-11 0 0)
(-1.09696733e-11 0 0)
(-1.19705134e-11 0 0)
(-1.2257719e-11 0 0)
(-1.21628422e-11 0 0)
(-1.23281246e-11 0 0)
(-1.24873073e-11 0 0)
(-1.2143247e-11 0 0)
(-1.33297696e-11 0 0)
(-1.143504e-11 0 0)
(-1.2977257e-11 0 0)
(-1.2850926e-11 0 0)
(-1.32429133e-11 0 0)
(-1.23526227e-11 0 0)
(-1.30305398e-11 0 0)
(-1.30679232e-11 0 0)
(-1.27376628e-11 0 0)
(-1.22355781e-11 0 0)
(-1.34422626e-11 0 0)
(-1.40232781e-11 0 0)
(-1.37485956e-11 0 0)
(-1.44001577e-11 0 0)
(-1.39107031e-11 0 0)
(-1.32995398e-11 0 0)
(-1.32128959e-11 0 0)
(-1.35829947e-11 0 0)
(-1.54276224e-11 0 0)
(-1.36902087e-11 0 0)
(-1.46056894e-11 0 0)
(-1.4721324e-11 0 0)
(-1.43072581e-11 0 0)
(-1.43350139e-11 0 0)
(-1.60920492e-11 0 0)
(-1.56092994e-11 0 0)
(-1.49575756e-11 0 0)
(-1.46928085e-11 0 0)
(-1.56360073e-11 0 0)
(-1.49991084e-11 0 0)
(-1.62754403e-11 0 0)
(-1.58488474e-11 0 0)
(-1.69938856e-11 0 0)
(-1.5282813e-11 0 0)
(-1.67578144e-11 0 0)
(-1.62173731e-11 0 0)
(-1.56736951e-11 0 0)
(-1.63552895e-11 0 0)
(-1.74650794e-11 0 0)
(-1.51873716e-11 0 0)
(-1.64442899e-11 0 0)
(-1.61644374e-11 0 0)
(-1.64282573e-11 0 0)
(-1.5036163e-11 0 0)
(-1.49962543e-11 0 0)
(-1.58157505e-11 0 0)
(-1.54501071e-11 0 0)
(-1.66374269e-11 0 0)
(-1.54566114e-11 0 0)
(-1.5361067e-11 0 0)
(-1.58762702e-11 0 0)
(-1.51003331e-11 0 0)
(-1.61342613e-11 0 0)
(-1.47890729e-11 0 0)
(-1.53934484e-11 0 0)
(-1.60665692e-11 0 0)
(-1.6025821e-11 0 0)
(-1.61822968e-11 0 0)
(-1.53485615e-11 0 0)
(-1.53811968e-11 0 0)
(-1.56094992e-11 0 0)
(-1.61695805e-11 0 0)
(-1.55874815e-11 0 0)
(-1.61978856e-11 0 0)
(-1.65377697e-11 0 0)
(-1.62995206e-11 0 0)
(-1.60676635e-11 0 0)
(-1.63176136e-11 0 0)
(-1.65598913e-11 0 0)
(-1.63830623e-11 0 0)
(-1.59915476e-11 0 0)
(-1.55769373e-11 0 0)
(-1.57351112e-11 0 0)
(-1.60876624e-11 0 0)
(-1.66662713e-11 0 0)
(-1.65874886e-11 0 0)
(-1.57702412e-11 0 0)
(-1.68629222e-11 0 0)
(-1.57481421e-11 0 0)
(-1.49739759e-11 0 0)
(-1.6063295e-11 0 0)
(-1.65420826e-11 0 0)
(-1.54954712e-11 0 0)
(-1.62091358e-11 0 0)
(-1.65960098e-11 0 0)
(-1.56726145e-11 0 0)
(-1.52003048e-11 0 0)
(-1.55735478e-11 0 0)
(-1.63082992e-11 0 0)
(-1.7237379e-11 0 0)
(-1.73208558e-11 0 0)
(-1.67333074e-11 0 0)
(-1.61194685e-11 0 0)
(-1.79242967e-11 0 0)
(-1.71272818e-11 0 0)
(-1.79691608e-11 0 0)
(-1.74577615e-11 0 0)
(-1.81011344e-11 0 0)
(-1.75540947e-11 0 0)
(-1.84280741e-11 0 0)
(-1.76571446e-11 0 0)
(-1.74076501e-11 0 0)
(-1.81580004e-11 0 0)
(-1.8258727e-11 0 0)
(-1.86609498e-11 0 0)
(-1.8802752e-11 0 0)
(-1.79929478e-11 0 0)
(-1.85470111e-11 0 0)
(-1.73418204e-11 0 0)
(-1.82363118e-11 0 0)
(-1.75709211e-11 0 0)
(-1.80864072e-11 0 0)
(-1.83800703e-11 0 0)
(-1.87320124e-11 0 0)
(-1.78708123e-11 0 0)
(-1.75993358e-11 0 0)
(-1.84033147e-11 0 0)
(-1.81203988e-11 0 0)
(-1.78901369e-11 0 0)
(-1.7976766e-11 0 0)
(-1.82917969e-11 0 0)
(-1.88217325e-11 0 0)
(-1.87332573e-11 0 0)
(-1.85027945e-11 0 0)
(-1.8728494e-11 0 0)
(-1.99149305e-11 0 0)
(-1.88919056e-11 0 0)
(-2.00048639e-11 0 0)
(-1.90541536e-11 0 0)
(-1.85577921e-11 0 0)
(-2.00061484e-11 0 0)
(-1.94543685e-11 0 0)
(-1.98466903e-11 0 0)
(-2.01043914e-11 0 0)
(-1.87859787e-11 0 0)
(-1.9579479e-11 0 0)
(-1.91509437e-11 0 0)
(-1.80099454e-11 0 0)
(-1.83116837e-11 0 0)
(-1.85861373e-11 0 0)
(-1.84643592e-11 0 0)
(-1.87158949e-11 0 0)
(-1.87738695e-11 0 0)
(-1.81015861e-11 0 0)
(-1.91468304e-11 0 0)
(-1.94404897e-11 0 0)
(-1.90519272e-11 0 0)
(-1.86792314e-11 0 0)
(-1.7767387e-11 0 0)
(-1.86621358e-11 0 0)
(-1.84596541e-11 0 0)
(-1.73976011e-11 0 0)
(-1.82175373e-11 0 0)
(-1.78221751e-11 0 0)
(-1.86604733e-11 0 0)
(-1.85829595e-11 0 0)
(-1.85764028e-11 0 0)
(-1.93786292e-11 0 0)
(-1.9102537e-11 0 0)
(-1.91111235e-11 0 0)
(-1.89618271e-11 0 0)
(-1.85995047e-11 0 0)
(-1.80191195e-11 0 0)
(-1.83240287e-11 0 0)
(-1.98039294e-11 0 0)
(-1.85850942e-11 0 0)
(-1.95264308e-11 0 0)
(-1.91154969e-11 0 0)
(-1.92157965e-11 0 0)
(-1.90674416e-11 0 0)
(-2.05709085e-11 0 0)
(-1.93416527e-11 0 0)
(-2.00781742e-11 0 0)
(-1.95106609e-11 0 0)
(-1.92289572e-11 0 0)
(-1.95231776e-11 0 0)
(-1.9533551e-11 0 0)
(-2.02589704e-11 0 0)
(-1.8855198e-11 0 0)
(-2.05049875e-11 0 0)
(-1.94023737e-11 0 0)
(-1.96577924e-11 0 0)
(-2.10493646e-11 0 0)
(-2.07242948e-11 0 0)
(-1.96047284e-11 0 0)
(-2.07071268e-11 0 0)
(-2.06307625e-11 0 0)
(-2.0554543e-11 0 0)
(-2.20559223e-11 0 0)
(-2.00030957e-11 0 0)
(-2.13410956e-11 0 0)
(-2.01396036e-11 0 0)
(-2.14516101e-11 0 0)
(-2.1481288e-11 0 0)
(-2.15267306e-11 0 0)
(-2.10544952e-11 0 0)
(-2.1325811e-11 0 0)
(-2.11853755e-11 0 0)
(-1.96493277e-11 0 0)
(-2.06498384e-11 0 0)
(-2.10312654e-11 0 0)
(-2.07984552e-11 0 0)
(-2.10091499e-11 0 0)
(-2.04801695e-11 0 0)
(-2.10145455e-11 0 0)
(-2.1198988e-11 0 0)
(-2.02287757e-11 0 0)
(-2.1147611e-11 0 0)
(-2.10459698e-11 0 0)
(-2.18299315e-11 0 0)
(-2.23199542e-11 0 0)
(-2.1529441e-11 0 0)
(-2.15587272e-11 0 0)
(-2.31231734e-11 0 0)
(-2.21138184e-11 0 0)
(-2.31282292e-11 0 0)
(-2.19590671e-11 0 0)
(-2.15111262e-11 0 0)
(-2.24665546e-11 0 0)
(-2.18624967e-11 0 0)
(-2.26480594e-11 0 0)
(-2.15904408e-11 0 0)
(-2.29023331e-11 0 0)
(-2.24608414e-11 0 0)
(-2.21929445e-11 0 0)
(-2.25868648e-11 0 0)
(-2.2057395e-11 0 0)
(-2.29110023e-11 0 0)
(-2.23888598e-11 0 0)
(-2.17693247e-11 0 0)
(-2.18772282e-11 0 0)
(-2.18469267e-11 0 0)
(-2.29579412e-11 0 0)
(-2.26964104e-11 0 0)
(-2.17792351e-11 0 0)
(-2.15373729e-11 0 0)
(-2.15925202e-11 0 0)
(-2.17883683e-11 0 0)
(-2.08412134e-11 0 0)
(-2.04318935e-11 0 0)
(-1.99926965e-11 0 0)
(-2.08195055e-11 0 0)
(-2.01746245e-11 0 0)
(-2.04816999e-11 0 0)
(-2.13597301e-11 0 0)
(-2.06761851e-11 0 0)
(-2.09493549e-11 0 0)
(-2.05555466e-11 0 0)
(-2.01571855e-11 0 0)
(-2.06183425e-11 0 0)
(-2.03727694e-11 0 0)
(-2.09974352e-11 0 0)
(-2.02013865e-11 0 0)
(-2.11325011e-11 0 0)
(-2.04905359e-11 0 0)
(-2.1040837e-11 0 0)
(-2.08087324e-11 0 0)
(-2.04256753e-11 0 0)
(-1.93584999e-11 0 0)
(-2.0100978e-11 0 0)
(-1.96548119e-11 0 0)
(-2.05677118e-11 0 0)
(-2.05896589e-11 0 0)
(-2.03860797e-11 0 0)
(-1.96372956e-11 0 0)
(-2.03152943e-11 0 0)
(-2.15520156e-11 0 0)
(-2.08728413e-11 0 0)
(-2.0799355e-11 0 0)
(-2.04516556e-11 0 0)
(-2.10382176e-11 0 0)
(-1.9963939e-11 0 0)
(-2.07285866e-11 0 0)
(-1.97682201e-11 0 0)
(-2.03992577e-11 0 0)
(-1.97525229e-11 0 0)
(-1.97102542e-11 0 0)
(-1.97421472e-11 0 0)
(-1.956985e-11 0 0)
(-1.94999628e-11 0 0)
(-2.0773401e-11 0 0)
(-1.93724132e-11 0 0)
(-1.96282509e-11 0 0)
(-1.97287247e-11 0 0)
(-2.10937994e-11 0 0)
(-1.93134914e-11 0 0)
(-1.86519405e-11 0 0)
(-1.9250945e-11 0 0)
(-1.8854292e-11 0 0)
(-1.91605069e-11 0 0)
(-1.91890006e-11 0 0)
(-1.93128185e-11 0 0)
(-1.95235692e-11 0 0)
(-2.01155273e-11 0 0)
(-1.91652819e-11 0 0)
(-1.94226503e-11 0 0)
(-1.94035264e-11 0 0)
(-1.9413629e-11 0 0)
(-1.88577863e-11 0 0)
(-1.78900493e-11 0 0)
(-1.85284671e-11 0 0)
(-1.87562025e-11 0 0)
(-1.85043676e-11 0 0)
(-1.85510687e-11 0 0)
(-1.75955614e-11 0 0)
(-1.85101216e-11 0 0)
(-1.8636672e-11 0 0)
(-1.76669132e-11 0 0)
(-1.80749341e-11 0 0)
(-1.69881657e-11 0 0)
(-1.70822629e-11 0 0)
(-1.72394805e-11 0 0)
(-1.6702742e-11 0 0)
(-1.70837239e-11 0 0)
(-1.73897563e-11 0 0)
(-1.72993309e-11 0 0)
(-1.67384916e-11 0 0)
(-1.55943928e-11 0 0)
(-1.53951202e-11 0 0)
(-1.7147779e-11 0 0)
(-1.67602364e-11 0 0)
(-1.62728438e-11 0 0)
(-1.48002304e-11 0 0)
(-1.51323373e-11 0 0)
(-1.6028456e-11 0 0)
(-1.52415917e-11 0 0)
(-1.54871947e-11 0 0)
(-1.44440192e-11 0 0)
(-1.40100165e-11 0 0)
(-1.44179132e-11 0 0)
(-1.4707469e-11 0 0)
(-1.47362562e-11 0 0)
(-1.41894891e-11 0 0)
(-1.44391665e-11 0 0)
(-1.45004285e-11 0 0)
(-1.44246015e-11 0 0)
(-1.42190076e-11 0 0)
(-1.41326412e-11 0 0)
(-1.39796441e-11 0 0)
(-1.32508075e-11 0 0)
(-1.43123039e-11 0 0)
(-1.41484528e-11 0 0)
(-1.37271473e-11 0 0)
(-1.34301261e-11 0 0)
(-1.40165328e-11 0 0)
(-1.32676933e-11 0 0)
(-1.42408444e-11 0 0)
(-1.41960561e-11 0 0)
(-1.4506732e-11 0 0)
(-1.3575655e-11 0 0)
(-1.27469462e-11 0 0)
(-1.29390013e-11 0 0)
(-1.33483999e-11 0 0)
(-1.28795951e-11 0 0)
(-1.23556237e-11 0 0)
(-1.35676113e-11 0 0)
(-1.2956266e-11 0 0)
(-1.28654331e-11 0 0)
(-1.31795404e-11 0 0)
(-1.24793355e-11 0 0)
(-1.17401888e-11 0 0)
(-1.18994265e-11 0 0)
(-1.11932991e-11 0 0)
(-1.27338833e-11 0 0)
(-1.22718114e-11 0 0)
(-1.18694173e-11 0 0)
(-1.08060643e-11 0 0)
(-1.17293919e-11 0 0)
(-1.1269094e-11 0 0)
(-1.15151781e-11 0 0)
(-1.19924412e-11 0 0)
(-1.10668831e-11 0 0)
(-1.07767203e-11 0 0)
(-1.05481119e-11 0 0)
(-1.0166111e-11 0 0)
(-1.08891928e-11 0 0)
(-1.05524411e-11 0 0)
(-1.10108115e-11 0 0)
(-9.94043222e-12 0 0)
(-9.62886792e-12 0 0)
(-9.84063872e-12 0 0)
(-1.08650814e-11 0 0)
(-1.06210815e-11 0 0)
(-1.05893478e-11 0 0)
(-1.0429392e-11 0 0)
(-1.01004162e-11 0 0)
(-9.75136467e-12 0 0)
(-1.01072326e-11 0 0)
(-9.9111643e-12 0 0)
(-8.97048429e-12 0 0)
(-9.25521992e-12 0 0)
(-1.00971218e-11 0 0)
(-9.9630158e-12 0 0)
(-1.00571226e-11 0 0)
(-9.82130591e-12 0 0)
(-1.03626425e-11 0 0)
(-9.87838186e-12 0 0)
(-1.05176457e-11 0 0)
(-1.02202176e-11 0 0)
(-1.02065392e-11 0 0)
(-1.03048151e-11 0 0)
(-1.06295315e-11 0 0)
(-1.0091754e-11 0 0)
(-1.09284748e-11 0 0)
(-1.04396428e-11 0 0)
(-1.07690984e-11 0 0)
(-9.98578921e-12 0 0)
(-9.34222041e-12 0 0)
(-9.03879765e-12 0 0)
(-9.84334634e-12 0 0)
(-1.01816097e-11 0 0)
(-9.83403435e-12 0 0)
(-7.63535442e-12 0 0)
(-8.68439548e-12 0 0)
(-8.236435e-12 0 0)
(-8.26310099e-12 0 0)
(-9.40273527e-12 0 0)
(-8.88819483e-12 0 0)
(-8.32676822e-12 0 0)
(-8.47499552e-12 0 0)
(-8.90036084e-12 0 0)
(-8.55433412e-12 0 0)
(-8.13915834e-12 0 0)
(-8.21911458e-12 0 0)
(-8.29766281e-12 0 0)
(-8.75241812e-12 0 0)
(-8.56018402e-12 0 0)
(-7.10685058e-12 0 0)
(-7.44693821e-12 0 0)
(-7.70391249e-12 0 0)
(-7.56761438e-12 0 0)
(-7.08715316e-12 0 0)
(-6.75496982e-12 0 0)
(-6.42816935e-12 0 0)
(-6.95033224e-12 0 0)
(-8.27220586e-12 0 0)
(-6.65097958e-12 0 0)
(-6.10014028e-12 0 0)
(-7.67945962e-12 0 0)
(-6.53003531e-12 0 0)
(-6.13486516e-12 0 0)
(-6.02723557e-12 0 0)
(-6.13480227e-12 0 0)
(-6.23304724e-12 0 0)
(-6.03991439e-12 0 0)
(-5.76790362e-12 0 0)
(-5.98171132e-12 0 0)
(-5.69449151e-12 0 0)
(-6.20222195e-12 0 0)
(-6.0797706e-12 0 0)
(-5.0734244e-12 0 0)
(-5.9123316e-12 0 0)
(-4.89704366e-12 0 0)
(-5.35012901e-12 0 0)
(-4.44335132e-12 0 0)
(-4.55656544e-12 0 0)
(-4.494792e-12 0 0)
(-4.59875235e-12 0 0)
(-4.02648506e-12 0 0)
(-4.46208512e-12 0 0)
(-4.30755784e-12 0 0)
(-3.76323954e-12 0 0)
(-3.77782432e-12 0 0)
(-5.40541182e-12 0 0)
(-4.5263392e-12 0 0)
(-4.87036571e-12 0 0)
(-5.55426357e-12 0 0)
(-5.09993841e-12 0 0)
(-4.93235951e-12 0 0)
(-5.62047718e-12 0 0)
(-3.48447386e-12 0 0)
(-4.01854135e-12 0 0)
(-4.24707501e-12 0 0)
(-5.17684093e-12 0 0)
(-3.68185892e-12 0 0)
(-4.69821317e-12 0 0)
(-4.44272193e-12 0 0)
(-3.61662351e-12 0 0)
(-3.22346779e-12 0 0)
(-2.59655435e-12 0 0)
(-2.20009713e-12 0 0)
(-3.65418134e-12 0 0)
(-2.67496754e-12 0 0)
(-3.38667086e-12 0 0)
(-2.80495709e-12 0 0)
(-4.22017635e-12 0 0)
(-3.2241421e-12 0 0)
(-2.91240714e-12 0 0)
(-3.13351244e-12 0 0)
(-3.19749711e-12 0 0)
(-2.33163892e-12 0 0)
(-2.3340104e-12 0 0)
(-2.44703326e-12 0 0)
(-1.60934634e-12 0 0)
(-3.00409338e-12 0 0)
(-1.4982846e-12 0 0)
(-2.10467603e-12 0 0)
(-2.65653501e-12 0 0)
(-2.37757879e-12 0 0)
(-1.83194197e-12 0 0)
(-2.25826337e-12 0 0)
(-1.26976685e-12 0 0)
(-1.94201047e-12 0 0)
(-8.2550426e-13 0 0)
(-4.27135591e-13 0 0)
(-9.89452981e-13 0 0)
(-1.6629953e-12 0 0)
(-1.42458491e-12 0 0)
(-7.59071424e-13 0 0)
(-4.04654176e-13 0 0)
(-2.3729261e-13 0 0)
(-1.55829595e-13 0 0)
(-6.05712631e-13 0 0)
(-4.46812673e-13 0 0)
(-2.83962701e-13 0 0)
(-4.01470693e-13 0 0)
(-1.07482003e-12 0 0)
(7.70305884e-14 0 0)
(-1.96290004e-14 0 0)
(-1.41542434e-13 0 0)
(-7.52890923e-13 0 0)
(4.95683371e-14 0 0)
(2.53187612e-13 0 0)
(-8.62501038e-13 0 0)
(2.53964287e-13 0 0)
(-3.86127709e-13 0 0)
(3.40136226e-13 0 0)
(-7.14191575e-13 0 0)
(-1.82055235e-13 0 0)
(6.30168455e-13 0 0)
(-1.05179368e-12 0 0)
(-2.55552041e-13 0 0)
(-8.66778088e-13 0 0)
(-6.90184157e-13 0 0)
(-5.00120588e-13 0 0)
(-2.34257547e-13 0 0)
(1.58978311e-13 0 0)
(-7.14515265e-14 0 0)
(6.25219093e-13 0 0)
(9.75052922e-13 0 0)
(3.80235571e-13 0 0)
(1.68982227e-12 0 0)
(1.29478316e-12 0 0)
(1.0038466e-12 0 0)
(1.86887406e-12 0 0)
(1.6332298e-12 0 0)
(5.77725272e-13 0 0)
(1.17904609e-12 0 0)
(1.4497279e-12 0 0)
(8.16298275e-13 0 0)
(1.06932544e-12 0 0)
(1.28863931e-12 0 0)
(2.23371693e-12 0 0)
(1.79844028e-12 0 0)
(2.54984366e-12 0 0)
(2.1743332e-12 0 0)
(2.45455966e-12 0 0)
(2.04816638e-12 0 0)
(2.65058188e-12 0 0)
(1.92941779e-12 0 0)
(3.29828292e-12 0 0)
(2.95780906e-12 0 0)
(2.69955559e-12 0 0)
(3.00085343e-12 0 0)
(2.1788888e-12 0 0)
(3.0226018e-12 0 0)
(4.1286379e-12 0 0)
(2.64223356e-12 0 0)
(2.01456107e-12 0 0)
(3.07740193e-12 0 0)
(2.70556882e-12 0 0)
(2.1168795e-12 0 0)
(3.58015642e-12 0 0)
(3.45822332e-12 0 0)
(2.31729045e-12 0 0)
(3.01686332e-12 0 0)
(2.02814572e-12 0 0)
(2.16793962e-12 0 0)
(3.2538482e-12 0 0)
(1.51802179e-12 0 0)
(3.047596e-12 0 0)
(2.53314308e-12 0 0)
(3.46754327e-12 0 0)
(3.10850205e-12 0 0)
(2.73658955e-12 0 0)
(2.87772281e-12 0 0)
(3.12002731e-12 0 0)
(2.55590132e-12 0 0)
(3.80110511e-12 0 0)
(3.51469239e-12 0 0)
(3.79103301e-12 0 0)
(3.42029953e-12 0 0)
(3.93575508e-12 0 0)
(3.53871929e-12 0 0)
(3.09538699e-12 0 0)
(4.33846209e-12 0 0)
(4.3882181e-12 0 0)
(2.30856244e-12 0 0)
(3.10642465e-12 0 0)
(4.16424267e-12 0 0)
(2.84182809e-12 0 0)
(2.40952822e-12 0 0)
(2.48062382e-12 0 0)
(3.34589043e-12 0 0)
(4.54550205e-12 0 0)
(3.9153806e-12 0 0)
(3.83083196e-12 0 0)
(4.0149177e-12 0 0)
(4.27426444e-12 0 0)
(4.56926084e-12 0 0)
(4.8970899e-12 0 0)
(4.37337442e-12 0 0)
(4.41499677e-12 0 0)
(4.03184725e-12 0 0)
(4.50239998e-12 0 0)
(3.90178692e-12 0 0)
(3.61849198e-12 0 0)
(3.54260542e-12 0 0)
(3.70428526e-12 0 0)
(4.15086955e-12 0 0)
(3.99101837e-12 0 0)
(4.11217355e-12 0 0)
(4.10494157e-12 0 0)
(4.61317409e-12 0 0)
(4.61057873e-12 0 0)
(5.0603772e-12 0 0)
(3.42113274e-12 0 0)
(4.89096198e-12 0 0)
(4.67777733e-12 0 0)
(4.69466802e-12 0 0)
(4.01749869e-12 0 0)
(4.32081366e-12 0 0)
(4.513264e-12 0 0)
(4.63789191e-12 0 0)
(5.43274815e-12 0 0)
(4.90185875e-12 0 0)
(4.49304925e-12 0 0)
(4.81979493e-12 0 0)
(3.75772195e-12 0 0)
(5.05899813e-12 0 0)
(5.50137154e-12 0 0)
(4.44507808e-12 0 0)
(4.54857439e-12 0 0)
(5.13852916e-12 0 0)
(6.3733415e-12 0 0)
(5.24809416e-12 0 0)
(5.66707517e-12 0 0)
(5.21896875e-12 0 0)
(5.15274049e-12 0 0)
(5.10450698e-12 0 0)
(5.2545329e-12 0 0)
(5.60712412e-12 0 0)
(5.49904636e-12 0 0)
(5.33346379e-12 0 0)
(4.9276808e-12 0 0)
(4.32719951e-12 0 0)
(4.79901519e-12 0 0)
(5.01824401e-12 0 0)
(3.91939515e-12 0 0)
(5.71463338e-12 0 0)
(4.28891711e-12 0 0)
(5.202486e-12 0 0)
(4.51996827e-12 0 0)
(5.66147814e-12 0 0)
(5.23330961e-12 0 0)
(4.84096724e-12 0 0)
(5.82072948e-12 0 0)
(5.17639766e-12 0 0)
(5.36682446e-12 0 0)
(5.47258142e-12 0 0)
(5.37373553e-12 0 0)
(5.53252571e-12 0 0)
(5.80453732e-12 0 0)
(6.48108154e-12 0 0)
(5.52022569e-12 0 0)
(5.55766506e-12 0 0)
(5.5142596e-12 0 0)
(5.09159331e-12 0 0)
(5.03008487e-12 0 0)
(5.55001438e-12 0 0)
(6.16406031e-12 0 0)
(6.62611005e-12 0 0)
(5.82539601e-12 0 0)
(6.10380448e-12 0 0)
(6.21120471e-12 0 0)
(6.1498069e-12 0 0)
(6.3247228e-12 0 0)
(7.21943968e-12 0 0)
(5.36045535e-12 0 0)
(5.71542419e-12 0 0)
(6.30423699e-12 0 0)
(6.78606857e-12 0 0)
(6.36921145e-12 0 0)
(7.5631041e-12 0 0)
(6.70970182e-12 0 0)
(7.40365011e-12 0 0)
(6.40694291e-12 0 0)
(6.92103555e-12 0 0)
(6.59913569e-12 0 0)
(6.77853571e-12 0 0)
(6.7401674e-12 0 0)
(7.15309723e-12 0 0)
(7.48298466e-12 0 0)
(6.61302717e-12 0 0)
(7.31908503e-12 0 0)
(6.37620616e-12 0 0)
(6.89832153e-12 0 0)
(7.20832332e-12 0 0)
(7.44287517e-12 0 0)
(7.85619638e-12 0 0)
(8.22752279e-12 0 0)
(7.89754886e-12 0 0)
(7.31845224e-12 0 0)
(7.14031166e-12 0 0)
(7.659734e-12 0 0)
(6.94314507e-12 0 0)
(6.73117552e-12 0 0)
(6.01431464e-12 0 0)
(7.41584748e-12 0 0)
(6.31136792e-12 0 0)
(6.62917101e-12 0 0)
(7.30342299e-12 0 0)
(5.58474694e-12 0 0)
(6.66538817e-12 0 0)
(7.0219395e-12 0 0)
(5.20706341e-12 0 0)
(6.35916944e-12 0 0)
(7.07752805e-12 0 0)
(5.76365249e-12 0 0)
(6.32088619e-12 0 0)
(6.02096502e-12 0 0)
(5.9833338e-12 0 0)
(5.23740573e-12 0 0)
(5.15086368e-12 0 0)
(5.82001704e-12 0 0)
(5.70730393e-12 0 0)
(5.2474263e-12 0 0)
(5.66089166e-12 0 0)
(5.49543572e-12 0 0)
(6.35576724e-12 0 0)
(5.31054233e-12 0 0)
(6.1410901e-12 0 0)
(4.78512394e-12 0 0)
(6.04127044e-12 0 0)
(4.45048445e-12 0 0)
(5.02679251e-12 0 0)
(4.98385503e-12 0 0)
(6.91789851e-12 0 0)
(5.29099489e-12 0 0)
(5.49916387e-12 0 0)
(5.5318214e-12 0 0)
(6.30131334e-12 0 0)
(6.04137417e-12 0 0)
(7.20928548e-12 0 0)
(5.46761177e-12 0 0)
(7.01133727e-12 0 0)
(6.76446397e-12 0 0)
(7.42020882e-12 0 0)
(7.05175538e-12 0 0)
(6.67806052e-12 0 0)
(6.58374866e-12 0 0)
(6.61192634e-12 0 0)
(5.18847695e-12 0 0)
(7.15011804e-12 0 0)
(6.44783106e-12 0 0)
(7.05188286e-12 0 0)
(7.0351065e-12 0 0)
(6.46432706e-12 0 0)
(6.87344919e-12 0 0)
(6.03246174e-12 0 0)
(6.69589644e-12 0 0)
(6.46601722e-12 0 0)
(7.06719768e-12 0 0)
(6.13933786e-12 0 0)
(8.04620008e-12 0 0)
(6.76908931e-12 0 0)
(5.72626732e-12 0 0)
(7.65490617e-12 0 0)
(7.4776369e-12 0 0)
(7.68587058e-12 0 0)
(6.94913434e-12 0 0)
(7.14957884e-12 0 0)
(8.20586527e-12 0 0)
(8.67456656e-12 0 0)
(7.3242494e-12 0 0)
(7.17461961e-12 0 0)
(8.25767898e-12 0 0)
(8.46556748e-12 0 0)
(7.66154813e-12 0 0)
(7.41697052e-12 0 0)
(7.07559831e-12 0 0)
(8.23677705e-12 0 0)
(7.87044733e-12 0 0)
(8.53737191e-12 0 0)
(7.39697592e-12 0 0)
(7.97041329e-12 0 0)
(9.0245419e-12 0 0)
(9.40568084e-12 0 0)
(8.81540624e-12 0 0)
(8.53936224e-12 0 0)
(9.14302467e-12 0 0)
(8.53343343e-12 0 0)
(9.31628402e-12 0 0)
(8.94863545e-12 0 0)
(9.32753169e-12 0 0)
(8.85703253e-12 0 0)
(9.34792239e-12 0 0)
(9.33787016e-12 0 0)
(1.03147187e-11 0 0)
(1.00790303e-11 0 0)
(9.82390103e-12 0 0)
(8.62712684e-12 0 0)
(8.76448517e-12 0 0)
(9.34200418e-12 0 0)
(9.27015967e-12 0 0)
(9.93062917e-12 0 0)
(8.71706878e-12 0 0)
(9.1147225e-12 0 0)
(9.13275569e-12 0 0)
(1.0082525e-11 0 0)
(9.18170543e-12 0 0)
(1.01274341e-11 0 0)
(9.77158614e-12 0 0)
(9.28745297e-12 0 0)
(1.01220934e-11 0 0)
(8.92929902e-12 0 0)
(9.32621439e-12 0 0)
(9.7136145e-12 0 0)
(1.03053054e-11 0 0)
(1.00734629e-11 0 0)
(1.07209025e-11 0 0)
(1.07927933e-11 0 0)
(1.01936673e-11 0 0)
(9.71384278e-12 0 0)
(1.03776569e-11 0 0)
(9.86917788e-12 0 0)
(1.00328686e-11 0 0)
(1.10941422e-11 0 0)
(1.06815275e-11 0 0)
(1.04271706e-11 0 0)
(1.01991457e-11 0 0)
(9.01658247e-12 0 0)
(1.00500119e-11 0 0)
(1.02495377e-11 0 0)
(1.06829627e-11 0 0)
(9.15829349e-12 0 0)
(9.62349249e-12 0 0)
(1.06492672e-11 0 0)
(9.83684939e-12 0 0)
(9.1824092e-12 0 0)
(1.00648303e-11 0 0)
(1.07559937e-11 0 0)
(1.00802583e-11 0 0)
(1.00558332e-11 0 0)
(1.06594017e-11 0 0)
(1.04837909e-11 0 0)
(1.05441178e-11 0 0)
(1.03008975e-11 0 0)
(1.02109573e-11 0 0)
(9.89519101e-12 0 0)
(9.77364174e-12 0 0)
(9.49460465e-12 0 0)
(9.91674524e-12 0 0)
(9.73763901e-12 0 0)
(1.01814248e-11 0 0)
(1.02724989e-11 0 0)
(1.06251802e-11 0 0)
(1.05955618e-11 0 0)
(1.08118159e-11 0 0)
(1.06289308e-11 0 0)
(9.96689722e-12 0 0)
(1.11286274e-11 0 0)
(9.87131666e-12 0 0)
(1.07799554e-11 0 0)
(1.08374259e-11 0 0)
(9.46361855e-12 0 0)
(1.00747978e-11 0 0)
(1.04346916e-11 0 0)
(1.0695968e-11 0 0)
(1.10700615e-11 0 0)
(1.0367748e-11 0 0)
(1.09031617e-11 0 0)
(1.04548822e-11 0 0)
(1.00194199e-11 0 0)
(9.25509367e-12 0 0)
(1.08254057e-11 0 0)
(1.06371447e-11 0 0)
(9.65233084e-12 0 0)
(1.05098245e-11 0 0)
(9.92057663e-12 0 0)
(1.03260988e-11 0 0)
(9.9527157e-12 0 0)
(9.46858993e-12 0 0)
(1.01618267e-11 0 0)
(9.24496996e-12 0 0)
(9.79292986e-12 0 0)
(8.50255268e-12 0 0)
(8.8670969e-12 0 0)
(8.07758455e-12 0 0)
(9.23997351e-12 0 0)
(8.43410371e-12 0 0)
(8.21198172e-12 0 0)
(7.89927262e-12 0 0)
(7.8440676e-12 0 0)
(7.77344281e-12 0 0)
(7.95985466e-12 0 0)
(7.58209196e-12 0 0)
(6.92061149e-12 0 0)
(7.37212008e-12 0 0)
(7.37467358e-12 0 0)
(6.87380723e-12 0 0)
(7.58642322e-12 0 0)
(7.28344183e-12 0 0)
(7.54766433e-12 0 0)
(6.55971424e-12 0 0)
(6.71988611e-12 0 0)
(6.7357862e-12 0 0)
(6.70000778e-12 0 0)
(6.12892281e-12 0 0)
(6.85539598e-12 0 0)
(5.81685118e-12 0 0)
(6.31232654e-12 0 0)
(5.62011138e-12 0 0)
(6.03765083e-12 0 0)
(5.46704164e-12 0 0)
(5.93601665e-12 0 0)
(6.31148189e-12 0 0)
(5.94505889e-12 0 0)
(6.39949424e-12 0 0)
(6.33806742e-12 0 0)
(5.79779041e-12 0 0)
(6.23447816e-12 0 0)
(5.43708777e-12 0 0)
(5.84575995e-12 0 0)
(4.7797677e-12 0 0)
(5.42935874e-12 0 0)
(6.06225781e-12 0 0)
(4.33833341e-12 0 0)
(4.55228381e-12 0 0)
(3.86901758e-12 0 0)
(4.06473035e-12 0 0)
(4.39512579e-12 0 0)
(3.82569239e-12 0 0)
(3.48214421e-12 0 0)
(3.94381712e-12 0 0)
(3.42575055e-12 0 0)
(3.79902241e-12 0 0)
(4.26066358e-12 0 0)
(4.2388944e-12 0 0)
(3.89697397e-12 0 0)
(2.96253212e-12 0 0)
(3.62902052e-12 0 0)
(3.88723206e-12 0 0)
(3.14218536e-12 0 0)
(3.42770385e-12 0 0)
(3.2485165e-12 0 0)
(2.23816825e-12 0 0)
(2.32796014e-12 0 0)
(2.76875505e-12 0 0)
(2.13817062e-12 0 0)
(1.88167442e-12 0 0)
(1.71573668e-12 0 0)
(2.18807815e-12 0 0)
(1.96229511e-12 0 0)
(7.22255334e-13 0 0)
(9.53451457e-13 0 0)
(2.59002292e-12 0 0)
(1.80557514e-12 0 0)
(1.94448995e-12 0 0)
(2.06785683e-12 0 0)
(2.57094806e-12 0 0)
(2.01154199e-12 0 0)
(2.41687533e-12 0 0)
(2.65753194e-12 0 0)
(2.61240078e-12 0 0)
(2.96709669e-12 0 0)
(2.98737568e-12 0 0)
(2.70791182e-12 0 0)
(2.6857456e-12 0 0)
(2.66485891e-12 0 0)
(2.82447384e-12 0 0)
(2.26561329e-12 0 0)
(2.19880968e-12 0 0)
(3.52406411e-12 0 0)
(2.59845609e-12 0 0)
(2.74510192e-12 0 0)
(1.70903926e-12 0 0)
(2.38675672e-12 0 0)
(2.17413872e-12 0 0)
(2.01508182e-12 0 0)
(2.29293033e-12 0 0)
(3.39092033e-12 0 0)
(2.04649313e-12 0 0)
(1.97786648e-12 0 0)
(2.42700477e-12 0 0)
(1.01770589e-12 0 0)
(1.76148055e-12 0 0)
(1.03660151e-12 0 0)
(1.34488791e-12 0 0)
(7.37880129e-13 0 0)
(1.04251518e-12 0 0)
(7.96429679e-13 0 0)
(-6.48745551e-14 0 0)
(-7.95500031e-13 0 0)
(-1.58438301e-13 0 0)
(-1.44256436e-12 0 0)
(-1.1399529e-12 0 0)
(-1.0490421e-12 0 0)
(-2.01738362e-12 0 0)
(-1.64670786e-12 0 0)
(-1.82366765e-12 0 0)
(-1.47493263e-12 0 0)
(-2.03187086e-12 0 0)
(-3.41368095e-12 0 0)
(-3.02411151e-12 0 0)
(-3.65560053e-12 0 0)
(-2.81966612e-12 0 0)
(-2.72392291e-12 0 0)
(-3.2435541e-12 0 0)
(-3.544948e-12 0 0)
(-3.24983263e-12 0 0)
(-3.07228385e-12 0 0)
(-3.95459204e-12 0 0)
(-3.43274029e-12 0 0)
(-4.06575426e-12 0 0)
(-4.7340621e-12 0 0)
(-3.9326919e-12 0 0)
(-4.58996877e-12 0 0)
(-4.70661875e-12 0 0)
(-4.73721775e-12 0 0)
(-4.22068124e-12 0 0)
(-3.92999866e-12 0 0)
(-4.51460687e-12 0 0)
(-5.87546321e-12 0 0)
(-5.19404686e-12 0 0)
(-5.0741202e-12 0 0)
(-5.72907171e-12 0 0)
(-5.33501488e-12 0 0)
(-5.74225307e-12 0 0)
(-6.41811621e-12 0 0)
(-6.52090016e-12 0 0)
(-6.08175116e-12 0 0)
(-5.95132649e-12 0 0)
(-7.29983518e-12 0 0)
(-6.57465183e-12 0 0)
(-6.48473805e-12 0 0)
(-6.44801451e-12 0 0)
(-7.19077269e-12 0 0)
(-7.38797843e-12 0 0)
(-6.43668678e-12 0 0)
(-6.25330199e-12 0 0)
(-6.22149822e-12 0 0)
(-7.09671312e-12 0 0)
(-5.745759e-12 0 0)
(-6.00459033e-12 0 0)
(-6.1913686e-12 0 0)
(-6.85327265e-12 0 0)
(-5.84151887e-12 0 0)
(-6.08921723e-12 0 0)
(-5.50996248e-12 0 0)
(-6.18995144e-12 0 0)
(-6.3789151e-12 0 0)
(-5.54449011e-12 0 0)
(-6.60732645e-12 0 0)
(-7.70397235e-12 0 0)
(-7.04154448e-12 0 0)
(-7.38674821e-12 0 0)
(-7.12280051e-12 0 0)
(-7.21013945e-12 0 0)
(-7.53106792e-12 0 0)
(-6.54399231e-12 0 0)
(-6.74455989e-12 0 0)
(-6.65782567e-12 0 0)
(-6.50828779e-12 0 0)
(-7.52442825e-12 0 0)
(-6.4595732e-12 0 0)
(-7.32489601e-12 0 0)
(-7.44788868e-12 0 0)
(-7.2431281e-12 0 0)
(-6.99270142e-12 0 0)
(-7.44898471e-12 0 0)
(-7.34644541e-12 0 0)
(-7.82346187e-12 0 0)
(-7.40580665e-12 0 0)
(-7.70107535e-12 0 0)
(-7.94330299e-12 0 0)
(-7.50253446e-12 0 0)
(-6.66367547e-12 0 0)
(-7.37943281e-12 0 0)
(-8.64548235e-12 0 0)
(-7.40470277e-12 0 0)
(-8.26996621e-12 0 0)
(-8.92145523e-12 0 0)
(-8.50746403e-12 0 0)
(-8.38131106e-12 0 0)
(-9.41268891e-12 0 0)
(-8.84070711e-12 0 0)
(-9.35996066e-12 0 0)
(-8.67786308e-12 0 0)
(-7.23327113e-12 0 0)
(-9.6121642e-12 0 0)
(-9.21655589e-12 0 0)
(-8.86004159e-12 0 0)
(-9.30130741e-12 0 0)
(-1.04609431e-11 0 0)
(-9.96430204e-12 0 0)
(-9.85422793e-12 0 0)
(-1.0845757e-11 0 0)
(-9.81559658e-12 0 0)
(-1.06787341e-11 0 0)
(-1.11917551e-11 0 0)
(-9.81980857e-12 0 0)
(-1.04404271e-11 0 0)
(-1.0402478e-11 0 0)
(-1.09874249e-11 0 0)
(-1.04634335e-11 0 0)
(-1.0525336e-11 0 0)
(-1.03678948e-11 0 0)
(-1.01946617e-11 0 0)
(-1.04218094e-11 0 0)
(-1.04537824e-11 0 0)
(-1.01104332e-11 0 0)
(-9.88884249e-12 0 0)
(-9.5760277e-12 0 0)
(-9.95280291e-12 0 0)
(-1.02324429e-11 0 0)
(-1.03180473e-11 0 0)
(-1.04948552e-11 0 0)
(-9.51916244e-12 0 0)
(-1.04291559e-11 0 0)
(-1.10848008e-11 0 0)
(-1.0300408e-11 0 0)
(-1.00925963e-11 0 0)
(-9.76301033e-12 0 0)
(-1.01252128e-11 0 0)
(-1.02549552e-11 0 0)
(-1.04629143e-11 0 0)
(-9.89503819e-12 0 0)
(-1.05031871e-11 0 0)
(-1.07815124e-11 0 0)
(-9.98013265e-12 0 0)
(-9.63785077e-12 0 0)
(-1.02138904e-11 0 0)
(-1.03743973e-11 0 0)
(-1.02701349e-11 0 0)
(-9.88522438e-12 0 0)
(-1.00799909e-11 0 0)
(-9.89705516e-12 0 0)
(-1.01900886e-11 0 0)
(-9.09226859e-12 0 0)
(-9.96482366e-12 0 0)
(-1.01237594e-11 0 0)
(-1.03468661e-11 0 0)
(-1.00466062e-11 0 0)
(-9.81868534e-12 0 0)
(-1.0324506e-11 0 0)
(-8.98751907e-12 0 0)
(-9.57660978e-12 0 0)
(-8.67228948e-12 0 0)
(-8.94344976e-12 0 0)
(-8.62911046e-12 0 0)
(-9.0189341e-12 0 0)
(-9.1860984e-12 0 0)
(-8.35528986e-12 0 0)
(-9.19835924e-12 0 0)
(-9.33804042e-12 0 0)
(-9.73892785e-12 0 0)
(-1.01532075e-11 0 0)
(-9.56301637e-12 0 0)
(-9.36910877e-12 0 0)
(-9.91120121e-12 0 0)
(-9.2400563e-12 0 0)
(-1.03364475e-11 0 0)
(-8.51082186e-12 0 0)
(-9.64250531e-12 0 0)
(-9.04752303e-12 0 0)
(-8.6985337e-12 0 0)
(-9.06117259e-12 0 0)
(-9.64806813e-12 0 0)
(-8.67350719e-12 0 0)
(-9.14616404e-12 0 0)
(-9.13821316e-12 0 0)
(-1.02243943e-11 0 0)
(-9.64746567e-12 0 0)
(-9.53550153e-12 0 0)
(-9.20435477e-12 0 0)
(-9.16280335e-12 0 0)
(-9.33918782e-12 0 0)
(-9.48830812e-12 0 0)
(-1.00090512e-11 0 0)
(-1.01164841e-11 0 0)
(-9.9655962e-12 0 0)
(-9.36713408e-12 0 0)
(-1.08269024e-11 0 0)
(-9.71241301e-12 0 0)
(-9.8407419e-12 0 0)
(-9.83943742e-12 0 0)
(-9.46720758e-12 0 0)
(-9.29596462e-12 0 0)
(-8.89463961e-12 0 0)
(-9.14418493e-12 0 0)
(-9.50260057e-12 0 0)
(-8.59676528e-12 0 0)
(-9.38499987e-12 0 0)
(-9.40777431e-12 0 0)
(-9.75544525e-12 0 0)
(-9.44416723e-12 0 0)
(-7.91068852e-12 0 0)
(-8.85114808e-12 0 0)
(-8.81325006e-12 0 0)
(-7.46167034e-12 0 0)
(-9.10054865e-12 0 0)
(-8.49071217e-12 0 0)
(-9.26899399e-12 0 0)
(-8.57872991e-12 0 0)
(-9.50585671e-12 0 0)
(-8.15329193e-12 0 0)
(-9.37532888e-12 0 0)
(-9.24563764e-12 0 0)
(-9.19152201e-12 0 0)
(-8.7397446e-12 0 0)
(-8.39914882e-12 0 0)
(-8.91229126e-12 0 0)
(-8.78875666e-12 0 0)
(-7.85344378e-12 0 0)
(-8.56007708e-12 0 0)
(-7.98389893e-12 0 0)
(-8.51558005e-12 0 0)
(-8.50212363e-12 0 0)
(-7.66778182e-12 0 0)
(-7.94927402e-12 0 0)
(-8.86014765e-12 0 0)
(-9.76893329e-12 0 0)
(-8.38838104e-12 0 0)
(-8.49697935e-12 0 0)
(-8.65946188e-12 0 0)
(-8.82128194e-12 0 0)
(-9.15230273e-12 0 0)
(-8.14137049e-12 0 0)
(-9.67987957e-12 0 0)
(-9.4675997e-12 0 0)
(-8.32291733e-12 0 0)
(-8.90957855e-12 0 0)
(-9.20360828e-12 0 0)
(-8.95617192e-12 0 0)
(-8.35931585e-12 0 0)
(-8.4257171e-12 0 0)
(-8.67674206e-12 0 0)
(-7.27569091e-12 0 0)
(-8.15369986e-12 0 0)
(-8.86933038e-12 0 0)
(-8.14198023e-12 0 0)
(-8.92034264e-12 0 0)
(-7.02648112e-12 0 0)
(-7.92867522e-12 0 0)
(-8.8644562e-12 0 0)
(-7.94158712e-12 0 0)