/*--------------------------------*- C++ -*----------------------------------*\
| =========                 |                                                 |
| \\      /  F ield         | OpenFOAM: The Open Source CFD Toolbox           |
|  \\    /   O peration     | Version:  2206                                  |
|   \\  /    A nd           | Website:  www.openfoam.com                      |
|    \\/     M anipulation  |                                                 |
\*---------------------------------------------------------------------------*/
FoamFile
{
    version     2.0;
    format      ascii;
    arch        "LSB;label=32;scalar=64";
    class       volScalarField;
    location    "1.8e-05";
    object      p;
}
// * * * * * * * * * * * * * * * * * * * * * * * * * * * * * * * * * * * * * //

dimensions      [1 -1 -2 0 0 0 0];

internalField   nonuniform List<scalar> 
3183
(
101325
101325
101325
101325
101325
101325
101325
101325
101325
101325
101325
101325
101325
101325
101325
101325
101325
101325
101325
101325
101325
101325
101325
101325
101325
101325
101325
101325
101325
101325
101325
101325
101325
101325
101325
101325
101325
101325
101325
101325
101325
101325
101325
101325
101325
101325
101325
101325
101325
101325
101325
101325
101325
101325
101325
101325
101325
101325
101325
101325
101325
101325
101325
101325
101325
101325
101325
101325
101325
101325
101325
101325
101325
101325
101325
101325
101325
101325
101325
101325
101325
101325
101325
101325
101325
101325
101325
101325
101325
101325
101325
101325
101325
101325
101325
101325
101325
101325
101325
101325
101325
101325
101325
101325
101325
101325
101325
101325
101325
101325
101325
101325
101325
101325
101325
101325
101325
101325
101325
101325
101325
101325
101325
101325
101325
101325
101325
101325
101325
101325
101325
101325
101325
101325
101325
101325
101325
101325
101325
101325
101325
101325
101325
101325
101325
101325
101325
101325
101325
101325
101325
101325
101325
101325
101325
101325
101325
101325
101325
101325
101325
101325
101325
101325
101325
101325
101325
101325
101325
101325
101325
101325
101325
101325
101325
101325
101325
101325
101325
101325
101325
101325
101325
101325
101325
101325
101325
101325
101325
101325
101325
101325
101325
101325
101325
101325
101325
101325
101325
101325
101325
101325
101325
101325
101325
101325
101325
101325
101325
101325
101325
101325
101325
101325
101325
101325
101325
101325
101325
101325
101325
101325
101325
101325
101325
101325
101325
101325
101325
101325
101325
101325
101325
101325
101325
101325
101325
101325
101325
101325
101325
101325
101325
101325
101325
101325
101325
101325
101325
101325
101325
101325
101325
101325
101325
101325
101325
101325
101325
101325
101325
101325
101325
101325
101325
101325
101325
101325
101325
101325
101325
101325
101325
101325
101325
101325
101325
101325
101325
101325
101325
101325
101325
101325
101325
101325
101325
101325
101325
101325
101325
101325
101325
101325
101325
101325
101325
101325
101325
101325
101325
101325
101325
101325
101325
101325
101325
101325
101325
101325
101325
101325
101325
101325
101325
101325
101325
101325
101325
101325
101325
101325
101325
101325
101325
101325
101325
101325
101325
101325
101325
101325
101325
101325
101325
101325
101325
101325
101325
101325
101325
101325
101325
101325
101325
101325
101325
101325
101325
101325
101325
101325
101325
101325
101325
101325
101325
101325
101325
101325
101325
101325
101325
101325
101325
101325
101325
101325
101325
101325
101325
101325
101325
101325
101325
101325
101325
101325
101325
101325
101325
101325
101325
101325
101325
101325
101325
101325
101325
101325
101325
101325
101325
101325
101325
101325
101325
101325
101325
101325
101325
101325
101325
101325
101325
101325
101325
101325
101325
101325
101325
101325
101325
101325
101325
101325
101325
101325
101325
101325
101325
101325
101325
101325
101325
101325
101325
101325
101325
101325
101325
101325
101325
101325
101325
101325
101325
101325
101325
101325
101325
101325
101325
101325
101325
101325
101325
101325
101325
101325
101325
101325
101325
101325
101325
101325
101325
101325
101325
101325
101325
101325
101325
101325
101325
101325
101325
101325
101325
101325
101325
101325
101325
101325
101325
101325
101325
101325
101325
101325
101325
101325
101325
101325
101325
101325
101325
101325
101325
101325
101325
101325
101325
101325
101325
101325
101325
101325
101325
101325
101325
101325
101325
101325
101325
101325
101325
101325
101325
101325
101325
101325
101325
101325
101325
101325
101325
101325
101325
101325
101325
101325
101325
101325
101325
101325
101325
101325
101325
101325
101325
101325
101325
101325
101325
101325
101325
101325
101325
101325
101325
101325
101325
101325
101325
101325
101325
101325
101325
101325
101325
101325
101325
101325
101325
101325
101325
101325
101325
101325
101325
101325
101325
101325
101325
101325
101325
101325
101325
101325
101325
101325
101325
101325
101325
101325
101325
101325
101325
101325
101325
101325
101325
101325
101325
101325
101325
101325
101325
101325
101325
101325
101325
101325
101325
101325
101325
101325
101325
101325
101325
101325
101325
101325
101325
101325
101325
101325
101325
101325
101325
101325
101325
101325
101325
101325
101325
101325
101325
101325
101325
101325
101325
101325
101325
101325
101325
101325
101325
101325
101325
101325
101325
101325
101325
101325
101325
101325
101325
101325
101325
101325
101325
101325
101325
101325
101325
101325
101325
101325
101325
101325
101325
101325
101325
101325
101325
101325
101325
101325
101325
101325
101325
101325
101325
101325
101325
101325
101325
101325
101325
101325
101325
101325
101325
101325
101325
101325
101325
101325
101325
101325
101325
101325
101325
101325
101325
101325
101325
101325
101325
101325
101325
101325
101325
101325
101325
101325
101325
101325
101325
101325
101325
101325
101325
101325
101325
101325
101325
101325
101325
101325
101325
101325
101325
101325
101325
101325
101325
101325
101325
101325
101325
101325
101325
101325
101325
101325
101325
101325
101325
101325
101325
101325
101325
101325
101325
101325
101325
101325
101325
101325
101325
101325
101325
101325
101325
101325
101325
101325
101325
101325
101325
101325
101325
101325
101325
101325
101325
101325
101325
101325
101325
101325
101325
101325
101325
101325
101325
101325
101325
101325
101325
101325
101325
101325
101325
101325
101325
101325
101325
101325
101325
101325
101325
101325
101325
101325
101325
101325
101325
101325
101325
101325
101325
101325
101325
101325
101325
101325
101325
101325
101325
101325
101325
101325
101325
101325
101325
101325
101325
101325
101325
101325
101325
101325
101325
101325
101325
101325
101325
101325
101325
101325
101325
101325
101325
101325
101325
101325
101325
101325
101325
101325
101325
101325
101325
101325
101325
101325
101325
101325
101325
101325
101325
101325
101325
101325
101325
101325
101325
101325
101325
101325
101325
101325
101325
101325
101325
101325
101325
101325
101325
101325
101325
101325
101325
101325
101325
101325
101325
101325
101325
101325
101325
101325
101325
101325
101325
101325
101325
101325
101325
101325
101325
101325
101325
101325
101325
101325
101325
101325
101325
101325
101325
101325
101325
101325
101325
101325
101325
101325
101325
101325
101325
101325
101325
101325
101325
101325
101325
101325
101325
101325
101325
101325
101325
101325
101325
101325
101325
101325
101325
101325
101325
101325
101325
101325
101325
101325
101325
101325
101325
101325
101325
101325
101325
101325
101325
101325
101325
101325
101325
101325
101325
101325
101325
101325
101325
101325
101325
101325
101325
101325
101325
101325
101325
101325
101325
101325
101325
101325
101325
101325
101325
101325
101325
101325
101325
101325
101325
101325
101325
101325
101325
101325
101325
101325
101325
101325
101325
101325
101325
101325
101325
101325
101325
101325
101325
101325
101325
101325
101325
101325
101325
101325
101325
101325
101325
101325
101325
101325
101325
101325
101325
101325
101325
101325
101325
101325
101325
101325
101325
101325
101325
101325
101325
101325
101325
101325
101325
101325
101325
101325
101325
101325
101325
101325
101325
101325
101325
101325
101325
101325
101325
101325
101325
101325
101325
101325
101325
101325
101325
101325
101325
101325
101325
101325
101325
101325
101325
101325
101325
101325
101325
101325
101325
101325
101325
101325
101325
101325
101325
101325
101325
101325
101325
101325
101325
101325
101325
101325
101325
101325
101325
101325
101325
101325
101325
101325
101325
101325
101325
101325
101325
101325
101325
101325
101325
101325
101325
101325
101325
101325
101325
101325
101325
101325
101325
101325
101325
101325
101325
101325
101325
101325
101325
101325
101325
101325
101325
101325
101325
101325
101325
101325
101325
101325
101325
101325
101325
101325
101325
101325
101325
101325
101325
101325
101325
101325
101325
101325
101325
101325
101325
101325
101325
101325
101325
101325
101325
101325
101325
101325
101325
101325
101325
101325
101325
101325
101325
101325
101325
101325
101325
101325
101325
101325
101325
101325
101325
101325
101325
101325
101325
101325
101325
101325
101325
101325
101325
101325
101325
101325
101325
101325
101325
101325
101325
101325
101325
101325
101325
101325
101325
101325
101325
101325
101325
101325
101325
101325
101325
101325
101325
101325
101325
101325
101325
101325
101325
101325
101325
101325
101325
101325
101325
101325
101325
101325
101325
101325
101325
101325
101325
101325
101325
101325
101325
101325
101325
101325
101325
101325
101325
101325
101325
101325
101325
101325
101325
101325
101325
101325
101325
101325
101325
101325
101325
101325
101325
101325
101325
101325
101325
101325
101325
101325
101325
101325
101325
101325
101325
101325
101325
101325
101325
101325
101325
101325
101325
101325
101325
101325
101325
101325
101325
101325
101325
101325
101325
101325
101325
101325
101325
101325
101325
101325
101325
101325
101325
101325
101325
101325
101325
101325
101325
101325
101325
101325
101325
101325
101325
101325
101325
101325
101325
101325
101325
101325
101325
101325
101325
101325
101325
101325
101325
101325
101325
101325
101325
101325
101325
101325
101325
101325
101325
101325
101325
101325
101325
101325
101325
101325
101325
101325
101325
101325
101325
101325
101325
101325
101325
101325
101325
101325
101325
101325
101325
101325
101325
101325
101325
101325
101325
101325
101325
101325
101325
101325
101325
101325
101325
101325
101325
101325
101325
101325
101325
101325
101325
101325
101325
101325
101325
101325
101325
101325
101325
101325
101325
101325
101325
101325
101325
101325
101325
101325
101325
101325
101325
101325
101325
101325
101325
101325
101325
101325
101325
101325
101325
101325
101325
101325
101325
101325
101325
101325
101325
101325
101325
101325
101325
101325
101325
101325
101325
101325
101325
101325
101325
101325
101325
101325
101325
101325
101325
101325
101325
101325
101325
101325
101325
101325
101325
101325
101325
101325
101325
101325
101325
101325
101325
101325
101325
101325
101325
101325
101325
101325
101325
101325
101325
101325
101325
101325
101325
101325
101325
101325
101325
101325
101325
101325
101325
101325
101325
101325
101325
101325
101325
101325
101325
101325
101325
101325
101325
101325
101325
101325
101325
101325
101325
101325
101325
101325
101325
101325
101325
101325
101325
101325
101325
101325
101325
101325
101325
101325
101325
101325
101325
101325
101325
101325
101325
101325
101325
101325
101325
101325
101325
101325
101325
101325
101325
101325
101325
101325
101325
101325
101325
101325
101325
101325
101325
101325
101325
101325
101325
101325
101325
101325
101325
101325
101325
101325
101325
101325
101325
101325
101325
101325
101325
101325
101325
101325
101325
101325
101325
101325
101325
101325
101325
101325
101325
101325
101325
101325
101325
101325
101325
101325
101325
101325
101325
101325
101325
101325
101325
101325
101325
101325
101325
101325
101325
101325
101325
101325
101325
101325
101325
101325
101325
101325
101325
101325
101325
101325
101325
101325
101325
101325
101325
101325
101325
101325
101325
101325
101325
101325
101325
101325
101325
101325
101325
101325
101325
101325
101325
101325
101325
101325
101325
101325
101325
101325
101325
101325
101325
101325
101325
101325
101325
101325
101325
101325
101325
101325
101325
101325
101325
101325
101325
101325
101325
101325
101325
101325
101325
101325
101325
101325
101325
101325
101325
101325
101325
101325
101325
101325
101325
101325
101325
101325
101325
101325
101325
101325
101325
101325
101325
101325
101325
101325
101325
101325
101325
101325
101325
101325
101325
101325
101325
101325
101325
101325
101325
101325
101325
101325
101325
101325
101325
101325
101325
101325
101325
101325
101325
101325
101325
101325
101325
101325
101325
101325
101325
101325
101325
101325
101325
101325
101325
101325
101325
101325
101325
101325
101325
101325
101325
101325
101325
101325
101325
101325
101325
101325
101325
101325
101325
101325
101325
101325
101325
101325
101325
101325
101325
101325
101325
101325
101325
101325
101325
101325
101325
101325
101325
101325
101325
101325
101325
101325
101325
101325
101325
101325
101325
101325
101325
101325
101325
101324.999
101324.999
101324.999
101324.999
101324.999
101324.999
101324.999
101324.999
101324.999
101324.999
101324.999
101324.999
101324.999
101324.999
101324.999
101324.999
101324.999
101324.999
101324.999
101324.998
101324.998
101324.998
101324.998
101324.998
101324.998
101324.998
101324.998
101324.998
101324.997
101324.997
101324.997
101324.997
101324.997
101324.997
101324.996
101324.996
101324.996
101324.996
101324.996
101324.995
101324.995
101324.995
101324.995
101324.994
101324.994
101324.994
101324.993
101324.993
101324.993
101324.992
101324.992
101324.991
101324.991
101324.99
101324.99
101324.989
101324.989
101324.988
101324.988
101324.987
101324.986
101324.986
101324.985
101324.984
101324.983
101324.983
101324.982
101324.981
101324.98
101324.979
101324.978
101324.976
101324.975
101324.974
101324.973
101324.971
101324.97
101324.969
101324.967
101324.965
101324.964
101324.962
101324.96
101324.958
101324.956
101324.954
101324.952
101324.949
101324.947
101324.944
101324.942
101324.939
101324.936
101324.933
101324.93
101324.927
101324.923
101324.92
101324.916
101324.912
101324.908
101324.904
101324.9
101324.895
101324.89
101324.885
101324.88
101324.875
101324.869
101324.863
101324.857
101324.851
101324.844
101324.837
101324.83
101324.823
101324.815
101324.807
101324.799
101324.79
101324.781
101324.772
101324.762
101324.752
101324.741
101324.73
101324.719
101324.707
101324.695
101324.683
101324.669
101324.656
101324.642
101324.627
101324.612
101324.596
101324.58
101324.563
101324.546
101324.528
101324.509
101324.489
101324.469
101324.448
101324.427
101324.405
101324.382
101324.358
101324.333
101324.308
101324.282
101324.254
101324.226
101324.197
101324.167
101324.136
101324.104
101324.071
101324.037
101324.002
101323.966
101323.929
101323.89
101323.851
101323.81
101323.768
101323.724
101323.679
101323.633
101323.586
101323.537
101323.487
101323.435
101323.382
101323.327
101323.271
101323.213
101323.154
101323.093
101323.03
101322.965
101322.899
101322.831
101322.761
101322.69
101322.616
101322.541
101322.463
101322.384
101322.302
101322.219
101322.134
101322.046
101321.956
101321.865
101321.771
101321.674
101321.576
101321.475
101321.372
101321.267
101321.159
101321.049
101320.936
101320.821
101320.704
101320.584
101320.462
101320.337
101320.209
101320.079
101319.947
101319.812
101319.674
101319.533
101319.39
101319.245
101319.096
101318.945
101318.791
101318.635
101318.476
101318.314
101318.15
101317.982
101317.812
101317.64
101317.465
101317.287
101317.106
101316.923
101316.737
101316.548
101316.357
101316.163
101315.967
101315.768
101315.566
101315.363
101315.156
101314.947
101314.736
101314.523
101314.307
101314.089
101313.868
101313.646
101313.421
101313.195
101312.966
101312.735
101312.503
101312.268
101312.032
101311.794
101311.555
101311.313
101311.071
101310.827
101310.582
101310.335
101310.087
101309.838
101309.589
101309.338
101309.086
101308.834
101308.581
101308.328
101308.074
101307.82
101307.565
101307.311
101307.056
101306.802
101306.548
101306.294
101306.041
101305.788
101305.536
101305.284
101305.034
101304.784
101304.536
101304.289
101304.043
101303.799
101303.556
101303.315
101303.076
101302.839
101302.604
101302.371
101302.141
101301.913
101301.687
101301.464
101301.244
101301.027
101300.813
101300.602
101300.394
101300.19
101299.989
101299.792
101299.598
101299.408
101299.221
101299.039
101298.861
101298.687
101298.517
101298.351
101298.19
101298.033
101297.881
101297.733
101297.59
101297.452
101297.318
101297.189
101297.065
101296.946
101296.832
101296.723
101296.62
101296.521
101296.427
101296.339
101296.255
101296.177
101296.104
101296.036
101295.974
101295.916
101295.864
101295.817
101295.775
101295.738
101295.707
101295.68
101295.659
101295.643
101295.631
101295.625
101295.624
101295.627
101295.635
101295.648
101295.666
101295.689
101295.715
101295.747
101295.783
101295.823
101295.867
101295.916
101295.969
101296.025
101296.086
101296.15
101296.219
101296.29
101296.366
101296.445
101296.527
101296.612
101296.7
101296.792
101296.886
101296.983
101297.083
101297.185
101297.29
101297.397
101297.506
101297.617
101297.731
101297.846
101297.963
101298.082
101298.202
101298.324
101298.447
101298.571
101298.696
101298.822
101298.95
101299.077
101299.206
101299.335
101299.465
101299.595
101299.726
101299.856
101299.987
101300.118
101300.249
101300.379
101300.509
101300.639
101300.769
101300.898
101301.027
101301.155
101301.282
101301.409
101301.535
101301.66
101301.784
101301.907
101302.029
101302.15
101302.27
101302.389
101302.507
101302.623
101302.738
101302.852
101302.965
101303.076
101303.186
101303.295
101303.402
101303.508
101303.612
101303.715
101303.816
101303.916
101304.015
101304.112
101304.208
101304.302
101304.394
101304.486
101304.576
101304.664
101304.751
101304.836
101304.921
101305.003
101305.085
101305.165
101305.244
101305.321
101305.397
101305.472
101305.546
101305.618
101305.689
101305.759
101305.828
101305.895
101305.962
101306.027
101306.092
101306.155
101306.218
101306.279
101306.339
101306.399
101306.457
101306.515
101306.572
101306.628
101306.683
101306.738
101306.791
101306.844
101306.897
101306.948
101306.999
101307.049
101307.099
101307.148
101307.197
101307.245
101307.292
101307.339
101307.385
101307.431
101307.477
101307.522
101307.566
101307.61
101307.654
101307.697
101307.74
101307.783
101307.825
101307.867
101307.909
101307.95
101307.991
101308.031
101308.071
101308.111
101308.151
101308.19
101308.229
101308.268
101308.306
101308.344
101308.382
101308.42
101308.457
101308.494
101308.531
101308.567
101308.603
101308.639
101308.674
101308.71
101308.745
101308.779
101308.814
101308.848
101308.881
101308.915
101308.948
101308.98
101309.013
101309.045
101309.077
101309.108
101309.139
101309.17
101309.2
101309.23
101309.26
101309.289
101309.318
101309.347
101309.375
101309.403
101309.431
101309.458
101309.485
101309.511
101309.537
101309.563
101309.588
101309.613
101309.638
101309.662
101309.686
101309.71
101309.733
101309.756
101309.779
101309.801
101309.823
101309.845
101309.866
101309.887
101309.908
101309.928
101309.949
101309.969
101309.988
101310.008
101310.027
101310.046
101310.065
101310.083
101310.102
101310.12
101310.138
101310.156
101310.173
101310.191
101310.208
101310.226
101310.243
101310.26
101310.277
101310.294
101310.311
101310.328
101310.345
101310.362
101310.378
101310.395
101310.412
101310.429
101310.445
101310.462
101310.479
101310.496
101310.513
101310.53
101310.547
101310.565
101310.582
101310.599
101310.617
101310.634
101310.652
101310.67
101310.688
101310.706
101310.724
101310.742
101310.76
101310.778
101310.797
101310.816
101310.834
101310.853
101310.872
101310.891
101310.91
101310.929
101310.948
101310.968
101310.987
101311.006
101311.026
101311.045
101311.065
101311.085
101311.104
101311.124
101311.143
101311.163
101311.183
101311.202
101311.222
101311.241
101311.261
101311.28
101311.299
101311.319
101311.338
101311.357
101311.376
101311.394
101311.413
101311.432
101311.45
101311.468
101311.487
101311.505
101311.522
101311.54
101311.557
101311.575
101311.592
101311.609
101311.626
101311.642
101311.658
101311.675
101311.691
101311.706
101311.722
101311.737
101311.752
101311.767
101311.782
101311.797
101311.811
101311.825
101311.839
101311.853
101311.867
101311.88
101311.893
101311.906
101311.919
101311.932
101311.945
101311.957
101311.969
101311.982
101311.994
101312.005
101312.017
101312.029
101312.04
101312.052
101312.063
101312.074
101312.085
101312.096
101312.107
101312.118
101312.128
101312.139
101312.15
101312.16
101312.17
101312.181
101312.191
101312.201
101312.211
101312.221
101312.231
101312.241
101312.251
101312.261
101312.271
101312.28
101312.29
101312.3
101312.309
101312.319
101312.328
101312.338
101312.347
101312.356
101312.366
101312.375
101312.384
101312.394
101312.403
101312.412
101312.421
101312.43
101312.439
101312.448
101312.457
101312.467
101312.476
101312.485
101312.494
101312.503
101312.512
101312.521
101312.53
101312.539
101312.548
101312.558
101312.567
101312.576
101312.586
101312.595
101312.605
101312.614
101312.624
101312.634
101312.644
101312.654
101312.665
101312.675
101312.686
101312.697
101312.708
101312.719
101312.731
101312.743
101312.755
101312.768
101312.781
101312.794
101312.808
101312.822
101312.837
101312.853
101312.868
101312.885
101312.902
101312.92
101312.938
101312.958
101312.978
101312.999
101313.021
101313.044
101313.068
101313.093
101313.12
101313.147
101313.177
101313.207
101313.239
101313.272
101313.308
101313.344
101313.383
101313.423
101313.466
101313.51
101313.557
101313.605
101313.656
101313.709
101313.764
101313.822
101313.882
101313.944
101314.009
101314.076
101314.146
101314.218
101314.292
101314.368
101314.447
101314.528
101314.611
101314.695
101314.781
101314.869
101314.958
101315.048
101315.139
101315.231
101315.323
101315.416
101315.508
101315.599
101315.69
101315.78
101315.868
101315.955
101316.039
101316.121
101316.201
101316.277
101316.35
101316.42
101316.486
101316.548
101316.606
101316.66
101316.71
101316.755
101316.796
101316.833
101316.866
101316.895
101316.921
101316.943
101316.961
101316.976
101316.989
101317
101317.008
101317.015
101317.02
101317.024
101317.028
101317.031
101317.033
101317.036
101317.039
101317.042
101317.045
101317.049
101317.054
101317.059
101317.064
101317.07
101317.077
101317.084
101317.09
101317.096
101317.109
101317.156
101317.136
101317.428
101317.575
101317.528
101317.066
101316.957
101316.898
101316.954
101316.972
101317.026
101317.043
101317.089
101317.099
101317.117
101317.114
101317.113
101317.105
101317.098
101317.089
101317.081
101317.074
101317.067
101317.061
101317.055
101317.05
101317.045
101317.041
101317.037
101317.033
101317.03
101317.026
101317.023
101317.019
101317.016
101317.012
101317.008
101317.004
101316.999
101316.994
101316.989
101316.983
101316.976
101316.968
101316.96
101316.952
101316.942
101316.931
101316.92
101316.908
101316.895
101316.881
101316.866
101316.849
101316.832
101316.814
101316.795
101316.774
101316.753
101316.731
101316.707
101316.682
101316.657
101316.63
101316.602
101316.573
101316.543
101316.512
101316.48
101316.447
101316.414
101316.379
101316.343
101316.307
101316.269
101316.231
101316.192
101316.153
101316.112
101316.071
101316.03
101315.988
101315.945
101315.902
101315.858
101315.815
101315.77
101315.726
101315.681
101315.635
101315.59
101315.545
101315.499
101315.453
101315.407
101315.362
101315.316
101315.27
101315.225
101315.179
101315.134
101315.089
101315.044
101314.999
101314.955
101314.911
101314.867
101314.824
101314.781
101314.739
101314.696
101314.655
101314.613
101314.573
101314.532
101314.493
101314.453
101314.415
101314.377
101314.339
101314.302
101314.266
101314.23
101314.194
101314.16
101314.125
101314.092
101314.059
101314.027
101313.995
101313.964
101313.933
101313.903
101313.874
101313.845
101313.817
101313.789
101313.762
101313.735
101313.709
101313.684
101313.659
101313.635
101313.611
101313.588
101313.565
101313.543
101313.521
101313.5
101313.479
101313.459
101313.439
101313.42
101313.401
101313.383
101313.365
101313.347
101313.33
101313.313
101313.297
101313.281
101313.265
101313.25
101313.235
101313.221
101313.206
101313.193
101313.179
101313.166
101313.153
101313.14
101313.128
101313.116
101313.104
101313.093
101313.081
101313.07
101313.06
101313.049
101313.039
101313.029
101313.019
101313.009
101313
101312.99
101312.981
101312.972
101312.963
101312.955
101312.946
101312.938
101312.93
101312.922
101312.914
101312.906
101312.899
101312.891
101312.884
101312.877
101312.87
101312.863
101312.856
101312.849
101312.843
101312.836
101312.83
101312.823
101312.817
101312.811
101312.805
101312.799
101312.793
101312.787
101312.781
101312.775
101312.769
101312.764
101312.758
101312.753
101312.747
101312.742
101312.736
101312.731
101312.726
101312.721
101312.715
101312.71
101312.705
101312.7
101312.695
101312.69
101312.685
101312.68
101312.675
101312.671
101312.666
101312.661
101312.656
101312.651
101312.647
101312.642
101312.637
101312.633
101312.628
101312.623
101312.619
101312.614
101312.609
101312.605
101312.6
101312.596
101312.591
101312.587
101312.582
101312.578
101312.573
101312.569
101312.564
101312.56
101312.555
101312.551
101312.546
101312.542
101312.537
101312.533
101312.528
101312.524
101312.519
101312.515
101312.51
101312.506
101312.501
101312.497
101312.492
101312.488
101312.483
101312.479
101312.474
101312.47
101312.465
101312.46
101312.456
101312.451
101312.447
101312.442
101312.437
101312.433
101312.428
101312.424
101312.419
101312.414
101312.41
101312.405
101312.4
101312.395
101312.391
101312.386
101312.381
101312.376
101312.372
101312.367
101312.362
101312.357
101312.352
101312.347
101312.343
101312.338
101312.333
101312.328
101312.323
101312.318
101312.313
101312.308
101312.303
101312.298
101312.293
101312.288
101312.283
101312.278
101312.273
101312.268
101312.263
101312.257
101312.252
101312.247
101312.242
101312.237
101312.231
101312.226
101312.221
101312.215
101312.21
101312.205
101312.199
101312.194
101312.189
101312.183
101312.178
101312.172
101312.167
101312.161
101312.156
101312.15
101312.145
101312.139
101312.133
101312.128
101312.122
101312.116
101312.111
101312.105
101312.099
101312.093
101312.088
101312.082
101312.076
101312.07
101312.064
101312.058
101312.052
101312.046
101312.04
101312.034
101312.028
101312.021
101312.015
101312.009
101312.003
101311.996
101311.99
101311.984
101311.977
101311.971
101311.964
101311.958
101311.951
101311.945
101311.938
101311.931
101311.925
101311.918
101311.911
101311.904
101311.897
101311.89
101311.884
101311.877
101311.869
101311.862
101311.855
101311.848
101311.841
101311.834
101311.826
101311.819
101311.811
101311.804
101311.796
101311.789
101311.781
101311.774
101311.766
101311.758
101311.75
101311.742
101311.735
101311.727
101311.719
101311.711
101311.702
101311.694
101311.686
101311.678
101311.67
101311.661
101311.653
101311.644
101311.636
101311.627
101311.619
101311.61
101311.602
101311.593
101311.584
101311.575
101311.566
101311.558
101311.549
101311.54
101311.531
101311.522
101311.512
101311.503
101311.494
101311.485
101311.476
101311.466
101311.457
101311.448
101311.438
101311.429
101311.419
101311.41
101311.4
101311.39
101311.381
101311.371
101311.362
101311.352
101311.342
101311.332
101311.323
101311.313
101311.303
101311.293
101311.283
101311.273
101311.263
101311.253
101311.243
101311.233
101311.223
101311.213
101311.203
101311.193
101311.183
101311.173
101311.163
101311.153
101311.143
101311.133
101311.123
101311.113
101311.103
101311.093
101311.083
101311.073
101311.062
101311.052
101311.042
101311.032
101311.022
101311.012
101311.002
101310.992
101310.982
101310.972
101310.962
101310.952
101310.942
101310.932
101310.922
101310.912
101310.902
101310.892
101310.882
101310.872
101310.862
101310.852
101310.843
101310.833
101310.823
101310.813
101310.803
101310.794
101310.784
101310.773
101310.761
101310.749
101310.736
101310.722
101310.707
101310.691
101310.674
101310.655
101310.636
101310.615
101310.593
101310.57
101310.545
101310.518
101310.489
101310.459
101310.426
101310.391
101310.354
101310.314
101310.271
101310.225
101310.175
101310.12
101310.06
101309.993
101309.92
101309.837
101309.744
101309.639
101309.519
101309.381
101309.224
101309.044
101308.839
101308.605
101308.34
101308.04
101307.701
101307.313
101306.862
101306.322
101305.65
101304.784
101303.643
101302.148
101300.263
101298.077
101295.915
101294.391
101294.317
101296.388
101300.742
101306.702
101312.931
101318.1
101321.591
101323.543
101324.46
101324.826
101324.951
101324.988
101324.998
101325
101325.001
101325.001
101325.001
101325.001
101325.001
101325.001
101325.001
101325.001
101325.001
101325
101325
)
;

boundaryField
{
    closed
    {
        type            zeroGradient;
    }
    open
    {
        type            waveTransmissive;
        gamma           1.25;
        fieldInf        101325;
        lInf            1;
        value           uniform 101325;
    }
    sides
    {
        type            empty;
    }
}


// ************************************************************************* //
