/*--------------------------------*- C++ -*----------------------------------*\
| =========                 |                                                 |
| \\      /  F ield         | OpenFOAM: The Open Source CFD Toolbox           |
|  \\    /   O peration     | Version:  2206                                  |
|   \\  /    A nd           | Website:  www.openfoam.com                      |
|    \\/     M anipulation  |                                                 |
\*---------------------------------------------------------------------------*/
FoamFile
{
    version     2.0;
    format      ascii;
    arch        "LSB;label=32;scalar=64";
    class       volScalarField;
    location    "1.8e-05";
    object      PVsourcePV;
}
// * * * * * * * * * * * * * * * * * * * * * * * * * * * * * * * * * * * * * //

dimensions      [1 -3 -1 0 0 0 0];

internalField   nonuniform List<scalar> 
3183
(
0
0
0
0
0
0
0
0
0
0
0
0
0
0
0
0
0
0
0
0
0
0
0
0
0
0
0
0
0
0
0
0
0
0
0
0
0
0
0
0
0
0
0
0
0
0
0
0
0
0
0
0
0
0
0
0
0
0
0
0
0
0
0
0
0
0
0
0
0
0
0
0
0
0
0
0
0
0
0
0
0
0
0
0
0
0
0
0
0
0
0
0
0
0
0
0
0
0
0
0
0
0
0
0
0
0
0
0
0
0
0
0
0
0
0
0
0
0
0
0
0
0
0
0
0
0
0
0
0
0
0
0
0
0
0
0
0
0
0
0
0
0
0
0
0
0
0
0
0
0
0
0
0
0
0
0
0
0
0
0
0
0
0
0
0
0
0
0
0
0
0
0
0
0
0
0
0
0
0
0
0
0
0
0
0
0
0
0
0
0
0
0
0
0
0
0
0
0
0
0
0
0
0
0
0
0
0
0
0
0
0
0
0
0
0
0
0
0
0
0
0
0
0
0
0
0
0
0
0
0
0
0
0
0
0
0
0
0
0
0
0
0
0
0
0
0
0
0
0
0
0
0
0
0
0
0
0
0
0
0
0
0
0
0
0
0
0
0
0
0
0
0
0
0
0
0
0
0
0
0
0
0
0
0
0
0
0
0
0
0
0
0
0
0
0
0
0
0
0
0
0
0
0
0
0
0
0
0
0
0
0
0
0
0
0
0
0
0
0
0
0
0
0
0
0
0
0
0
0
0
0
0
0
0
0
0
0
0
0
0
0
0
0
0
0
0
0
0
0
0
0
0
0
0
0
0
0
0
0
0
0
0
0
0
0
0
0
0
0
0
0
0
0
0
0
0
0
0
0
0
0
0
0
0
0
0
0
0
0
0
0
0
0
0
0
0
0
0
0
0
0
0
0
0
0
0
0
0
0
0
0
0
0
0
0
0
0
0
0
0
0
0
0
0
0
0
0
0
0
0
0
0
0
0
0
0
0
0
0
0
0
0
0
0
0
0
0
0
0
0
0
0
0
0
0
0
0
0
0
0
0
0
0
0
0
0
0
0
0
0
0
0
0
0
0
0
0
0
0
0
0
0
0
0
0
0
0
0
0
0
0
0
0
0
0
0
0
0
0
0
0
0
0
0
0
0
0
0
0
0
0
0
0
0
0
0
0
0
0
0
0
0
0
0
0
0
0
0
0
0
0
0
0
0
0
0
0
0
0
0
0
0
0
0
0
0
0
0
0
0
0
0
0
0
0
0
0
0
0
0
0
0
0
0
0
0
0
0
0
0
0
0
0
0
0
0
0
0
0
0
0
0
0
0
0
0
0
0
0
0
0
0
0
0
0
0
0
0
0
0
0
0
0
0
0
0
0
0
0
0
0
0
0
0
0
0
0
0
0
0
0
0
0
0
0
0
0
0
0
0
0
0
0
0
0
0
0
0
0
0
0
0
0
0
0
0
0
0
0
0
0
0
0
0
0
0
0
0
0
0
0
0
0
0
0
0
0
0
0
0
0
0
0
0
0
0
0
0
0
0
0
0
0
0
0
0
0
0
0
0
0
0
0
0
0
0
0
0
0
0
0
0
0
0
0
0
0
0
0
0
0
0
0
0
0
0
0
0
0
0
0
0
0
0
0
0
0
0
0
0
0
0
0
0
0
0
0
0
0
0
0
0
0
0
0
0
0
0
0
0
0
0
0
0
0
0
0
0
0
0
0
0
0
0
0
0
0
0
0
0
0
0
0
0
0
0
0
0
0
0
0
0
0
0
0
0
0
0
0
0
0
0
0
0
0
0
0
0
0
0
0
0
0
0
0
0
0
0
0
0
0
0
0
0
0
0
0
0
0
0
0
0
0
0
0
0
0
0
0
0
0
0
0
0
0
0
0
0
0
0
0
0
0
0
0
0
0
0
0
0
0
0
0
0
0
0
0
0
0
0
0
0
0
0
0
0
0
0
0
0
0
0
0
0
0
0
0
0
0
0
0
0
0
0
0
0
0
0
0
0
0
0
0
0
0
0
0
0
0
0
0
0
0
0
0
0
0
0
0
0
0
0
0
0
0
0
0
0
0
0
0
0
0
0
0
0
0
0
0
0
0
0
0
0
0
0
0
0
0
0
0
0
0
0
0
0
0
0
0
0
0
0
0
0
0
0
0
0
0
0
0
0
0
0
0
0
0
0
0
0
0
0
0
0
0
0
0
0
0
0
0
0
0
0
0
0
0
0
0
0
0
0
0
0
0
0
0
0
0
0
0
0
0
0
0
0
0
0
0
0
0
0
0
0
0
0
0
0
0
0
0
0
0
0
0
0
0
0
0
0
0
0
0
0
0
0
0
0
0
0
0
0
0
0
0
0
0
0
0
0
0
0
0
0
0
0
0
0
0
0
0
0
0
0
0
0
0
0
0
0
0
0
0
0
0
0
0
0
0
0
0
0
0
0
0
0
0
0
0
0
0
0
0
0
0
0
0
0
0
0
0
0
0
0
0
0
0
0
0
0
0
0
0
0
0
0
0
0
0
0
0
0
0
0
0
0
0
0
0
0
0
0
0
0
0
0
0
0
0
0
0
0
0
0
0
0
0
0
0
0
0
0
0
0
0
0
0
0
0
0
0
0
0
0
0
0
0
0
0
0
0
0
0
0
0
0
0
0
0
0
0
0
0
0
0
0
0
0
0
0
0
0
0
0
0
0
0
0
0
0
0
0
0
0
0
0
0
0
0
0
0
0
0
0
0
0
0
0
0
0
0
0
0
0
0
0
0
0
0
0
0
0
0
0
0
0
0
0
0
0
0
0
0
0
0
0
0
0
0
0
0
0
0
0
0
0
0
0
0
0
0
0
0
0
0
0
0
0
0
0
0
0
0
0
0
0
0
0
0
0
0
0
0
0
0
0
0
0
0
0
0
0
0
0
0
0
0
0
0
0
0
0
0
0
0
0
0
0
0
0
0
0
0
0
0
0
0
0
0
0
0
0
0
0
0
0
0
0
0
0
0
0
0
0
0
0
0
0
0
0
0
0
0
0
0
0
0
0
0
0
0
0
0
0
0
0
0
0
0
0
0
0
0
0
0
0
0
0
0
0
0
0
0
0
0
0
0
0
0
0
0
0
0
0
0
0
0
0
0
0
0
0
0
0
0
0
0
0
0
0
0
0
0
0
0
0
0
0
0
0
0
0
0
0
0
0
0
0
0
0
0
0
0
0
0
0
0
0
0
0
0
0
0
0
0
0
0
0
0
0
0
0
0
0
0
0
0
0
0
0
0
0
0
0
0
0
0
0
0
0
0
0
0
0
0
0
0
0
0
0
0
0
0
0
0
0
0
0
0
0
0
0
0
0
0
0
0
0
0
0
0
0
0
0
0
0
0
0
0
0
0
0
0
0
0
0
0
0
0
0
0
0
0
0
0
0
0
0
0
0
0
0
0
0
0
0
0
0
0
0
0
0
0
0
0
0
0
0
0
0
0
0
0
0
0
0
0
0
0
0
0
0
0
0
0
0
0
0
0
0
0
0
0
0
0
0
0
0
0
0
0
0
0
0
0
0
0
0
0
0
0
0
0
0
0
0
0
0
0
0
0
0
0
0
0
0
0
0
0
0
0
0
0
0
0
0
0
0
0
0
0
0
0
0
0
0
0
0
0
0
0
0
0
0
0
0
0
0
0
0
0
0
0
0
0
0
0
0
0
0
0
0
0
0
0
0
0
0
0
0
0
0
0
0
0
0
0
0
0
0
0
0
0
0
0
0
0
0
0
0
0
0
0
0
0
0
0
0
0
0
0
0
0
0
0
0
0
0
0
0
0
0
0
0
0
0
0
0
0
0
0
0
0
0
0
0
0
0
0
0
0
0
0
0
0
0
0
0
0
0
0
0
0
0
0
0
0
0
0
0
0
0
0
0
0
0
0
0
0
0
0
0
0
0
0
0
0
0
0
0
0
0
0
0
0
0
0
0
0
0
0
0
0
0
0
0
0
0
0
0
0
0
0
0
0
0
0
0
0
0
0
0
0
0
0
0
0
0
0
0
0
0
0
0
0
0
0
0
0
0
0
0
0
0
0
0
0
0
0
0
0
0
0
0
0
0
0
0
0
0
0
0
0
0
0
0
0
0
0
0
0
0
0
0
0
0
0
0
0
0
0
0
0
0
0
0
0
0
0
0
0
0
0
0
0
0
0
0
0
0
0
0
0
0
0
0
0
0
0
0
0
0
0
0
0
0
0
0
0
0
0
0
0
0
0
0
0
0
0
0
0
0
0
0
0
0
0
0
0
0
0
0
0
0
0
0
0
0
0
0
0
0
0
0
0
0
0
0
0
0
0
0
0
0
0
0
0
0
0
0
0
0
0
0
0
0
0
0
0
0
0
0
0
0
0
0
0
0
0
0
0
0
0
0
0
0
0
0
0
0
0
0
0
0
0
0
0
0
0
0
0
0
0
0
0
0
0
0
0
0
0
0
0
0
0
0
0
0
0
0
0
0
0
0
0
0
0
0
0
0
0
0
0
0
0
0
0
0
0
0
0
0
0
0
0
0
0
0
0
0
0
0
0
0
0
0
0
0
0
0
0
0
0
0
0
0
0
0
0
0
0
0
0
0
0
0
0
0
0
0
0
0
0
0
0
0
0
0
0
0
0
0
0
0
0
0
0
0
0
0
0
0
0
0
0
0
0
0
0
0
0
0
0
0
0
0
0
0
0
0
0
0
0
0
0
0
0
0
0
0
0
0
0
0
0
0
0
0
0
0
0
0
0
0
0
0
0
0
0
0
0
0
0
0
0
0
0
0
0
0
0
0
0
0
0
0
0
0
0
0
0
0
0
0
0
0
0
0
0
0
0
0
0
0
0
0
0
0
0
0
0
0
0
0
0
0
0
0
0
0
0
0
0
0
0
0
0
0
0
0
0
0
0
0
0
0
0
0
0
0
0
0
0
0
0
0
0
0
0
0
0
0
0
0
0
0
0
0
0
0
0
0
0
0
0
0
0
0
0
0
0
0
0
0
0
0
0
0
0
0
0
0
0
0
0
0
0
0
0
0
0
0
0
0
0
0
0
0
0
0
0
0
0
0
0
0
0
0
0
0
0
0
0
0
0
0
0
0
0
0
0
0
0
0
0
0
0
0
0
0
0
0
0
0
0
0
0
0
0
0
0
0
0
0
0
0
0
0
0
0
0
0
0
0
0
0
0
0
0
0
0
0
0
0
0
0
0
0
0
0
0
0
0
0
0
0
0
0
0
0
0
0
0
0
0
0
0
0
0
0
0
0
0
0
0
0
0
0
0
0
0
0
0
0
0
0
0
0
0
3.17457796e-298
1.6902498e-298
1.58194136e-295
8.49878822e-296
7.81316881e-293
4.23509203e-293
3.82463065e-290
2.0915204e-290
1.85553748e-287
1.02364394e-287
8.92195068e-285
4.96497376e-285
4.25158748e-282
2.38646737e-282
2.0078646e-279
1.13673844e-279
9.397232e-277
5.36567764e-277
4.35850279e-274
2.5096949e-274
2.0032521e-271
1.16324477e-271
9.12395698e-269
5.34264242e-269
4.11782642e-266
2.43092071e-266
1.84152342e-263
1.09631453e-263
8.16013719e-261
4.89857136e-261
3.58273455e-258
2.16902483e-258
1.55852606e-255
9.51189659e-256
6.71707844e-253
4.13253205e-253
2.86812226e-250
1.77867382e-250
1.21324658e-247
7.58387382e-248
5.08413715e-245
3.20319654e-245
2.11049377e-242
1.34015808e-242
8.6782202e-240
5.55379579e-240
3.53457683e-237
2.27963823e-237
1.42588331e-234
9.26753031e-235
5.69703891e-232
3.73132653e-232
2.25429668e-229
1.48779099e-229
8.8337858e-227
5.87458836e-227
3.42793785e-224
2.29692256e-224
1.31717904e-221
8.89250913e-222
5.01137722e-219
3.40867884e-219
1.88774575e-216
1.29361622e-216
7.0400671e-214
4.86021261e-214
2.59913467e-211
1.80762102e-211
9.4988331e-209
6.65476356e-209
3.43614116e-206
2.42493889e-206
1.23026797e-203
8.74541855e-204
4.35937315e-201
3.12132959e-201
1.5286585e-198
1.10241304e-198
5.30425434e-196
3.85265398e-196
1.82108312e-193
1.33214246e-193
6.18571126e-191
4.55700105e-191
2.07857433e-188
1.54207985e-188
6.90904111e-186
5.16171478e-186
2.27146042e-183
1.7088317e-183
7.38559004e-181
5.59474142e-181
2.37472762e-178
1.81130661e-178
7.54997319e-176
5.79814911e-176
2.37319173e-173
1.83495264e-173
7.3744086e-171
5.740495e-171
2.26505074e-168
1.77505583e-168
6.87594902e-166
5.42450668e-166
2.06270472e-163
1.63809662e-163
6.11413392e-161
4.88757367e-161
1.79047403e-158
1.44066532e-158
5.17935756e-156
4.19457694e-156
1.47977578e-153
1.20616179e-153
4.17506383e-151
3.42491676e-151
1.1630814e-148
9.60182505e-149
3.19865158e-146
2.65733659e-146
8.68282337e-144
7.2586418e-144
2.32603783e-141
1.95661047e-141
6.14831322e-139
5.20373083e-139
1.60323482e-136
1.36522692e-136
4.12340045e-134
3.5325579e-134
1.04578639e-131
9.01321195e-132
2.61497665e-129
2.26716711e-129
6.44517134e-127
5.62089045e-127
1.56546514e-124
1.37323325e-124
3.74619895e-122
3.30519289e-122
8.830159e-120
7.83526749e-120
2.04957335e-117
1.82894992e-117
4.68336107e-115
4.20263982e-115
1.05324088e-112
9.50366137e-113
2.33047608e-110
2.11435802e-110
5.07193219e-108
4.62646432e-108
1.08535705e-105
9.95315813e-106
2.28293714e-103
2.10457598e-103
4.71825948e-101
4.37224032e-101
9.57795636e-99
8.92103017e-99
1.90895334e-96
1.78700194e-96
3.73395001e-94
3.51279284e-94
7.16476719e-92
6.77339416e-92
1.34801704e-89
1.28051549e-89
2.4856304e-87
2.3723303e-87
4.48953843e-85
4.30479335e-85
7.93878192e-83
7.6467714e-83
1.37354224e-80
1.32892351e-80
2.32380524e-78
2.25813333e-78
3.84188067e-76
3.74922026e-76
6.20259051e-74
6.07810415e-74
9.77161122e-72
9.61393805e-72
1.50099756e-69
1.48245093e-69
2.24619507e-67
2.22639929e-67
3.27171324e-65
3.25316492e-65
4.63383818e-63
4.61888844e-63
6.37514367e-61
6.36262277e-61
8.51006193e-59
8.48900649e-59
1.10087845e-56
1.0952875e-56
1.37826923e-54
1.3659473e-54
1.66757633e-52
1.64833886e-52
1.9466988e-50
1.92953097e-50
2.18879624e-48
2.18721144e-48
2.36580228e-46
2.35641583e-46
2.45340819e-44
2.43530329e-44
2.43513254e-42
2.40968046e-42
2.30730572e-40
2.27761073e-40
2.08088916e-38
2.05096173e-38
1.78042388e-36
1.75400014e-36
1.43980704e-34
1.41797776e-34
1.09581333e-32
1.0956735e-32
7.80881774e-31
7.79462971e-31
5.18247352e-29
5.15850427e-29
3.18089663e-27
3.15652091e-27
1.7909694e-25
1.7738815e-25
9.15905165e-24
9.07778132e-24
4.20245591e-22
4.17556691e-22
1.70332318e-20
1.69483255e-20
5.97628921e-19
5.94436179e-19
1.76571631e-17
1.7568008e-17
4.22211447e-16
4.21659958e-16
1.52582567e-14
1.51770965e-14
1.76308187e-10
1.76449519e-10
0.00229757539
0.0103519845
0.435029124
0.550077646
0.733837218
0.68476321
0.299396932
0.25055838
0.0601357765
0.0490168084
0.0128251777
0.011489797
0.00288675455
0.00267258359
0.000583320769
0.000559584387
0.000107959195
0.000106686953
1.91002512e-05
1.9092867e-05
3.62303571e-06
3.62470432e-06
1.10473135e-06
1.10480252e-06
7.23392872e-07
7.23375333e-07
6.69382093e-07
6.69388492e-07
6.62211391e-07
6.62210944e-07
6.61310694e-07
6.61311147e-07
6.61202849e-07
6.61204856e-07
6.6119025e-07
6.61192825e-07
6.61190014e-07
6.61189795e-07
6.61190245e-07
6.61188723e-07
6.61190589e-07
6.61188863e-07
6.61190064e-07
6.61189619e-07
6.61190976e-07
6.61189577e-07
6.61190756e-07
6.61189999e-07
6.61190804e-07
6.61190066e-07
6.61190716e-07
6.61190817e-07
6.6119091e-07
6.61190297e-07
6.61190534e-07
6.6119078e-07
6.61189607e-07
6.61191572e-07
6.61189426e-07
6.6119092e-07
6.61189693e-07
6.61190588e-07
6.61189509e-07
6.6118987e-07
6.61189165e-07
6.61189949e-07
6.61189431e-07
6.61190942e-07
6.61188486e-07
6.61191377e-07
6.61188708e-07
6.6119029e-07
6.61189751e-07
6.61190657e-07
6.61189228e-07
6.61191419e-07
6.61188874e-07
6.61191455e-07
6.6118977e-07
6.61190717e-07
6.61189819e-07
6.61190013e-07
6.61189984e-07
6.61189714e-07
6.61190559e-07
6.61189662e-07
6.61190387e-07
6.61189107e-07
6.6119085e-07
6.61188857e-07
6.61191991e-07
6.61189123e-07
6.61190998e-07
6.61189699e-07
6.61191781e-07
6.61189177e-07
6.61191189e-07
6.61189877e-07
6.61190608e-07
6.61190476e-07
6.61190644e-07
6.61189727e-07
6.61190743e-07
6.61189919e-07
6.61189277e-07
6.61191441e-07
6.61189502e-07
6.6119014e-07
6.61190581e-07
6.61189605e-07
6.61190598e-07
6.61189569e-07
6.61189943e-07
6.61189975e-07
6.61189583e-07
6.61190874e-07
6.61188624e-07
6.61191124e-07
6.61189612e-07
6.61191443e-07
6.61189246e-07
6.61191773e-07
6.6118902e-07
6.6119051e-07
6.61190415e-07
6.61190745e-07
6.61189576e-07
6.61191333e-07
6.61189565e-07
6.61191042e-07
6.61190231e-07
6.6119136e-07
6.61190721e-07
6.61191676e-07
6.61190764e-07
6.61191718e-07
6.61190283e-07
6.61190999e-07
6.61189864e-07
6.61190633e-07
6.61189961e-07
6.61189634e-07
6.61189571e-07
6.61190957e-07
6.61188887e-07
6.61190121e-07
6.61189204e-07
6.61190666e-07
6.61190097e-07
6.61189625e-07
6.61191862e-07
6.61188536e-07
6.61191377e-07
6.6118894e-07
6.61191561e-07
6.61189831e-07
6.61191315e-07
6.61188942e-07
6.61191433e-07
6.61188992e-07
6.61192379e-07
6.61188974e-07
6.61192276e-07
6.61189737e-07
6.61192454e-07
6.61189769e-07
6.61190541e-07
6.61190831e-07
6.61190634e-07
6.61188845e-07
6.61190531e-07
6.61189618e-07
6.611893e-07
6.61191307e-07
6.61189267e-07
6.61193365e-07
6.61194191e-07
6.61222849e-07
6.61225363e-07
6.61387799e-07
6.6138625e-07
6.61222859e-07
6.61223322e-07
6.61193805e-07
6.61193411e-07
6.61190382e-07
6.61190906e-07
6.61190195e-07
6.61190834e-07
6.61189901e-07
6.61191296e-07
6.61189248e-07
6.61191709e-07
6.61190367e-07
6.61190991e-07
6.61190071e-07
6.61190638e-07
6.61189668e-07
6.61191276e-07
6.61189498e-07
6.61191405e-07
6.61189652e-07
6.61192184e-07
6.61189094e-07
6.61192038e-07
6.61189739e-07
6.61190676e-07
6.61190363e-07
6.61191395e-07
6.61190052e-07
6.61191232e-07
6.61190439e-07
6.61191019e-07
6.61190177e-07
6.61191025e-07
6.61190757e-07
6.61190748e-07
6.61190914e-07
6.61190184e-07
6.61191276e-07
6.6119044e-07
6.61190852e-07
6.6119026e-07
6.61191786e-07
6.61190318e-07
6.61190375e-07
6.61191695e-07
6.61189546e-07
6.61191353e-07
6.611907e-07
6.61190386e-07
6.61190888e-07
6.61191125e-07
6.61190224e-07
6.61191072e-07
6.61191336e-07
6.61190781e-07
6.61191219e-07
6.61191126e-07
6.61191093e-07
6.61191231e-07
6.61192172e-07
6.61189723e-07
6.61192678e-07
6.61189326e-07
6.61192243e-07
6.61189209e-07
6.61191194e-07
6.6119014e-07
6.61189926e-07
6.61191693e-07
6.61190635e-07
6.6119043e-07
6.61190382e-07
6.61191118e-07
6.61191012e-07
6.61189811e-07
6.6119165e-07
6.61190568e-07
6.61191587e-07
6.61190654e-07
6.61192095e-07
6.61190776e-07
6.61190744e-07
6.61191186e-07
6.61189479e-07
6.61191444e-07
6.61189926e-07
6.6119091e-07
6.61190061e-07
6.61192264e-07
6.61189738e-07
6.6119103e-07
6.61190904e-07
6.61190463e-07
6.61191501e-07
6.6119033e-07
6.61191186e-07
6.61190615e-07
6.611901e-07
6.61191262e-07
6.61190397e-07
6.61190825e-07
6.61190579e-07
6.61190698e-07
6.61190071e-07
6.61190929e-07
6.61190805e-07
6.61190784e-07
6.6119129e-07
6.61190918e-07
6.61191293e-07
6.61191223e-07
6.61190211e-07
6.61190329e-07
6.61190956e-07
6.6119018e-07
6.61191282e-07
6.61191688e-07
6.61191e-07
6.61191681e-07
6.61191436e-07
6.61191383e-07
6.61191394e-07
6.6119073e-07
6.61191689e-07
6.61190908e-07
6.61190456e-07
6.61190034e-07
6.61191609e-07
6.61189361e-07
6.61191222e-07
6.61189901e-07
6.61191771e-07
6.6119093e-07
6.61190984e-07
6.61191016e-07
6.61190953e-07
6.6119165e-07
6.61189893e-07
6.61191776e-07
6.61188901e-07
6.6119271e-07
6.61189975e-07
6.61192164e-07
6.61190157e-07
6.61191052e-07
6.61190952e-07
6.61191981e-07
6.61190864e-07
6.61191735e-07
6.61190314e-07
6.61190773e-07
6.6119057e-07
6.61191176e-07
6.61191021e-07
6.61190837e-07
6.61191856e-07
6.61190598e-07
6.61191021e-07
6.61191498e-07
6.61191816e-07
6.61191219e-07
6.61191387e-07
6.61191753e-07
6.61191089e-07
6.61191007e-07
6.6119109e-07
6.6119138e-07
6.61190866e-07
6.61191822e-07
6.611912e-07
6.61190922e-07
6.61190753e-07
6.61189964e-07
6.61191098e-07
6.61191243e-07
6.61190661e-07
6.61191761e-07
6.61190712e-07
6.61191048e-07
6.61191178e-07
6.6119121e-07
6.61191547e-07
6.61191018e-07
6.61190881e-07
6.61191859e-07
6.61190954e-07
6.61192269e-07
6.61190805e-07
6.61191623e-07
6.61191537e-07
6.61191377e-07
6.61191443e-07
6.61192678e-07
6.61190556e-07
6.61192118e-07
6.61191274e-07
6.61191904e-07
6.61191442e-07
6.61191619e-07
6.6119128e-07
6.6119182e-07
6.61190777e-07
6.61191998e-07
6.61191058e-07
6.61190768e-07
6.61192549e-07
6.61190112e-07
6.611915e-07
6.61190299e-07
6.61191333e-07
6.61191306e-07
6.6119097e-07
6.61192199e-07
6.61191214e-07
6.61191161e-07
6.61191573e-07
6.61191166e-07
6.61191877e-07
6.61191682e-07
6.61190638e-07
6.61190574e-07
6.61192539e-07
6.61189388e-07
6.61192488e-07
6.61189884e-07
6.61192149e-07
6.61191026e-07
6.61191388e-07
6.61191624e-07
6.61191316e-07
6.61192444e-07
6.61191233e-07
6.61191128e-07
6.61191612e-07
6.61191175e-07
6.61192026e-07
6.61191902e-07
6.61192287e-07
6.61191678e-07
6.61191903e-07
6.61190545e-07
6.61193262e-07
6.61190612e-07
6.61192977e-07
6.61191146e-07
6.61191946e-07
6.61191241e-07
6.61191826e-07
6.61191802e-07
6.61191825e-07
6.61191881e-07
6.61191841e-07
6.61192823e-07
6.6119136e-07
6.61192599e-07
6.6119122e-07
6.61192071e-07
6.61192214e-07
6.61191766e-07
6.61192576e-07
6.61190507e-07
6.61192202e-07
6.61191463e-07
6.61192023e-07
6.61191688e-07
6.61192136e-07
6.61191745e-07
6.61192134e-07
6.61191436e-07
6.61191975e-07
6.61191577e-07
6.61190945e-07
6.61191411e-07
6.61192095e-07
6.61191596e-07
6.61191092e-07
6.61191501e-07
6.61192337e-07
6.61191194e-07
6.6119206e-07
6.61190614e-07
6.61192856e-07
6.61190984e-07
6.61193105e-07
6.61192193e-07
6.6119236e-07
6.61191503e-07
6.61192518e-07
6.61191069e-07
6.61192089e-07
6.61191106e-07
6.61191157e-07
6.61192131e-07
6.61191996e-07
6.61191673e-07
6.61192702e-07
6.61191457e-07
6.61191681e-07
6.61191168e-07
6.61191712e-07
6.61191468e-07
6.61192127e-07
6.61191147e-07
6.61191714e-07
6.61191684e-07
6.61190734e-07
6.61192161e-07
6.61190751e-07
6.61192973e-07
6.61190948e-07
6.61193519e-07
6.61190989e-07
6.61193332e-07
6.61190103e-07
6.61192913e-07
6.61191612e-07
6.61191627e-07
6.61191927e-07
6.61191924e-07
6.61191916e-07
6.61191928e-07
6.61192339e-07
6.61191844e-07
6.61190747e-07
6.61192602e-07
6.61191358e-07
6.6119193e-07
6.61192308e-07
6.6119204e-07
6.61191466e-07
6.61192005e-07
6.61191854e-07
6.61192e-07
6.61191787e-07
6.61192073e-07
6.61192148e-07
6.61191819e-07
6.61191883e-07
6.6119212e-07
6.61192044e-07
6.6119219e-07
6.61191961e-07
6.6119217e-07
6.61192017e-07
6.61192122e-07
6.61192162e-07
6.61192239e-07
6.61192186e-07
6.61192246e-07
6.6119238e-07
6.61192396e-07
6.61192339e-07
6.6119246e-07
6.61192529e-07
6.61192509e-07
6.61192606e-07
6.61192673e-07
6.611928e-07
6.61192829e-07
6.61192916e-07
6.61193027e-07
6.61193095e-07
6.61193222e-07
6.61193378e-07
6.61193523e-07
6.6119363e-07
6.61193857e-07
6.61194058e-07
6.61194307e-07
6.611946e-07
6.61194912e-07
6.61195269e-07
6.61195637e-07
6.61195974e-07
6.6119623e-07
6.61196409e-07
6.61196538e-07
6.61196637e-07
6.61196648e-07
6.61196678e-07
6.61196682e-07
6.61196674e-07
6.61196687e-07
6.61196691e-07
6.61196669e-07
6.61196702e-07
6.61196665e-07
6.61196667e-07
6.61196673e-07
6.61196674e-07
6.6119667e-07
6.61196669e-07
6.61196674e-07
6.61196674e-07
6.61196658e-07
6.61196697e-07
)
;

boundaryField
{
    closed
    {
        type            calculated;
        value           uniform 0;
    }
    open
    {
        type            calculated;
        value           uniform 0;
    }
    sides
    {
        type            empty;
    }
}


// ************************************************************************* //
