/*--------------------------------*- C++ -*----------------------------------*\
| =========                 |                                                 |
| \\      /  F ield         | OpenFOAM: The Open Source CFD Toolbox           |
|  \\    /   O peration     | Version:  2206                                  |
|   \\  /    A nd           | Website:  www.openfoam.com                      |
|    \\/     M anipulation  |                                                 |
\*---------------------------------------------------------------------------*/
FoamFile
{
    version     2.0;
    format      ascii;
    arch        "LSB;label=32;scalar=64";
    class       volScalarField;
    location    "1.8e-05";
    object      rho;
}
// * * * * * * * * * * * * * * * * * * * * * * * * * * * * * * * * * * * * * //

dimensions      [1 -3 0 0 0 0 0];

internalField   nonuniform List<scalar> 
3183
(
1.03926466
1.03926466
1.03926466
1.03926466
1.03926466
1.03926466
1.03926466
1.03926466
1.03926466
1.03926466
1.03926466
1.03926466
1.03926466
1.03926466
1.03926466
1.03926466
1.03926466
1.03926466
1.03926466
1.03926466
1.03926466
1.03926466
1.03926466
1.03926466
1.03926466
1.03926466
1.03926466
1.03926466
1.03926466
1.03926466
1.03926466
1.03926466
1.03926466
1.03926466
1.03926466
1.03926466
1.03926466
1.03926466
1.03926466
1.03926466
1.03926466
1.03926466
1.03926466
1.03926466
1.03926466
1.03926466
1.03926466
1.03926466
1.03926466
1.03926466
1.03926466
1.03926466
1.03926466
1.03926466
1.03926466
1.03926466
1.03926466
1.03926466
1.03926466
1.03926466
1.03926466
1.03926466
1.03926466
1.03926466
1.03926466
1.03926466
1.03926466
1.03926466
1.03926466
1.03926466
1.03926466
1.03926466
1.03926466
1.03926466
1.03926466
1.03926466
1.03926466
1.03926466
1.03926466
1.03926466
1.03926466
1.03926466
1.03926466
1.03926466
1.03926466
1.03926466
1.03926466
1.03926466
1.03926466
1.03926466
1.03926466
1.03926466
1.03926466
1.03926466
1.03926466
1.03926466
1.03926466
1.03926466
1.03926466
1.03926466
1.03926466
1.03926466
1.03926466
1.03926466
1.03926466
1.03926466
1.03926466
1.03926466
1.03926466
1.03926466
1.03926466
1.03926466
1.03926466
1.03926466
1.03926466
1.03926466
1.03926466
1.03926466
1.03926466
1.03926466
1.03926466
1.03926466
1.03926466
1.03926466
1.03926466
1.03926466
1.03926466
1.03926466
1.03926466
1.03926466
1.03926466
1.03926466
1.03926466
1.03926466
1.03926466
1.03926466
1.03926466
1.03926466
1.03926466
1.03926466
1.03926466
1.03926466
1.03926466
1.03926466
1.03926466
1.03926466
1.03926466
1.03926466
1.03926466
1.03926466
1.03926466
1.03926466
1.03926466
1.03926466
1.03926466
1.03926466
1.03926466
1.03926466
1.03926466
1.03926466
1.03926466
1.03926466
1.03926466
1.03926466
1.03926466
1.03926466
1.03926466
1.03926466
1.03926466
1.03926466
1.03926466
1.03926466
1.03926466
1.03926466
1.03926466
1.03926466
1.03926466
1.03926466
1.03926466
1.03926466
1.03926466
1.03926466
1.03926466
1.03926466
1.03926466
1.03926466
1.03926466
1.03926466
1.03926466
1.03926466
1.03926466
1.03926466
1.03926466
1.03926466
1.03926466
1.03926466
1.03926466
1.03926466
1.03926466
1.03926466
1.03926466
1.03926466
1.03926466
1.03926466
1.03926466
1.03926466
1.03926466
1.03926466
1.03926466
1.03926466
1.03926466
1.03926466
1.03926466
1.03926466
1.03926466
1.03926466
1.03926466
1.03926466
1.03926466
1.03926466
1.03926466
1.03926466
1.03926466
1.03926466
1.03926466
1.03926466
1.03926466
1.03926466
1.03926466
1.03926466
1.03926466
1.03926466
1.03926466
1.03926466
1.03926466
1.03926466
1.03926466
1.03926466
1.03926466
1.03926466
1.03926466
1.03926466
1.03926466
1.03926466
1.03926466
1.03926466
1.03926466
1.03926466
1.03926466
1.03926466
1.03926466
1.03926466
1.03926466
1.03926466
1.03926466
1.03926466
1.03926466
1.03926466
1.03926466
1.03926466
1.03926466
1.03926466
1.03926466
1.03926466
1.03926466
1.03926466
1.03926466
1.03926466
1.03926466
1.03926466
1.03926466
1.03926466
1.03926466
1.03926466
1.03926466
1.03926466
1.03926466
1.03926466
1.03926466
1.03926466
1.03926466
1.03926466
1.03926466
1.03926466
1.03926466
1.03926466
1.03926466
1.03926466
1.03926466
1.03926466
1.03926466
1.03926466
1.03926466
1.03926466
1.03926466
1.03926466
1.03926466
1.03926466
1.03926466
1.03926466
1.03926466
1.03926466
1.03926466
1.03926466
1.03926466
1.03926466
1.03926466
1.03926466
1.03926466
1.03926466
1.03926466
1.03926466
1.03926466
1.03926466
1.03926466
1.03926466
1.03926466
1.03926466
1.03926466
1.03926466
1.03926466
1.03926466
1.03926466
1.03926466
1.03926466
1.03926466
1.03926466
1.03926466
1.03926466
1.03926466
1.03926466
1.03926466
1.03926466
1.03926466
1.03926466
1.03926466
1.03926466
1.03926466
1.03926466
1.03926466
1.03926466
1.03926466
1.03926466
1.03926466
1.03926466
1.03926466
1.03926466
1.03926466
1.03926466
1.03926466
1.03926466
1.03926466
1.03926466
1.03926466
1.03926466
1.03926466
1.03926466
1.03926466
1.03926466
1.03926466
1.03926466
1.03926466
1.03926466
1.03926466
1.03926466
1.03926466
1.03926466
1.03926466
1.03926466
1.03926466
1.03926466
1.03926466
1.03926466
1.03926466
1.03926466
1.03926466
1.03926466
1.03926466
1.03926466
1.03926466
1.03926466
1.03926466
1.03926466
1.03926466
1.03926466
1.03926466
1.03926466
1.03926466
1.03926466
1.03926466
1.03926466
1.03926466
1.03926466
1.03926466
1.03926466
1.03926466
1.03926466
1.03926466
1.03926466
1.03926466
1.03926466
1.03926466
1.03926466
1.03926466
1.03926466
1.03926466
1.03926466
1.03926466
1.03926466
1.03926466
1.03926466
1.03926466
1.03926466
1.03926466
1.03926466
1.03926466
1.03926466
1.03926466
1.03926466
1.03926466
1.03926466
1.03926466
1.03926466
1.03926466
1.03926466
1.03926466
1.03926466
1.03926466
1.03926466
1.03926466
1.03926466
1.03926466
1.03926466
1.03926466
1.03926466
1.03926466
1.03926466
1.03926466
1.03926466
1.03926466
1.03926466
1.03926466
1.03926466
1.03926466
1.03926466
1.03926466
1.03926466
1.03926466
1.03926466
1.03926466
1.03926466
1.03926466
1.03926466
1.03926466
1.03926466
1.03926466
1.03926466
1.03926466
1.03926466
1.03926466
1.03926466
1.03926466
1.03926466
1.03926466
1.03926466
1.03926466
1.03926466
1.03926466
1.03926466
1.03926466
1.03926466
1.03926466
1.03926466
1.03926466
1.03926466
1.03926466
1.03926466
1.03926466
1.03926466
1.03926466
1.03926466
1.03926466
1.03926466
1.03926466
1.03926466
1.03926466
1.03926466
1.03926466
1.03926466
1.03926466
1.03926466
1.03926466
1.03926466
1.03926466
1.03926466
1.03926466
1.03926466
1.03926466
1.03926466
1.03926466
1.03926466
1.03926466
1.03926466
1.03926466
1.03926466
1.03926466
1.03926466
1.03926466
1.03926466
1.03926466
1.03926466
1.03926466
1.03926466
1.03926466
1.03926466
1.03926466
1.03926466
1.03926466
1.03926466
1.03926466
1.03926466
1.03926466
1.03926466
1.03926466
1.03926466
1.03926466
1.03926466
1.03926466
1.03926466
1.03926466
1.03926466
1.03926466
1.03926466
1.03926466
1.03926466
1.03926466
1.03926466
1.03926466
1.03926466
1.03926466
1.03926466
1.03926466
1.03926466
1.03926466
1.03926466
1.03926466
1.03926466
1.03926466
1.03926466
1.03926466
1.03926466
1.03926466
1.03926466
1.03926466
1.03926466
1.03926466
1.03926466
1.03926466
1.03926466
1.03926466
1.03926466
1.03926466
1.03926466
1.03926466
1.03926466
1.03926466
1.03926466
1.03926466
1.03926466
1.03926466
1.03926466
1.03926466
1.03926466
1.03926466
1.03926466
1.03926466
1.03926466
1.03926466
1.03926466
1.03926466
1.03926466
1.03926466
1.03926466
1.03926466
1.03926466
1.03926466
1.03926466
1.03926466
1.03926466
1.03926466
1.03926466
1.03926466
1.03926466
1.03926466
1.03926466
1.03926466
1.03926466
1.03926466
1.03926466
1.03926466
1.03926466
1.03926466
1.03926466
1.03926466
1.03926466
1.03926466
1.03926466
1.03926466
1.03926466
1.03926466
1.03926466
1.03926466
1.03926466
1.03926466
1.03926466
1.03926466
1.03926466
1.03926466
1.03926466
1.03926466
1.03926466
1.03926466
1.03926466
1.03926466
1.03926466
1.03926466
1.03926466
1.03926466
1.03926466
1.03926466
1.03926466
1.03926466
1.03926466
1.03926466
1.03926466
1.03926466
1.03926466
1.03926466
1.03926466
1.03926466
1.03926466
1.03926466
1.03926466
1.03926466
1.03926466
1.03926466
1.03926466
1.03926466
1.03926466
1.03926466
1.03926466
1.03926466
1.03926466
1.03926466
1.03926466
1.03926466
1.03926466
1.03926466
1.03926466
1.03926466
1.03926466
1.03926466
1.03926466
1.03926466
1.03926466
1.03926466
1.03926466
1.03926466
1.03926466
1.03926466
1.03926466
1.03926466
1.03926466
1.03926466
1.03926466
1.03926466
1.03926466
1.03926466
1.03926466
1.03926466
1.03926466
1.03926466
1.03926466
1.03926466
1.03926466
1.03926466
1.03926466
1.03926466
1.03926466
1.03926466
1.03926466
1.03926466
1.03926466
1.03926466
1.03926466
1.03926466
1.03926466
1.03926466
1.03926466
1.03926466
1.03926466
1.03926466
1.03926466
1.03926466
1.03926466
1.03926466
1.03926466
1.03926466
1.03926466
1.03926466
1.03926466
1.03926466
1.03926466
1.03926466
1.03926466
1.03926466
1.03926466
1.03926466
1.03926466
1.03926466
1.03926466
1.03926466
1.03926466
1.03926466
1.03926466
1.03926466
1.03926466
1.03926466
1.03926466
1.03926466
1.03926466
1.03926466
1.03926466
1.03926466
1.03926466
1.03926466
1.03926466
1.03926466
1.03926466
1.03926466
1.03926466
1.03926466
1.03926466
1.03926466
1.03926466
1.03926466
1.03926466
1.03926466
1.03926466
1.03926466
1.03926466
1.03926466
1.03926466
1.03926466
1.03926466
1.03926466
1.03926466
1.03926466
1.03926466
1.03926466
1.03926466
1.03926466
1.03926466
1.03926466
1.03926466
1.03926466
1.03926466
1.03926466
1.03926466
1.03926466
1.03926466
1.03926466
1.03926466
1.03926466
1.03926466
1.03926466
1.03926466
1.03926466
1.03926466
1.03926466
1.03926466
1.03926466
1.03926466
1.03926466
1.03926466
1.03926466
1.03926466
1.03926466
1.03926466
1.03926466
1.03926466
1.03926466
1.03926466
1.03926466
1.03926466
1.03926466
1.03926466
1.03926466
1.03926466
1.03926466
1.03926466
1.03926466
1.03926466
1.03926466
1.03926466
1.03926466
1.03926466
1.03926466
1.03926466
1.03926466
1.03926466
1.03926466
1.03926466
1.03926466
1.03926466
1.03926466
1.03926466
1.03926466
1.03926466
1.03926466
1.03926466
1.03926466
1.03926466
1.03926466
1.03926466
1.03926466
1.03926466
1.03926466
1.03926466
1.03926466
1.03926466
1.03926466
1.03926466
1.03926466
1.03926466
1.03926466
1.03926466
1.03926466
1.03926466
1.03926466
1.03926466
1.03926466
1.03926466
1.03926466
1.03926466
1.03926466
1.03926466
1.03926466
1.03926466
1.03926466
1.03926466
1.03926466
1.03926466
1.03926466
1.03926466
1.03926466
1.03926466
1.03926466
1.03926466
1.03926466
1.03926466
1.03926466
1.03926466
1.03926466
1.03926466
1.03926466
1.03926466
1.03926466
1.03926466
1.03926466
1.03926466
1.03926466
1.03926466
1.03926466
1.03926466
1.03926466
1.03926466
1.03926466
1.03926466
1.03926466
1.03926466
1.03926466
1.03926466
1.03926466
1.03926466
1.03926466
1.03926466
1.03926466
1.03926466
1.03926466
1.03926466
1.03926466
1.03926466
1.03926466
1.03926466
1.03926466
1.03926466
1.03926466
1.03926466
1.03926466
1.03926466
1.03926466
1.03926466
1.03926466
1.03926466
1.03926466
1.03926466
1.03926466
1.03926466
1.03926466
1.03926466
1.03926466
1.03926466
1.03926466
1.03926466
1.03926466
1.03926466
1.03926466
1.03926466
1.03926466
1.03926466
1.03926466
1.03926466
1.03926466
1.03926466
1.03926466
1.03926466
1.03926466
1.03926466
1.03926466
1.03926466
1.03926466
1.03926466
1.03926466
1.03926466
1.03926466
1.03926466
1.03926466
1.03926466
1.03926466
1.03926466
1.03926466
1.03926466
1.03926466
1.03926466
1.03926466
1.03926466
1.03926466
1.03926466
1.03926466
1.03926466
1.03926466
1.03926466
1.03926466
1.03926466
1.03926466
1.03926466
1.03926466
1.03926466
1.03926466
1.03926466
1.03926466
1.03926466
1.03926466
1.03926466
1.03926466
1.03926466
1.03926466
1.03926466
1.03926466
1.03926466
1.03926466
1.03926466
1.03926466
1.03926466
1.03926466
1.03926466
1.03926466
1.03926466
1.03926466
1.03926466
1.03926466
1.03926466
1.03926466
1.03926466
1.03926466
1.03926466
1.03926466
1.03926466
1.03926466
1.03926466
1.03926466
1.03926466
1.03926466
1.03926466
1.03926466
1.03926466
1.03926466
1.03926466
1.03926466
1.03926466
1.03926466
1.03926466
1.03926466
1.03926466
1.03926466
1.03926466
1.03926466
1.03926466
1.03926466
1.03926466
1.03926466
1.03926466
1.03926466
1.03926466
1.03926466
1.03926466
1.03926466
1.03926466
1.03926466
1.03926466
1.03926466
1.03926466
1.03926466
1.03926466
1.03926466
1.03926466
1.03926466
1.03926466
1.03926466
1.03926466
1.03926466
1.03926466
1.03926466
1.03926466
1.03926466
1.03926466
1.03926466
1.03926466
1.03926466
1.03926466
1.03926466
1.03926466
1.03926466
1.03926466
1.03926466
1.03926466
1.03926466
1.03926466
1.03926466
1.03926466
1.03926466
1.03926466
1.03926466
1.03926466
1.03926466
1.03926466
1.03926466
1.03926466
1.03926466
1.03926466
1.03926466
1.03926466
1.03926466
1.03926466
1.03926466
1.03926466
1.03926466
1.03926466
1.03926466
1.03926466
1.03926466
1.03926466
1.03926466
1.03926466
1.03926466
1.03926466
1.03926466
1.03926466
1.03926466
1.03926466
1.03926466
1.03926466
1.03926466
1.03926466
1.03926466
1.03926466
1.03926466
1.03926466
1.03926466
1.03926466
1.03926466
1.03926466
1.03926466
1.03926466
1.03926466
1.03926466
1.03926466
1.03926466
1.03926466
1.03926466
1.03926466
1.03926466
1.03926466
1.03926466
1.03926466
1.03926466
1.03926466
1.03926466
1.03926466
1.03926466
1.03926466
1.03926466
1.03926466
1.03926466
1.03926466
1.03926466
1.03926466
1.03926466
1.03926466
1.03926466
1.03926466
1.03926466
1.03926466
1.03926466
1.03926466
1.03926466
1.03926466
1.03926466
1.03926466
1.03926466
1.03926466
1.03926466
1.03926466
1.03926466
1.03926466
1.03926466
1.03926466
1.03926466
1.03926466
1.03926466
1.03926466
1.03926466
1.03926466
1.03926466
1.03926466
1.03926466
1.03926466
1.03926466
1.03926466
1.03926466
1.03926466
1.03926466
1.03926466
1.03926466
1.03926466
1.03926466
1.03926466
1.03926466
1.03926466
1.03926466
1.03926466
1.03926466
1.03926466
1.03926466
1.03926466
1.03926466
1.03926466
1.03926466
1.03926466
1.03926466
1.03926466
1.03926466
1.03926466
1.03926466
1.03926466
1.03926466
1.03926466
1.03926466
1.03926466
1.03926466
1.03926466
1.03926466
1.03926466
1.03926466
1.03926466
1.03926466
1.03926466
1.03926466
1.03926466
1.03926466
1.03926466
1.03926466
1.03926466
1.03926466
1.03926466
1.03926466
1.03926466
1.03926466
1.03926466
1.03926466
1.03926466
1.03926466
1.03926466
1.03926466
1.03926466
1.03926466
1.03926466
1.03926466
1.03926466
1.03926466
1.03926466
1.03926466
1.03926466
1.03926466
1.03926466
1.03926466
1.03926466
1.03926466
1.03926466
1.03926466
1.03926466
1.03926466
1.03926466
1.03926466
1.03926466
1.03926466
1.03926466
1.03926466
1.03926466
1.03926466
1.03926466
1.03926466
1.03926466
1.03926466
1.03926466
1.03926466
1.03926466
1.03926466
1.03926466
1.03926466
1.03926466
1.03926466
1.03926466
1.03926466
1.03926466
1.03926466
1.03926466
1.03926466
1.03926466
1.03926466
1.03926466
1.03926466
1.03926466
1.03926466
1.03926466
1.03926466
1.03926466
1.03926466
1.03926466
1.03926466
1.03926466
1.03926466
1.03926466
1.03926466
1.03926466
1.03926466
1.03926466
1.03926466
1.03926466
1.03926466
1.03926466
1.03926466
1.03926466
1.03926466
1.03926466
1.03926466
1.03926466
1.03926466
1.03926466
1.03926466
1.03926466
1.03926466
1.03926466
1.03926466
1.03926466
1.03926466
1.03926466
1.03926466
1.03926466
1.03926466
1.03926466
1.03926466
1.03926466
1.03926466
1.03926466
1.03926466
1.03926466
1.03926466
1.03926466
1.03926466
1.03926466
1.03926466
1.03926466
1.03926466
1.03926466
1.03926466
1.03926466
1.03926466
1.03926466
1.03926466
1.03926466
1.03926466
1.03926466
1.03926466
1.03926466
1.03926466
1.03926466
1.03926466
1.03926466
1.03926466
1.03926466
1.03926466
1.03926466
1.03926466
1.03926466
1.03926466
1.03926466
1.03926466
1.03926466
1.03926466
1.03926466
1.03926466
1.03926466
1.03926466
1.03926466
1.03926466
1.03926466
1.03926466
1.03926466
1.03926466
1.03926466
1.03926466
1.03926466
1.03926466
1.03926466
1.03926466
1.03926466
1.03926466
1.03926466
1.03926466
1.03926466
1.03926466
1.03926466
1.03926466
1.03926466
1.03926466
1.03926466
1.03926466
1.03926466
1.03926466
1.03926466
1.03926466
1.03926466
1.03926466
1.03926466
1.03926466
1.03926466
1.03926466
1.03926466
1.03926466
1.03926466
1.03926466
1.03926466
1.03926466
1.03926466
1.03926466
1.03926466
1.03926466
1.03926466
1.03926466
1.03926466
1.03926466
1.03926466
1.03926466
1.03926466
1.03926466
1.03926466
1.03926466
1.03926466
1.03926466
1.03926466
1.03926466
1.03926466
1.03926466
1.03926466
1.03926466
1.03926466
1.03926466
1.03926466
1.03926466
1.03926466
1.03926466
1.03926466
1.03926466
1.03926466
1.03926466
1.03926466
1.03926466
1.03926466
1.03926466
1.03926466
1.03926466
1.03926466
1.03926466
1.03926466
1.03926466
1.03926466
1.03926466
1.03926466
1.03926466
1.03926466
1.03926466
1.03926466
1.03926466
1.03926466
1.03926466
1.03926466
1.03926466
1.03926466
1.03926466
1.03926466
1.03926466
1.03926466
1.03926466
1.03926466
1.03926466
1.03926466
1.03926466
1.03926466
1.03926466
1.03926466
1.03926466
1.03926466
1.03926466
1.03926466
1.03926466
1.03926466
1.03926466
1.03926466
1.03926466
1.03926466
1.03926466
1.03926466
1.03926466
1.03926466
1.03926466
1.03926466
1.03926466
1.03926466
1.03926466
1.03926466
1.03926466
1.03926466
1.03926466
1.03926466
1.03926466
1.03926466
1.03926466
1.03926466
1.03926466
1.03926466
1.03926466
1.03926466
1.03926466
1.03926466
1.03926466
1.03926466
1.03926466
1.03926466
1.03926466
1.03926466
1.03926466
1.03926466
1.03926466
1.03926466
1.03926466
1.03926466
1.03926466
1.03926466
1.03926466
1.03926466
1.03926466
1.03926466
1.03926466
1.03926466
1.03926466
1.03926466
1.03926466
1.03926466
1.03926466
1.03926466
1.03926466
1.03926466
1.03926466
1.03926466
1.03926466
1.03926466
1.03926466
1.03926466
1.03926466
1.03926466
1.03926466
1.03926466
1.03926466
1.03926466
1.03926466
1.03926466
1.03926466
1.03926466
1.03926466
1.03926466
1.03926466
1.03926466
1.03926466
1.03926466
1.03926466
1.03926466
1.03926466
1.03926466
1.03926466
1.03926466
1.03926466
1.03926466
1.03926466
1.03926466
1.03926466
1.03926466
1.03926466
1.03926466
1.03926466
1.03926466
1.03926466
1.03926466
1.03926466
1.03926466
1.03926466
1.03926466
1.03926466
1.03926466
1.03926466
1.03926466
1.03926466
1.03926466
1.03926466
1.03926466
1.03926466
1.03926466
1.03926466
1.03926466
1.03926466
1.03926466
1.03926466
1.03926466
1.03926466
1.03926466
1.03926466
1.03926466
1.03926466
1.03926466
1.03926466
1.03926466
1.03926466
1.03926466
1.03926466
1.03926466
1.03926466
1.03926466
1.03926466
1.03926466
1.03926466
1.03926466
1.03926466
1.03926466
1.03926466
1.03926466
1.03926466
1.03926466
1.03926466
1.03926466
1.03926466
1.03926466
1.03926466
1.03926466
1.03926466
1.03926466
1.03926466
1.03926466
1.03926466
1.03926466
1.03926466
1.03926466
1.03926466
1.03926466
1.03926466
1.03926466
1.03926466
1.03926466
1.03926466
1.03926466
1.03926466
1.03926466
1.03926466
1.03926466
1.03926466
1.03926466
1.03926466
1.03926466
1.03926466
1.03926466
1.03926466
1.03926466
1.03926466
1.03926466
1.03926466
1.03926466
1.03926466
1.03926466
1.03926466
1.03926466
1.03926466
1.03926466
1.03926466
1.03926466
1.03926466
1.03926466
1.03926466
1.03926466
1.03926466
1.03926466
1.03926466
1.03926466
1.03926466
1.03926466
1.03926466
1.03926466
1.03926466
1.03926466
1.03926466
1.03926466
1.03926466
1.03926466
1.03926466
1.03926466
1.03926466
1.03926466
1.03926466
1.03926466
1.03926466
1.03926466
1.03926466
1.03926466
1.03926466
1.03926466
1.03926466
1.03926466
1.03926466
1.03926466
1.03926466
1.03926466
1.03926466
1.03926466
1.03926466
1.03926466
1.03926466
1.03926466
1.03926466
1.03926466
1.03926466
1.03926466
1.03926466
1.03926466
1.03926466
1.03926466
1.03926466
1.03926466
1.03926466
1.03926466
1.03926466
1.03926466
1.03926466
1.03926466
1.03926466
1.03926466
1.03926466
1.03926466
1.03926466
1.03926466
1.03926466
1.03926466
1.03926466
1.03926466
1.03926466
1.03926466
1.03926466
1.03926466
1.03926466
1.03926466
1.03926466
1.03926466
1.03926466
1.03926466
1.03926466
1.03926466
1.03926466
1.03926466
1.03926466
1.03926466
1.03926466
1.03926466
1.03926466
1.03926466
1.03926466
1.03926466
1.03926466
1.03926466
1.03926466
1.03926466
1.03926466
1.03926466
1.03926466
1.03926466
1.03926466
1.03926466
1.03926466
1.03926466
1.03926466
1.03926466
1.03926466
1.03926466
1.03926466
1.03926466
1.03926466
1.03926466
1.03926466
1.03926466
1.03926466
1.03926466
1.03926466
1.03926465
1.03926465
1.03926465
1.03926465
1.03926465
1.03926465
1.03926465
1.03926465
1.03926465
1.03926465
1.03926465
1.03926465
1.03926465
1.03926465
1.03926465
1.03926464
1.03926464
1.03926464
1.03926464
1.03926464
1.03926464
1.03926464
1.03926464
1.03926463
1.03926463
1.03926463
1.03926463
1.03926463
1.03926463
1.03926462
1.03926462
1.03926462
1.03926462
1.03926462
1.03926461
1.03926461
1.03926461
1.0392646
1.0392646
1.0392646
1.03926459
1.03926459
1.03926459
1.03926458
1.03926458
1.03926457
1.03926457
1.03926456
1.03926456
1.03926455
1.03926455
1.03926454
1.03926454
1.03926453
1.03926452
1.03926452
1.03926451
1.0392645
1.03926449
1.03926448
1.03926447
1.03926446
1.03926445
1.03926444
1.03926443
1.03926442
1.03926441
1.0392644
1.03926438
1.03926437
1.03926435
1.03926434
1.03926432
1.03926431
1.03926429
1.03926427
1.03926425
1.03926423
1.03926421
1.03926419
1.03926417
1.03926414
1.03926412
1.03926409
1.03926407
1.03926404
1.03926401
1.03926398
1.03926394
1.03926391
1.03926388
1.03926384
1.0392638
1.03926376
1.03926372
1.03926368
1.03926363
1.03926359
1.03926354
1.03926349
1.03926343
1.03926338
1.03926332
1.03926326
1.0392632
1.03926313
1.03926306
1.03926299
1.03926292
1.03926284
1.03926277
1.03926268
1.0392626
1.03926251
1.03926242
1.03926232
1.03926222
1.03926212
1.03926201
1.0392619
1.03926178
1.03926166
1.03926154
1.03926141
1.03926127
1.03926113
1.03926099
1.03926084
1.03926068
1.03926052
1.03926035
1.03926018
1.03926
1.03925982
1.03925962
1.03925942
1.03925922
1.03925901
1.03925878
1.03925856
1.03925832
1.03925808
1.03925782
1.03925756
1.03925729
1.03925701
1.03925673
1.03925643
1.03925612
1.0392558
1.03925548
1.03925514
1.03925479
1.03925443
1.03925406
1.03925368
1.03925328
1.03925287
1.03925245
1.03925202
1.03925158
1.03925112
1.03925065
1.03925016
1.03924966
1.03924914
1.03924861
1.03924807
1.03924751
1.03924693
1.03924634
1.03924573
1.0392451
1.03924445
1.03924379
1.03924311
1.03924242
1.0392417
1.03924096
1.03924021
1.03923944
1.03923864
1.03923783
1.03923699
1.03923614
1.03923526
1.03923436
1.03923345
1.0392325
1.03923154
1.03923055
1.03922954
1.03922851
1.03922745
1.03922637
1.03922527
1.03922414
1.03922298
1.0392218
1.0392206
1.03921937
1.03921812
1.03921683
1.03921553
1.03921419
1.03921283
1.03921145
1.03921003
1.03920859
1.03920713
1.03920563
1.03920411
1.03920256
1.03920098
1.03919938
1.03919775
1.03919609
1.0391944
1.03919268
1.03919094
1.03918917
1.03918737
1.03918555
1.03918369
1.03918181
1.03917991
1.03917797
1.03917601
1.03917402
1.03917201
1.03916997
1.0391679
1.03916581
1.0391637
1.03916156
1.03915939
1.0391572
1.03915499
1.03915275
1.03915049
1.03914821
1.0391459
1.03914358
1.03914123
1.03913887
1.03913648
1.03913408
1.03913165
1.03912921
1.03912676
1.03912428
1.03912179
1.03911929
1.03911678
1.03911425
1.03911171
1.03910915
1.03910659
1.03910402
1.03910144
1.03909885
1.03909626
1.03909366
1.03909105
1.03908845
1.03908584
1.03908323
1.03908062
1.03907801
1.0390754
1.0390728
1.0390702
1.03906761
1.03906502
1.03906244
1.03905987
1.03905731
1.03905477
1.03905223
1.03904971
1.03904721
1.03904472
1.03904225
1.03903979
1.03903736
1.03903495
1.03903257
1.0390302
1.03902786
1.03902555
1.03902326
1.03902101
1.03901878
1.03901658
1.03901442
1.03901229
1.03901019
1.03900813
1.03900611
1.03900412
1.03900217
1.03900026
1.03899839
1.03899656
1.03899477
1.03899303
1.03899133
1.03898968
1.03898807
1.03898651
1.03898499
1.03898352
1.0389821
1.03898073
1.03897941
1.03897814
1.03897692
1.03897575
1.03897464
1.03897357
1.03897256
1.0389716
1.03897069
1.03896983
1.03896903
1.03896828
1.03896759
1.03896695
1.03896636
1.03896582
1.03896534
1.03896491
1.03896453
1.03896421
1.03896394
1.03896372
1.03896355
1.03896344
1.03896337
1.03896336
1.03896339
1.03896348
1.03896361
1.03896379
1.03896402
1.0389643
1.03896462
1.03896499
1.0389654
1.03896586
1.03896635
1.0389669
1.03896748
1.0389681
1.03896876
1.03896946
1.0389702
1.03897097
1.03897178
1.03897262
1.03897349
1.0389744
1.03897534
1.0389763
1.0389773
1.03897832
1.03897937
1.03898044
1.03898154
1.03898266
1.03898381
1.03898497
1.03898615
1.03898735
1.03898857
1.0389898
1.03899105
1.03899231
1.03899358
1.03899487
1.03899616
1.03899747
1.03899878
1.0390001
1.03900143
1.03900276
1.03900409
1.03900543
1.03900677
1.03900811
1.03900945
1.03901079
1.03901213
1.03901347
1.0390148
1.03901613
1.03901746
1.03901878
1.03902009
1.0390214
1.03902269
1.03902399
1.03902527
1.03902654
1.0390278
1.03902906
1.0390303
1.03903153
1.03903275
1.03903396
1.03903515
1.03903633
1.0390375
1.03903866
1.0390398
1.03904092
1.03904204
1.03904314
1.03904422
1.03904529
1.03904635
1.03904739
1.03904841
1.03904942
1.03905042
1.0390514
1.03905237
1.03905332
1.03905425
1.03905517
1.03905608
1.03905697
1.03905785
1.03905871
1.03905956
1.0390604
1.03906122
1.03906203
1.03906282
1.0390636
1.03906437
1.03906512
1.03906586
1.03906659
1.03906731
1.03906802
1.03906871
1.03906939
1.03907007
1.03907073
1.03907138
1.03907202
1.03907265
1.03907326
1.03907387
1.03907448
1.03907507
1.03907565
1.03907623
1.03907679
1.03907735
1.0390779
1.03907844
1.03907898
1.03907951
1.03908003
1.03908055
1.03908106
1.03908156
1.03908206
1.03908255
1.03908304
1.03908352
1.03908399
1.03908446
1.03908493
1.03908539
1.03908585
1.0390863
1.03908675
1.03908719
1.03908763
1.03908807
1.0390885
1.03908893
1.03908936
1.03908978
1.0390902
1.03909062
1.03909103
1.03909144
1.03909184
1.03909225
1.03909265
1.03909304
1.03909344
1.03909383
1.03909422
1.0390946
1.03909499
1.03909536
1.03909574
1.03909611
1.03909648
1.03909685
1.03909722
1.03909758
1.03909794
1.03909829
1.03909864
1.03909899
1.03909934
1.03909968
1.03910002
1.03910035
1.03910069
1.03910101
1.03910134
1.03910166
1.03910198
1.0391023
1.03910261
1.03910292
1.03910322
1.03910352
1.03910382
1.03910411
1.0391044
1.03910469
1.03910497
1.03910525
1.03910552
1.0391058
1.03910606
1.03910633
1.03910659
1.03910684
1.0391071
1.03910735
1.03910759
1.03910784
1.03910807
1.03910831
1.03910854
1.03910877
1.039109
1.03910922
1.03910944
1.03910965
1.03910987
1.03911008
1.03911028
1.03911049
1.03911069
1.03911089
1.03911109
1.03911128
1.03911147
1.03911167
1.03911185
1.03911204
1.03911223
1.03911241
1.03911259
1.03911277
1.03911295
1.03911313
1.0391133
1.03911348
1.03911365
1.03911383
1.039114
1.03911417
1.03911435
1.03911452
1.03911469
1.03911486
1.03911504
1.03911521
1.03911538
1.03911555
1.03911573
1.0391159
1.03911607
1.03911625
1.03911643
1.0391166
1.03911678
1.03911696
1.03911714
1.03911732
1.0391175
1.03911768
1.03911786
1.03911805
1.03911823
1.03911842
1.03911861
1.0391188
1.03911899
1.03911918
1.03911937
1.03911956
1.03911975
1.03911995
1.03912014
1.03912034
1.03912054
1.03912074
1.03912094
1.03912113
1.03912133
1.03912153
1.03912173
1.03912194
1.03912214
1.03912234
1.03912254
1.03912274
1.03912294
1.03912314
1.03912334
1.03912354
1.03912374
1.03912394
1.03912414
1.03912434
1.03912453
1.03912473
1.03912492
1.03912511
1.03912531
1.0391255
1.03912568
1.03912587
1.03912606
1.03912624
1.03912643
1.03912661
1.03912679
1.03912696
1.03912714
1.03912731
1.03912748
1.03912765
1.03912782
1.03912799
1.03912815
1.03912831
1.03912847
1.03912863
1.03912879
1.03912894
1.03912909
1.03912924
1.03912939
1.03912953
1.03912968
1.03912982
1.03912996
1.03913009
1.03913023
1.03913037
1.0391305
1.03913063
1.03913076
1.03913089
1.03913101
1.03913114
1.03913126
1.03913138
1.0391315
1.03913162
1.03913174
1.03913185
1.03913197
1.03913208
1.0391322
1.03913231
1.03913242
1.03913253
1.03913264
1.03913275
1.03913286
1.03913297
1.03913307
1.03913318
1.03913328
1.03913339
1.03913349
1.03913359
1.0391337
1.0391338
1.0391339
1.039134
1.0391341
1.0391342
1.0391343
1.0391344
1.0391345
1.03913459
1.03913469
1.03913479
1.03913488
1.03913498
1.03913508
1.03913517
1.03913527
1.03913536
1.03913546
1.03913555
1.03913564
1.03913574
1.03913583
1.03913592
1.03913602
1.03913611
1.0391362
1.0391363
1.03913639
1.03913648
1.03913657
1.03913667
1.03913676
1.03913686
1.03913695
1.03913704
1.03913714
1.03913724
1.03913733
1.03913743
1.03913753
1.03913763
1.03913773
1.03913783
1.03913793
1.03913804
1.03913814
1.03913825
1.03913836
1.03913847
1.03913859
1.0391387
1.03913882
1.03913895
1.03913907
1.0391392
1.03913934
1.03913947
1.03913961
1.03913976
1.03913991
1.03914007
1.03914023
1.0391404
1.03914058
1.03914076
1.03914095
1.03914115
1.03914135
1.03914157
1.0391418
1.03914203
1.03914228
1.03914254
1.03914281
1.03914309
1.03914339
1.0391437
1.03914403
1.03914438
1.03914474
1.03914511
1.03914551
1.03914592
1.03914636
1.03914682
1.03914729
1.03914779
1.03914831
1.03914885
1.03914942
1.03915001
1.03915063
1.03915127
1.03915193
1.03915262
1.03915333
1.03915407
1.03915483
1.03915562
1.03915642
1.03915725
1.0391581
1.03915897
1.03915985
1.03916075
1.03916167
1.03916259
1.03916353
1.03916447
1.03916541
1.03916636
1.0391673
1.03916824
1.03916918
1.0391701
1.039171
1.03917189
1.03917276
1.0391736
1.03917441
1.0391752
1.03917595
1.03917666
1.03917734
1.03917797
1.03917857
1.03917912
1.03917963
1.0391801
1.03918052
1.0391809
1.03918124
1.03918154
1.0391818
1.03918202
1.03918221
1.03918237
1.0391825
1.03918261
1.03918269
1.03918276
1.03918281
1.03918286
1.03918289
1.03918292
1.03918295
1.03918298
1.03918301
1.03918304
1.03918307
1.03918312
1.03918316
1.03918322
1.03918328
1.0391837
1.03918376
1.03919429
1.0391943
1.0394424
1.0394422
1.04073571
1.04075773
0.861447867
0.861423492
0.44569499
0.418127199
0.325268894
0.316155688
0.2861578
0.282911845
0.271042339
0.269922416
0.265257633
0.264943629
0.263425595
0.263360627
0.262942117
0.262931677
0.262830023
0.262828846
0.262806856
0.262806774
0.262802495
0.262802478
0.262801711
0.262801698
0.262801563
0.262801552
0.262801523
0.262801514
0.262801502
0.262801493
0.262801484
0.262801475
0.262801466
0.262801456
0.262801446
0.262801435
0.262801423
0.26280141
0.262801395
0.262801379
0.262801362
0.262801343
0.262801322
0.262801299
0.262801274
0.262801247
0.262801217