/*--------------------------------*- C++ -*----------------------------------*\
| =========                 |                                                 |
| \\      /  F ield         | OpenFOAM: The Open Source CFD Toolbox           |
|  \\    /   O peration     | Version:  2206                                  |
|   \\  /    A nd           | Website:  www.openfoam.com                      |
|    \\/     M anipulation  |                                                 |
\*---------------------------------------------------------------------------*/
FoamFile
{
    version     2.0;
    format      ascii;
    arch        "LSB;label=32;scalar=64";
    class       volScalarField;
    location    "1.8e-05";
    object      sourcePV;
}
// * * * * * * * * * * * * * * * * * * * * * * * * * * * * * * * * * * * * * //

dimensions      [1 -3 -1 0 0 0 0];

internalField   nonuniform List<scalar> 
3183
(
0
0
0
0
0
0
0
0
0
0
0
0
0
0
0
0
0
0
0
0
0
0
0
0
0
0
0
0
0
0
0
0
0
0
0
0
0
0
0
0
0
0
0
0
0
0
0
0
0
0
0
0
0
0
0
0
0
0
0
0
0
0
0
0
0
0
0
0
0
0
0
0
0
0
0
0
0
0
0
0
0
0
0
0
0
0
0
0
0
0
0
0
0
0
0
0
0
0
0
0
0
0
0
0
0
0
0
0
0
0
0
0
0
0
0
0
0
0
0
0
0
0
0
0
0
0
0
0
0
0
0
0
0
0
0
0
0
0
0
0
0
0
0
0
0
0
0
0
0
0
0
0
0
0
0
0
0
0
0
0
0
0
0
0
0
0
0
0
0
0
0
0
0
0
0
0
0
0
0
0
0
0
0
0
0
0
0
0
0
0
0
0
0
0
0
0
0
0
0
0
0
0
0
0
0
0
0
0
0
0
0
0
0
0
0
0
0
0
0
0
0
0
0
0
0
0
0
0
0
0
0
0
0
0
0
0
0
0
0
0
0
0
0
0
0
0
0
0
0
0
0
0
0
0
0
0
0
0
0
0
0
0
0
0
0
0
0
0
0
0
0
0
0
0
0
0
0
0
0
0
0
0
0
0
0
0
0
0
0
0
0
0
0
0
0
0
0
0
0
0
0
0
0
0
0
0
0
0
0
0
0
0
0
0
0
0
0
0
0
0
0
0
0
0
0
0
0
0
0
0
0
0
0
0
0
0
0
0
0
0
0
0
0
0
0
0
0
0
0
0
0
0
0
0
0
0
0
0
0
0
0
0
0
0
0
0
0
0
0
0
0
0
0
0
0
0
0
0
0
0
0
0
0
0
0
0
0
0
0
0
0
0
0
0
0
0
0
0
0
0
0
0
0
0
0
0
0
0
0
0
0
0
0
0
0
0
0
0
0
0
0
0
0
0
0
0
0
0
0
0
0
0
0
0
0
0
0
0
0
0
0
0
0
0
0
0
0
0
0
0
0
0
0
0
0
0
0
0
0
0
0
0
0
0
0
0
0
0
0
0
0
0
0
0
0
0
0
0
0
0
0
0
0
0
0
0
0
0
0
0
0
0
0
0
0
0
0
0
0
0
0
0
0
0
0
0
0
0
0
0
0
0
0
0
0
0
0
0
0
0
0
0
0
0
0
0
0
0
0
0
0
0
0
0
0
0
0
0
0
0
0
0
0
0
0
0
0
0
0
0
0
0
0
0
0
0
0
0
0
0
0
0
0
0
0
0
0
0
0
0
0
0
0
0
0
0
0
0
0
0
0
0
0
0
0
0
0
0
0
0
0
0
0
0
0
0
0
0
0
0
0
0
0
0
0
0
0
0
0
0
0
0
0
0
0
0
0
0
0
0
0
0
0
0
0
0
0
0
0
0
0
0
0
0
0
0
0
0
0
0
0
0
0
0
0
0
0
0
0
0
0
0
0
0
0
0
0
0
0
0
0
0
0
0
0
0
0
0
0
0
0
0
0
0
0
0
0
0
0
0
0
0
0
0
0
0
0
0
0
0
0
0
0
0
0
0
0
0
0
0
0
0
0
0
0
0
0
0
0
0
0
0
0
0
0
0
0
0
0
0
0
0
0
0
0
0
0
0
0
0
0
0
0
0
0
0
0
0
0
0
0
0
0
0
0
0
0
0
0
0
0
0
0
0
0
0
0
0
0
0
0
0
0
0
0
0
0
0
0
0
0
0
0
0
0
0
0
0
0
0
0
0
0
0
0
0
0
0
0
0
0
0
0
0
0
0
0
0
0
0
0
0
0
0
0
0
0
0
0
0
0
0
0
0
0
0
0
0
0
0
0
0
0
0
0
0
0
0
0
0
0
0
0
0
0
0
0
0
0
0
0
0
0
0
0
0
0
0
0
0
0
0
0
0
0
0
0
0
0
0
0
0
0
0
0
0
0
0
0
0
0
0
0
0
0
0
0
0
0
0
0
0
0
0
0
0
0
0
0
0
0
0
0
0
0
0
0
0
0
0
0
0
0
0
0
0
0
0
0
0
0
0
0
0
0
0
0
0
0
0
0
0
0
0
0
0
0
0
0
0
0
0
0
0
0
0
0
0
0
0
0
0
0
0
0
0
0
0
0
0
0
0
0
0
0
0
0
0
0
0
0
0
0
0
0
0
0
0
0
0
0
0
0
0
0
0
0
0
0
0
0
0
0
0
0
0
0
0
0
0
0
0
0
0
0
0
0
0
0
0
0
0
0
0
0
0
0
0
0
0
0
0
0
0
0
0
0
0
0
0
0
0
0
0
0
0
0
0
0
0
0
0
0
0
0
0
0
0
0
0
0
0
0
0
0
0
0
0
0
0
0
0
0
0
0
0
0
0
0
0
0
0
0
0
0
0
0
0
0
0
0
0
0
0
0
0
0
0
0
0
0
0
0
0
0
0
0
0
0
0
0
0
0
0
0
0
0
0
0
0
0
0
0
0
0
0
0
0
0
0
0
0
0
0
0
0
0
0
0
0
0
0
0
0
0
0
0
0
0
0
0
0
0
0
0
0
0
0
0
0
0
0
0
0
0
0
0
0
0
0
0
0
0
0
0
0
0
0
0
0
0
0
0
0
0
0
0
0
0
0
0
0
0
0
0
0
0
0
0
0
0
0
0
0
0
0
0
0
0
0
0
0
0
0
0
0
0
0
0
0
0
0
0
0
0
0
0
0
0
0
0
0
0
0
0
0
0
0
0
0
0
0
0
0
0
0
0
0
0
0
0
0
0
0
0
0
0
0
0
0
0
0
0
0
0
0
0
0
0
0
0
0
0
0
0
0
0
0
0
0
0
0
0
0
0
0
0
0
0
0
0
0
0
0
0
0
0
0
0
0
0
0
0
0
0
0
0
0
0
0
0
0
0
0
0
0
0
0
0
0
0
0
0
0
0
0
0
0
0
0
0
0
0
0
0
0
0
0
0
0
0
0
0
0
0
0
0
0
0
0
0
0
0
0
0
0
0
0
0
0
0
0
0
0
0
0
0
0
0
0
0
0
0
0
0
0
0
0
0
0
0
0
0
0
0
0
0
0
0
0
0
0
0
0
0
0
0
0
0
0
0
0
0
0
0
0
0
0
0
0
0
0
0
0
0
0
0
0
0
0
0
0
0
0
0
0
0
0
0
0
0
0
0
0
0
0
0
0
0
0
0
0
0
0
0
0
0
0
0
0
0
0
0
0
0
0
0
0
0
0
0
0
0
0
0
0
0
0
0
0
0
0
0
0
0
0
0
0
0
0
0
0
0
0
0
0
0
0
0
0
0
0
0
0
0
0
0
0
0
0
0
0
0
0
0
0
0
0
0
0
0
0
0
0
0
0
0
0
0
0
0
0
0
0
0
0
0
0
0
0
0
0
0
0
0
0
0
0
0
0
0
0
0
0
0
0
0
0
0
0
0
0
0
0
0
0
0
0
0
0
0
0
0
0
0
0
0
0
0
0
0
0
0
0
0
0
0
0
0
0
0
0
0
0
0
0
0
0
0
0
0
0
0
0
0
0
0
0
0
0
0
0
0
0
0
0
0
0
0
0
0
0
0
0
0
0
0
0
0
0
0
0
0
0
0
0
0
0
0
0
0
0
0
0
0
0
0
0
0
0
0
0
0
0
0
0
0
0
0
0
0
0
0
0
0
0
0
0
0
0
0
0
0
0
0
0
0
0
0
0
0
0
0
0
0
0
0
0
0
0
0
0
0
0
0
0
0
0
0
0
0
0
0
0
0
0
0
0
0
0
0
0
0
0
0
0
0
0
0
0
0
0
0
0
0
0
0
0
0
0
0
0
0
0
0
0
0
0
0
0
0
0
0
0
0
0
0
0
0
0
0
0
0
0
0
0
0
0
0
0
0
0
0
0
0
0
0
0
0
0
0
0
0
0
0
0
0
0
0
0
0
0
0
0
0
0
0
0
0
0
0
0
0
0
0
0
0
0
0
0
0
0
0
0
0
0
0
0
0
0
0
0
0
0
0
0
0
0
0
0
0
0
0
0
0
0
0
0
0
0
0
0
0
0
0
0
0
0
0
0
0
0
0
0
0
0
0
0
0
0
0
0
0
0
0
0
0
0
0
0
0
0
0
0
0
0
0
0
0
0
0
0
0
0
0
0
0
0
0
0
0
0
0
0
0
0
0
0
0
0
0
0
0
0
0
0
0
0
0
0
0
0
0
0
0
0
0
0
0
0
0
0
0
0
0
0
0
0
0
0
0
0
0
0
0
0
0
0
0
0
0
0
0
0
0
0
0
0
0
0
0
0
0
0
0
0
0
0
0
0
0
0
0
0
0
0
0
0
0
0
0
0
0
0
0
0
0
0
0
0
0
0
0
0
0
0
0
0
0
0
0
0
0
0
0
0
0
0
0
0
0
0
0
0
0
0
0
0
0
0
0
0
0
0
0
0
0
0
0
0
0
0
0
0
0
0
0
0
0
0
0
0
0
0
0
0
0
0
0
0
0
0
0
0
0
0
0
0
0
0
0
0
0
0
0
0
0
0
0
0
0
0
0
0
0
0
0
0
0
0
0
0
0
0
0
0
0
0
0
0
0
0
0
0
0
0
0
0
0
0
0
0
0
0
0
0
0
0
0
0
0
0
0
0
0
0
0
0
0
0
0
0
0
0
0
0
0
0
0
0
0
0
0
0
0
0
0
0
0
0
0
0
0
0
0
0
0
0
0
0
0
0
0
0
0
0
0
0
0
0
0
0
0
0
0
0
0
0
0
0
0
0
0
0
0
0
0
0
0
0
0
0
0
0
0
0
0
0
0
0
0
0
0
0
0
0
0
0
0
0
0
0
0
0
0
0
0
0
0
0
0
0
0
0
0
0
0
0
0
0
0
0
0
0
0
0
0
0
0
0
0
0
0
0
0
0
0
0
0
0
0
0
0
0
0
0
0
0
0
0
0
0
0
0
0
0
0
0
0
0
0
0
0
0
0
0
0
0
0
0
0
0
0
0
0
0
0
0
0
0
0
0
0
0
0
0
0
0
0
0
0
0
0
0
0
0
0
0
0
0
0
0
0
0
0
0
0
0
0
0
0
0
0
0
0
0
0
0
0
0
0
0
0
0
0
0
0
0
0
0
0
0
0
0
0
0
0
0
0
0
0
0
0
0
0
0
0
0
0
0
0
0
0
0
0
0
0
0
0
0
0
0
0
0
0
0
0
0
0
0
0
0
0
0
0
0
0
0
0
0
0
0
0
0
0
0
0
0
0
0
0
0
0
0
0
0
0
0
0
0
0
0
0
0
0
2.17329663e-300
1.13625676e-300
1.10240135e-297
5.81659359e-298
5.54249412e-295
2.95100631e-295
2.76191065e-292
1.48380303e-292
1.36410077e-289
7.39404513e-290
6.6774208e-287
3.65158446e-287
3.239582e-284
1.78717946e-284
1.55768294e-281
8.66834529e-282
7.42284453e-279
4.16653224e-279
3.50552985e-276
1.9846311e-276
1.64066228e-273
9.367934e-274
7.60950792e-271
4.38167512e-271
3.49747687e-268
2.03090848e-268
1.59295121e-265
9.32771682e-266
7.18931116e-263
4.24414329e-263
3.21511486e-260
1.91405501e-260
1.42467796e-257
8.55241338e-258
6.25509452e-255
3.78689941e-255
2.7210299e-252
1.66068157e-252
1.1727344e-249
7.21498572e-250
5.00745327e-247
3.10538576e-247
2.11820663e-244
1.32406816e-244
8.8763926e-242
5.5924593e-242
3.68471005e-239
2.33978134e-239
1.51513005e-236
9.6963694e-237
6.17101599e-234
3.98001929e-234
2.48944898e-231
1.61801767e-231
9.94645748e-229
6.5145212e-229
3.93577549e-226
2.59753358e-226
1.54229024e-223
1.0256441e-223
5.98483505e-221
4.01019599e-221
2.29966224e-218
1.55254274e-218
8.74936108e-216
5.95121075e-216
3.2958144e-213
2.25852394e-213
1.22912498e-210
8.48544286e-211
4.53782797e-208
3.15592466e-208
1.65840081e-205
1.16185485e-205
5.99915719e-203
4.23369964e-203
2.14792426e-200
1.5268622e-200
7.61102748e-198
5.44952782e-198
2.66888414e-195
1.92470239e-195
9.2606951e-193
6.72634673e-193
3.17942814e-190
2.32578688e-190
1.07996303e-187
7.95606595e-188
3.62898192e-185
2.69231646e-185
1.20624915e-182
9.01183535e-183
3.96574166e-180
2.98344845e-180
1.28944981e-177
9.76785636e-178
4.14603581e-175
3.16235933e-175
1.31814946e-172
1.01229857e-172
4.14335429e-170
3.20364293e-170
1.28749764e-167
1.00223275e-167
3.954551e-165
3.09906911e-165
1.20047161e-162
9.47064361e-163
3.60127518e-160
2.8599521e-160
1.06746635e-157
8.53321252e-158
3.12598775e-155
2.51525688e-155
9.04263788e-153
7.32330987e-153
2.58353981e-150
2.1058373e-150
7.28924194e-148
5.97956053e-148
2.03062326e-145
1.67638217e-145
5.58452425e-143
4.63944267e-143
1.51593371e-140
1.26728592e-140
4.06102832e-138
3.41604528e-138
1.07343371e-135
9.08519115e-136
2.79908689e-133
2.38354902e-133
7.19904286e-131
6.16749113e-131
1.82583796e-128
1.57361624e-128
4.56548647e-126
3.95824596e-126
1.12526215e-123
9.81350994e-124
2.73314483e-121
2.39752727e-121
6.54048694e-119
5.77053468e-119
1.54165704e-116
1.36795897e-116
3.57834912e-114
3.19316278e-114
8.17667784e-112
7.33738683e-112
1.83885274e-109
1.65924378e-109
4.06877706e-107
3.69145666e-107
8.85508397e-105
8.07734183e-105
1.89492436e-102
1.7377214e-102
3.98577885e-100
3.67437819e-100
8.23760695e-98
7.63349227e-98
1.67221494e-95
1.55752223e-95
3.33284072e-93
3.11992583e-93
6.51910152e-91
6.13298334e-91
1.25089636e-88
1.18256656e-88
2.3535023e-86
2.23565138e-86
4.33966092e-84
4.14185033e-84
7.83828298e-82
7.51573664e-82
1.38603155e-79
1.33504945e-79
2.39806674e-77
2.32016692e-77
4.05713046e-75
3.9424739e-75
6.70753761e-73
6.54576185e-73
1.08290998e-70
1.06117591e-70
1.70602513e-68
1.67849698e-68
2.62059091e-66
2.58821036e-66
3.9216309e-64
3.88706945e-64
5.71208258e-62
5.67969908e-62
8.09021584e-60
8.0641151e-60
1.11303603e-57
1.11085e-57
1.4857713e-55
1.48209524e-55
1.92202315e-53
1.91226191e-53
2.40631959e-51
2.38480673e-51
2.91142072e-49
2.87783403e-49
3.39874049e-47
3.36876719e-47
3.8214183e-45
3.81865141e-45
4.13045306e-43
4.11406526e-43
4.28340418e-41
4.25179485e-41
4.25149673e-39
4.20705996e-39
4.02832395e-37
3.97647948e-37
3.63302339e-35
3.5807731e-35
3.10844119e-33
3.062308e-33
2.51375842e-31
2.4756467e-31
1.91317996e-29
1.91293584e-29
1.36334111e-27
1.36086403e-27
9.04807802e-26
9.00623012e-26
5.5535259e-24
5.51096834e-24
3.12685261e-22
3.09701885e-22
1.59907839e-20
1.5848894e-20
7.33706574e-19
7.29012026e-19
2.97383112e-17
2.95900733e-17
1.04340004e-15
1.03782584e-15
3.08276325e-14
3.06719766e-14
7.37138763e-13
7.36175917e-13
1.79053209e-11
1.78442011e-11
2.11769905e-08
2.11909654e-08
0.0555030021
0.22695933
6.66160181
8.09707078
9.43700912
8.67836657
3.60643264
3.00330994
0.709181613
0.577196345
0.150633387
0.134949166
0.0339053062
0.0313898402
0.00685117488
0.00657238797
0.00126799097
0.00125304833
0.000224331048
0.00022424432
4.25491262e-05
4.25687242e-05
1.29713119e-05
1.29721478e-05
8.49244158e-06
8.49223558e-06
7.85807791e-06
7.85815307e-06
7.77385708e-06
7.77385183e-06
7.76327827e-06
7.76328359e-06
7.76201161e-06
7.76203519e-06
7.76186363e-06
7.76189388e-06
7.76186087e-06
7.7618583e-06
7.76186358e-06
7.7618457e-06
7.76186762e-06
7.76184734e-06
7.76186145e-06
7.76185623e-06
7.76187217e-06
7.76185573e-06
7.76186959e-06
7.76186069e-06
7.76187015e-06
7.76186148e-06
7.76186911e-06
7.7618703e-06
7.76187139e-06
7.76186419e-06
7.76186697e-06
7.76186986e-06
7.76185609e-06
7.76187917e-06
7.76185396e-06
7.7618715e-06
7.7618571e-06
7.7618676e-06
7.76185494e-06
7.76185917e-06
7.76185089e-06
7.76186011e-06
7.76185402e-06
7.76187177e-06
7.76184292e-06
7.76187687e-06
7.76184553e-06
7.76186411e-06
7.76185778e-06
7.76186842e-06
7.76185163e-06
7.76187737e-06
7.76184748e-06
7.76187779e-06
7.761858e-06
7.76186912e-06
7.76185857e-06
7.76186086e-06
7.76186052e-06
7.76185734e-06
7.76186727e-06
7.76185673e-06
7.76186524e-06
7.76185021e-06
7.76187069e-06
7.76184728e-06
7.76188408e-06
7.7618504e-06
7.76187242e-06
7.76185716e-06
7.76188162e-06
7.76185104e-06
7.76187467e-06
7.76185926e-06
7.76186784e-06
7.76186629e-06
7.76186826e-06
7.7618575e-06
7.76186943e-06
7.76185975e-06
7.76185221e-06
7.76187762e-06
7.76185485e-06
7.76186234e-06
7.76186753e-06
7.76185606e-06
7.76186772e-06
7.76185564e-06
7.76186003e-06
7.76186041e-06
7.76185581e-06
7.76187097e-06
7.76184454e-06
7.76187391e-06
7.76185615e-06
7.76187766e-06
7.76185185e-06
7.76188153e-06
7.7618492e-06
7.76186669e-06
7.76186558e-06
7.76186945e-06
7.76185572e-06
7.76187635e-06
7.76185559e-06
7.76187294e-06
7.76186341e-06
7.76187667e-06
7.76186917e-06
7.76188039e-06
7.76186967e-06
7.76188089e-06
7.76186403e-06
7.76187243e-06
7.76185911e-06
7.76186813e-06
7.76186024e-06
7.7618564e-06
7.76185567e-06
7.76187195e-06
7.76184763e-06
7.76186212e-06
7.76185135e-06
7.76186853e-06
7.76186184e-06
7.76185629e-06
7.76188257e-06
7.76184351e-06
7.76187687e-06
7.76184825e-06
7.76187903e-06
7.76185872e-06
7.76187615e-06
7.76184828e-06
7.76187753e-06
7.76184886e-06
7.76188864e-06
7.76184865e-06
7.76188743e-06
7.76185762e-06
7.76188953e-06
7.76185799e-06
7.76186705e-06
7.76187046e-06
7.76186815e-06
7.76184713e-06
7.76186694e-06
7.76185622e-06
7.76185248e-06
7.76187606e-06
7.76185209e-06
7.76190023e-06
7.76190993e-06
7.76224651e-06
7.76227604e-06
7.76418388e-06
7.76416568e-06
7.76224663e-06
7.76225207e-06
7.76190539e-06
7.76190077e-06
7.76186519e-06
7.76187134e-06
7.761863e-06
7.7618705e-06
7.76185955e-06
7.76187592e-06
7.76185187e-06
7.76188078e-06
7.76186501e-06
7.76187234e-06
7.76186154e-06
7.7618682e-06
7.7618568e-06
7.76187569e-06
7.76185481e-06
7.7618772e-06
7.76185661e-06
7.76188635e-06
7.76185007e-06
7.76188464e-06
7.76185764e-06
7.76186864e-06
7.76186497e-06
7.76187708e-06
7.76186131e-06
7.76187518e-06
7.76186586e-06
7.76187267e-06
7.76186279e-06
7.76187274e-06
7.7618696e-06
7.76186949e-06
7.76187144e-06
7.76186286e-06
7.76187569e-06
7.76186587e-06
7.76187071e-06
7.76186376e-06
7.76188168e-06
7.76186444e-06
7.76186511e-06
7.76188061e-06
7.76185537e-06
7.7618766e-06
7.76186892e-06
7.76186523e-06
7.76187113e-06
7.76187392e-06
7.76186334e-06
7.76187329e-06
7.7618764e-06
7.76186987e-06
7.76187502e-06
7.76187393e-06
7.76187354e-06
7.76187516e-06
7.76188621e-06
7.76185745e-06
7.76189216e-06
7.76185279e-06
7.76188705e-06
7.76185141e-06
7.76187472e-06
7.76186234e-06
7.76185983e-06
7.76188059e-06
7.76186816e-06
7.76186575e-06
7.76186519e-06
7.76187383e-06
7.76187259e-06
7.76185849e-06
7.76188008e-06
7.76186737e-06
7.76187934e-06
7.76186839e-06
7.76188531e-06
7.76186982e-06
7.76186944e-06
7.76187463e-06
7.76185458e-06
7.76187767e-06
7.76185983e-06
7.76187139e-06
7.76186142e-06
7.76188729e-06
7.76185763e-06
7.76187279e-06
7.76187132e-06
7.76186614e-06
7.76187833e-06
7.76186458e-06
7.76187464e-06
7.76186792e-06
7.76186188e-06
7.76187553e-06
7.76186536e-06
7.76187039e-06
7.7618675e-06
7.7618689e-06
7.76186154e-06
7.76187161e-06
7.76187016e-06
7.76186991e-06
7.76187586e-06
7.76187148e-06
7.76187589e-06
7.76187506e-06
7.76186318e-06
7.76186457e-06
7.76187193e-06
7.76186282e-06
7.76187576e-06
7.76188053e-06
7.76187245e-06
7.76188044e-06
7.76187757e-06
7.76187695e-06
7.76187707e-06
7.76186928e-06
7.76188054e-06
7.76187136e-06
7.76186606e-06
7.7618611e-06
7.7618796e-06
7.7618532e-06
7.76187505e-06
7.76185955e-06
7.7618815e-06
7.76187163e-06
7.76187227e-06
7.76187264e-06
7.76187189e-06
7.76188008e-06
7.76185945e-06
7.76188156e-06
7.7618478e-06
7.76189253e-06
7.7618604e-06
7.76188612e-06
7.76186254e-06
7.76187306e-06
7.76187188e-06
7.76188397e-06
7.76187085e-06
7.76188108e-06
7.76186439e-06
7.76186979e-06
7.76186739e-06
7.76187451e-06
7.76187269e-06
7.76187054e-06
7.7618825e-06
7.76186772e-06
7.7618727e-06
7.76187829e-06
7.76188203e-06
7.76187502e-06
7.76187699e-06
7.76188129e-06
7.76187349e-06
7.76187253e-06
7.7618735e-06
7.76187691e-06
7.76187088e-06
7.7618821e-06
7.7618748e-06
7.76187153e-06
7.76186954e-06
7.76186028e-06
7.7618736e-06
7.7618753e-06
7.76186846e-06
7.76188138e-06
7.76186907e-06
7.76187302e-06
7.76187454e-06
7.76187491e-06
7.76187887e-06
7.76187266e-06
7.76187105e-06
7.76188254e-06
7.7618719e-06
7.76188736e-06
7.76187016e-06
7.76187976e-06
7.76187876e-06
7.76187687e-06
7.76187765e-06
7.76189216e-06
7.76186723e-06
7.76188558e-06
7.76187566e-06
7.76188307e-06
7.76187763e-06
7.76187972e-06
7.76187574e-06
7.76188208e-06
7.76186983e-06
7.76188417e-06
7.76187313e-06
7.76186972e-06
7.76189064e-06
7.76186202e-06
7.76187832e-06
7.76186422e-06
7.76187635e-06
7.76187605e-06
7.7618721e-06
7.76188653e-06
7.76187496e-06
7.76187434e-06
7.76187918e-06
7.76187439e-06
7.76188275e-06
7.76188045e-06
7.7618682e-06
7.76186745e-06
7.76189052e-06
7.76185352e-06
7.76188992e-06
7.76185934e-06
7.76188594e-06
7.76187275e-06
7.761877e-06
7.76187977e-06
7.76187616e-06
7.76188941e-06
7.76187519e-06
7.76187395e-06
7.76187964e-06
7.7618745e-06
7.7618845e-06
7.76188304e-06
7.76188756e-06
7.76188041e-06
7.76188306e-06
7.76186711e-06
7.76189902e-06
7.76186789e-06
7.76189567e-06
7.76187416e-06
7.76188356e-06
7.76187527e-06
7.76188215e-06
7.76188187e-06
7.76188214e-06
7.76188279e-06
7.76188233e-06
7.76189386e-06
7.76187667e-06
7.76189123e-06
7.76187503e-06
7.76188503e-06
7.76188671e-06
7.76188145e-06
7.76189096e-06
7.76186665e-06
7.76188656e-06
7.76187789e-06
7.76188447e-06
7.76188053e-06
7.76188579e-06
7.76188119e-06
7.76188577e-06
7.76187757e-06
7.76188389e-06
7.76187922e-06
7.7618718e-06
7.76187727e-06
7.7618853e-06
7.76187945e-06
7.76187353e-06
7.76187833e-06
7.76188815e-06
7.76187472e-06
7.7618849e-06
7.76186791e-06
7.76189425e-06
7.76187227e-06
7.76189718e-06
7.76188646e-06
7.76188842e-06
7.76187835e-06
7.76189028e-06
7.76187326e-06
7.76188524e-06
7.76187369e-06
7.76187429e-06
7.76188574e-06
7.76188415e-06
7.76188035e-06
7.76189244e-06
7.76187781e-06
7.76188044e-06
7.76187443e-06
7.76188081e-06
7.76187794e-06
7.76188568e-06
7.76187417e-06
7.76188083e-06
7.76188048e-06
7.76186932e-06
7.76188609e-06
7.76186952e-06
7.76189562e-06
7.76187184e-06
7.76190204e-06
7.76187232e-06
7.76189983e-06
7.76186191e-06
7.76189492e-06
7.76187964e-06
7.76187981e-06
7.76188333e-06
7.7618833e-06
7.76188321e-06
7.76188334e-06
7.76188817e-06
7.76188236e-06
7.76186948e-06
7.76189127e-06
7.76187665e-06
7.76188336e-06
7.76188781e-06
7.76188466e-06
7.76187792e-06
7.76188425e-06
7.76188247e-06
7.76188419e-06
7.76188169e-06
7.76188505e-06
7.76188593e-06
7.76188207e-06
7.76188281e-06
7.7618856e-06
7.76188471e-06
7.76188643e-06
7.76188374e-06
7.76188619e-06
7.76188439e-06
7.76188562e-06
7.7618861e-06
7.761887e-06
7.76188638e-06
7.76188708e-06
7.76188866e-06
7.76188884e-06
7.76188817e-06
7.76188959e-06
7.76189041e-06
7.76189017e-06
7.76189131e-06
7.76189209e-06
7.76189359e-06
7.76189393e-06
7.76189495e-06
7.76189625e-06
7.76189705e-06
7.76189854e-06
7.76190037e-06
7.76190208e-06
7.76190334e-06
7.761906e-06
7.76190836e-06
7.76191128e-06
7.76191472e-06
7.7619184e-06
7.76192258e-06
7.76192692e-06
7.76193087e-06
7.76193387e-06
7.76193598e-06
7.7619375e-06
7.76193865e-06
7.76193879e-06
7.76193914e-06
7.76193918e-06
7.7619391e-06
7.76193924e-06
7.76193929e-06
7.76193903e-06
7.76193942e-06
7.76193899e-06
7.76193901e-06
7.76193907e-06
7.7619391e-06
7.76193904e-06
7.76193903e-06
7.7619391e-06
7.76193908e-06
7.7619389e-06
7.76193936e-06
)
;

boundaryField
{
    closed
    {
        type            calculated;
        value           uniform 0;
    }
    open
    {
        type            calculated;
        value           uniform 0;
    }
    sides
    {
        type            empty;
    }
}


// ************************************************************************* //
