/*--------------------------------*- C++ -*----------------------------------*\
| =========                 |                                                 |
| \\      /  F ield         | OpenFOAM: The Open Source CFD Toolbox           |
|  \\    /   O peration     | Version:  2206                                  |
|   \\  /    A nd           | Website:  www.openfoam.com                      |
|    \\/     M anipulation  |                                                 |
\*---------------------------------------------------------------------------*/
FoamFile
{
    version     2.0;
    format      ascii;
    arch        "LSB;label=32;scalar=64";
    class       volVectorField;
    location    "1.8e-05";
    object      U;
}
// * * * * * * * * * * * * * * * * * * * * * * * * * * * * * * * * * * * * * //

dimensions      [0 1 -1 0 0 0 0];

internalField   nonuniform List<vector> 
3183
(
(5.44484583e-13 0 0)
(2.66681971e-13 0 0)
(-3.98161402e-13 0 0)
(-5.08771036e-13 0 0)
(-1.91051372e-13 0 0)
(-1.48143493e-17 0 0)
(-1.10863931e-18 0 0)
(-1.13816945e-22 0 0)
(1.15021631e-19 0 0)
(3.54574935e-18 0 0)
(5.70343219e-14 0 0)
(3.44943384e-13 0 0)
(8.01427186e-13 0 0)
(3.42074693e-13 0 0)
(2.13194311e-13 0 0)
(-2.20859053e-14 0 0)
(-4.60516899e-13 0 0)
(-7.32871596e-13 0 0)
(-1.08339153e-12 0 0)
(-3.20195705e-13 0 0)
(3.6004418e-13 0 0)
(2.52007697e-14 0 0)
(1.78687879e-13 0 0)
(4.58722318e-13 0 0)
(5.64241731e-13 0 0)
(1.11377155e-12 0 0)
(9.01220085e-13 0 0)
(5.1462551e-13 0 0)
(2.07502817e-13 0 0)
(1.04476428e-13 0 0)
(-1.53260013e-14 0 0)
(7.42073181e-14 0 0)
(-4.80596724e-13 0 0)
(-7.35125959e-13 0 0)
(-7.35652891e-13 0 0)
(-7.64841515e-13 0 0)
(-1.1679638e-12 0 0)
(-1.3977664e-12 0 0)
(-1.0926989e-12 0 0)
(-8.61934817e-13 0 0)
(-4.58672747e-13 0 0)
(1.12221305e-13 0 0)
(8.25841935e-13 0 0)
(7.84261448e-13 0 0)
(1.40091299e-12 0 0)
(1.86280532e-12 0 0)
(1.46325113e-12 0 0)
(1.25627648e-12 0 0)
(7.92653017e-13 0 0)
(3.3123272e-13 0 0)
(-5.0105426e-13 0 0)
(-8.81098007e-13 0 0)
(-2.00197669e-12 0 0)
(-2.14213651e-12 0 0)
(-2.66346352e-12 0 0)
(-3.35023091e-12 0 0)
(-3.80325376e-12 0 0)
(-4.31427764e-12 0 0)
(-4.86138019e-12 0 0)
(-5.02227842e-12 0 0)
(-5.35364977e-12 0 0)
(-5.96527869e-12 0 0)
(-5.77931548e-12 0 0)
(-6.46335377e-12 0 0)
(-5.94692027e-12 0 0)
(-6.54363061e-12 0 0)
(-6.74033587e-12 0 0)
(-6.56545519e-12 0 0)
(-6.55969068e-12 0 0)
(-7.23922232e-12 0 0)
(-7.24015929e-12 0 0)
(-7.65073157e-12 0 0)
(-7.18613539e-12 0 0)
(-7.94864258e-12 0 0)
(-8.87607203e-12 0 0)
(-8.41053422e-12 0 0)
(-8.93961712e-12 0 0)
(-8.62454035e-12 0 0)
(-8.92624242e-12 0 0)
(-9.26157951e-12 0 0)
(-1.05125052e-11 0 0)
(-8.8942337e-12 0 0)
(-9.79359405e-12 0 0)
(-1.06102024e-11 0 0)
(-1.00591293e-11 0 0)
(-9.65882279e-12 0 0)
(-9.72797687e-12 0 0)
(-1.05507351e-11 0 0)
(-9.3042799e-12 0 0)
(-1.04139438e-11 0 0)
(-1.11627559e-11 0 0)
(-1.09248661e-11 0 0)
(-1.06497385e-11 0 0)
(-1.09298989e-11 0 0)
(-1.12706848e-11 0 0)
(-1.18823072e-11 0 0)
(-1.08206306e-11 0 0)
(-1.12429773e-11 0 0)
(-1.1550138e-11 0 0)
(-1.12331882e-11 0 0)
(-1.10804655e-11 0 0)
(-1.08600273e-11 0 0)
(-1.11673144e-11 0 0)
(-1.07148062e-11 0 0)
(-1.01959493e-11 0 0)
(-1.11412003e-11 0 0)
(-1.08996182e-11 0 0)
(-1.18490941e-11 0 0)
(-1.2349822e-11 0 0)
(-1.19772891e-11 0 0)
(-1.07998696e-11 0 0)
(-1.179559e-11 0 0)
(-1.10316882e-11 0 0)
(-1.24594286e-11 0 0)
(-1.12807639e-11 0 0)
(-1.17375937e-11 0 0)
(-1.25153568e-11 0 0)
(-1.13836836e-11 0 0)
(-1.12780049e-11 0 0)
(-1.33506038e-11 0 0)
(-1.30151916e-11 0 0)
(-1.13904213e-11 0 0)
(-1.14153345e-11 0 0)
(-1.1851747e-11 0 0)
(-1.13372293e-11 0 0)
(-1.16286587e-11 0 0)
(-1.18849957e-11 0 0)
(-1.19849326e-11 0 0)
(-1.18068808e-11 0 0)
(-1.22603831e-11 0 0)
(-1.23467791e-11 0 0)
(-1.1722189e-11 0 0)
(-1.28494944e-11 0 0)
(-1.37362696e-11 0 0)
(-1.11646149e-11 0 0)
(-1.27964269e-11 0 0)
(-1.27037339e-11 0 0)
(-1.26999278e-11 0 0)
(-1.31350078e-11 0 0)
(-1.21013611e-11 0 0)
(-1.21958356e-11 0 0)
(-1.24533477e-11 0 0)
(-1.2718605e-11 0 0)
(-1.22695427e-11 0 0)
(-1.22184031e-11 0 0)
(-1.31763635e-11 0 0)
(-1.28695178e-11 0 0)
(-1.42662384e-11 0 0)
(-1.33240655e-11 0 0)
(-1.29176026e-11 0 0)
(-1.42813085e-11 0 0)
(-1.39526255e-11 0 0)
(-1.39436807e-11 0 0)
(-1.43230153e-11 0 0)
(-1.46042406e-11 0 0)
(-1.3699707e-11 0 0)
(-1.5260861e-11 0 0)
(-1.58438337e-11 0 0)
(-1.45577111e-11 0 0)
(-1.55803358e-11 0 0)
(-1.47449917e-11 0 0)
(-1.47085957e-11 0 0)
(-1.39661832e-11 0 0)
(-1.49436528e-11 0 0)
(-1.46420326e-11 0 0)
(-1.61266626e-11 0 0)
(-1.48205656e-11 0 0)
(-1.49231531e-11 0 0)
(-1.61139076e-11 0 0)
(-1.62609609e-11 0 0)
(-1.63578231e-11 0 0)
(-1.46848492e-11 0 0)
(-1.60089372e-11 0 0)
(-1.60774376e-11 0 0)
(-1.51707862e-11 0 0)
(-1.55519096e-11 0 0)
(-1.64632973e-11 0 0)
(-1.56048659e-11 0 0)
(-1.54289632e-11 0 0)
(-1.69186487e-11 0 0)
(-1.54107068e-11 0 0)
(-1.61804265e-11 0 0)
(-1.57491202e-11 0 0)
(-1.62719183e-11 0 0)
(-1.7135111e-11 0 0)
(-1.71194636e-11 0 0)
(-1.56024881e-11 0 0)
(-1.57763625e-11 0 0)
(-1.57534671e-11 0 0)
(-1.59066668e-11 0 0)
(-1.56807156e-11 0 0)
(-1.64441156e-11 0 0)
(-1.65356152e-11 0 0)
(-1.62455136e-11 0 0)
(-1.69141835e-11 0 0)
(-1.67304173e-11 0 0)
(-1.62091518e-11 0 0)
(-1.58414623e-11 0 0)
(-1.68686393e-11 0 0)
(-1.69796354e-11 0 0)
(-1.69405169e-11 0 0)
(-1.6863261e-11 0 0)
(-1.71291072e-11 0 0)
(-1.74041171e-11 0 0)
(-1.72419299e-11 0 0)
(-1.64920077e-11 0 0)
(-1.70185686e-11 0 0)
(-1.74272869e-11 0 0)
(-1.78962069e-11 0 0)
(-1.66806059e-11 0 0)
(-1.58571726e-11 0 0)
(-1.74645987e-11 0 0)
(-1.66670505e-11 0 0)
(-1.66837607e-11 0 0)
(-1.63392012e-11 0 0)
(-1.66320682e-11 0 0)
(-1.59471651e-11 0 0)
(-1.60816515e-11 0 0)
(-1.71740282e-11 0 0)
(-1.66074801e-11 0 0)
(-1.64802431e-11 0 0)
(-1.71465281e-11 0 0)
(-1.77172243e-11 0 0)
(-1.76265127e-11 0 0)
(-1.70006426e-11 0 0)
(-1.67063413e-11 0 0)
(-1.64478207e-11 0 0)
(-1.71832851e-11 0 0)
(-1.74977833e-11 0 0)
(-1.73785374e-11 0 0)
(-1.7528704e-11 0 0)
(-1.79611907e-11 0 0)
(-1.74807859e-11 0 0)
(-1.79005029e-11 0 0)
(-1.70900637e-11 0 0)
(-1.6772251e-11 0 0)
(-1.69469457e-11 0 0)
(-1.7713751e-11 0 0)
(-1.78439225e-11 0 0)
(-1.68891746e-11 0 0)
(-1.83131613e-11 0 0)
(-1.71808277e-11 0 0)
(-1.70150722e-11 0 0)
(-1.66039864e-11 0 0)
(-1.74390075e-11 0 0)
(-1.78159837e-11 0 0)
(-1.64142156e-11 0 0)
(-1.73803198e-11 0 0)
(-1.6231836e-11 0 0)
(-1.75195328e-11 0 0)
(-1.78963564e-11 0 0)
(-1.76845288e-11 0 0)
(-1.77664322e-11 0 0)
(-1.83145106e-11 0 0)
(-1.8786423e-11 0 0)
(-1.80832372e-11 0 0)
(-1.87215305e-11 0 0)
(-1.79861253e-11 0 0)
(-1.86466561e-11 0 0)
(-1.75046362e-11 0 0)
(-1.82125568e-11 0 0)
(-1.84310906e-11 0 0)
(-1.74608698e-11 0 0)
(-1.78711755e-11 0 0)
(-1.78961627e-11 0 0)
(-1.86501088e-11 0 0)
(-1.82671891e-11 0 0)
(-1.85405028e-11 0 0)
(-1.79697799e-11 0 0)
(-1.76291508e-11 0 0)
(-1.82738667e-11 0 0)
(-1.88411328e-11 0 0)
(-1.83390345e-11 0 0)
(-1.85165469e-11 0 0)
(-1.87945711e-11 0 0)
(-1.8113348e-11 0 0)
(-1.82574086e-11 0 0)
(-1.89991733e-11 0 0)
(-1.89177521e-11 0 0)
(-1.87188732e-11 0 0)
(-1.91202847e-11 0 0)
(-1.95253427e-11 0 0)
(-1.91096449e-11 0 0)
(-1.9347163e-11 0 0)
(-1.92007091e-11 0 0)
(-1.91853611e-11 0 0)
(-1.94383494e-11 0 0)
(-1.89584153e-11 0 0)
(-1.97133857e-11 0 0)
(-1.90092944e-11 0 0)
(-1.96298362e-11 0 0)
(-2.05137805e-11 0 0)
(-1.94381765e-11 0 0)
(-1.96611716e-11 0 0)
(-1.95235584e-11 0 0)
(-1.93805713e-11 0 0)
(-2.0200774e-11 0 0)
(-2.09354162e-11 0 0)
(-2.01692728e-11 0 0)
(-2.15650104e-11 0 0)
(-2.08661628e-11 0 0)
(-2.02283581e-11 0 0)
(-2.04344361e-11 0 0)
(-2.10652989e-11 0 0)
(-2.07445925e-11 0 0)
(-2.11426632e-11 0 0)
(-1.98582225e-11 0 0)
(-2.02430765e-11 0 0)
(-2.09304759e-11 0 0)
(-1.99035821e-11 0 0)
(-2.08190458e-11 0 0)
(-2.06416575e-11 0 0)
(-2.01716723e-11 0 0)
(-2.06200112e-11 0 0)
(-2.04198216e-11 0 0)
(-2.09230473e-11 0 0)
(-1.98701988e-11 0 0)
(-2.14525701e-11 0 0)
(-2.07813022e-11 0 0)
(-2.02692209e-11 0 0)
(-2.0685172e-11 0 0)
(-2.06038204e-11 0 0)
(-2.0700535e-11 0 0)
(-2.09002675e-11 0 0)
(-2.16596999e-11 0 0)
(-2.09740239e-11 0 0)
(-2.12930488e-11 0 0)
(-2.14809547e-11 0 0)
(-2.08371992e-11 0 0)
(-2.15421202e-11 0 0)
(-2.03151475e-11 0 0)
(-2.00605519e-11 0 0)
(-2.09392637e-11 0 0)
(-2.09398528e-11 0 0)
(-2.03717932e-11 0 0)
(-2.05281148e-11 0 0)
(-2.01943513e-11 0 0)
(-2.10117336e-11 0 0)
(-2.09183506e-11 0 0)
(-2.09990768e-11 0 0)
(-1.99096688e-11 0 0)
(-2.11445607e-11 0 0)
(-1.99634122e-11 0 0)
(-1.91141862e-11 0 0)
(-1.98569698e-11 0 0)
(-2.03419662e-11 0 0)
(-2.04761724e-11 0 0)
(-1.96219073e-11 0 0)
(-2.00110472e-11 0 0)
(-1.93817987e-11 0 0)
(-1.9399997e-11 0 0)
(-1.99272112e-11 0 0)
(-1.99665289e-11 0 0)
(-1.92179414e-11 0 0)
(-1.86365605e-11 0 0)
(-1.80022362e-11 0 0)
(-1.93401319e-11 0 0)
(-1.85449478e-11 0 0)
(-1.90897492e-11 0 0)
(-1.8039799e-11 0 0)
(-1.86057026e-11 0 0)
(-1.93735173e-11 0 0)
(-1.87290688e-11 0 0)
(-1.85264361e-11 0 0)
(-1.86168668e-11 0 0)
(-1.85178935e-11 0 0)
(-1.92090824e-11 0 0)
(-1.81563159e-11 0 0)
(-1.86253846e-11 0 0)
(-1.89451563e-11 0 0)
(-1.79078386e-11 0 0)
(-1.95033373e-11 0 0)
(-1.8695873e-11 0 0)
(-1.75114035e-11 0 0)
(-1.90819399e-11 0 0)
(-1.97670481e-11 0 0)
(-1.88626743e-11 0 0)
(-1.88791116e-11 0 0)
(-1.86668915e-11 0 0)
(-1.95686944e-11 0 0)
(-2.01183259e-11 0 0)
(-1.85300305e-11 0 0)
(-1.83984582e-11 0 0)
(-1.81080048e-11 0 0)
(-1.82015871e-11 0 0)
(-1.74431066e-11 0 0)
(-1.63954733e-11 0 0)
(-1.82784633e-11 0 0)
(-1.64271221e-11 0 0)
(-1.64220592e-11 0 0)
(-1.67065428e-11 0 0)
(-1.69962168e-11 0 0)
(-1.62540472e-11 0 0)
(-1.6358025e-11 0 0)
(-1.53054016e-11 0 0)
(-1.56922009e-11 0 0)
(-1.4703985e-11 0 0)
(-1.51181091e-11 0 0)
(-1.54129282e-11 0 0)
(-1.47883035e-11 0 0)
(-1.61584029e-11 0 0)
(-1.64313387e-11 0 0)
(-1.53513176e-11 0 0)
(-1.56332884e-11 0 0)
(-1.57324687e-11 0 0)
(-1.63933831e-11 0 0)
(-1.58108676e-11 0 0)
(-1.52272134e-11 0 0)
(-1.47081106e-11 0 0)
(-1.45739972e-11 0 0)
(-1.50266104e-11 0 0)
(-1.46197583e-11 0 0)
(-1.34077228e-11 0 0)
(-1.37778749e-11 0 0)
(-1.54149742e-11 0 0)
(-1.41075231e-11 0 0)
(-1.40824809e-11 0 0)
(-1.39342607e-11 0 0)
(-1.38564546e-11 0 0)
(-1.52812539e-11 0 0)
(-1.41724188e-11 0 0)
(-1.45744498e-11 0 0)
(-1.44660303e-11 0 0)
(-1.34873296e-11 0 0)
(-1.44045814e-11 0 0)
(-1.4072615e-11 0 0)
(-1.50585749e-11 0 0)
(-1.43083159e-11 0 0)
(-1.42394386e-11 0 0)
(-1.36518379e-11 0 0)
(-1.40834687e-11 0 0)
(-1.45338137e-11 0 0)
(-1.42124736e-11 0 0)
(-1.33379901e-11 0 0)
(-1.32438417e-11 0 0)
(-1.37861986e-11 0 0)
(-1.42897981e-11 0 0)
(-1.29776963e-11 0 0)
(-1.34295823e-11 0 0)
(-1.43222282e-11 0 0)
(-1.32432961e-11 0 0)
(-1.4044263e-11 0 0)
(-1.41019187e-11 0 0)
(-1.38654462e-11 0 0)
(-1.41026578e-11 0 0)
(-1.21681003e-11 0 0)
(-1.35563816e-11 0 0)
(-1.28805602e-11 0 0)
(-1.24933819e-11 0 0)
(-1.17368874e-11 0 0)
(-1.28225062e-11 0 0)
(-1.26439473e-11 0 0)
(-1.26400283e-11 0 0)
(-1.28299964e-11 0 0)
(-1.1880009e-11 0 0)
(-1.226073e-11 0 0)
(-1.316382e-11 0 0)
(-1.30249648e-11 0 0)
(-1.27169187e-11 0 0)
(-1.20053783e-11 0 0)
(-1.24592461e-11 0 0)
(-1.11474701e-11 0 0)
(-1.24452101e-11 0 0)
(-1.2414017e-11 0 0)
(-1.24001798e-11 0 0)
(-1.22125042e-11 0 0)
(-1.29349954e-11 0 0)
(-1.15617608e-11 0 0)
(-1.1748554e-11 0 0)
(-1.31459081e-11 0 0)
(-1.17861972e-11 0 0)
(-1.16132239e-11 0 0)
(-1.12261273e-11 0 0)
(-1.27246098e-11 0 0)
(-1.12534796e-11 0 0)
(-1.23368734e-11 0 0)
(-1.22732686e-11 0 0)
(-1.29561217e-11 0 0)
(-1.20823249e-11 0 0)
(-1.13794506e-11 0 0)
(-1.20195735e-11 0 0)
(-1.2024712e-11 0 0)
(-1.18088809e-11 0 0)
(-1.11553297e-11 0 0)
(-1.13439827e-11 0 0)
(-1.16213075e-11 0 0)
(-1.06849613e-11 0 0)
(-1.08845141e-11 0 0)
(-1.08770715e-11 0 0)
(-1.03296622e-11 0 0)
(-1.06727053e-11 0 0)
(-1.14567011e-11 0 0)
(-1.09965236e-11 0 0)
(-1.16757433e-11 0 0)
(-1.09540958e-11 0 0)
(-1.0597665e-11 0 0)
(-1.10849571e-11 0 0)
(-1.12298109e-11 0 0)
(-1.14529254e-11 0 0)
(-1.01288934e-11 0 0)
(-1.12513229e-11 0 0)
(-1.07472542e-11 0 0)
(-1.03075102e-11 0 0)
(-1.00800034e-11 0 0)
(-9.26231221e-12 0 0)
(-1.11464036e-11 0 0)
(-1.02048007e-11 0 0)
(-8.96557745e-12 0 0)
(-1.02588786e-11 0 0)
(-9.81392712e-12 0 0)
(-9.29283907e-12 0 0)
(-8.92691327e-12 0 0)
(-8.75135478e-12 0 0)
(-8.41750233e-12 0 0)
(-8.83766605e-12 0 0)
(-7.74821992e-12 0 0)
(-7.82054701e-12 0 0)
(-7.32121541e-12 0 0)
(-7.85801979e-12 0 0)
(-8.23586687e-12 0 0)
(-8.48922351e-12 0 0)
(-7.7027641e-12 0 0)
(-7.00057775e-12 0 0)
(-7.70855188e-12 0 0)
(-7.42368202e-12 0 0)
(-7.03246354e-12 0 0)
(-7.47724407e-12 0 0)
(-7.43541056e-12 0 0)
(-6.85501362e-12 0 0)
(-8.05637814e-12 0 0)
(-7.58501577e-12 0 0)
(-6.68624542e-12 0 0)
(-7.11136542e-12 0 0)
(-7.93099322e-12 0 0)
(-6.4777276e-12 0 0)
(-6.17050043e-12 0 0)
(-6.58455483e-12 0 0)
(-5.89675112e-12 0 0)
(-6.5952425e-12 0 0)
(-7.24188825e-12 0 0)
(-6.00427782e-12 0 0)
(-6.04753633e-12 0 0)
(-6.93092443e-12 0 0)
(-7.23216968e-12 0 0)
(-6.44101867e-12 0 0)
(-5.8966045e-12 0 0)
(-6.74252897e-12 0 0)
(-6.16806415e-12 0 0)
(-6.8923845e-12 0 0)
(-5.3303807e-12 0 0)
(-5.80892912e-12 0 0)
(-5.36404756e-12 0 0)
(-6.19571234e-12 0 0)
(-4.8565394e-12 0 0)
(-4.97620069e-12 0 0)
(-5.26123027e-12 0 0)
(-4.16490066e-12 0 0)
(-3.86261974e-12 0 0)
(-4.64058752e-12 0 0)
(-4.46194213e-12 0 0)
(-3.82214476e-12 0 0)
(-4.43331435e-12 0 0)
(-4.19866196e-12 0 0)
(-3.6832381e-12 0 0)
(-4.07495166e-12 0 0)
(-3.18142752e-12 0 0)
(-2.89534152e-12 0 0)
(-4.03734778e-12 0 0)
(-2.85844726e-12 0 0)
(-3.19556248e-12 0 0)
(-3.49540873e-12 0 0)
(-3.12397919e-12 0 0)
(-1.54447761e-12 0 0)
(-1.53454976e-12 0 0)
(-1.3725827e-12 0 0)
(-1.86899328e-12 0 0)
(-1.44768725e-12 0 0)
(-1.56089582e-12 0 0)
(-1.34195677e-12 0 0)
(-1.30995915e-12 0 0)
(-1.47970316e-12 0 0)
(-7.93654869e-13 0 0)
(5.20062797e-14 0 0)
(-1.30994973e-12 0 0)
(3.33356291e-13 0 0)
(7.94547838e-14 0 0)
(7.65437996e-13 0 0)
(-1.58635409e-13 0 0)
(2.3397414e-13 0 0)
(4.72740636e-14 0 0)
(4.70174585e-13 0 0)
(4.75722225e-13 0 0)
(-2.98437842e-14 0 0)
(7.90182253e-13 0 0)
(3.19851067e-13 0 0)
(-3.7635028e-13 0 0)
(8.3799029e-13 0 0)
(1.27882215e-12 0 0)
(1.23047871e-12 0 0)
(1.89319914e-12 0 0)
(1.71710692e-12 0 0)
(8.29598007e-13 0 0)
(9.74670803e-13 0 0)
(1.14176853e-12 0 0)
(2.24004086e-12 0 0)
(6.78468899e-13 0 0)
(1.5956333e-12 0 0)
(1.4963355e-12 0 0)
(2.62356872e-13 0 0)
(7.05700161e-13 0 0)
(2.90912162e-13 0 0)
(1.0383528e-12 0 0)
(1.43931538e-12 0 0)
(1.28965884e-12 0 0)
(7.19894432e-13 0 0)
(1.35334106e-12 0 0)
(2.49538514e-12 0 0)
(1.78512354e-12 0 0)
(9.79877245e-13 0 0)
(1.59188491e-12 0 0)
(1.62898129e-12 0 0)
(1.98781891e-12 0 0)
(2.48974035e-12 0 0)
(1.39504304e-12 0 0)
(2.21245091e-12 0 0)
(2.03904147e-12 0 0)
(1.92245835e-12 0 0)
(1.51232225e-12 0 0)
(2.38366042e-12 0 0)
(1.84483012e-12 0 0)
(1.85111232e-12 0 0)
(1.88697776e-12 0 0)
(2.37302778e-12 0 0)
(1.61594469e-12 0 0)
(2.97083001e-12 0 0)
(2.29238461e-12 0 0)
(2.34696824e-12 0 0)
(2.51622272e-12 0 0)
(1.41914106e-12 0 0)
(1.51963757e-12 0 0)
(1.83555423e-12 0 0)
(1.10674988e-12 0 0)
(1.61904887e-12 0 0)
(1.87737989e-12 0 0)
(2.32781092e-12 0 0)
(1.12491786e-12 0 0)
(1.09417284e-12 0 0)
(1.11302311e-12 0 0)
(1.72555042e-12 0 0)
(1.83587705e-12 0 0)
(1.05606279e-12 0 0)
(1.98245576e-12 0 0)
(1.96724562e-12 0 0)
(1.46379606e-12 0 0)
(1.81724453e-12 0 0)
(2.10665082e-12 0 0)
(2.29299143e-12 0 0)
(2.18590303e-12 0 0)
(2.41593868e-12 0 0)
(1.19644497e-12 0 0)
(2.39148603e-12 0 0)
(2.6411062e-12 0 0)
(3.14278698e-12 0 0)
(1.3418329e-12 0 0)
(2.62247762e-12 0 0)
(2.04549765e-12 0 0)
(2.65414352e-12 0 0)
(2.6878119e-12 0 0)
(3.64832934e-12 0 0)
(3.0663954e-12 0 0)
(3.78924478e-12 0 0)
(2.46576056e-12 0 0)
(3.22087147e-12 0 0)
(3.09312658e-12 0 0)
(2.56535202e-12 0 0)
(3.48638816e-12 0 0)
(3.9648054e-12 0 0)
(3.6672246e-12 0 0)
(3.79116665e-12 0 0)
(3.54756673e-12 0 0)
(3.76519974e-12 0 0)
(4.3141459e-12 0 0)
(5.12684512e-12 0 0)
(5.15348272e-12 0 0)
(4.29570117e-12 0 0)
(4.44074666e-12 0 0)
(5.01552295e-12 0 0)
(4.94939927e-12 0 0)
(4.83639873e-12 0 0)
(4.78853679e-12 0 0)
(5.03555077e-12 0 0)
(5.24381801e-12 0 0)
(4.48308558e-12 0 0)
(4.78514647e-12 0 0)
(6.19399988e-12 0 0)
(5.41153375e-12 0 0)
(4.40954347e-12 0 0)
(4.23047023e-12 0 0)
(5.30214968e-12 0 0)
(6.04510864e-12 0 0)
(5.67208731e-12 0 0)
(5.04559876e-12 0 0)
(6.55488452e-12 0 0)
(5.16095369e-12 0 0)
(5.92685259e-12 0 0)
(6.52272878e-12 0 0)
(6.15890451e-12 0 0)
(6.16694395e-12 0 0)
(6.1652211e-12 0 0)
(5.25529225e-12 0 0)
(6.02284904e-12 0 0)
(5.44557197e-12 0 0)
(5.95084021e-12 0 0)
(6.15176479e-12 0 0)
(6.74269659e-12 0 0)
(5.90852616e-12 0 0)
(6.19954536e-12 0 0)
(6.00689008e-12 0 0)
(7.03081756e-12 0 0)
(6.60503627e-12 0 0)
(6.63781877e-12 0 0)
(6.01440887e-12 0 0)
(7.24640998e-12 0 0)
(7.0159166e-12 0 0)
(7.6788191e-12 0 0)
(7.61819074e-12 0 0)
(6.82864902e-12 0 0)
(7.08088899e-12 0 0)
(6.8322023e-12 0 0)
(8.50116441e-12 0 0)
(7.14277222e-12 0 0)
(6.81351512e-12 0 0)
(7.2273467e-12 0 0)
(6.00709253e-12 0 0)
(7.46972412e-12 0 0)
(7.03011301e-12 0 0)
(7.13593541e-12 0 0)
(6.83102429e-12 0 0)
(6.93973398e-12 0 0)
(7.4361793e-12 0 0)
(6.56559062e-12 0 0)
(7.34770588e-12 0 0)
(5.89050895e-12 0 0)
(7.02970828e-12 0 0)
(6.66815904e-12 0 0)
(5.59056487e-12 0 0)
(7.06434847e-12 0 0)
(6.04853475e-12 0 0)
(6.82706711e-12 0 0)
(6.69765998e-12 0 0)
(6.62650681e-12 0 0)
(7.16093156e-12 0 0)
(7.28555024e-12 0 0)
(6.15484525e-12 0 0)
(7.21063355e-12 0 0)
(6.69542624e-12 0 0)
(6.818525e-12 0 0)
(6.45428319e-12 0 0)
(7.06821739e-12 0 0)
(6.67486078e-12 0 0)
(6.50419733e-12 0 0)
(7.08642525e-12 0 0)
(6.22439818e-12 0 0)
(7.20972669e-12 0 0)
(6.20241527e-12 0 0)
(7.26057733e-12 0 0)
(6.07580674e-12 0 0)
(6.29985027e-12 0 0)
(7.89364599e-12 0 0)
(6.34559775e-12 0 0)
(7.5971072e-12 0 0)
(7.18720244e-12 0 0)
(6.41104098e-12 0 0)
(6.86954e-12 0 0)
(6.09182784e-12 0 0)
(7.31441296e-12 0 0)
(7.56991054e-12 0 0)
(7.21528201e-12 0 0)
(7.10693809e-12 0 0)
(7.33584779e-12 0 0)
(7.56209228e-12 0 0)
(7.36695234e-12 0 0)
(8.7404676e-12 0 0)
(6.00186068e-12 0 0)
(7.74849088e-12 0 0)
(7.5655266e-12 0 0)
(8.26892464e-12 0 0)
(8.37073968e-12 0 0)
(8.20938333e-12 0 0)
(8.16235379e-12 0 0)
(8.63419587e-12 0 0)
(9.09976781e-12 0 0)
(7.74377342e-12 0 0)
(6.99693182e-12 0 0)
(8.44147127e-12 0 0)
(7.73896471e-12 0 0)
(7.09384389e-12 0 0)
(7.87358607e-12 0 0)
(7.68373404e-12 0 0)
(7.23135808e-12 0 0)
(6.76720326e-12 0 0)
(6.89067292e-12 0 0)
(7.73752614e-12 0 0)
(7.16945476e-12 0 0)
(7.12262247e-12 0 0)
(7.87223258e-12 0 0)
(7.87840013e-12 0 0)
(7.93202143e-12 0 0)
(7.72233821e-12 0 0)
(8.68265161e-12 0 0)
(7.78831016e-12 0 0)
(7.70265314e-12 0 0)
(7.77805539e-12 0 0)
(8.87649955e-12 0 0)
(7.01613081e-12 0 0)
(7.49024047e-12 0 0)
(8.63388545e-12 0 0)
(7.60827322e-12 0 0)
(7.47320776e-12 0 0)
(8.1416118e-12 0 0)
(8.1352676e-12 0 0)
(8.21820569e-12 0 0)
(9.03358049e-12 0 0)
(8.44041972e-12 0 0)
(8.91727994e-12 0 0)
(9.24146536e-12 0 0)
(8.59724409e-12 0 0)
(7.67100382e-12 0 0)
(8.68570604e-12 0 0)
(8.93761351e-12 0 0)
(7.47660093e-12 0 0)
(8.05960506e-12 0 0)
(7.41915113e-12 0 0)
(7.38794637e-12 0 0)
(7.5700421e-12 0 0)
(7.3626112e-12 0 0)
(7.59433148e-12 0 0)
(7.61367389e-12 0 0)
(8.15030547e-12 0 0)
(8.63540351e-12 0 0)
(6.86161226e-12 0 0)
(7.00308904e-12 0 0)
(8.43366127e-12 0 0)
(8.33977774e-12 0 0)
(8.68483483e-12 0 0)
(8.57987993e-12 0 0)
(9.20053814e-12 0 0)
(8.93375262e-12 0 0)
(9.72148307e-12 0 0)
(8.33689172e-12 0 0)
(8.66108616e-12 0 0)
(9.55122295e-12 0 0)
(1.03857419e-11 0 0)
(9.3391794e-12 0 0)
(9.5388029e-12 0 0)
(9.55675522e-12 0 0)
(1.03132555e-11 0 0)
(9.77683418e-12 0 0)
(1.03622257e-11 0 0)
(1.05238099e-11 0 0)
(1.03189574e-11 0 0)
(1.0233452e-11 0 0)
(1.02724367e-11 0 0)
(1.07623209e-11 0 0)
(1.0274721e-11 0 0)
(1.06606488e-11 0 0)
(1.12302515e-11 0 0)
(1.02748154e-11 0 0)
(1.0029011e-11 0 0)
(1.03039776e-11 0 0)
(1.07793096e-11 0 0)
(9.38880942e-12 0 0)
(1.04229293e-11 0 0)
(1.04860891e-11 0 0)
(1.06057639e-11 0 0)
(1.02849962e-11 0 0)
(1.0160333e-11 0 0)
(1.0911737e-11 0 0)
(1.07436071e-11 0 0)
(9.99020047e-12 0 0)
(1.00241075e-11 0 0)
(1.03747715e-11 0 0)
(1.04511227e-11 0 0)
(1.01154429e-11 0 0)
(9.83126843e-12 0 0)
(8.96795401e-12 0 0)
(1.04335406e-11 0 0)
(1.00089339e-11 0 0)
(1.02657474e-11 0 0)
(9.35457499e-12 0 0)
(1.00426665e-11 0 0)
(1.06492746e-11 0 0)
(1.0366238e-11 0 0)
(1.12921677e-11 0 0)
(9.4707599e-12 0 0)
(1.09683887e-11 0 0)
(1.09413e-11 0 0)
(1.22107301e-11 0 0)
(1.12729635e-11 0 0)
(1.0910257e-11 0 0)
(1.05627028e-11 0 0)
(1.09987233e-11 0 0)
(1.05014409e-11 0 0)
(1.12875689e-11 0 0)
(1.13886417e-11 0 0)
(1.09481094e-11 0 0)
(1.05229805e-11 0 0)
(9.9332118e-12 0 0)
(1.05351613e-11 0 0)
(1.0534074e-11 0 0)
(1.02344665e-11 0 0)
(1.13543669e-11 0 0)
(1.06734697e-11 0 0)
(1.01110437e-11 0 0)
(1.05861571e-11 0 0)
(1.2039819e-11 0 0)
(1.0821822e-11 0 0)
(1.08177741e-11 0 0)
(1.09676627e-11 0 0)
(1.07484586e-11 0 0)
(1.10002748e-11 0 0)
(1.08366491e-11 0 0)
(1.06277057e-11 0 0)
(1.11824522e-11 0 0)
(1.09418747e-11 0 0)
(1.0487971e-11 0 0)
(1.09496523e-11 0 0)
(1.09514269e-11 0 0)
(1.0445113e-11 0 0)
(1.03778032e-11 0 0)
(1.05402709e-11 0 0)
(9.18108619e-12 0 0)
(1.0023763e-11 0 0)
(1.02838143e-11 0 0)
(1.06427478e-11 0 0)
(9.65452491e-12 0 0)
(8.79207161e-12 0 0)
(9.66949603e-12 0 0)
(1.00766892e-11 0 0)
(8.71247203e-12 0 0)
(8.15400468e-12 0 0)
(9.83208714e-12 0 0)
(9.65704407e-12 0 0)
(9.92995791e-12 0 0)
(8.67269373e-12 0 0)
(8.82873655e-12 0 0)
(9.05541736e-12 0 0)
(9.43882462e-12 0 0)
(9.1699036e-12 0 0)
(8.69804765e-12 0 0)
(9.15184614e-12 0 0)
(8.73264279e-12 0 0)
(7.670971e-12 0 0)
(8.71908223e-12 0 0)
(8.84635193e-12 0 0)
(8.10037319e-12 0 0)
(8.0679723e-12 0 0)
(7.22543018e-12 0 0)
(7.77555087e-12 0 0)
(8.36490981e-12 0 0)
(8.34769934e-12 0 0)
(9.0224237e-12 0 0)
(8.97894164e-12 0 0)
(9.96808043e-12 0 0)
(9.45858108e-12 0 0)
(9.56882667e-12 0 0)
(9.50306629e-12 0 0)
(9.84936095e-12 0 0)
(1.09065119e-11 0 0)
(1.09149871e-11 0 0)
(1.01554524e-11 0 0)
(1.1067407e-11 0 0)
(1.08589011e-11 0 0)
(1.13458371e-11 0 0)
(1.17557316e-11 0 0)
(1.02059547e-11 0 0)
(1.04833143e-11 0 0)
(1.02492286e-11 0 0)
(1.07508897e-11 0 0)
(1.12360276e-11 0 0)
(1.20458023e-11 0 0)
(1.1521396e-11 0 0)
(1.09520313e-11 0 0)
(1.12123587e-11 0 0)
(1.14195785e-11 0 0)
(1.00923014e-11 0 0)
(1.05222173e-11 0 0)
(9.81406244e-12 0 0)
(9.75273596e-12 0 0)
(9.84433692e-12 0 0)
(1.00997274e-11 0 0)
(9.45561343e-12 0 0)
(1.03677569e-11 0 0)
(9.31608123e-12 0 0)
(1.0662416e-11 0 0)
(9.97612723e-12 0 0)
(9.90330468e-12 0 0)
(1.01873598e-11 0 0)
(1.06872069e-11 0 0)
(9.86500497e-12 0 0)
(1.02170524e-11 0 0)
(9.10847061e-12 0 0)
(9.14779876e-12 0 0)
(9.4057596e-12 0 0)
(1.02410171e-11 0 0)
(9.39902959e-12 0 0)
(9.40521655e-12 0 0)
(9.47859008e-12 0 0)
(9.13806174e-12 0 0)
(8.72240896e-12 0 0)
(8.98997035e-12 0 0)
(8.67002865e-12 0 0)
(8.16213327e-12 0 0)
(9.00994149e-12 0 0)
(8.42515444e-12 0 0)
(8.52266559e-12 0 0)
(8.03289738e-12 0 0)
(8.4218032e-12 0 0)
(7.7710943e-12 0 0)
(7.62958034e-12 0 0)
(7.78780836e-12 0 0)
(7.53921997e-12 0 0)
(6.83965304e-12 0 0)
(6.12961795e-12 0 0)
(7.11114388e-12 0 0)
(6.29026248e-12 0 0)
(6.4490202e-12 0 0)
(6.08498882e-12 0 0)
(6.24260668e-12 0 0)
(5.8573715e-12 0 0)
(7.04011506e-12 0 0)
(6.14610201e-12 0 0)
(5.71314851e-12 0 0)
(4.71590599e-12 0 0)
(5.37430718e-12 0 0)
(5.62368288e-12 0 0)
(4.70451123e-12 0 0)
(5.18679413e-12 0 0)
(4.38110897e-12 0 0)
(4.50859674e-12 0 0)
(4.77739916e-12 0 0)
(4.93140056e-12 0 0)
(4.63870544e-12 0 0)
(4.39447014e-12 0 0)
(4.38193083e-12 0 0)
(3.58033032e-12 0 0)
(4.92317165e-12 0 0)
(4.27405494e-12 0 0)
(4.5762451e-12 0 0)
(4.40560236e-12 0 0)
(5.55048671e-12 0 0)
(4.78752804e-12 0 0)
(4.80292806e-12 0 0)
(5.1458406e-12 0 0)
(3.51343794e-12 0 0)
(4.21281474e-12 0 0)
(3.61086359e-12 0 0)
(3.30722525e-12 0 0)
(2.68354952e-12 0 0)
(2.89844257e-12 0 0)
(1.86889008e-12 0 0)
(4.04414437e-12 0 0)
(2.24674449e-12 0 0)
(1.38608205e-12 0 0)
(2.49369583e-12 0 0)
(2.53639291e-12 0 0)
(2.50333218e-12 0 0)
(1.99896294e-12 0 0)
(2.13113118e-12 0 0)
(2.88973671e-12 0 0)
(1.38866819e-12 0 0)
(2.64905888e-12 0 0)
(2.26379326e-12 0 0)
(1.35567721e-12 0 0)
(2.03853831e-12 0 0)
(1.911284e-12 0 0)
(2.92257928e-12 0 0)
(1.80329794e-12 0 0)
(1.62413294e-12 0 0)
(1.81964394e-12 0 0)
(1.5510524e-12 0 0)
(1.17924109e-12 0 0)
(2.06329059e-12 0 0)
(1.38904608e-12 0 0)
(1.7974464e-14 0 0)
(2.32302641e-13 0 0)
(4.19485879e-13 0 0)
(-9.45305061e-14 0 0)
(5.41313773e-13 0 0)
(1.4553745e-12 0 0)
(4.27757457e-13 0 0)
(3.39160643e-13 0 0)
(1.96188703e-13 0 0)
(-1.24143669e-13 0 0)
(-8.51278056e-13 0 0)
(4.8981711e-13 0 0)
(6.17888249e-13 0 0)
(1.40322309e-13 0 0)
(-9.46690434e-14 0 0)
(-1.45005755e-12 0 0)
(-2.5512831e-13 0 0)
(-6.57647256e-13 0 0)
(-1.18551935e-12 0 0)
(-1.97888965e-12 0 0)
(-9.54435083e-13 0 0)
(-1.22495042e-12 0 0)
(-6.30497696e-13 0 0)
(-1.50363654e-12 0 0)
(-1.93635243e-12 0 0)
(-1.00031207e-12 0 0)
(-2.1076974e-12 0 0)
(-1.82893336e-12 0 0)
(-2.37982206e-12 0 0)
(-1.81855523e-12 0 0)
(-1.61403697e-12 0 0)
(-1.66971631e-12 0 0)
(-2.05087174e-12 0 0)
(-1.3177029e-12 0 0)
(-1.97068872e-12 0 0)
(-2.86594842e-12 0 0)
(-3.30206177e-12 0 0)
(-2.9575582e-12 0 0)
(-2.25141088e-12 0 0)
(-3.04833106e-12 0 0)
(-3.49679993e-12 0 0)
(-3.25023545e-12 0 0)
(-3.49459724e-12 0 0)
(-3.51405506e-12 0 0)
(-3.96622903e-12 0 0)
(-4.44816056e-12 0 0)
(-3.88338291e-12 0 0)
(-3.70290752e-12 0 0)
(-4.74077746e-12 0 0)
(-4.80961462e-12 0 0)
(-4.5218908e-12 0 0)
(-4.4974289e-12 0 0)
(-4.7154794e-12 0 0)
(-4.05586839e-12 0 0)
(-5.0421475e-12 0 0)
(-4.48773884e-12 0 0)
(-4.31031409e-12 0 0)
(-4.70392044e-12 0 0)
(-4.84246636e-12 0 0)
(-3.9882463e-12 0 0)
(-4.45895427e-12 0 0)
(-5.3180016e-12 0 0)
(-4.26823721e-12 0 0)
(-4.55504935e-12 0 0)
(-4.1422648e-12 0 0)
(-4.37439578e-12 0 0)
(-4.33302005e-12 0 0)
(-4.84861699e-12 0 0)
(-5.73327748e-12 0 0)
(-5.57637579e-12 0 0)
(-5.7030024e-12 0 0)
(-5.22310759e-12 0 0)
(-5.59213621e-12 0 0)
(-5.25996533e-12 0 0)
(-5.12959447e-12 0 0)
(-6.84250039e-12 0 0)
(-5.98414764e-12 0 0)
(-6.45575949e-12 0 0)
(-5.53489915e-12 0 0)
(-5.84985944e-12 0 0)
(-5.79984251e-12 0 0)
(-4.92714494e-12 0 0)
(-5.59704864e-12 0 0)
(-4.73511544e-12 0 0)
(-6.17746112e-12 0 0)
(-5.54561487e-12 0 0)
(-5.42554852e-12 0 0)
(-6.24283632e-12 0 0)
(-5.87445066e-12 0 0)
(-6.28037639e-12 0 0)
(-7.16556068e-12 0 0)
(-7.44566897e-12 0 0)
(-6.1937833e-12 0 0)
(-7.7924316e-12 0 0)
(-6.37018813e-12 0 0)
(-7.90671269e-12 0 0)
(-6.75385839e-12 0 0)
(-7.58481401e-12 0 0)
(-7.35542761e-12 0 0)
(-7.57996791e-12 0 0)
(-7.3623666e-12 0 0)
(-7.13540233e-12 0 0)
(-7.63734139e-12 0 0)
(-8.46848029e-12 0 0)
(-7.6863581e-12 0 0)
(-7.23144189e-12 0 0)
(-7.42425561e-12 0 0)
(-7.93544596e-12 0 0)
(-7.44875818e-12 0 0)
(-7.78530359e-12 0 0)
(-7.70075758e-12 0 0)
(-7.74647064e-12 0 0)
(-8.0789489e-12 0 0)
(-9.38892648e-12 0 0)
(-8.11947373e-12 0 0)
(-9.90115234e-12 0 0)
(-8.88217974e-12 0 0)
(-9.48574718e-12 0 0)
(-9.90215985e-12 0 0)
(-1.0080005e-11 0 0)
(-1.03208916e-11 0 0)
(-1.10112466e-11 0 0)
(-9.85064435e-12 0 0)
(-9.83012303e-12 0 0)
(-1.02269364e-11 0 0)
(-1.04720534e-11 0 0)
(-9.43404289e-12 0 0)
(-1.05401174e-11 0 0)
(-1.02568258e-11 0 0)
(-1.02227161e-11 0 0)
(-9.44590694e-12 0 0)
(-1.00775786e-11 0 0)
(-1.03089046e-11 0 0)
(-1.02263054e-11 0 0)
(-1.08772251e-11 0 0)
(-9.67327577e-12 0 0)
(-9.84674218e-12 0 0)
(-1.01206387e-11 0 0)
(-9.61245728e-12 0 0)
(-9.10241195e-12 0 0)
(-9.28913914e-12 0 0)
(-1.02287626e-11 0 0)
(-9.22347702e-12 0 0)
(-9.11021154e-12 0 0)
(-8.50324308e-12 0 0)
(-9.28560469e-12 0 0)
(-9.274983e-12 0 0)
(-9.27590243e-12 0 0)
(-9.56153614e-12 0 0)
(-9.03285176e-12 0 0)
(-9.74347681e-12 0 0)
(-9.51451523e-12 0 0)
(-9.70948295e-12 0 0)
(-9.56526005e-12 0 0)
(-1.05170619e-11 0 0)
(-9.91325105e-12 0 0)
(-9.57931495e-12 0 0)
(-1.04489556e-11 0 0)
(-1.0395168e-11 0 0)
(-9.96333794e-12 0 0)
(-1.00685964e-11 0 0)
(-1.04293e-11 0 0)
(-1.0557187e-11 0 0)
(-1.11851105e-11 0 0)
(-1.05356879e-11 0 0)
(-1.04847916e-11 0 0)
(-1.06058896e-11 0 0)
(-9.6458007e-12 0 0)
(-1.0243545e-11 0 0)
(-1.03897008e-11 0 0)
(-9.90424229e-12 0 0)
(-9.87963527e-12 0 0)
(-1.07901628e-11 0 0)
(-1.0036868e-11 0 0)
(-1.08470624e-11 0 0)
(-1.08101106e-11 0 0)
(-1.07799972e-11 0 0)
(-1.13228644e-11 0 0)
(-1.11784946e-11 0 0)
(-9.98252423e-12 0 0)
(-1.086703e-11 0 0)
(-1.08295692e-11 0 0)
(-1.08445947e-11 0 0)
(-1.12542644e-11 0 0)
(-1.04423054e-11 0 0)
(-1.09894458e-11 0 0)
(-1.14778804e-11 0 0)
(-1.10964957e-11 0 0)
(-1.0637012e-11 0 0)
(-1.1385479e-11 0 0)
(-1.19905827e-11 0 0)
(-1.11433943e-11 0 0)
(-1.17499232e-11 0 0)
(-1.13360071e-11 0 0)
(-1.15443947e-11 0 0)
(-1.10402959e-11 0 0)
(-1.19117343e-11 0 0)
(-1.19732864e-11 0 0)
(-1.23371237e-11 0 0)
(-1.18134821e-11 0 0)
(-1.2020704e-11 0 0)
(-1.2055103e-11 0 0)
(-1.22712734e-11 0 0)
(-1.2494202e-11 0 0)
(-1.20612246e-11 0 0)
(-1.19295103e-11 0 0)
(-1.18223815e-11 0 0)
(-1.21712552e-11 0 0)
(-1.22914919e-11 0 0)
(-1.19636189e-11 0 0)
(-1.13932019e-11 0 0)
(-1.18451443e-11 0 0)
(-1.10938502e-11 0 0)
(-1.12603386e-11 0 0)
(-1.15649014e-11 0 0)
(-1.14144635e-11 0 0)
(-1.18527091e-11 0 0)
(-1.22593774e-11 0 0)
(-1.18592215e-11 0 0)
(-1.20468104e-11 0 0)
(-1.154857e-11 0 0)
(-1.2026441e-11 0 0)
(-1.18714164e-11 0 0)
(-1.18138998e-11 0 0)
(-1.15698973e-11 0 0)
(-1.12625306e-11 0 0)
(-1.16524233e-11 0 0)
(-1.11898503e-11 0 0)
(-1.16238543e-11 0 0)
(-1.11522837e-11 0 0)
(-1.30613852e-11 0 0)
(-1.25147674e-11 0 0)
(-1.23260164e-11 0 0)
(-1.17644355e-11 0 0)
(-1.23725384e-11 0 0)
(-1.16981149e-11 0 0)
(-1.23482888e-11 0 0)
(-1.17123207e-11 0 0)
(-1.19235598e-11 0 0)
(-1.25373365e-11 0 0)
(-1.14823702e-11 0 0)
(-1.14978637e-11 0 0)
(-1.19087456e-11 0 0)
(-1.26280396e-11 0 0)
(-1.23646369e-11 0 0)
(-1.11920533e-11 0 0)
(-1.15192956e-11 0 0)
(-1.23496091e-11 0 0)
(-1.20169817e-11 0 0)
(-1.1699737e-11 0 0)
(-1.21421762e-11 0 0)
(-1.20181493e-11 0 0)
(-1.12836023e-11 0 0)
(-1.20242664e-11 0 0)
(-1.27525208e-11 0 0)
(-1.14517754e-11 0 0)
(-1.09322746e-11 0 0)
(-1.17629695e-11 0 0)
(-1.13962969e-11 0 0)
(-1.08196267e-11 0 0)
(-1.08721105e-11 0 0)
(-1.1171331e-11 0 0)
(-1.1238563e-11 0 0)
(-1.10152109e-11 0 0)
(-1.0526385e-11 0 0)
(-1.04767607e-11 0 0)
(-1.07988171e-11 0 0)
(-1.03605165e-11 0 0)
(-1.0835526e-11 0 0)
(-1.06275433e-11 0 0)