/*--------------------------------*- C++ -*----------------------------------*\
| =========                 |                                                 |
| \\      /  F ield         | OpenFOAM: The Open Source CFD Toolbox           |
|  \\    /   O peration     | Version:  2206                                  |
|   \\  /    A nd           | Website:  www.openfoam.com                      |
|    \\/     M anipulation  |                                                 |
\*---------------------------------------------------------------------------*/
FoamFile
{
    version     2.0;
    format      ascii;
    arch        "LSB;label=32;scalar=64";
    class       volScalarField;
    location    "1.32e-05";
    object      p;
}
// * * * * * * * * * * * * * * * * * * * * * * * * * * * * * * * * * * * * * //

dimensions      [1 -1 -2 0 0 0 0];

internalField   nonuniform List<scalar> 
3183
(
101325
101325
101325
101325
101325
101325
101325
101325
101325
101325
101325
101325
101325
101325
101325
101325
101325
101325
101325
101325
101325
101325
101325
101325
101325
101325
101325
101325
101325
101325
101325
101325
101325
101325
101325
101325
101325
101325
101325
101325
101325
101325
101325
101325
101325
101325
101325
101325
101325
101325
101325
101325
101325
101325
101325
101325
101325
101325
101325
101325
101325
101325
101325
101325
101325
101325
101325
101325
101325
101325
101325
101325
101325
101325
101325
101325
101325
101325
101325
101325
101325
101325
101325
101325
101325
101325
101325
101325
101325
101325
101325
101325
101325
101325
101325
101325
101325
101325
101325
101325
101325
101325
101325
101325
101325
101325
101325
101325
101325
101325
101325
101325
101325
101325
101325
101325
101325
101325
101325
101325
101325
101325
101325
101325
101325
101325
101325
101325
101325
101325
101325
101325
101325
101325
101325
101325
101325
101325
101325
101325
101325
101325
101325
101325
101325
101325
101325
101325
101325
101325
101325
101325
101325
101325
101325
101325
101325
101325
101325
101325
101325
101325
101325
101325
101325
101325
101325
101325
101325
101325
101325
101325
101325
101325
101325
101325
101325
101325
101325
101325
101325
101325
101325
101325
101325
101325
101325
101325
101325
101325
101325
101325
101325
101325
101325
101325
101325
101325
101325
101325
101325
101325
101325
101325
101325
101325
101325
101325
101325
101325
101325
101325
101325
101325
101325
101325
101325
101325
101325
101325
101325
101325
101325
101325
101325
101325
101325
101325
101325
101325
101325
101325
101325
101325
101325
101325
101325
101325
101325
101325
101325
101325
101325
101325
101325
101325
101325
101325
101325
101325
101325
101325
101325
101325
101325
101325
101325
101325
101325
101325
101325
101325
101325
101325
101325
101325
101325
101325
101325
101325
101325
101325
101325
101325
101325
101325
101325
101325
101325
101325
101325
101325
101325
101325
101325
101325
101325
101325
101325
101325
101325
101325
101325
101325
101325
101325
101325
101325
101325
101325
101325
101325
101325
101325
101325
101325
101325
101325
101325
101325
101325
101325
101325
101325
101325
101325
101325
101325
101325
101325
101325
101325
101325
101325
101325
101325
101325
101325
101325
101325
101325
101325
101325
101325
101325
101325
101325
101325
101325
101325
101325
101325
101325
101325
101325
101325
101325
101325
101325
101325
101325
101325
101325
101325
101325
101325
101325
101325
101325
101325
101325
101325
101325
101325
101325
101325
101325
101325
101325
101325
101325
101325
101325
101325
101325
101325
101325
101325
101325
101325
101325
101325
101325
101325
101325
101325
101325
101325
101325
101325
101325
101325
101325
101325
101325
101325
101325
101325
101325
101325
101325
101325
101325
101325
101325
101325
101325
101325
101325
101325
101325
101325
101325
101325
101325
101325
101325
101325
101325
101325
101325
101325
101325
101325
101325
101325
101325
101325
101325
101325
101325
101325
101325
101325
101325
101325
101325
101325
101325
101325
101325
101325
101325
101325
101325
101325
101325
101325
101325
101325
101325
101325
101325
101325
101325
101325
101325
101325
101325
101325
101325
101325
101325
101325
101325
101325
101325
101325
101325
101325
101325
101325
101325
101325
101325
101325
101325
101325
101325
101325
101325
101325
101325
101325
101325
101325
101325
101325
101325
101325
101325
101325
101325
101325
101325
101325
101325
101325
101325
101325
101325
101325
101325
101325
101325
101325
101325
101325
101325
101325
101325
101325
101325
101325
101325
101325
101325
101325
101325
101325
101325
101325
101325
101325
101325
101325
101325
101325
101325
101325
101325
101325
101325
101325
101325
101325
101325
101325
101325
101325
101325
101325
101325
101325
101325
101325
101325
101325
101325
101325
101325
101325
101325
101325
101325
101325
101325
101325
101325
101325
101325
101325
101325
101325
101325
101325
101325
101325
101325
101325
101325
101325
101325
101325
101325
101325
101325
101325
101325
101325
101325
101325
101325
101325
101325
101325
101325
101325
101325
101325
101325
101325
101325
101325
101325
101325
101325
101325
101325
101325
101325
101325
101325
101325
101325
101325
101325
101325
101325
101325
101325
101325
101325
101325
101325
101325
101325
101325
101325
101325
101325
101325
101325
101325
101325
101325
101325
101325
101325
101325
101325
101325
101325
101325
101325
101325
101325
101325
101325
101325
101325
101325
101325
101325
101325
101325
101325
101325
101325
101325
101325
101325
101325
101325
101325
101325
101325
101325
101325
101325
101325
101325
101325
101325
101325
101325
101325
101325
101325
101325
101325
101325
101325
101325
101325
101325
101325
101325
101325
101325
101325
101325
101325
101325
101325
101325
101325
101325
101325
101325
101325
101325
101325
101325
101325
101325
101325
101325
101325
101325
101325
101325
101325
101325
101325
101325
101325
101325
101325
101325
101325
101325
101325
101325
101325
101325
101325
101325
101325
101325
101325
101325
101325
101325
101325
101325
101325
101325
101325
101325
101325
101325
101325
101325
101325
101325
101325
101325
101325
101325
101325
101325
101325
101325
101325
101325
101325
101325
101325
101325
101325
101325
101325
101325
101325
101325
101325
101325
101325
101325
101325
101325
101325
101325
101325
101325
101325
101325
101325
101325
101325
101325
101325
101325
101325
101325
101325
101325
101325
101325
101325
101325
101325
101325
101325
101325
101325
101325
101325
101325
101325
101325
101325
101325
101325
101325
101325
101325
101325
101325
101325
101325
101325
101325
101325
101325
101325
101325
101325
101325
101325
101325
101325
101325
101325
101325
101325
101325
101325
101325
101325
101325
101325
101325
101325
101325
101325
101325
101325
101325
101325
101325
101325
101325
101325
101325
101325
101325
101325
101325
101325
101325
101325
101325
101325
101325
101325
101325
101325
101325
101325
101325
101325
101325
101325
101325
101325
101325
101325
101325
101325
101325
101325
101325
101325
101325
101325
101325
101325
101325
101325
101325
101325
101325
101325
101325
101325
101325
101325
101325
101325
101325
101325
101325
101325
101325
101325
101325
101325
101325
101325
101325
101325
101325
101325
101325
101325
101325
101325
101325
101325
101325
101325
101325
101325
101325
101325
101325
101325
101325
101325
101325
101325
101325
101325
101325
101325
101325
101325
101325
101325
101325
101325
101325
101325
101325
101325
101325
101325
101325
101325
101325
101325
101325
101325
101325
101325
101325
101325
101325
101325
101325
101325
101325
101325
101325
101325
101325
101325
101325
101325
101325
101325
101325
101325
101325
101325
101325
101325
101325
101325
101325
101325
101325
101325
101325
101325
101325
101325
101325
101325
101325
101325
101325
101325
101325
101325
101325
101325
101325
101325
101325
101325
101325
101325
101325
101325
101325
101325
101325
101325
101325
101325
101325
101325
101325
101325
101325
101325
101325
101325
101325
101325
101325
101325
101325
101325
101325
101325
101325
101325
101325
101325
101325
101325
101325
101325
101325
101325
101325
101325
101325
101325
101325
101325
101325
101325
101325
101325
101325
101325
101325
101325
101325
101325
101325
101325
101325
101325
101325
101325
101325
101325
101325
101325
101325
101325
101325
101325
101325
101325
101325
101325
101325
101325
101325
101325
101325
101325
101325
101325
101325
101325
101325
101325
101325
101325
101325
101325
101325
101325
101325
101325
101325
101325
101325
101325
101325
101325
101325
101325
101325
101325
101325
101325
101325
101325
101325
101325
101325
101325
101325
101325
101325
101325
101325
101325
101325
101325
101325
101325
101325
101325
101325
101325
101325
101325
101325
101325
101325
101325
101325
101325
101325
101325
101325
101325
101325
101325
101325
101325
101325
101325
101325
101325
101325
101325
101325
101325
101325
101325
101325
101325
101325
101325
101325
101325
101325
101325
101325
101325
101325
101325
101325
101325
101325
101325
101325
101325
101325
101325
101325
101325
101325
101325
101325
101325
101325
101325
101325
101325
101325
101325
101325
101325
101325
101325
101325
101325
101325
101325
101325
101325
101325
101325
101325
101325
101325
101325
101325
101325
101325
101325
101325
101325
101325
101325
101325
101325
101325
101325
101325
101325
101325
101325
101325
101325
101325
101325
101325
101325
101325
101325
101325
101325
101325
101325
101325
101325
101325
101325
101325
101325
101325
101325
101325
101325
101325
101325
101325
101325
101325
101325
101325
101325
101325
101325
101325
101325
101325
101325
101325
101325
101325
101325
101325
101325
101325
101325
101325
101325
101325
101325
101325
101325
101325
101325
101325
101325
101325
101325
101325
101325
101325
101325
101325
101325
101325
101325
101325
101325
101325
101325
101325
101325
101325
101325
101325
101325
101325
101325
101325
101325
101325
101325
101325
101325
101325
101325
101325
101325
101325
101325
101325
101325
101325
101325
101325
101325
101325
101325
101325
101325
101325
101325
101325
101325
101325
101325
101325
101325
101325
101325
101325
101325
101325
101325
101325
101325
101325
101325
101325
101325
101325
101325
101325
101325
101325
101325
101325
101325
101325
101325
101325
101325
101325
101325
101325
101325
101325
101325
101325
101325
101325
101325
101325
101325
101325
101325
101325
101325
101325
101325
101325
101325
101325
101325
101325
101325
101325
101325
101325
101325
101325
101325
101325
101325
101325
101325
101325
101325
101325
101325
101325
101325
101325
101325
101325
101325
101325
101325
101325
101325
101325
101325
101325
101325
101325
101325
101325
101325
101325
101325
101325
101325
101325
101325
101325
101325
101325
101325
101325
101325
101325
101325
101325
101325
101325
101325
101325
101325
101325
101325
101325
101325
101325
101325
101325
101325
101325
101325
101325
101325
101325
101325
101325
101325
101325
101325
101325
101325
101325
101325
101325
101325
101325
101325
101325
101325
101325
101325
101325
101325
101325
101325
101325
101325
101325
101325
101325
101325
101325
101325
101325
101325
101325
101325
101325
101325
101325
101325
101325
101325
101325
101325
101325
101325
101325
101325
101325
101325
101325
101325
101325
101325
101325
101325
101325
101325
101325
101325
101325
101325
101325
101325
101325
101325
101325
101325
101325
101325
101325
101325
101325
101325
101325
101325
101325
101325
101325
101325
101325
101325
101325
101325
101325
101325
101325
101325
101325
101325
101325
101325
101325
101325
101325
101325
101325
101325
101325
101325
101325
101325
101325
101325
101325
101325
101325
101325
101325
101325
101325
101325
101325
101325
101325
101325
101325
101325
101325
101325
101325
101325
101325
101325
101325
101325
101325
101325
101325
101325
101325
101325
101325
101325
101325
101325
101325
101325
101325
101325
101325
101325
101325
101325
101325
101325
101325
101325
101325
101325
101325
101325
101325
101325
101325
101325
101325
101325
101325
101325
101325
101325
101325
101325
101325
101325
101325
101325
101325
101325
101325
101325
101325
101325
101325
101325
101325
101325
101325
101325
101325
101325
101325
101325
101325
101325
101325
101325
101325
101325
101325
101325
101325
101325
101325
101325
101325
101325
101325
101325
101325
101325
101325
101325
101325
101325
101325
101325
101325
101325
101325
101325
101325
101325
101325
101325
101325
101325
101325
101325
101325
101325
101325
101325
101325
101325
101325
101325
101325
101325
101325
101325
101325
101325
101325
101325
101325
101325
101325
101325
101325
101325
101325
101325
101325
101325
101325
101325
101325
101325
101325
101325
101325
101325
101325
101325
101325
101325
101325
101325
101325
101325
101325
101325
101325
101325
101325
101325
101325
101325
101325
101325
101325
101325
101325
101325
101325
101325
101325
101325
101325
101325
101325
101325
101325
101325
101325
101325
101325
101325
101325
101325
101325
101325
101325
101325
101325
101325
101325
101325
101325
101325
101325
101325
101325
101325
101325
101325
101325
101325
101325
101325
101325
101325
101325
101325
101325
101325
101325
101325
101325
101325
101325
101325
101325
101325
101325
101325
101325
101325
101325
101325
101325
101325
101325
101325
101325
101325
101325
101325
101325
101325
101325
101325
101325
101325
101325
101325
101325
101325
101325
101325
101325
101325
101325
101325
101325
101325
101325
101325
101325
101325
101325
101325
101325
101325
101325
101325
101325
101325
101325
101325
101325
101325
101325
101325
101325
101325
101325
101325
101325
101325
101325
101325
101325
101325
101325
101325
101325
101325
101325
101325
101325
101325
101325
101325
101325
101325
101325
101325
101325
101325
101325
101325
101325
101325
101325
101325
101325
101325
101325
101325
101325
101325
101325
101325
101325
101325
101325
101325
101325
101325
101325
101325
101325
101325
101325
101325
101325
101325
101325
101325
101325
101325
101325
101325
101325
101325
101325
101325
101325
101325
101325
101325
101325
101325
101325
101325
101325
101325
101325
101325
101325
101325
101325
101325
101325
101325
101325
101325
101325
101325
101325
101325
101325
101325
101325
101325
101325
101325
101325
101325
101325
101325
101325
101325
101325
101325
101325
101325
101325
101325
101325
101325
101325
101325
101325
101325
101325
101325
101325
101325
101325
101325
101325
101325
101325
101325
101325
101325
101325
101325
101325
101325
101325
101325
101325
101325
101325
101325
101325
101325
101325
101325
101325
101325
101325
101325
101324.999
101324.999
101324.999
101324.999
101324.999
101324.999
101324.999
101324.999
101324.999
101324.999
101324.999
101324.999
101324.999
101324.999
101324.999
101324.999
101324.999
101324.998
101324.998
101324.998
101324.998
101324.998
101324.998
101324.998
101324.998
101324.998
101324.997
101324.997
101324.997
101324.997
101324.997
101324.996
101324.996
101324.996
101324.996
101324.995
101324.995
101324.995
101324.995
101324.994
101324.994
101324.994
101324.993
101324.993
101324.992
101324.992
101324.991
101324.991
101324.99
101324.99
101324.989
101324.988
101324.988
101324.987
101324.986
101324.985
101324.985
101324.984
101324.983
101324.982
101324.981
101324.979
101324.978
101324.977
101324.976
101324.974
101324.973
101324.971
101324.97
101324.968
101324.966
101324.964
101324.962
101324.96
101324.958
101324.956
101324.953
101324.951
101324.948
101324.945
101324.942
101324.939
101324.936
101324.932
101324.929
101324.925
101324.921
101324.917
101324.912
101324.908
101324.903
101324.898
101324.893
101324.887
101324.881
101324.875
101324.869
101324.862
101324.855
101324.848
101324.84
101324.832
101324.823
101324.815
101324.805
101324.796
101324.786
101324.775
101324.764
101324.753
101324.741
101324.728
101324.715
101324.701
101324.687
101324.672
101324.657
101324.641
101324.624
101324.606
101324.588
101324.569
101324.549
101324.528
101324.507
101324.484
101324.461
101324.437
101324.411
101324.385
101324.358
101324.329
101324.3
101324.269
101324.237
101324.204
101324.17
101324.134
101324.097
101324.059
101324.019
101323.978
101323.935
101323.89
101323.844
101323.797
101323.748
101323.696
101323.644
101323.589
101323.532
101323.474
101323.413
101323.351
101323.286
101323.22
101323.151
101323.079
101323.006
101322.93
101322.852
101322.771
101322.688
101322.602
101322.513
101322.422
101322.328
101322.232
101322.132
101322.03
101321.925
101321.816
101321.705
101321.59
101321.473
101321.352
101321.228
101321.1
101320.969
101320.835
101320.697
101320.556
101320.412
101320.263
101320.111
101319.956
101319.797
101319.633
101319.467
101319.296
101319.122
101318.943
101318.761
101318.575
101318.385
101318.191
101317.994
101317.792
101317.586
101317.376
101317.163
101316.945
101316.723
101316.498
101316.268
101316.035
101315.798
101315.556
101315.311
101315.063
101314.81
101314.554
101314.294
101314.03
101313.763
101313.492
101313.218
101312.941
101312.66
101312.376
101312.089
101311.799
101311.506
101311.21
101310.911
101310.61
101310.307
101310
101309.692
101309.382
101309.069
101308.755
101308.439
101308.121
101307.802
101307.482
101307.161
101306.839
101306.516
101306.192
101305.868
101305.544
101305.22
101304.896
101304.573
101304.25
101303.927
101303.606
101303.286
101302.967
101302.65
101302.334
101302.021
101301.709
101301.401
101301.094
101300.791
101300.49
101300.193
101299.899
101299.609
101299.323
101299.041
101298.763
101298.49
101298.221
101297.957
101297.698
101297.445
101297.197
101296.954
101296.718
101296.487
101296.263
101296.044
101295.833
101295.628
101295.429
101295.238
101295.053
101294.876
101294.706
101294.543
101294.388
101294.24
101294.1
101293.968
101293.843
101293.727
101293.618
101293.517
101293.424
101293.34
101293.263
101293.194
101293.134
101293.081
101293.037
101293
101292.971
101292.95
101292.938
101292.932
101292.935
101292.945
101292.963
101292.988
101293.02
101293.06
101293.107
101293.161
101293.221
101293.288
101293.362
101293.442
101293.529
101293.621
101293.72
101293.824
101293.933
101294.048
101294.168
101294.293
101294.423
101294.557
101294.696
101294.838
101294.985
101295.135
101295.289
101295.446
101295.606
101295.769
101295.935
101296.103
101296.274
101296.446
101296.62
101296.796
101296.973
101297.151
101297.331
101297.511
101297.692
101297.873
101298.054
101298.236
101298.417
101298.598
101298.779
101298.959
101299.138
101299.317
101299.494
101299.67
101299.845
101300.019
101300.191
101300.361
101300.529
101300.696
101300.861
101301.023
101301.184
101301.342
101301.498
101301.652
101301.803
101301.952
101302.098
101302.242
101302.383
101302.522
101302.658
101302.792
101302.922
101303.051
101303.176
101303.299
101303.419
101303.537
101303.652
101303.764
101303.874
101303.981
101304.086
101304.188
101304.287
101304.385
101304.479
101304.572
101304.662
101304.75
101304.836
101304.92
101305.001
101305.08
101305.158
101305.233
101305.307
101305.378
101305.448
101305.517
101305.583
101305.648
101305.711
101305.773
101305.834
101305.893
101305.95
101306.007
101306.062
101306.116
101306.169
101306.221
101306.272
101306.322
101306.371
101306.419
101306.467
101306.514
101306.56
101306.605
101306.65
101306.694
101306.738
101306.782
101306.824
101306.867
101306.909
101306.951
101306.993
101307.034
101307.076
101307.117
101307.158
101307.199
101307.24
101307.28
101307.321
101307.362
101307.403
101307.444
101307.485
101307.526
101307.567
101307.608
101307.649
101307.691
101307.732
101307.774
101307.816
101307.858
101307.9
101307.943
101307.985
101308.028
101308.07
101308.113
101308.156
101308.199
101308.242
101308.285
101308.328
101308.372
101308.415
101308.458
101308.501
101308.544
101308.587
101308.629
101308.672
101308.714
101308.757
101308.799
101308.84
101308.881
101308.922
101308.963
101309.003
101309.043
101309.082
101309.121
101309.159
101309.197
101309.234
101309.271
101309.307
101309.342
101309.377
101309.41
101309.444
101309.476
101309.508
101309.539
101309.569
101309.598
101309.627
101309.654
101309.681
101309.708
101309.733
101309.757
101309.781
101309.804
101309.826
101309.847
101309.868
101309.887
101309.906
101309.924
101309.942
101309.958
101309.974
101309.99
101310.004
101310.018
101310.032
101310.044
101310.056
101310.068
101310.079
101310.09
101310.1
101310.11
101310.119
101310.128
101310.137
101310.145
101310.153
101310.161
101310.168
101310.176
101310.183
101310.19
101310.198
101310.205
101310.212
101310.219
101310.227
101310.234
101310.242
101310.25
101310.258
101310.267
101310.276
101310.285
101310.295
101310.306
101310.316
101310.328
101310.34
101310.353
101310.366
101310.38
101310.395
101310.41
101310.426
101310.443
101310.461
101310.48
101310.5
101310.52
101310.541
101310.564
101310.587
101310.61
101310.635
101310.661
101310.687
101310.714
101310.742
101310.77
101310.799
101310.829
101310.859
101310.889
101310.92
101310.952
101310.983
101311.015
101311.047
101311.079
101311.111
101311.142
101311.174
101311.205
101311.236
101311.267
101311.296
101311.326
101311.354
101311.382
101311.41
101311.436
101311.461
101311.486
101311.51
101311.532
101311.554
101311.575
101311.595
101311.613
101311.631
101311.648
101311.664
101311.679
101311.694
101311.707
101311.72
101311.732
101311.744
101311.755
101311.765
101311.775
101311.785
101311.795
101311.804
101311.813
101311.821
101311.83
101311.839
101311.847
101311.856
101311.865
101311.873
101311.882
101311.891
101311.9
101311.909
101311.918
101311.927
101311.937
101311.946
101311.956
101311.965
101311.975
101311.985
101311.994
101312.004
101312.014
101312.024
101312.034
101312.043
101312.053
101312.063
101312.073
101312.083
101312.092
101312.102
101312.112
101312.122
101312.132
101312.142
101312.152
101312.162
101312.172
101312.183
101312.194
101312.205
101312.217
101312.229
101312.242
101312.256
101312.271
101312.287
101312.305
101312.324
101312.346
101312.37
101312.397
101312.425
101312.44
101312.443
101312.819
101313.018
101312.962
101312.298
101312.176
101312.145
101312.237
101312.269
101312.36
101312.381
101312.416
101312.413
101312.411
101312.396
101312.381
101312.364
101312.349
101312.333
101312.32
101312.307
101312.295
101312.284
101312.274
101312.265
101312.256
101312.249
101312.241
101312.234
101312.227
101312.221
101312.215
101312.209
101312.203
101312.197
101312.192
101312.186
101312.181
101312.176
101312.17
101312.165
101312.16
101312.154
101312.149
101312.144
101312.138
101312.133
101312.128
101312.122
101312.117
101312.112
101312.106
101312.101
101312.095
101312.09
101312.084
101312.079
101312.073
101312.068
101312.062
101312.057
101312.051
101312.045
101312.04
101312.034
101312.028
101312.023
101312.017
101312.011
101312.006
101312
101311.994
101311.989
101311.983
101311.977
101311.971
101311.966
101311.96
101311.954
101311.948
101311.942
101311.937
101311.931
101311.925
101311.919
101311.914
101311.908
101311.902
101311.897
101311.891
101311.885
101311.88
101311.874
101311.869
101311.863
101311.857
101311.852
101311.847
101311.841
101311.836
101311.83
101311.825
101311.82
101311.815
101311.809
101311.804
101311.799
101311.794
101311.789
101311.784
101311.778
101311.773
101311.768
101311.763
101311.758
101311.753
101311.747
101311.742
101311.737
101311.731
101311.726
101311.721
101311.715
101311.709
101311.703
101311.698
101311.692
101311.686
101311.679
101311.673
101311.666
101311.66
101311.653
101311.646
101311.639
101311.631
101311.624
101311.616
101311.608
101311.6
101311.591
101311.583
101311.574
101311.564
101311.555
101311.545
101311.536
101311.525
101311.515
101311.504
101311.494
101311.482
101311.471
101311.459
101311.447
101311.435
101311.423
101311.41
101311.397
101311.384
101311.371
101311.358
101311.344
101311.33
101311.316
101311.301
101311.287
101311.272
101311.257
101311.242
101311.227
101311.212
101311.196
101311.181
101311.165
101311.149
101311.134
101311.118
101311.102
101311.086
101311.069
101311.053
101311.037
101311.02
101311.004
101310.987
101310.971
101310.955
101310.939
101310.923
101310.907
101310.891
101310.875
101310.86
101310.844
101310.828
101310.813
101310.798
101310.783
101310.767
101310.753
101310.738
101310.723
101310.709
101310.695
101310.68
101310.667
101310.653
101310.639
101310.626
101310.613
101310.6
101310.587
101310.575
101310.562
101310.55
101310.538
101310.527
101310.515
101310.504
101310.493
101310.482
101310.471
101310.461
101310.451
101310.441
101310.431
101310.421
101310.412
101310.403
101310.394
101310.385
101310.377
101310.368
101310.36
101310.352
101310.344
101310.336
101310.329
101310.322
101310.315
101310.308
101310.301
101310.294
101310.287
101310.281
101310.275
101310.269
101310.263
101310.257
101310.251
101310.245
101310.24
101310.234
101310.229
101310.224
101310.218
101310.213
101310.208
101310.203
101310.198
101310.194
101310.189
101310.184
101310.179
101310.175
101310.17
101310.165
101310.161
101310.156
101310.151
101310.147
101310.142
101310.138
101310.133
101310.128
101310.124
101310.119
101310.114
101310.11
101310.105
101310.1
101310.095
101310.09
101310.085
101310.08
101310.075
101310.07
101310.065
101310.06
101310.054
101310.049
101310.043
101310.038
101310.032
101310.026
101310.02
101310.014
101310.008
101310.002
101309.996
101309.989
101309.983
101309.976
101309.969
101309.962
101309.955
101309.948
101309.94
101309.933
101309.925
101309.918
101309.91
101309.901
101309.893
101309.885
101309.876
101309.867
101309.859
101309.849
101309.84
101309.831
101309.821
101309.812
101309.802
101309.791
101309.781
101309.771
101309.76
101309.749
101309.738
101309.727
101309.716
101309.704
101309.692
101309.68
101309.668
101309.656
101309.643
101309.631
101309.618
101309.604
101309.591
101309.578
101309.564
101309.55
101309.536
101309.522
101309.507
101309.493
101309.478
101309.463
101309.447
101309.432
101309.416
101309.4
101309.384
101309.368
101309.352
101309.335
101309.319
101309.302
101309.285
101309.267
101309.25
101309.232
101309.214
101309.196
101309.178
101309.16
101309.142
101309.123
101309.104
101309.085
101309.066
101309.047
101309.028
101309.008
101308.989
101308.969
101308.949
101308.929
101308.909
101308.888
101308.868
101308.848
101308.827
101308.806
101308.785
101308.764
101308.743
101308.722
101308.701
101308.68
101308.658
101308.637
101308.615
101308.594
101308.572
101308.55
101308.529
101308.507
101308.485
101308.463
101308.441
101308.419
101308.397
101308.375
101308.352
101308.33
101308.308
101308.286
101308.263
101308.241
101308.219
101308.197
101308.174
101308.152
101308.13
101308.107
101308.085
101308.062
101308.04
101308.018
101307.996
101307.973
101307.951
101307.929
101307.906
101307.884
101307.862
101307.84
101307.818
101307.795
101307.773
101307.751
101307.729
101307.707
101307.685
101307.663
101307.641
101307.619
101307.597
101307.575
101307.554
101307.532
101307.51
101307.488
101307.466
101307.445
101307.423
101307.402
101307.38
101307.358
101307.337
101307.315
101307.294
101307.272
101307.251
101307.229
101307.208
101307.187
101307.165
101307.144
101307.122
101307.101
101307.08
101307.058
101307.037
101307.015
101306.994
101306.973
101306.951
101306.93
101306.908
101306.887
101306.865
101306.844
101306.822
101306.801
101306.779
101306.757
101306.735
101306.714
101306.692
101306.67
101306.648
101306.626
101306.604
101306.582
101306.559
101306.537
101306.514
101306.492
101306.469
101306.447
101306.424
101306.401
101306.378
101306.354
101306.331
101306.308
101306.284
101306.26
101306.236
101306.209
101306.18
101306.149
101306.115
101306.078
101306.038
101305.995
101305.948
101305.897
101305.841
101305.78
101305.714
101305.64
101305.56
101305.471
101305.372
101305.262
101305.14
101305.003
101304.848
101304.674
101304.477
101304.252
101303.994
101303.699
101303.358
101302.964
101302.508
101301.98
101301.369
101300.663
101299.854
101298.934
101297.905
101296.775
101295.572
101294.346
101293.176
101292.179
101291.506
101291.341
101291.875
101293.278
101295.646
101298.956
101303.029
101307.535
101312.037
101316.1
101319.397
101321.792
101323.341
101324.23
101324.68
101324.882
101324.961
101324.989
101324.997
101325
101325
101325
101325
101325
101325
101325
101325
101325
101325
101325
101325
101325
101325
101325
101325
101325
101325
)
;

boundaryField
{
    closed
    {
        type            zeroGradient;
    }
    open
    {
        type            waveTransmissive;
        gamma           1.25;
        fieldInf        101325;
        lInf            1;
        value           uniform 101325;
    }
    sides
    {
        type            empty;
    }
}


// ************************************************************************* //
