/*--------------------------------*- C++ -*----------------------------------*\
| =========                 |                                                 |
| \\      /  F ield         | OpenFOAM: The Open Source CFD Toolbox           |
|  \\    /   O peration     | Version:  2206                                  |
|   \\  /    A nd           | Website:  www.openfoam.com                      |
|    \\/     M anipulation  |                                                 |
\*---------------------------------------------------------------------------*/
FoamFile
{
    version     2.0;
    format      ascii;
    arch        "LSB;label=32;scalar=64";
    class       surfaceScalarField;
    location    "1.32e-05";
    object      phi;
}
// * * * * * * * * * * * * * * * * * * * * * * * * * * * * * * * * * * * * * //

dimensions      [1 0 -1 0 0 0 0];

oriented        oriented;

internalField   nonuniform List<scalar> 
3182
(
4.71175953e-18
-2.54798642e-18
-1.10731739e-18
-1.80242179e-18
-4.23826841e-21
-2.63469266e-23
-1.89041085e-24
3.44856923e-29
2.45611763e-24
4.67348722e-23
4.95516667e-21
3.11638149e-18
3.52436619e-18
-2.10083307e-19
1.67060796e-18
-9.13359655e-19
-3.27469498e-18
-5.16077334e-18
-3.54072487e-18
4.40829055e-18
5.70997406e-20
8.65174762e-22
6.33011056e-19
2.09092691e-18
3.59549825e-18
2.03619104e-18
5.12266017e-18
2.63660159e-18
1.53472162e-18
1.14095994e-18
-1.42942628e-18
-4.61952021e-18
-4.67579116e-18
-7.30992153e-18
-5.86117969e-18
-4.09376117e-18
-3.75428298e-18
-2.27157915e-18
-2.23442329e-18
-3.09580043e-18
-3.68016345e-18
-2.59223584e-18
-2.71121938e-18
5.1813614e-19
1.10410288e-18
1.29976592e-18
3.4614671e-18
4.32891567e-18
5.74523374e-18
5.97699428e-18
8.36223835e-18
9.79890112e-18
1.13968041e-17
1.21567509e-17
1.28064878e-17
1.2390014e-17
1.10735346e-17
9.34687746e-18
8.47169112e-18
6.94538622e-18
3.91586433e-18
1.501164e-18
-4.88387621e-19
-2.40688154e-18
-3.20592934e-18
-4.51595994e-18
-6.48237685e-18
-8.20688028e-18
-9.9481652e-18
-1.08770392e-17
-1.34487598e-17
-1.50440482e-17
-1.68397322e-17
-1.78545376e-17
-1.95866244e-17
-2.08970857e-17
-2.14506521e-17
-2.27091072e-17
-2.52479933e-17
-2.68805939e-17
-2.77692291e-17
-2.8422607e-17
-2.90207999e-17
-3.08719916e-17
-3.22178724e-17
-3.09930467e-17
-3.15123084e-17
-3.24406502e-17
-3.29875138e-17
-3.35097855e-17
-3.39944054e-17
-3.50760407e-17
-3.75504971e-17
-3.52309697e-17
-3.62295349e-17
-3.78801064e-17
-4.02112825e-17
-3.9973664e-17
-4.05332609e-17
-4.39398336e-17
-4.32667337e-17
-4.19962827e-17
-4.11119691e-17
-3.82390001e-17
-4.12008509e-17
-4.16953073e-17
-4.0635077e-17
-4.19301483e-17
-4.04044344e-17
-3.95081894e-17
-3.86065501e-17
-3.93994297e-17
-4.24887003e-17
-4.08978507e-17
-3.75596117e-17
-4.1022574e-17
-4.36257782e-17
-4.05060057e-17
-4.01163144e-17
-4.27100904e-17
-4.14525131e-17
-4.62904212e-17
-4.30674931e-17
-4.32387804e-17
-4.5870273e-17
-4.14226888e-17
-4.40612519e-17
-4.33616157e-17
-4.16978009e-17
-4.43594145e-17
-4.28015913e-17
-4.60008816e-17
-4.37539995e-17
-4.56079266e-17
-4.6647e-17
-4.37294536e-17
-4.43818946e-17
-4.29848822e-17
-4.53507708e-17
-4.379273e-17
-4.58255013e-17
-4.45320001e-17
-4.52852056e-17
-4.51654007e-17
-4.29792915e-17
-4.37344156e-17
-4.49358305e-17
-4.63628513e-17
-4.68126479e-17
-4.91603233e-17
-4.8773034e-17
-4.82327578e-17
-4.98798502e-17
-5.07671033e-17
-5.149699e-17
-5.51488141e-17
-5.75842927e-17
-5.9055343e-17
-6.11243048e-17
-5.93209616e-17
-5.99897497e-17
-5.67163987e-17
-5.95071084e-17
-6.12324224e-17
-5.99534633e-17
-6.12828356e-17
-6.17402662e-17
-6.05133212e-17
-5.87890611e-17
-5.9635783e-17
-6.08045045e-17
-6.0282766e-17
-6.16550757e-17
-5.96561489e-17
-6.24244974e-17
-6.22906452e-17
-6.37989418e-17
-6.84124685e-17
-7.03194114e-17
-6.97319542e-17
-7.17497665e-17
-6.92885277e-17
-7.01365522e-17
-7.03827975e-17
-7.48699871e-17
-7.17130535e-17
-7.16247067e-17
-7.39486368e-17
-7.6323752e-17
-7.72986488e-17
-7.74246386e-17
-7.73034184e-17
-8.19429713e-17
-8.04190731e-17
-8.0618339e-17
-7.79404045e-17
-7.80766862e-17
-8.13137266e-17
-8.30953009e-17
-8.37543687e-17
-8.47873403e-17
-8.449243e-17
-8.52662286e-17
-8.83298273e-17
-8.60747784e-17
-8.59283988e-17
-8.46212407e-17
-8.2759953e-17
-8.34462803e-17
-8.67182765e-17
-8.88588888e-17
-8.60710219e-17
-8.4802314e-17
-8.49384108e-17
-8.31109268e-17
-8.28175887e-17
-8.31553495e-17
-8.35700463e-17
-8.51864129e-17
-8.59078694e-17
-8.17157367e-17
-8.14545334e-17
-8.1706283e-17
-8.24018678e-17
-8.27555314e-17
-8.3359176e-17
-8.18339403e-17
-8.48576823e-17
-8.38815614e-17
-8.43534405e-17
-8.55304964e-17
-8.69672794e-17
-8.62021223e-17
-8.94808609e-17
-8.81877996e-17
-8.80798493e-17
-8.71986731e-17
-9.007902e-17
-9.29353447e-17
-9.26552991e-17
-9.20418133e-17
-9.02505986e-17
-9.01427684e-17
-8.8890258e-17
-9.20911578e-17
-9.04621662e-17
-9.12117087e-17
-8.90342151e-17
-8.69014265e-17
-8.72594951e-17
-8.82410337e-17
-8.68454565e-17
-8.69185598e-17
-8.89445052e-17
-8.90281175e-17
-8.96577779e-17
-8.79755905e-17
-9.02486864e-17
-8.89806446e-17
-9.30280107e-17
-9.25290661e-17
-9.18159861e-17
-9.17847991e-17
-9.13204361e-17
-9.19396962e-17
-8.9767575e-17
-9.10429523e-17
-8.95635454e-17
-9.20485553e-17
-9.28645847e-17
-9.45191286e-17
-9.10990097e-17
-9.38367252e-17
-9.15425323e-17
-8.90218315e-17
-9.03750732e-17
-9.18321401e-17
-9.17681703e-17
-9.197646e-17
-9.4567134e-17
-9.22921852e-17
-9.53253178e-17
-9.57452701e-17
-9.56314875e-17
-9.64842775e-17
-9.39305171e-17
-9.95748492e-17
-9.81183901e-17
-9.92220722e-17
-9.94215751e-17
-1.01018788e-16
-9.99773951e-17
-9.86909702e-17
-9.953833e-17
-9.97743942e-17
-1.02329552e-16
-1.04765997e-16
-1.07536734e-16
-1.0604463e-16
-1.05335801e-16
-1.05718231e-16
-1.07734332e-16
-1.06575832e-16
-1.085422e-16
-1.07949977e-16
-1.09495086e-16
-1.12018988e-16
-1.1062356e-16
-1.09825847e-16
-1.10907819e-16
-1.11985156e-16
-1.15325258e-16
-1.1235817e-16
-1.13639824e-16
-1.14822474e-16
-1.14462258e-16
-1.17115747e-16
-1.14896994e-16
-1.16697113e-16
-1.15936234e-16
-1.1570232e-16
-1.16671931e-16
-1.17315651e-16
-1.15816168e-16
-1.16630955e-16
-1.15321514e-16
-1.14651596e-16
-1.12161266e-16
-1.15617563e-16
-1.10350457e-16
-1.07501952e-16
-1.12103071e-16
-1.11102219e-16
-1.06980725e-16
-1.07436478e-16
-1.07466833e-16
-1.10243252e-16
-1.11227796e-16
-1.11301667e-16
-1.10247638e-16
-1.10898259e-16
-1.09607575e-16
-1.0637665e-16
-1.07620946e-16
-1.10226753e-16
-1.07567557e-16
-1.08686557e-16
-1.09482714e-16
-1.08151327e-16
-1.09039048e-16
-1.08246899e-16
-1.08478299e-16
-1.10526863e-16
-1.10305143e-16
-1.08062675e-16
-1.09232091e-16
-1.08216298e-16
-1.09139821e-16
-1.12790741e-16
-1.10091679e-16
-1.12924961e-16
-1.10190973e-16
-1.13410915e-16
-1.14606602e-16
-1.15362325e-16
-1.16553802e-16
-1.14455484e-16
-1.16081248e-16
-1.14613165e-16
-1.1401111e-16
-1.10993953e-16
-1.07839676e-16
-1.09368337e-16
-1.08674146e-16
-1.06691699e-16
-1.05960173e-16
-1.04508859e-16
-1.04200081e-16
-1.06335415e-16
-1.06245007e-16
-1.06147817e-16
-1.03475612e-16
-1.0449818e-16
-1.06087817e-16
-1.05767905e-16
-1.06007904e-16
-1.07995645e-16
-1.07656813e-16
-1.0602262e-16
-1.04983425e-16
-1.0249501e-16
-1.02602833e-16
-9.76249951e-17
-9.78447944e-17
-9.58625706e-17
-9.53245329e-17
-9.30934834e-17
-9.1991777e-17
-9.05114677e-17
-9.15203916e-17
-9.02979237e-17
-9.35979519e-17
-9.01051287e-17
-8.98165201e-17
-8.94426196e-17
-8.56540877e-17
-8.99757729e-17
-9.1039291e-17
-8.87939561e-17
-8.91117311e-17
-8.50420825e-17
-8.38427712e-17
-8.31442476e-17
-8.62065954e-17
-8.52402197e-17
-8.44632844e-17
-8.61735818e-17
-8.70718035e-17
-8.73244448e-17
-8.74067309e-17
-8.67965344e-17
-8.47997683e-17
-8.22269454e-17
-8.27577115e-17
-8.28464031e-17
-8.51448721e-17
-8.27985216e-17
-8.47989865e-17
-8.1942632e-17
-8.42596511e-17
-8.3271045e-17
-7.94296773e-17
-7.93562774e-17
-7.8650953e-17
-7.96102363e-17
-7.86498631e-17
-7.99566665e-17
-7.62296887e-17
-7.49700149e-17
-7.66074062e-17
-7.52642444e-17
-7.37056501e-17
-7.10073311e-17
-6.75130757e-17
-6.91320254e-17
-6.8936955e-17
-6.66881911e-17
-6.93955799e-17
-6.90451649e-17
-6.6901226e-17
-6.55742592e-17
-6.48664722e-17
-6.40290776e-17
-6.39938834e-17
-6.39761755e-17
-6.47969009e-17
-6.44023223e-17
-6.35874094e-17
-6.10868846e-17
-6.29726764e-17
-5.99875448e-17
-5.82663383e-17
-6.04545493e-17
-6.00798725e-17
-6.07827487e-17
-5.64784407e-17
-5.53120363e-17
-5.36398736e-17
-5.2713399e-17
-5.29741815e-17
-5.37872975e-17
-5.33807155e-17
-5.67941211e-17
-4.99194621e-17
-4.89531073e-17
-4.8100248e-17
-4.8391508e-17
-4.64555431e-17
-4.86607747e-17
-5.02046742e-17
-4.92679886e-17
-4.74863484e-17
-5.16571419e-17
-4.84004888e-17
-4.76687299e-17
-4.58004192e-17
-4.28864381e-17
-4.56257463e-17
-4.53525439e-17
-4.64236264e-17
-4.57233995e-17
-4.77569234e-17
-4.50422361e-17
-4.53066824e-17
-4.60690777e-17
-4.54633101e-17
-4.38114804e-17
-4.26583785e-17
-4.22327606e-17
-3.88622527e-17
-4.16942329e-17
-3.90157807e-17
-4.0843205e-17
-4.38795791e-17
-4.37722984e-17
-4.31216652e-17
-4.40161026e-17
-4.53369017e-17
-4.44278473e-17
-4.38827405e-17
-4.38455126e-17
-4.35846884e-17
-4.49267551e-17
-4.29157629e-17
-3.9305728e-17
-3.53593771e-17
-3.31542514e-17
-3.26911256e-17
-3.04672308e-17
-3.03678549e-17
-2.79461828e-17
-2.62802495e-17
-2.75921511e-17
-2.67883421e-17
-2.35449642e-17
-1.8423364e-17
-2.1978895e-17
-2.05708271e-17
-2.1268613e-17
-2.47656607e-17
-2.3779542e-17
-2.48521547e-17
-2.7108446e-17
-2.63295315e-17
-2.43144495e-17
-2.2944003e-17
-2.50910208e-17
-2.5158061e-17
-2.61041867e-17
-2.72476331e-17
-2.67774444e-17
-2.32130728e-17
-2.21644075e-17
-2.50118501e-17
-2.24598401e-17
-2.11177873e-17
-1.8293249e-17
-1.93848838e-17
-1.41033469e-17
-1.66789185e-17
-1.41775661e-17
-1.50048281e-17
-1.71097333e-17
-1.75036712e-17
-1.62907705e-17
-1.66230901e-17
-1.76784408e-17
-1.78994879e-17
-1.91620259e-17
-1.71033498e-17
-1.71052332e-17
-1.36734655e-17
-1.44339441e-17
-1.35089201e-17
-1.17673371e-17
-8.91562279e-18
-1.07003992e-17
-9.90940548e-18
-8.70153918e-18
-1.1057901e-17
-6.25160453e-18
-3.31654511e-18
-5.08466698e-18
-1.92858183e-18
-2.63470977e-18
-8.18713974e-18
-7.29073236e-18
-4.2092288e-18
-3.19416868e-18
-2.7562037e-18
-9.88452273e-19
3.1932113e-18
7.52380933e-19
-4.75567711e-21
2.52824202e-18
4.90385564e-18
6.43086232e-18
5.37802293e-18
3.4952653e-18
5.3939223e-18
6.03518379e-18
4.71965073e-18
5.80485593e-18
6.2205741e-18
5.64085197e-18
4.30932326e-18
4.3993513e-18
7.448452e-18
7.20953085e-18
5.89544414e-18
5.31770859e-18
6.9914701e-18
7.24959421e-18
9.80774101e-18
9.31927642e-18
6.77898857e-18
8.80936677e-18
8.42522045e-18
9.15443321e-18
7.67535415e-18
1.00092327e-17
5.01602085e-18
6.021822e-18
9.35493462e-18
9.97392898e-18
1.0197926e-17
9.55059452e-18
6.31753493e-18
7.44269607e-18
8.42702388e-18
7.94051417e-18
9.96041178e-18
1.01285186e-17
1.11168356e-17
8.31109777e-18
8.23403211e-18
1.13605118e-17
1.11597845e-17
1.27422131e-17
9.51448936e-18
1.25144913e-17
1.03929324e-17
1.45789514e-17
1.22772159e-17
1.41156706e-17
1.58473382e-17
1.72813389e-17
1.76259201e-17
1.70271338e-17
1.20263245e-17
1.07895094e-17
1.30092356e-17
1.38181393e-17
1.39354134e-17
1.13047548e-17
1.24722014e-17
1.24198108e-17
1.2593451e-17
1.46856715e-17
1.69313772e-17
1.84627249e-17
1.8492671e-17
2.15428744e-17
1.87713111e-17
1.60699486e-17
1.7633232e-17
1.7281981e-17
1.68727763e-17
1.56460097e-17
1.49778347e-17
1.87067624e-17
1.55111187e-17
1.87347584e-17
1.90324245e-17
2.16030478e-17
2.46163912e-17
2.37545513e-17
2.33156339e-17
2.30521231e-17
2.43810711e-17
2.36199699e-17
2.40978112e-17
2.61464135e-17
2.6161878e-17
2.53745152e-17
2.73728059e-17
2.868245e-17
2.75496782e-17
2.75757664e-17
2.98971974e-17
3.22160919e-17
3.48575527e-17
3.89883982e-17
4.00648384e-17
3.73264046e-17
3.76860443e-17
3.67204135e-17
4.15255652e-17
3.97169025e-17
4.07184517e-17
3.67104574e-17
3.88529019e-17
3.63327915e-17
3.80086525e-17
3.89105397e-17
4.26232738e-17
4.22565206e-17
4.37194176e-17
4.44233226e-17
4.53000558e-17
4.46608078e-17
4.70742319e-17
4.536528e-17
4.87699238e-17
4.83646252e-17
4.85949594e-17
5.06813493e-17
5.17498359e-17
4.92798506e-17
4.59606787e-17
4.90266172e-17
4.64722058e-17
4.7932169e-17
4.91014942e-17
4.86029636e-17
5.15935737e-17
5.10570799e-17
4.86759941e-17
5.19019766e-17
5.32775544e-17
5.50232805e-17
5.63885193e-17
5.55837318e-17
5.76378909e-17
5.68523529e-17
5.76272489e-17
5.87665825e-17
5.63321095e-17
5.93489165e-17
5.76049728e-17
6.27142393e-17
6.14136671e-17
6.0114597e-17
5.90810059e-17
6.29440596e-17
6.37477064e-17
6.63851031e-17
6.70202112e-17
6.67490889e-17
6.94403465e-17
6.77996669e-17
6.34018993e-17
6.45603337e-17
6.44924347e-17
6.62637618e-17
6.64831874e-17
6.66349756e-17
6.6515773e-17
6.48929479e-17
6.69517154e-17
6.59314298e-17
6.72043962e-17
7.06791629e-17
7.09087644e-17
7.1588153e-17
6.96409682e-17
7.00761245e-17
7.04400466e-17
6.9093245e-17
6.78098393e-17
7.05864584e-17
7.07871604e-17
7.51220472e-17
7.47708271e-17
7.05717586e-17
6.88534455e-17
6.78095474e-17
6.57475212e-17
6.55365092e-17
6.74934678e-17
6.35360563e-17
6.41650158e-17
6.05439428e-17
6.28008422e-17
6.6192332e-17
6.56647957e-17
6.39978521e-17
6.68625079e-17
6.4502868e-17
6.39388367e-17
6.63270948e-17
6.73978279e-17
6.68398923e-17
6.73178678e-17
6.58726254e-17
6.64051412e-17
6.44557603e-17
6.60814595e-17
6.51042223e-17
6.66694198e-17
6.90795969e-17
6.79524391e-17
6.66122234e-17
6.63563077e-17
6.37087058e-17
6.50411348e-17
6.31649593e-17
6.65042395e-17
6.07552451e-17
6.21202217e-17
6.00851532e-17
6.18010114e-17
6.51457695e-17
6.16730502e-17
6.36253616e-17
6.45193567e-17
6.26614743e-17
6.14568694e-17
6.02749061e-17
5.83626757e-17
5.54074709e-17
5.67009221e-17
5.69097066e-17
5.76758253e-17
5.82544458e-17
5.86597549e-17
5.99274959e-17
5.73210774e-17
5.63285014e-17
5.67020773e-17
5.64555898e-17
5.82538019e-17
5.73835827e-17
5.90348446e-17
6.14563444e-17
6.2273961e-17
5.94811918e-17
5.84789915e-17
6.10090325e-17
6.13906503e-17
6.07595728e-17
5.94377956e-17
5.76369568e-17
6.0050578e-17
5.66977363e-17
5.8076109e-17
5.75314063e-17
5.78781242e-17
5.8597633e-17
5.64345672e-17
5.81531048e-17
5.80500421e-17
5.9565315e-17
5.98717865e-17
5.76404113e-17
5.82565603e-17
5.70017084e-17
5.95119225e-17
5.90172191e-17
5.94870063e-17
6.03688877e-17
6.08355763e-17
6.0452607e-17
5.80537978e-17
5.88393073e-17
5.99412927e-17
6.36970168e-17
6.63700784e-17
6.45878353e-17
6.5504247e-17
6.83062152e-17
6.63152562e-17
6.76478095e-17
7.20513264e-17
7.02114273e-17
7.20303358e-17
7.05557453e-17
6.92744577e-17
6.75989832e-17
7.1014215e-17
6.74928707e-17
6.69672267e-17
6.43237622e-17
6.45567962e-17
6.51350122e-17
6.32339356e-17
6.45964467e-17
6.38976095e-17
6.18738968e-17
5.97786116e-17
6.16428382e-17
5.86786208e-17
6.06765927e-17
5.98813136e-17
6.01736745e-17
6.28073544e-17
6.16382658e-17
6.15467862e-17
6.06684941e-17
6.21249225e-17
6.34765462e-17
6.07736882e-17
5.94298007e-17
5.7868161e-17
5.96924445e-17
5.82247708e-17
5.92643e-17
5.7910561e-17
5.86920892e-17
6.16704477e-17
5.77617538e-17
5.64041386e-17
5.59158341e-17
5.45221463e-17
5.18328593e-17
4.95326522e-17
5.04746198e-17
5.39833035e-17
5.26179688e-17
5.3914465e-17
5.08446067e-17
5.24098754e-17
5.39193175e-17
5.02778004e-17
5.42945924e-17
5.62004198e-17
5.36998756e-17
5.29294576e-17
5.5145784e-17
5.7887315e-17
6.03033214e-17
5.68383849e-17
5.44280292e-17
5.39800054e-17
5.07928612e-17
5.18982004e-17
5.09090191e-17
5.3512988e-17
5.29743038e-17
5.46880154e-17
5.46279806e-17
5.45191756e-17
5.62683166e-17
5.2940278e-17
5.36051268e-17
5.50688535e-17
5.3046891e-17
5.60456192e-17
5.65513754e-17
5.46542515e-17
5.42329321e-17
5.33292993e-17
5.53180181e-17
5.33442386e-17
5.36167002e-17
5.37035672e-17
5.4549854e-17
5.89414165e-17
5.90020603e-17
5.62415038e-17
5.43079206e-17
5.59131309e-17
5.3110359e-17
5.3590879e-17
5.49522359e-17
5.51844573e-17
5.6272178e-17
5.65474698e-17
5.70268549e-17
5.66503979e-17
5.87256516e-17
5.80061392e-17
5.73145164e-17
5.81399175e-17
5.75225006e-17
5.73724506e-17
5.6024221e-17
5.85527941e-17
5.80264441e-17
5.62501193e-17
5.19949957e-17
5.22627194e-17
5.30289513e-17
5.23243954e-17
5.06729394e-17
4.99986816e-17
4.84073945e-17
4.72693816e-17
4.73145562e-17
4.82652766e-17
4.69008821e-17
4.67888478e-17
4.6689189e-17
4.98039229e-17
5.1734269e-17
5.0704583e-17
4.75264576e-17
4.56088911e-17
4.38969482e-17
4.35985566e-17
4.61730738e-17
4.82180308e-17
4.75981032e-17
4.60070765e-17
4.53226812e-17
4.57387056e-17
4.74922072e-17
4.95560446e-17
5.10632902e-17
4.58993176e-17
4.70711566e-17
4.47813991e-17
4.55899298e-17
4.53452285e-17
4.64997603e-17
4.49963101e-17
4.72742741e-17
4.4390013e-17
4.15465148e-17
4.27103559e-17
4.06977812e-17
3.79257159e-17
3.95953514e-17
4.08104303e-17
4.52542087e-17
4.03834581e-17
4.24229063e-17
4.20129409e-17
4.10672175e-17
4.40976496e-17
4.2095981e-17
4.330174e-17
3.78320815e-17
3.63757627e-17
3.74289476e-17
3.52011179e-17
3.65696656e-17
3.67280564e-17
3.83049269e-17
3.63789445e-17
3.23513619e-17
2.97042158e-17
3.14262953e-17
3.2132437e-17
3.13759787e-17
2.81290677e-17
3.06761123e-17
2.83188173e-17
2.73670251e-17
2.50759738e-17
2.68487523e-17
2.49193424e-17
2.38007152e-17
2.40971894e-17
2.39007699e-17
2.50457743e-17
2.3460953e-17
2.33381938e-17
2.92483713e-17
2.94605053e-17
2.57252768e-17
2.36774812e-17
2.55175225e-17
2.80059542e-17
2.3353229e-17
2.24097939e-17
2.16685174e-17
1.90193144e-17
1.83947373e-17
1.88479024e-17
1.82613754e-17
1.94031206e-17
2.1225811e-17
2.78417411e-17
2.2713953e-17
1.97247452e-17
1.95579997e-17
2.27331261e-17
2.52227678e-17
2.38466296e-17
2.34165282e-17
2.28827172e-17
2.42926552e-17
2.72510182e-17
2.50505786e-17
2.44624337e-17
2.3566175e-17
2.57324394e-17
2.6814321e-17
2.93041638e-17
2.77209817e-17
2.65702285e-17
2.33977672e-17
2.33795188e-17
1.90296559e-17
2.13790001e-17
1.84102558e-17
2.10428363e-17
1.85273486e-17
1.88296769e-17
1.76714308e-17
1.40662419e-17
1.18518503e-17
1.17190916e-17
1.20966363e-17
9.86831307e-18
9.95857026e-18
9.67159939e-18
9.7982994e-18
6.89637782e-18
4.09110711e-18
2.89942428e-18
-3.1174641e-18
-3.04189404e-18
-4.63971729e-18
-3.88283038e-18
-4.26979397e-18
-6.51125077e-18
-7.96874338e-18
-9.07427869e-18
-8.19633798e-18
-9.17610382e-18
-9.09062956e-18
-1.30841397e-17
-1.25387463e-17
-1.62660443e-17
-1.53320882e-17
-1.9550137e-17
-1.96024557e-17
-1.98769587e-17
-1.92275522e-17
-1.89381838e-17
-1.87049022e-17
-1.79570554e-17
-1.66175995e-17
-2.00212456e-17
-1.7692666e-17
-1.76737226e-17
-1.801087e-17
-1.82371257e-17
-1.59868109e-17
-1.58989389e-17
-1.73872793e-17
-1.85474663e-17
-2.08774402e-17
-2.34543728e-17
-2.66874275e-17
-2.31660721e-17
-2.15320839e-17
-1.88041999e-17
-1.69461591e-17
-1.59549123e-17
-1.61298205e-17
-1.93554322e-17
-1.83727759e-17
-1.98902521e-17
-1.67574546e-17
-1.70071361e-17
-1.40601413e-17
-1.27300752e-17
-1.45014081e-17
-1.36042338e-17
-1.28681315e-17
-1.49101652e-17
-1.55777635e-17
-1.36830833e-17
-1.50236864e-17
-1.71314889e-17
-1.9561029e-17
-2.17336601e-17
-2.10217855e-17
-2.22647781e-17
-2.21430668e-17
-2.30650723e-17
-2.63260993e-17
-2.67691788e-17
-2.73949541e-17
-2.58808305e-17
-2.64054097e-17
-2.53455518e-17
-2.58619638e-17
-2.7594645e-17
-3.0396879e-17
-2.65074402e-17
-2.95161468e-17
-3.37399313e-17
-3.34759753e-17
-3.3939801e-17
-3.52163968e-17
-3.72991047e-17
-3.75648276e-17
-4.04699892e-17
-4.56696817e-17
-4.55775081e-17
-4.87830974e-17
-4.92408073e-17
-5.09852099e-17
-5.08035196e-17
-5.155693e-17
-5.17283669e-17
-5.45210042e-17
-5.49260272e-17
-5.39605022e-17
-5.6631498e-17
-5.59125818e-17
-5.13216146e-17
-5.61866748e-17
-5.46991693e-17
-5.386723e-17
-5.57915941e-17
-5.29766562e-17
-5.44538407e-17
-5.78505489e-17
-6.07922001e-17
-5.96307137e-17
-5.76966633e-17
-6.14494358e-17
-6.31509658e-17
-6.10568092e-17
-6.20003412e-17
-6.45587258e-17
-6.73394143e-17
-6.73606457e-17
-6.81676241e-17
-6.75215357e-17
-6.13427004e-17
-6.64458148e-17
-7.00827189e-17
-6.76278249e-17
-6.57725344e-17
-6.57703585e-17
-6.571281e-17
-6.61405461e-17
-6.87072549e-17
-6.6126875e-17
-6.71139731e-17
-6.60198326e-17
-6.68520341e-17
-6.16762203e-17
-5.81634649e-17
-6.01009383e-17
-5.7807163e-17
-5.57337299e-17
-6.03094325e-17
-5.89752629e-17
-5.96167139e-17
-6.00262605e-17
-5.90209371e-17
-5.72884635e-17
-5.77614739e-17
-5.93542237e-17
-5.9644718e-17
-5.99047581e-17
-5.80606408e-17
-5.97240668e-17
-6.02622364e-17
-5.75370823e-17
-5.47330201e-17
-5.26695909e-17
-5.31793073e-17
-5.21404935e-17
-5.09290376e-17
-5.0932608e-17
-5.14866681e-17
-5.29030368e-17
-5.22117421e-17
-5.13285256e-17
-5.27076965e-17
-5.02055367e-17
-5.02066557e-17
-4.9999862e-17
-5.14250345e-17
-5.28672127e-17
-5.10014824e-17
-4.84060706e-17
-5.13912313e-17
-5.16388097e-17
-5.04215668e-17
-5.01459058e-17
-5.07186996e-17
-4.84999418e-17
-4.9030294e-17
-4.89783088e-17
-4.97903476e-17
-5.25232958e-17
-5.33868479e-17
-5.38532738e-17
-5.3241414e-17
-5.30642304e-17
-5.19443057e-17
-5.26987717e-17
-5.30768351e-17
-5.39358349e-17
-5.40136922e-17
-5.03514948e-17
-5.08931923e-17
-5.06136745e-17
-5.19930016e-17
-4.85415451e-17
-4.874435e-17
-4.78850976e-17
-4.80409534e-17
-4.89511195e-17
-5.08051385e-17
-5.25384764e-17
-5.14475769e-17
-5.26706571e-17
-5.06207063e-17
-5.40064485e-17
-5.57588197e-17
-5.62321162e-17
-5.53664371e-17
-5.47650194e-17
-5.40094876e-17
-5.4498542e-17
-5.21007562e-17
-5.28357253e-17
-5.35836481e-17
-5.60116224e-17
-5.76282039e-17
-5.85074278e-17
-6.01691732e-17
-5.82143398e-17
-6.02482207e-17
-5.71915239e-17
-5.83855151e-17
-5.78754216e-17
-6.21874428e-17
-5.82260791e-17
-6.29299664e-17
-5.88683303e-17
-5.80380418e-17
-6.0950205e-17
-5.97309393e-17
-5.65880999e-17
-5.90130045e-17
-5.90298986e-17
-5.7824188e-17
-5.75125922e-17
-5.75081284e-17
-6.03658712e-17
-5.94171811e-17
-6.06580816e-17
-6.4450776e-17
-6.72106987e-17
-6.63706308e-17
-6.79234555e-17
-6.99349047e-17
-6.94978903e-17
-7.14707821e-17
-6.86986247e-17
-7.24997553e-17
-7.10755526e-17
-7.2705541e-17
-7.25226657e-17
-7.51812308e-17
-7.42108928e-17
-7.87607713e-17
-7.53916373e-17
-7.66525348e-17
-7.43382444e-17
-7.60035678e-17
-7.49892745e-17
-7.62187698e-17
-7.87673289e-17
-7.96528477e-17
-7.79469036e-17
-7.96468354e-17
-8.07031998e-17
-7.82805564e-17
-7.97692963e-17
-7.65593402e-17
-7.63015816e-17
-7.41252812e-17
-7.80430483e-17
-7.94400632e-17
-7.68301029e-17
-7.65671433e-17
-7.48189548e-17
-7.53892513e-17
-7.42284169e-17
-7.226789e-17
-7.20671665e-17
-6.9010421e-17
-6.8701836e-17
-7.36743635e-17
-7.19351572e-17
-7.35233677e-17
-7.66575773e-17
-7.37682467e-17
-7.64263137e-17
-7.69621166e-17
-7.92804116e-17
-7.86249437e-17
-7.83481395e-17
-7.50767785e-17
-7.47471211e-17
-7.48929266e-17
-7.60691746e-17
-7.85117767e-17
-7.95804853e-17
-7.63844044e-17
-7.61094475e-17
-7.87250129e-17
-8.12018371e-17
-7.86613084e-17
-7.55498495e-17
-7.53790258e-17
-7.26616471e-17
-7.12748969e-17
-7.32367998e-17
-7.46994771e-17
-7.30202129e-17
-7.52045079e-17
-7.60125521e-17
-7.64815245e-17
-7.43119858e-17
-7.51426463e-17
-7.47408136e-17
-7.37423608e-17
-7.45764257e-17
-7.41248653e-17
-7.31150107e-17
-7.35193189e-17
-7.21647332e-17
-7.12595323e-17
-7.11396731e-17
-7.22248325e-17
-7.16189477e-17
-7.19646115e-17
-6.84677786e-17
-6.90438296e-17
-6.98293147e-17
-6.84470598e-17
-6.7214182e-17
-6.41137262e-17
-6.47790139e-17
-6.77153956e-17
-6.73847262e-17
-6.60121973e-17
-6.61540688e-17
-6.93376736e-17
-6.77413576e-17
-6.62733343e-17
-6.59232592e-17
-6.44548847e-17
-6.37787056e-17
-6.22814031e-17
-5.87703666e-17
-5.9709221e-17
-5.75160476e-17
-5.87288299e-17
-5.71786743e-17
-5.70818253e-17
-5.80737382e-17
-5.68825826e-17
-5.28965531e-17
-5.16174935e-17
-4.96995934e-17
-4.92535337e-17
-4.95525862e-17
-4.70802092e-17
-4.96137864e-17
-4.58965372e-17
-4.75066327e-17
-4.52479722e-17
-4.51966454e-17
-4.5457927e-17
-4.71646563e-17
-4.83620329e-17
-4.74858966e-17
-4.70975059e-17
-4.48174405e-17
-4.59412331e-17
-4.71697596e-17
-4.84840629e-17
-4.81263733e-17
-4.89691151e-17
-5.09062702e-17
-4.79672815e-17
-4.5579242e-17
-4.19477165e-17
-4.31223158e-17
-4.41188721e-17
-4.73315061e-17
-4.46106547e-17
-4.75509491e-17
-4.69447263e-17
-5.13951027e-17
-4.73265173e-17
-4.66770022e-17
-4.8679947e-17
-4.75359439e-17
-4.57567567e-17
-4.54821573e-17
-4.78361831e-17
-4.90292403e-17
-4.6352773e-17
-4.83684601e-17
-4.3357523e-17
-4.51131164e-17
-4.60976287e-17
-4.66318631e-17
-4.49730007e-17
-4.59586591e-17
-4.78326297e-17
-4.54612919e-17
-4.26348125e-17
-4.25692798e-17
-4.60514221e-17
-4.88093269e-17
-4.67245507e-17
-4.90434491e-17
-4.95425334e-17
-4.76732443e-17
-4.54467914e-17
-4.31613102e-17
-4.31346346e-17
-4.27472187e-17
-4.04893166e-17
-4.16226523e-17
-4.43550075e-17
-4.39944969e-17
-4.35201817e-17
-4.64783507e-17
-4.50125194e-17
-4.35336538e-17
-4.63928513e-17
-4.44663087e-17
-4.69276271e-17
-4.61721366e-17
-4.34642035e-17
-4.23971666e-17
-4.24417554e-17
-4.08538227e-17
-3.96454323e-17
-3.88336867e-17
-3.7594743e-17
-3.6986521e-17
-3.42804513e-17
-3.3044643e-17
-3.53552885e-17
-3.24181108e-17
-3.27472213e-17
-3.63435411e-17
-3.33962106e-17
-3.43930168e-17
-3.33264385e-17
-3.1167851e-17
-3.20585427e-17
-3.0369333e-17
-2.98450534e-17
-3.05574201e-17
-2.90601955e-17
-2.69034899e-17
-2.66755352e-17
-2.84927858e-17
-2.73496746e-17
-3.09053118e-17
-2.9427209e-17
-2.36937494e-17
-2.67262135e-17
-2.90441768e-17
-2.96248136e-17
-2.95357153e-17
-2.63526223e-17
-2.81702376e-17
-2.37519322e-17
-2.30182455e-17
-2.43591776e-17
-2.86688148e-17
-2.48028863e-17
-2.7356322e-17
-2.82724665e-17
-2.85908309e-17
-3.14223857e-17
-2.56900376e-17
-2.78475869e-17
-2.75674593e-17
-2.578815e-17
-2.82410627e-17
-2.68638904e-17
-2.53035199e-17
-2.64996017e-17
-2.66610306e-17
-2.48284958e-17
-2.88280779e-17
-2.68298766e-17
-2.44684584e-17
-2.59964296e-17
-2.30472756e-17
-2.03495135e-17
-2.00650256e-17
-1.90770442e-17
-2.06227712e-17
-2.11491728e-17
-2.0721093e-17
-1.95376361e-17
-1.80388675e-17
-1.85030665e-17
-1.79309221e-17
-1.43699397e-17
-1.65588446e-17
-1.53566311e-17
-1.56482803e-17
-1.20999122e-17
-7.36587787e-18
-7.98930035e-18
-1.04928278e-17
-1.05130167e-17
-1.24718246e-17
-1.21444464e-17
-1.37309036e-17
-1.38853313e-17
-1.26179191e-17
-1.12341437e-17
-1.29252667e-17
-1.26406059e-17
-1.12627483e-17
-1.10409867e-17
-7.96779067e-18
-5.74330254e-18
-6.20749763e-18
-4.64051036e-18
-1.64377463e-18
-4.56448207e-18
1.02727461e-19
-6.51937941e-19
-1.86972136e-18
-1.19301748e-18
2.68842222e-18
1.69496943e-18
3.13624402e-18
5.18023447e-18
4.59463421e-18
6.38434798e-18
8.06003066e-18
6.43728151e-18
8.20588008e-18
1.04383811e-17
1.11475184e-17
1.22169247e-17
8.97548204e-18
9.66762512e-18
9.34736074e-18
7.46812119e-18
5.19428647e-18
8.89024154e-18
1.22440266e-17
1.17025145e-17
1.11410655e-17
1.51245905e-17
1.39870317e-17
1.28938256e-17
1.73809372e-17
1.69209201e-17
2.06182356e-17
2.62323723e-17
2.70663931e-17
3.0455925e-17
3.09730384e-17
2.97292233e-17
2.84500848e-17
2.90926905e-17
2.50089465e-17
3.00756531e-17
2.8184839e-17
3.04762211e-17
3.40920214e-17
3.29618698e-17
3.62460991e-17
3.88372589e-17
3.88068937e-17
3.93755037e-17
4.04167961e-17
4.14751862e-17
4.24897442e-17
4.3309377e-17
4.30249004e-17
4.19762367e-17
4.09680566e-17
4.20017874e-17
4.06750188e-17
3.9913776e-17
4.23205232e-17
4.51929185e-17
4.76758527e-17
4.40372031e-17
4.69165633e-17
4.59232374e-17
4.32910433e-17
4.18351863e-17
4.42571748e-17
4.29315546e-17
4.52062374e-17
4.29187855e-17
4.47691285e-17
4.25383452e-17
4.30362513e-17
4.40560487e-17
4.68012927e-17
4.87005658e-17
4.75859373e-17
5.1601186e-17
5.16424693e-17
5.3354027e-17
5.05706114e-17
5.36877439e-17
5.26372112e-17
5.1120044e-17
5.57728544e-17
5.64827282e-17
5.78634847e-17
5.88876874e-17
6.06624375e-17
6.13823907e-17
5.81311548e-17
5.47484764e-17
5.64956708e-17
5.53654968e-17
5.71509628e-17
5.52214906e-17
5.71022991e-17
5.89911362e-17
5.90270871e-17
6.12475111e-17
5.70137915e-17
5.76236629e-17
5.87109244e-17
5.81201163e-17
5.91428689e-17
5.97224741e-17
6.15137285e-17
6.00120512e-17
5.57349901e-17
5.97790274e-17
6.0419227e-17
6.27444616e-17
5.96373369e-17
6.3175983e-17
6.52355299e-17
6.43963692e-17
6.20974691e-17
6.36195294e-17
5.96770235e-17
6.34123648e-17
6.43910781e-17
6.55754653e-17
6.60756058e-17
6.51599076e-17
7.13364362e-17
7.11727747e-17
7.22317501e-17
7.10168305e-17
7.56226572e-17
7.624548e-17
7.53720014e-17
7.58288808e-17
7.86278559e-17
8.38743886e-17
8.43317563e-17
8.59243566e-17
8.54322547e-17
8.95090241e-17
9.26966136e-17
9.3775039e-17
9.7543117e-17
9.88208429e-17
9.94804853e-17
1.03644216e-16
1.06296244e-16
1.10255903e-16
1.14356188e-16
1.19015412e-16
1.23780876e-16
1.29667323e-16
1.31900289e-16
1.37835098e-16
1.4058825e-16
1.4667111e-16
1.52109708e-16
1.61225744e-16
1.65491192e-16
1.7429867e-16
1.82776398e-16
1.93657917e-16
2.05132832e-16
2.14255339e-16
2.28961835e-16
2.40170773e-16
2.52079378e-16
2.67814493e-16
2.87941989e-16
3.06833243e-16
3.2823619e-16
3.49260108e-16
3.71524771e-16
3.94730352e-16
4.22221814e-16
4.48283183e-16
4.77175716e-16
5.09879072e-16
5.4886442e-16
5.87940204e-16
6.2845624e-16
6.72973154e-16
7.20324636e-16
7.78547188e-16
8.32307639e-16
8.95478734e-16
9.66684041e-16
1.03807478e-15
1.11348986e-15
1.19626987e-15
1.28863666e-15
1.38808618e-15
1.49535186e-15
1.61071407e-15
1.73265902e-15
1.86681138e-15
2.01044439e-15
2.17018257e-15
2.34073953e-15
2.52241355e-15
2.72254204e-15
2.9385892e-15
3.17075903e-15
3.42332041e-15
3.69561358e-15
3.9902577e-15
4.30598802e-15
4.64935736e-15
5.01394298e-15
5.41096503e-15
5.83955615e-15
6.30352994e-15
6.79915331e-15
7.33598376e-15
7.92002626e-15
8.54136568e-15
9.21650179e-15
9.94321852e-15
1.07274926e-14
1.15752821e-14
1.2482617e-14
1.34661603e-14
1.45264558e-14
1.56705211e-14
1.6899786e-14
1.82245664e-14
1.96553447e-14
2.11925065e-14
2.28466089e-14
2.46327015e-14
2.65518454e-14
2.86211601e-14
3.08506639e-14
3.32472312e-14
3.5828227e-14
3.86099574e-14
4.16027037e-14
4.48180273e-14
4.82791081e-14
5.20045659e-14
5.60073771e-14
6.03133565e-14
6.49477831e-14
6.99237073e-14
7.52813383e-14
8.10361583e-14
8.72265843e-14
9.38739452e-14
1.01018551e-13
1.08697265e-13
1.16944793e-13
1.25807869e-13
1.35329991e-13
1.45551232e-13
1.56530691e-13
1.68316835e-13
1.80972907e-13
1.94555337e-13
2.09135442e-13
2.24779413e-13
2.41563995e-13
2.59575478e-13
2.78901744e-13
2.99623196e-13
3.21851558e-13
3.45690573e-13
3.71248521e-13