/*--------------------------------*- C++ -*----------------------------------*\
| =========                 |                                                 |
| \\      /  F ield         | OpenFOAM: The Open Source CFD Toolbox           |
|  \\    /   O peration     | Version:  2206                                  |
|   \\  /    A nd           | Website:  www.openfoam.com                      |
|    \\/     M anipulation  |                                                 |
\*---------------------------------------------------------------------------*/
FoamFile
{
    version     2.0;
    format      ascii;
    arch        "LSB;label=32;scalar=64";
    class       volScalarField;
    location    "1.32e-05";
    object      PVsourcePV;
}
// * * * * * * * * * * * * * * * * * * * * * * * * * * * * * * * * * * * * * //

dimensions      [1 -3 -1 0 0 0 0];

internalField   nonuniform List<scalar> 
3183
(
0
0
0
0
0
0
0
0
0
0
0
0
0
0
0
0
0
0
0
0
0
0
0
0
0
0
0
0
0
0
0
0
0
0
0
0
0
0
0
0
0
0
0
0
0
0
0
0
0
0
0
0
0
0
0
0
0
0
0
0
0
0
0
0
0
0
0
0
0
0
0
0
0
0
0
0
0
0
0
0
0
0
0
0
0
0
0
0
0
0
0
0
0
0
0
0
0
0
0
0
0
0
0
0
0
0
0
0
0
0
0
0
0
0
0
0
0
0
0
0
0
0
0
0
0
0
0
0
0
0
0
0
0
0
0
0
0
0
0
0
0
0
0
0
0
0
0
0
0
0
0
0
0
0
0
0
0
0
0
0
0
0
0
0
0
0
0
0
0
0
0
0
0
0
0
0
0
0
0
0
0
0
0
0
0
0
0
0
0
0
0
0
0
0
0
0
0
0
0
0
0
0
0
0
0
0
0
0
0
0
0
0
0
0
0
0
0
0
0
0
0
0
0
0
0
0
0
0
0
0
0
0
0
0
0
0
0
0
0
0
0
0
0
0
0
0
0
0
0
0
0
0
0
0
0
0
0
0
0
0
0
0
0
0
0
0
0
0
0
0
0
0
0
0
0
0
0
0
0
0
0
0
0
0
0
0
0
0
0
0
0
0
0
0
0
0
0
0
0
0
0
0
0
0
0
0
0
0
0
0
0
0
0
0
0
0
0
0
0
0
0
0
0
0
0
0
0
0
0
0
0
0
0
0
0
0
0
0
0
0
0
0
0
0
0
0
0
0
0
0
0
0
0
0
0
0
0
0
0
0
0
0
0
0
0
0
0
0
0
0
0
0
0
0
0
0
0
0
0
0
0
0
0
0
0
0
0
0
0
0
0
0
0
0
0
0
0
0
0
0
0
0
0
0
0
0
0
0
0
0
0
0
0
0
0
0
0
0
0
0
0
0
0
0
0
0
0
0
0
0
0
0
0
0
0
0
0
0
0
0
0
0
0
0
0
0
0
0
0
0
0
0
0
0
0
0
0
0
0
0
0
0
0
0
0
0
0
0
0
0
0
0
0
0
0
0
0
0
0
0
0
0
0
0
0
0
0
0
0
0
0
0
0
0
0
0
0
0
0
0
0
0
0
0
0
0
0
0
0
0
0
0
0
0
0
0
0
0
0
0
0
0
0
0
0
0
0
0
0
0
0
0
0
0
0
0
0
0
0
0
0
0
0
0
0
0
0
0
0
0
0
0
0
0
0
0
0
0
0
0
0
0
0
0
0
0
0
0
0
0
0
0
0
0
0
0
0
0
0
0
0
0
0
0
0
0
0
0
0
0
0
0
0
0
0
0
0
0
0
0
0
0
0
0
0
0
0
0
0
0
0
0
0
0
0
0
0
0
0
0
0
0
0
0
0
0
0
0
0
0
0
0
0
0
0
0
0
0
0
0
0
0
0
0
0
0
0
0
0
0
0
0
0
0
0
0
0
0
0
0
0
0
0
0
0
0
0
0
0
0
0
0
0
0
0
0
0
0
0
0
0
0
0
0
0
0
0
0
0
0
0
0
0
0
0
0
0
0
0
0
0
0
0
0
0
0
0
0
0
0
0
0
0
0
0
0
0
0
0
0
0
0
0
0
0
0
0
0
0
0
0
0
0
0
0
0
0
0
0
0
0
0
0
0
0
0
0
0
0
0
0
0
0
0
0
0
0
0
0
0
0
0
0
0
0
0
0
0
0
0
0
0
0
0
0
0
0
0
0
0
0
0
0
0
0
0
0
0
0
0
0
0
0
0
0
0
0
0
0
0
0
0
0
0
0
0
0
0
0
0
0
0
0
0
0
0
0
0
0
0
0
0
0
0
0
0
0
0
0
0
0
0
0
0
0
0
0
0
0
0
0
0
0
0
0
0
0
0
0
0
0
0
0
0
0
0
0
0
0
0
0
0
0
0
0
0
0
0
0
0
0
0
0
0
0
0
0
0
0
0
0
0
0
0
0
0
0
0
0
0
0
0
0
0
0
0
0
0
0
0
0
0
0
0
0
0
0
0
0
0
0
0
0
0
0
0
0
0
0
0
0
0
0
0
0
0
0
0
0
0
0
0
0
0
0
0
0
0
0
0
0
0
0
0
0
0
0
0
0
0
0
0
0
0
0
0
0
0
0
0
0
0
0
0
0
0
0
0
0
0
0
0
0
0
0
0
0
0
0
0
0
0
0
0
0
0
0
0
0
0
0
0
0
0
0
0
0
0
0
0
0
0
0
0
0
0
0
0
0
0
0
0
0
0
0
0
0
0
0
0
0
0
0
0
0
0
0
0
0
0
0
0
0
0
0
0
0
0
0
0
0
0
0
0
0
0
0
0
0
0
0
0
0
0
0
0
0
0
0
0
0
0
0
0
0
0
0
0
0
0
0
0
0
0
0
0
0
0
0
0
0
0
0
0
0
0
0
0
0
0
0
0
0
0
0
0
0
0
0
0
0
0
0
0
0
0
0
0
0
0
0
0
0
0
0
0
0
0
0
0
0
0
0
0
0
0
0
0
0
0
0
0
0
0
0
0
0
0
0
0
0
0
0
0
0
0
0
0
0
0
0
0
0
0
0
0
0
0
0
0
0
0
0
0
0
0
0
0
0
0
0
0
0
0
0
0
0
0
0
0
0
0
0
0
0
0
0
0
0
0
0
0
0
0
0
0
0
0
0
0
0
0
0
0
0
0
0
0
0
0
0
0
0
0
0
0
0
0
0
0
0
0
0
0
0
0
0
0
0
0
0
0
0
0
0
0
0
0
0
0
0
0
0
0
0
0
0
0
0
0
0
0
0
0
0
0
0
0
0
0
0
0
0
0
0
0
0
0
0
0
0
0
0
0
0
0
0
0
0
0
0
0
0
0
0
0
0
0
0
0
0
0
0
0
0
0
0
0
0
0
0
0
0
0
0
0
0
0
0
0
0
0
0
0
0
0
0
0
0
0
0
0
0
0
0
0
0
0
0
0
0
0
0
0
0
0
0
0
0
0
0
0
0
0
0
0
0
0
0
0
0
0
0
0
0
0
0
0
0
0
0
0
0
0
0
0
0
0
0
0
0
0
0
0
0
0
0
0
0
0
0
0
0
0
0
0
0
0
0
0
0
0
0
0
0
0
0
0
0
0
0
0
0
0
0
0
0
0
0
0
0
0
0
0
0
0
0
0
0
0
0
0
0
0
0
0
0
0
0
0
0
0
0
0
0
0
0
0
0
0
0
0
0
0
0
0
0
0
0
0
0
0
0
0
0
0
0
0
0
0
0
0
0
0
0
0
0
0
0
0
0
0
0
0
0
0
0
0
0
0
0
0
0
0
0
0
0
0
0
0
0
0
0
0
0
0
0
0
0
0
0
0
0
0
0
0
0
0
0
0
0
0
0
0
0
0
0
0
0
0
0
0
0
0
0
0
0
0
0
0
0
0
0
0
0
0
0
0
0
0
0
0
0
0
0
0
0
0
0
0
0
0
0
0
0
0
0
0
0
0
0
0
0
0
0
0
0
0
0
0
0
0
0
0
0
0
0
0
0
0
0
0
0
0
0
0
0
0
0
0
0
0
0
0
0
0
0
0
0
0
0
0
0
0
0
0
0
0
0
0
0
0
0
0
0
0
0
0
0
0
0
0
0
0
0
0
0
0
0
0
0
0
0
0
0
0
0
0
0
0
0
0
0
0
0
0
0
0
0
0
0
0
0
0
0
0
0
0
0
0
0
0
0
0
0
0
0
0
0
0
0
0
0
0
0
0
0
0
0
0
0
0
0
0
0
0
0
0
0
0
0
0
0
0
0
0
0
0
0
0
0
0
0
0
0
0
0
0
0
0
0
0
0
0
0
0
0
0
0
0
0
0
0
0
0
0
0
0
0
0
0
0
0
0
0
0
0
0
0
0
0
0
0
0
0
0
0
0
0
0
0
0
0
0
0
0
0
0
0
0
0
0
0
0
0
0
0
0
0
0
0
0
0
0
0
0
0
0
0
0
0
0
0
0
0
0
0
0
0
0
0
0
0
0
0
0
0
0
0
0
0
0
0
0
0
0
0
0
0
0
0
0
0
0
0
0
0
0
0
0
0
0
0
0
0
0
0
0
0
0
0
0
0
0
0
0
0
0
0
0
0
0
0
0
0
0
0
0
0
0
0
0
0
0
0
0
0
0
0
0
0
0
0
0
0
0
0
0
0
0
0
0
0
0
0
0
0
0
0
0
0
0
0
0
0
0
0
0
0
0
0
0
0
0
0
0
0
0
0
0
0
0
0
0
0
0
0
0
0
0
0
0
0
0
0
0
0
0
0
0
0
0
0
0
0
0
0
0
0
0
0
0
0
0
0
0
0
0
0
0
0
0
0
0
0
0
0
0
0
0
0
0
0
0
0
0
0
0
0
0
0
0
0
0
0
0
0
0
0
0
0
0
0
0
0
0
0
0
0
0
0
0
0
0
0
0
0
0
0
0
0
0
0
0
0
0
0
0
0
0
0
0
0
0
0
0
0
0
0
0
0
0
0
0
0
0
0
0
0
0
0
0
0
0
0
0
0
0
0
0
0
0
0
0
0
0
0
0
0
0
0
0
0
0
0
0
0
0
0
0
0
0
0
0
0
0
0
0
0
0
0
0
0
0
0
0
0
0
0
0
0
0
0
0
0
0
0
0
0
0
0
0
0
0
0
0
0
0
0
0
0
0
0
0
0
0
0
0
0
0
0
0
0
0
0
0
0
0
0
0
0
0
0
0
0
0
0
0
0
0
0
0
0
0
0
0
0
0
0
0
0
0
0
0
0
0
0
0
0
0
0
0
0
0
0
0
0
0
0
0
0
0
0
0
0
0
0
0
0
0
0
0
0
0
0
0
0
0
0
0
0
0
0
0
0
0
0
0
0
0
0
0
0
0
0
0
0
0
0
0
0
0
0
0
0
0
0
0
0
0
0
0
0
0
0
0
0
0
0
0
0
0
0
0
0
0
0
0
0
0
0
0
0
0
0
0
0
0
0
0
0
0
0
0
0
0
0
0
0
0
0
0
0
0
0
0
0
0
0
0
0
0
0
0
0
0
0
0
0
0
0
0
0
0
0
0
0
0
0
0
0
0
0
0
0
0
0
0
0
0
0
0
0
0
0
0
0
0
0
0
0
0
0
0
0
0
0
0
0
0
0
0
0
0
0
0
0
0
0
0
0
0
0
0
0
0
0
0
0
0
0
0
0
0
0
0
0
0
0
0
0
0
0
0
0
0
0
0
0
0
0
0
0
0
0
0
0
0
0
0
0
0
0
0
0
0
0
0
0
0
0
0
0
0
0
0
0
0
0
1.7187506e-299
4.8359435e-300
1.19792228e-296
3.47067128e-297
8.24566837e-294
2.45691909e-294
5.60568516e-291
1.71588508e-291
3.7640881e-288
1.18211193e-288
2.49654961e-285
8.03801214e-286
1.63564701e-282
5.39441828e-283
1.05858584e-279
3.57089226e-280
6.76809438e-277
2.33568065e-277
4.27489907e-274
1.50790713e-274
2.66758558e-271
9.61823768e-272
1.64458537e-268
6.05089355e-269
1.00173124e-265
3.75882995e-266
6.02854586e-263
2.30580172e-263
3.58466825e-260
1.39685562e-260
2.10604471e-257
8.3572407e-258
1.22257152e-254
4.93827414e-255
7.01251156e-252
2.88207367e-252
3.97437445e-249
1.66137246e-249
2.22567534e-246
9.45961089e-247
1.23155369e-243
5.32027496e-244
6.73352965e-241
2.9556814e-241
3.63771088e-238
1.62199734e-238
1.94180832e-235
8.792573e-236
1.02417181e-232
4.7082297e-233
5.33730177e-230
2.49043833e-230
2.74818573e-227
1.3012757e-227
1.39809719e-224
6.71638153e-225
7.02725742e-222
3.42428025e-222
3.48963894e-219
1.72450643e-219
1.71201995e-216
8.57854963e-217
8.29768684e-214
4.21508863e-214
3.97292124e-211
2.04565269e-211
1.87910464e-208
9.80564797e-209
8.77934348e-206
4.64221285e-206
4.0515732e-203
2.17050901e-203
1.84677906e-200
1.00223056e-200
8.31406294e-198
4.57007333e-198
3.69653443e-195
2.05781525e-195
1.62305661e-192
9.14942304e-193
7.03724722e-190
4.01661099e-190
3.0128206e-187
1.74091413e-187
1.27354546e-184
7.44933239e-185
5.31488632e-182
3.14665241e-182
2.18966504e-179
1.31201455e-179
8.9049098e-177
5.3994811e-177
3.57446906e-174
2.19306693e-174
1.41606695e-171
8.79020718e-172
5.5361042e-169
3.47658145e-169
2.13564378e-166
1.35665135e-166
8.12851339e-164
5.22276886e-164
3.05212669e-161
1.98336136e-161
1.13045192e-158
7.42883453e-159
4.12958357e-156
2.74412611e-156
1.48767812e-153
9.99530559e-154
5.28447069e-151
3.58953373e-151
1.85064128e-148
1.27077422e-148
6.38861527e-146
4.43427467e-146
2.17363887e-143
1.52487038e-143
7.28774939e-141
5.16688078e-141
2.40741348e-138
1.72478406e-138
7.83396209e-136
5.67118479e-136
2.51075497e-133
1.83638561e-133
7.9238079e-131
5.8548967e-131
2.46195893e-128
1.83759566e-128
7.52923903e-126
5.67625275e-126
2.2659292e-123
1.72526408e-123
6.70908409e-121
5.15855011e-121
1.95385937e-118
1.51694165e-118
5.59528972e-116
4.38596003e-116
1.57518404e-113
1.24650668e-113
4.35806324e-111
3.48122468e-111
1.18461363e-108
9.55088775e-109
3.16257876e-106
2.57329368e-106
8.28972952e-104
6.8064559e-104
2.13264564e-101
1.7667816e-101
5.38285546e-99
4.49894095e-99
1.33244578e-96
1.12338723e-96
3.233303e-94
2.74951843e-94
7.68793731e-92
6.5932146e-92
1.79033724e-89
1.54826423e-89
4.08135147e-87
3.5586197e-87
9.10303747e-85
8.00155607e-85
1.98534608e-82
1.759044e-82
4.23147787e-80
3.7785508e-80
8.80795031e-78
7.92573518e-78
1.78931361e-75
1.62225762e-75
3.54493171e-73
3.23776467e-73
6.84379563e-71
6.29610583e-71
1.28643097e-68
1.19187473e-68
2.35223476e-66
2.19443832e-66
4.17977353e-64
3.92573765e-64
7.21009733e-62
6.81648152e-62
1.20599419e-59
1.14745893e-59
1.95353268e-57
1.87027161e-57
3.06036916e-55
2.94758102e-55
4.62972236e-53
4.48504112e-53
6.75228293e-51
6.57790004e-51
9.47707654e-49
9.28179046e-49
1.2774843e-46
1.25750383e-46
1.65015964e-44
1.63194842e-44
2.03752744e-42
2.02317859e-42
2.39812743e-40
2.38801057e-40
2.68199728e-38
2.67204016e-38
2.83987463e-36
2.81954506e-36
2.83532743e-34
2.79080651e-34
2.65639709e-32
2.58670253e-32
2.32227725e-30
2.2832943e-30
1.88132893e-28
1.87759317e-28
1.40132544e-26
1.39366103e-26
9.50680978e-25
9.42381928e-25
5.80197202e-23
5.73679985e-23
3.13636588e-21
3.09314392e-21
1.47140414e-19
1.46973286e-19
5.82362581e-18
5.77881738e-18
1.86893256e-16
1.86388677e-16
4.55915238e-15
4.56050185e-15
5.38963868e-11
5.468263e-11
0.00759403277
0.0329718986
0.621828614
0.711180287
0.569913583
0.493247641
0.13108044
0.106077483
0.0201789433
0.0179118015
0.00393905292
0.00364522004
0.000678506538
0.000655569707
0.00010611745
0.000105823556
1.60097951e-05
1.60115639e-05
2.718856e-06
2.72391221e-06
9.23718317e-07
9.24567706e-07
6.99782982e-07
6.99772371e-07
6.73623891e-07
6.73629382e-07
6.70785552e-07
6.70786496e-07
6.70494381e-07
6.70496187e-07
6.70466321e-07
6.70467517e-07
6.70463849e-07
6.70466092e-07
6.7046225e-07
6.70465168e-07
6.70462999e-07
6.70463829e-07
6.70463624e-07
6.70462775e-07
6.70464737e-07
6.70463082e-07
6.70465511e-07
6.7046267e-07
6.70464449e-07
6.70463923e-07
6.70465052e-07
6.70463362e-07
6.70464282e-07
6.70464102e-07
6.70464815e-07
6.70463352e-07
6.7046448e-07
6.70464119e-07
6.70464329e-07
6.70464243e-07
6.70463992e-07
6.70465199e-07
6.70463341e-07
6.70464204e-07
6.70464098e-07
6.70464657e-07
6.70464387e-07
6.70463604e-07
6.70464181e-07
6.70463693e-07
6.70464412e-07
6.70463682e-07
6.7046422e-07
6.70463118e-07
6.70464085e-07
6.70463977e-07
6.70463317e-07
6.70464291e-07
6.70462943e-07
6.70464261e-07
6.70463869e-07
6.70465087e-07
6.70463641e-07
6.70465225e-07
6.70462859e-07
6.70465076e-07
6.70463543e-07
6.70464043e-07
6.70464512e-07
6.70462629e-07
6.70465071e-07
6.70462851e-07
6.70464898e-07
6.70462952e-07
6.70464881e-07
6.70463717e-07
6.70465163e-07
6.70463635e-07
6.70464776e-07
6.70463999e-07
6.70464312e-07
6.70464073e-07
6.70465235e-07
6.70464637e-07
6.70464271e-07
6.70464309e-07
6.7046401e-07
6.70464151e-07
6.70464795e-07
6.70464134e-07
6.70464108e-07
6.70464445e-07
6.70463903e-07
6.70464829e-07
6.70463139e-07
6.70464609e-07
6.70463849e-07
6.70463979e-07
6.70464017e-07
6.70463404e-07
6.70463744e-07
6.70464988e-07
6.70462975e-07
6.70464899e-07
6.70463702e-07
6.70465133e-07
6.70462892e-07
6.70464007e-07
6.70464049e-07
6.70464145e-07
6.70463997e-07
6.70465035e-07
6.70463801e-07
6.70465133e-07
6.70464431e-07
6.70464026e-07
6.70465175e-07
6.70465072e-07
6.70464738e-07
6.70464616e-07
6.70464894e-07
6.70464283e-07
6.7046427e-07
6.70464305e-07
6.70463208e-07
6.70464451e-07
6.70463463e-07
6.70464101e-07
6.70463633e-07
6.70464085e-07
6.70463369e-07
6.70464128e-07
6.70464594e-07
6.70463239e-07
6.704648e-07
6.70463256e-07
6.70465199e-07
6.70463814e-07
6.70464997e-07
6.70463899e-07
6.70464779e-07
6.70464847e-07
6.70464201e-07
6.70464194e-07
6.70466523e-07
6.70463642e-07
6.70465501e-07
6.7046444e-07
6.70465974e-07
6.70463431e-07
6.70465379e-07
6.70463924e-07
6.70463981e-07
6.70464016e-07
6.70463704e-07
6.70464131e-07
6.70462968e-07
6.7046464e-07
6.70463521e-07
6.70464882e-07
6.7046434e-07
6.70465369e-07
6.70464271e-07
6.70465596e-07
6.70465158e-07
6.70465465e-07
6.70465493e-07
6.70465323e-07
6.70464449e-07
6.70464078e-07
6.70465174e-07
6.70463357e-07
6.70465332e-07
6.70464666e-07
6.70464997e-07
6.7046382e-07
6.70465369e-07
6.70464011e-07
6.70466071e-07
6.70464115e-07
6.70464089e-07
6.70463869e-07
6.70464989e-07
6.7046357e-07
6.70465733e-07
6.7046343e-07
6.70465898e-07
6.70463796e-07
6.70464831e-07
6.70464936e-07
6.70464263e-07
6.7046468e-07
6.70465807e-07
6.70465076e-07
6.70465432e-07
6.7046477e-07
6.7046512e-07
6.70464624e-07
6.70465526e-07
6.70464632e-07
6.70464597e-07
6.70464583e-07
6.70464416e-07
6.70464927e-07
6.70464675e-07
6.70464567e-07
6.70464568e-07
6.70464996e-07
6.70465058e-07
6.70464515e-07
6.70465644e-07
6.70464344e-07
6.70465035e-07
6.70465597e-07
6.70464841e-07
6.7046485e-07
6.70464719e-07
6.70465168e-07
6.70465132e-07
6.70465257e-07
6.70464839e-07
6.70465741e-07
6.70464505e-07
6.70465754e-07
6.70464738e-07
6.70466229e-07
6.70464347e-07
6.70466483e-07
6.70463548e-07
6.70466161e-07
6.70464558e-07
6.70463915e-07
6.70465123e-07
6.70463955e-07
6.70465175e-07
6.70465254e-07
6.70465032e-07
6.70464393e-07
6.70465037e-07
6.70464951e-07
6.70464825e-07
6.70464852e-07
6.70464701e-07
6.70465806e-07
6.70465422e-07
6.70464406e-07
6.70466265e-07
6.70464118e-07
6.70465899e-07
6.7046372e-07
6.70465225e-07
6.70464928e-07
6.70464878e-07
6.70463506e-07
6.70465664e-07
6.70464191e-07
6.70464605e-07
6.7046507e-07
6.70464045e-07
6.70466173e-07
6.70464572e-07
6.70465724e-07
6.70465091e-07
6.70464325e-07
6.70465596e-07
6.70464425e-07
6.70464944e-07
6.70465147e-07
6.70464643e-07
6.70464746e-07
6.70464592e-07
6.70465435e-07
6.70464865e-07
6.70465377e-07
6.70464779e-07
6.70464952e-07
6.70465848e-07
6.70463817e-07
6.70464813e-07
6.70465341e-07
6.70464932e-07
6.70465163e-07
6.70465508e-07
6.7046533e-07
6.70465018e-07
6.70465467e-07
6.70465558e-07
6.70465e-07
6.70465994e-07
6.70464579e-07
6.70464744e-07
6.70465149e-07
6.70464587e-07
6.7046544e-07
6.70464681e-07
6.70465807e-07
6.70464093e-07
6.70466638e-07
6.70464289e-07
6.70465282e-07
6.70465018e-07
6.70465117e-07
6.70465358e-07
6.70464513e-07
6.70465995e-07
6.70463933e-07
6.70466513e-07
6.70464359e-07
6.70465962e-07
6.70464639e-07
6.70465226e-07
6.70465795e-07
6.70464844e-07
6.70465984e-07
6.70464537e-07
6.70465652e-07
6.7046499e-07
6.70465091e-07
6.70465054e-07
6.70465057e-07
6.70465227e-07
6.70465888e-07
6.70464239e-07
6.70465608e-07
6.70465159e-07
6.70465905e-07
6.70465483e-07
6.70465301e-07
6.70465454e-07
6.70465917e-07
6.70464844e-07
6.70465131e-07
6.70466139e-07
6.70464561e-07
6.70465936e-07
6.70465827e-07
6.70464706e-07
6.70465102e-07
6.70465413e-07
6.70464844e-07
6.70466002e-07
6.70464798e-07
6.70466027e-07
6.70465714e-07
6.70465323e-07
6.70464731e-07
6.70465308e-07
6.70465289e-07
6.70466193e-07
6.70465079e-07
6.70465768e-07
6.70465876e-07
6.70466389e-07
6.70466163e-07
6.70466581e-07
6.70465865e-07
6.70465637e-07
6.70465794e-07
6.70465707e-07
6.70465057e-07
6.70465324e-07
6.70465783e-07
6.70465591e-07
6.70466279e-07
6.70465507e-07
6.70465137e-07
6.70466321e-07
6.70465642e-07
6.70465788e-07
6.70465428e-07
6.70465084e-07
6.70465806e-07
6.70464635e-07
6.70466073e-07
6.70464882e-07
6.70465817e-07
6.70464695e-07
6.7046555e-07
6.70465833e-07
6.70465511e-07
6.70466312e-07
6.70466138e-07
6.70465897e-07
6.70465364e-07
6.70465794e-07
6.70465308e-07
6.70465e-07
6.70466847e-07
6.70464215e-07
6.70466385e-07
6.70464571e-07
6.70466167e-07
6.70465972e-07
6.70465574e-07
6.70465645e-07
6.70466527e-07
6.70466364e-07
6.70465842e-07
6.70466349e-07
6.70465484e-07
6.70466257e-07
6.70465481e-07
6.70466073e-07
6.70465321e-07
6.70466218e-07
6.70466083e-07
6.70465473e-07
6.70467183e-07
6.70465917e-07
6.70466209e-07
6.70466062e-07
6.70466774e-07
6.70465255e-07
6.70466972e-07
6.70465442e-07
6.70466629e-07
6.70466119e-07
6.70466064e-07
6.70466846e-07
6.70465861e-07
6.7046605e-07
6.70466586e-07
6.70465805e-07
6.70466883e-07
6.70465265e-07
6.70466477e-07
6.70465665e-07
6.70465996e-07
6.7046544e-07
6.70467047e-07
6.70465716e-07
6.70466916e-07
6.7046566e-07
6.7046566e-07
6.70466728e-07
6.70465555e-07
6.7046636e-07
6.7046579e-07
6.70465524e-07
6.70466754e-07
6.70465293e-07
6.70465943e-07
6.70466477e-07
6.70465278e-07
6.70466619e-07
6.70466206e-07
6.70465562e-07
6.7046697e-07
6.70465221e-07
6.70467467e-07
6.7046564e-07
6.70466804e-07
6.70465685e-07
6.70466404e-07
6.70465876e-07
6.70466033e-07
6.70465927e-07
6.70465929e-07
6.70465694e-07
6.70466927e-07
6.70465477e-07
6.70466939e-07
6.70465181e-07
6.70466449e-07
6.70465135e-07
6.70466385e-07
6.70465077e-07
6.70466248e-07
6.70465423e-07
6.70465628e-07
6.70466081e-07
6.70465225e-07
6.70467481e-07
6.70464849e-07
6.70466782e-07
6.70465363e-07
6.70467406e-07
6.70465314e-07
6.70467454e-07
6.70464164e-07
6.70468399e-07
6.70464155e-07
6.70467398e-07
6.70464833e-07
6.7046713e-07
6.70465534e-07
6.70466185e-07
6.7046681e-07
6.70466878e-07
6.70465934e-07
6.7046678e-07
6.70465808e-07
6.7046623e-07
6.70466145e-07
6.70466398e-07
6.7046604e-07
6.7046635e-07
6.7046634e-07
6.70466651e-07
6.70466386e-07
6.70466308e-07
6.70466657e-07
6.70466341e-07
6.70466188e-07
6.70466578e-07
6.70466578e-07
6.70466526e-07
6.70466535e-07
6.70466553e-07
6.70466497e-07
6.70466651e-07
6.70466679e-07
6.70466693e-07
6.70466774e-07
6.70466793e-07
6.70466928e-07
6.70467005e-07
6.70466993e-07
6.70467135e-07
6.70467236e-07
6.70467285e-07
6.70467405e-07
6.70467555e-07
6.70467725e-07
6.70467843e-07
6.70468009e-07
6.70468224e-07
6.70468377e-07
6.70468585e-07
6.70468799e-07
6.70468984e-07
6.70469107e-07
6.70469294e-07
6.70469396e-07
6.70469477e-07
6.7046955e-07
6.70469579e-07
6.70469598e-07
6.70469621e-07
6.70469621e-07
6.70469621e-07
6.70469595e-07
6.70469587e-07
6.70469626e-07
6.7046961e-07
6.70469615e-07
6.70469616e-07
6.70469616e-07
6.70469624e-07
6.70469625e-07
6.70469618e-07
6.70469636e-07
6.70469611e-07
6.70469618e-07
6.70469611e-07
6.70469618e-07
6.7046962e-07
6.70469617e-07
6.7046962e-07
6.7046961e-07
6.70469598e-07
6.70469639e-07
)
;

boundaryField
{
    closed
    {
        type            calculated;
        value           uniform 0;
    }
    open
    {
        type            calculated;
        value           uniform 0;
    }
    sides
    {
        type            empty;
    }
}


// ************************************************************************* //
