/*--------------------------------*- C++ -*----------------------------------*\
| =========                 |                                                 |
| \\      /  F ield         | OpenFOAM: The Open Source CFD Toolbox           |
|  \\    /   O peration     | Version:  2206                                  |
|   \\  /    A nd           | Website:  www.openfoam.com                      |
|    \\/     M anipulation  |                                                 |
\*---------------------------------------------------------------------------*/
FoamFile
{
    version     2.0;
    format      ascii;
    arch        "LSB;label=32;scalar=64";
    class       volScalarField;
    location    "1.32e-05";
    object      sourcePV;
}
// * * * * * * * * * * * * * * * * * * * * * * * * * * * * * * * * * * * * * //

dimensions      [1 -3 -1 0 0 0 0];

internalField   nonuniform List<scalar> 
3183
(
0
0
0
0
0
0
0
0
0
0
0
0
0
0
0
0
0
0
0
0
0
0
0
0
0
0
0
0
0
0
0
0
0
0
0
0
0
0
0
0
0
0
0
0
0
0
0
0
0
0
0
0
0
0
0
0
0
0
0
0
0
0
0
0
0
0
0
0
0
0
0
0
0
0
0
0
0
0
0
0
0
0
0
0
0
0
0
0
0
0
0
0
0
0
0
0
0
0
0
0
0
0
0
0
0
0
0
0
0
0
0
0
0
0
0
0
0
0
0
0
0
0
0
0
0
0
0
0
0
0
0
0
0
0
0
0
0
0
0
0
0
0
0
0
0
0
0
0
0
0
0
0
0
0
0
0
0
0
0
0
0
0
0
0
0
0
0
0
0
0
0
0
0
0
0
0
0
0
0
0
0
0
0
0
0
0
0
0
0
0
0
0
0
0
0
0
0
0
0
0
0
0
0
0
0
0
0
0
0
0
0
0
0
0
0
0
0
0
0
0
0
0
0
0
0
0
0
0
0
0
0
0
0
0
0
0
0
0
0
0
0
0
0
0
0
0
0
0
0
0
0
0
0
0
0
0
0
0
0
0
0
0
0
0
0
0
0
0
0
0
0
0
0
0
0
0
0
0
0
0
0
0
0
0
0
0
0
0
0
0
0
0
0
0
0
0
0
0
0
0
0
0
0
0
0
0
0
0
0
0
0
0
0
0
0
0
0
0
0
0
0
0
0
0
0
0
0
0
0
0
0
0
0
0
0
0
0
0
0
0
0
0
0
0
0
0
0
0
0
0
0
0
0
0
0
0
0
0
0
0
0
0
0
0
0
0
0
0
0
0
0
0
0
0
0
0
0
0
0
0
0
0
0
0
0
0
0
0
0
0
0
0
0
0
0
0
0
0
0
0
0
0
0
0
0
0
0
0
0
0
0
0
0
0
0
0
0
0
0
0
0
0
0
0
0
0
0
0
0
0
0
0
0
0
0
0
0
0
0
0
0
0
0
0
0
0
0
0
0
0
0
0
0
0
0
0
0
0
0
0
0
0
0
0
0
0
0
0
0
0
0
0
0
0
0
0
0
0
0
0
0
0
0
0
0
0
0
0
0
0
0
0
0
0
0
0
0
0
0
0
0
0
0
0
0
0
0
0
0
0
0
0
0
0
0
0
0
0
0
0
0
0
0
0
0
0
0
0
0
0
0
0
0
0
0
0
0
0
0
0
0
0
0
0
0
0
0
0
0
0
0
0
0
0
0
0
0
0
0
0
0
0
0
0
0
0
0
0
0
0
0
0
0
0
0
0
0
0
0
0
0
0
0
0
0
0
0
0
0
0
0
0
0
0
0
0
0
0
0
0
0
0
0
0
0
0
0
0
0
0
0
0
0
0
0
0
0
0
0
0
0
0
0
0
0
0
0
0
0
0
0
0
0
0
0
0
0
0
0
0
0
0
0
0
0
0
0
0
0
0
0
0
0
0
0
0
0
0
0
0
0
0
0
0
0
0
0
0
0
0
0
0
0
0
0
0
0
0
0
0
0
0
0
0
0
0
0
0
0
0
0
0
0
0
0
0
0
0
0
0
0
0
0
0
0
0
0
0
0
0
0
0
0
0
0
0
0
0
0
0
0
0
0
0
0
0
0
0
0
0
0
0
0
0
0
0
0
0
0
0
0
0
0
0
0
0
0
0
0
0
0
0
0
0
0
0
0
0
0
0
0
0
0
0
0
0
0
0
0
0
0
0
0
0
0
0
0
0
0
0
0
0
0
0
0
0
0
0
0
0
0
0
0
0
0
0
0
0
0
0
0
0
0
0
0
0
0
0
0
0
0
0
0
0
0
0
0
0
0
0
0
0
0
0
0
0
0
0
0
0
0
0
0
0
0
0
0
0
0
0
0
0
0
0
0
0
0
0
0
0
0
0
0
0
0
0
0
0
0
0
0
0
0
0
0
0
0
0
0
0
0
0
0
0
0
0
0
0
0
0
0
0
0
0
0
0
0
0
0
0
0
0
0
0
0
0
0
0
0
0
0
0
0
0
0
0
0
0
0
0
0
0
0
0
0
0
0
0
0
0
0
0
0
0
0
0
0
0
0
0
0
0
0
0
0
0
0
0
0
0
0
0
0
0
0
0
0
0
0
0
0
0
0
0
0
0
0
0
0
0
0
0
0
0
0
0
0
0
0
0
0
0
0
0
0
0
0
0
0
0
0
0
0
0
0
0
0
0
0
0
0
0
0
0
0
0
0
0
0
0
0
0
0
0
0
0
0
0
0
0
0
0
0
0
0
0
0
0
0
0
0
0
0
0
0
0
0
0
0
0
0
0
0
0
0
0
0
0
0
0
0
0
0
0
0
0
0
0
0
0
0
0
0
0
0
0
0
0
0
0
0
0
0
0
0
0
0
0
0
0
0
0
0
0
0
0
0
0
0
0
0
0
0
0
0
0
0
0
0
0
0
0
0
0
0
0
0
0
0
0
0
0
0
0
0
0
0
0
0
0
0
0
0
0
0
0
0
0
0
0
0
0
0
0
0
0
0
0
0
0
0
0
0
0
0
0
0
0
0
0
0
0
0
0
0
0
0
0
0
0
0
0
0
0
0
0
0
0
0
0
0
0
0
0
0
0
0
0
0
0
0
0
0
0
0
0
0
0
0
0
0
0
0
0
0
0
0
0
0
0
0
0
0
0
0
0
0
0
0
0
0
0
0
0
0
0
0
0
0
0
0
0
0
0
0
0
0
0
0
0
0
0
0
0
0
0
0
0
0
0
0
0
0
0
0
0
0
0
0
0
0
0
0
0
0
0
0
0
0
0
0
0
0
0
0
0
0
0
0
0
0
0
0
0
0
0
0
0
0
0
0
0
0
0
0
0
0
0
0
0
0
0
0
0
0
0
0
0
0
0
0
0
0
0
0
0
0
0
0
0
0
0
0
0
0
0
0
0
0
0
0
0
0
0
0
0
0
0
0
0
0
0
0
0
0
0
0
0
0
0
0
0
0
0
0
0
0
0
0
0
0
0
0
0
0
0
0
0
0
0
0
0
0
0
0
0
0
0
0
0
0
0
0
0
0
0
0
0
0
0
0
0
0
0
0
0
0
0
0
0
0
0
0
0
0
0
0
0
0
0
0
0
0
0
0
0
0
0
0
0
0
0
0
0
0
0
0
0
0
0
0
0
0
0
0
0
0
0
0
0
0
0
0
0
0
0
0
0
0
0
0
0
0
0
0
0
0
0
0
0
0
0
0
0
0
0
0
0
0
0
0
0
0
0
0
0
0
0
0
0
0
0
0
0
0
0
0
0
0
0
0
0
0
0
0
0
0
0
0
0
0
0
0
0
0
0
0
0
0
0
0
0
0
0
0
0
0
0
0
0
0
0
0
0
0
0
0
0
0
0
0
0
0
0
0
0
0
0
0
0
0
0
0
0
0
0
0
0
0
0
0
0
0
0
0
0
0
0
0
0
0
0
0
0
0
0
0
0
0
0
0
0
0
0
0
0
0
0
0
0
0
0
0
0
0
0
0
0
0
0
0
0
0
0
0
0
0
0
0
0
0
0
0
0
0
0
0
0
0
0
0
0
0
0
0
0
0
0
0
0
0
0
0
0
0
0
0
0
0
0
0
0
0
0
0
0
0
0
0
0
0
0
0
0
0
0
0
0
0
0
0
0
0
0
0
0
0
0
0
0
0
0
0
0
0
0
0
0
0
0
0
0
0
0
0
0
0
0
0
0
0
0
0
0
0
0
0
0
0
0
0
0
0
0
0
0
0
0
0
0
0
0
0
0
0
0
0
0
0
0
0
0
0
0
0
0
0
0
0
0
0
0
0
0
0
0
0
0
0
0
0
0
0
0
0
0
0
0
0
0
0
0
0
0
0
0
0
0
0
0
0
0
0
0
0
0
0
0
0
0
0
0
0
0
0
0
0
0
0
0
0
0
0
0
0
0
0
0
0
0
0
0
0
0
0
0
0
0
0
0
0
0
0
0
0
0
0
0
0
0
0
0
0
0
0
0
0
0
0
0
0
0
0
0
0
0
0
0
0
0
0
0
0
0
0
0
0
0
0
0
0
0
0
0
0
0
0
0
0
0
0
0
0
0
0
0
0
0
0
0
0
0
0
0
0
0
0
0
0
0
0
0
0
0
0
0
0
0
0
0
0
0
0
0
0
0
0
0
0
0
0
0
0
0
0
0
0
0
0
0
0
0
0
0
0
0
0
0
0
0
0
0
0
0
0
0
0
0
0
0
0
0
0
0
0
0
0
0
0
0
0
0
0
0
0
0
0
0
0
0
0
0
0
0
0
0
0
0
0
0
0
0
0
0
0
0
0
0
0
0
0
0
0
0
0
0
0
0
0
0
0
0
0
0
0
0
0
0
0
0
0
0
0
0
0
0
0
0
0
0
0
0
0
0
0
0
0
0
0
0
0
0
0
0
0
0
0
0
0
0
0
0
0
0
0
0
0
0
0
0
0
0
0
0
0
0
0
0
0
0
0
0
0
0
0
0
0
0
0
0
0
0
0
0
0
0
0
0
0
0
0
0
0
0
0
0
0
0
0
0
0
0
0
0
0
0
0
0
0
0
0
0
0
0
0
0
0
0
0
0
0
0
0
0
0
0
0
0
0
0
0
0
0
0
0
0
0
0
0
0
0
0
0
0
0
0
0
0
0
0
0
0
0
0
0
0
0
0
0
0
0
0
0
0
0
0
0
0
0
0
0
0
0
0
0
0
0
0
0
0
0
0
0
0
0
0
0
0
0
0
0
0
0
0
0
0
0
0
0
0
0
0
0
0
0
0
0
0
0
0
0
0
0
0
0
0
0
0
0
0
0
0
0
0
0
0
0
0
0
0
0
0
0
0
0
0
0
0
0
0
0
0
0
0
0
0
0
0
0
0
0
0
0
0
0
0
0
0
0
0
0
0
0
0
0
0
0
0
0
0
0
0
0
0
0
0
0
0
0
0
0
0
0
0
0
0
0
0
0
0
0
0
0
0
0
0
0
0
0
0
0
0
0
0
0
0
0
0
0
0
0
0
0
0
0
0
0
0
0
0
0
0
0
0
0
0
0
0
0
0
0
0
0
0
0
0
0
0
0
0
0
0
0
0
0
0
0
0
0
0
0
0
0
0
0
0
0
0
0
0
0
0
0
0
0
0
0
0
0
0
0
0
0
0
0
0
0
0
0
0
0
0
0
0
0
0
0
0
0
0
0
0
0
0
0
0
0
0
0
0
0
0
0
0
0
0
0
0
0
0
0
0
0
0
0
0
0
0
0
0
0
0
0
0
0
0
0
0
0
0
0
0
0
0
0
0
0
4.25179204e-299
1.16006971e-299
3.00076584e-296
8.44307143e-297
2.09145193e-293
6.05944332e-294
1.43961084e-290
4.28953386e-291
9.78696302e-288
2.99576293e-288
6.5717196e-285
2.06384865e-285
4.35872477e-282
1.40335615e-282
2.85567532e-279
9.41811227e-280
1.84818451e-276
6.23441907e-277
1.18164127e-273
4.07786372e-274
7.46354422e-271
2.63265432e-271
4.65733638e-268
1.67924765e-268
2.8712808e-265
1.05642521e-265
1.74892209e-262
6.5625394e-263
1.05252353e-259
4.02569811e-260
6.25847058e-257
2.43876956e-257
3.67694244e-254
1.45909025e-254
2.13448703e-251
8.62173045e-252
1.22431405e-248
5.03181104e-249
6.93885844e-246
2.90058939e-246
3.8858055e-243
1.65155301e-243
2.150169e-240
9.28866549e-241
1.17560662e-237
5.16032273e-238
6.35107768e-235
2.83184438e-235
3.39020221e-232
1.5350949e-232
1.78810106e-229
8.22009596e-230
9.31839259e-227
4.34805508e-227
4.79805615e-224
2.27189662e-224
2.44093722e-221
1.17261273e-221
1.22688854e-218
5.97844924e-219
6.09255895e-216
3.01081494e-216
2.98901481e-213
1.49772857e-213
1.44869275e-210
7.3591212e-211
6.93632127e-208
3.57150405e-208
3.28072789e-205
1.71196761e-205
1.53278516e-202
8.10483718e-203
7.0736397e-200
3.78949064e-200
3.22429067e-197
1.74979386e-197
1.45155185e-194
7.97888882e-195
6.45377769e-192
3.59273865e-192
2.83369376e-189
1.59739733e-189
1.22863265e-186
7.01259919e-187
5.26008203e-184
3.03946115e-184
2.2234824e-181
1.30057858e-181
9.27925746e-179
5.49373893e-179
3.82293513e-176
2.29064556e-176
1.55470777e-173
9.42695146e-174
6.24066381e-171
3.8288745e-171
2.47231061e-168
1.53468185e-168
9.66548167e-166
6.06976189e-166
3.72861945e-163
2.36857694e-163
1.41915676e-160
9.11842963e-161
5.32870651e-158
3.46274964e-158
1.97365547e-155
1.29699986e-155
7.20983796e-153
4.79096845e-153
2.59733652e-150
1.74507992e-150
9.22615484e-148
6.26696522e-148
3.23103373e-145
2.2186441e-145
1.11538803e-142
7.741798e-143
3.79495506e-140
2.66227046e-140
1.27236782e-137
9.02085467e-138
4.20310204e-135
3.01129966e-135
1.36773106e-132
9.9013188e-133
4.3835259e-130
3.20614475e-130
1.38341724e-127
1.02220613e-127
4.2983329e-125
3.20825738e-125
1.31452948e-122
9.91016694e-123
3.9560847e-120
3.01213773e-120
1.17133867e-117
9.00631016e-118
3.41124212e-115
2.6484277e-115
9.76881364e-113
7.65744551e-113
2.75011306e-110
2.17627541e-110
7.60874052e-108
6.07786849e-108
2.06821637e-105
1.66748903e-105
5.52154473e-103
4.4927122e-103
1.44730348e-100
1.18833881e-100
3.723385e-98
3.08462314e-98
9.39792475e-96
7.85469885e-96
2.32631645e-93
1.96132122e-93
5.64502216e-91
4.80038291e-91
1.3422366e-88
1.15110902e-88
3.12574893e-86
2.70311378e-86
7.12562957e-84
6.21299242e-84
1.58929887e-81
1.39699129e-81
3.46621476e-79
3.07111407e-79
7.38773518e-77
6.59697003e-77
1.53777962e-74
1.38375372e-74
3.12396177e-72
2.8322988e-72
6.18909457e-70
5.65281178e-70
1.19485795e-67
1.09923681e-67
2.24597921e-65
2.08089351e-65
4.10676553e-63
3.83126881e-63
7.29746459e-61
6.85394347e-61
1.25881055e-58
1.19008918e-58
2.10554468e-56
2.00334799e-56
3.41067177e-54
3.2653063e-54
5.34309705e-52
5.14618028e-52
8.08303003e-50
7.83043113e-50
1.17888075e-47
1.14843525e-47
1.65460234e-45
1.62050735e-45
2.23035923e-43
2.19547532e-43
2.88101292e-41
2.84921795e-41
3.55731818e-39
3.53226652e-39
4.18688952e-37
4.1692265e-37
4.68249775e-35
4.66511362e-35
4.95813575e-33
4.92264236e-33
4.9501968e-31
4.87246775e-31
4.63780241e-29
4.51612271e-29
4.05446274e-27
3.98640242e-27
3.28461128e-25
3.278089e-25
2.44657342e-23
2.43319212e-23
1.65979346e-21
1.64530415e-21
1.01296602e-19
1.00158761e-19
5.47577969e-18
5.40031848e-18
2.56892377e-16
2.56600589e-16
1.01674655e-14
1.00892345e-14
3.26296846e-13
3.25415901e-13
7.95982194e-12
7.96217799e-12
8.08139549e-09
8.17715039e-09
0.17002162
0.663918708
8.93092875
9.86623436
7.07357295
6.0623786
1.55562694
1.25519208
0.237004326
0.210376449
0.0462646882
0.0428135826
0.0079691442
0.00769974812
0.00124635943
0.00124290761
0.000188033236
0.000188054011
3.19294172e-05
3.19888031e-05
1.08452901e-05
1.08552663e-05
8.21514033e-06
8.2150157e-06
7.90789838e-06
7.90796287e-06
7.87456172e-06
7.8745728e-06
7.87114188e-06
7.87116309e-06
7.87081231e-06
7.87082636e-06
7.87078327e-06
7.87080962e-06
7.87076449e-06
7.87079877e-06
7.87077329e-06
7.87078304e-06
7.87078063e-06
7.87077066e-06
7.8707937e-06
7.87077427e-06
7.87080279e-06
7.87076943e-06
7.87079031e-06
7.87078414e-06
7.8707974e-06
7.87077755e-06
7.87078836e-06
7.87078625e-06
7.87079461e-06
7.87077744e-06
7.87079069e-06
7.87078644e-06
7.87078891e-06
7.8707879e-06
7.87078496e-06
7.87079913e-06
7.87077731e-06
7.87078744e-06
7.87078619e-06
7.87079276e-06
7.87078959e-06
7.87078039e-06
7.87078717e-06
7.87078144e-06
7.87078989e-06
7.87078131e-06
7.87078762e-06
7.87077469e-06
7.87078605e-06
7.87078478e-06
7.87077702e-06
7.87078846e-06
7.87077263e-06
7.87078811e-06
7.8707835e-06
7.87079781e-06
7.87078082e-06
7.87079943e-06
7.87077164e-06
7.87079769e-06
7.87077968e-06
7.87078555e-06
7.87079106e-06
7.87076894e-06
7.87079762e-06
7.87077155e-06
7.87079559e-06
7.87077273e-06
7.8707954e-06
7.87078173e-06
7.8707987e-06
7.87078076e-06
7.87079416e-06
7.87078503e-06
7.87078872e-06
7.87078591e-06
7.87079955e-06
7.87079253e-06
7.87078823e-06
7.87078867e-06
7.87078517e-06
7.87078682e-06
7.87079438e-06
7.87078662e-06
7.87078631e-06
7.87079027e-06
7.87078391e-06
7.87079478e-06
7.87077494e-06
7.8707922e-06
7.87078327e-06
7.8707848e-06
7.87078524e-06
7.87077805e-06
7.87078204e-06
7.87079665e-06
7.87077301e-06
7.8707956e-06
7.87078154e-06
7.87079835e-06
7.87077203e-06
7.87078512e-06
7.87078562e-06
7.87078675e-06
7.87078501e-06
7.8707972e-06
7.87078271e-06
7.87079835e-06
7.8707901e-06
7.87078535e-06
7.87079885e-06
7.87079763e-06
7.87079371e-06
7.87079228e-06
7.87079555e-06
7.87078837e-06
7.87078822e-06
7.87078863e-06
7.87077574e-06
7.87079035e-06
7.87077874e-06
7.87078624e-06
7.87078074e-06
7.87078605e-06
7.87077764e-06
7.87078655e-06
7.87079202e-06
7.87077611e-06
7.87079445e-06
7.87077631e-06
7.87079913e-06
7.87078286e-06
7.87079675e-06
7.87078386e-06
7.87079419e-06
7.870795e-06
7.87078741e-06
7.87078733e-06
7.87081468e-06
7.87078085e-06
7.87080267e-06
7.87079021e-06
7.87080823e-06
7.87077837e-06
7.87080124e-06
7.87078415e-06
7.87078483e-06
7.87078523e-06
7.87078157e-06
7.87078659e-06
7.87077292e-06
7.87079256e-06
7.87077942e-06
7.87079541e-06
7.87078904e-06
7.87080113e-06
7.87078823e-06
7.8708038e-06
7.87079865e-06
7.87080225e-06
7.87080258e-06
7.87080059e-06
7.87079031e-06
7.87078596e-06
7.87079883e-06
7.87077749e-06
7.87080069e-06
7.87079287e-06
7.87079675e-06
7.87078293e-06
7.87080113e-06
7.87078518e-06
7.87080937e-06
7.8707864e-06
7.87078609e-06
7.8707835e-06
7.87079666e-06
7.87078e-06
7.8708054e-06
7.87077835e-06
7.87080733e-06
7.87078265e-06
7.87079481e-06
7.87079604e-06
7.87078813e-06
7.87079304e-06
7.87080626e-06
7.87079769e-06
7.87080187e-06
7.87079408e-06
7.8707982e-06
7.87079238e-06
7.87080297e-06
7.87079246e-06
7.87079206e-06
7.87079189e-06
7.87078993e-06
7.87079594e-06
7.87079297e-06
7.8707917e-06
7.87079171e-06
7.87079674e-06
7.87079747e-06
7.8707911e-06
7.87080436e-06
7.87078909e-06
7.8707972e-06
7.87080381e-06
7.87079492e-06
7.87079503e-06
7.87079349e-06
7.87079877e-06
7.87079834e-06
7.87079981e-06
7.8707949e-06
7.87080549e-06
7.87079098e-06
7.87080565e-06
7.87079371e-06
7.87081123e-06
7.87078912e-06
7.87081421e-06
7.87077973e-06
7.87081043e-06
7.8707916e-06
7.87078404e-06
7.87079824e-06
7.87078452e-06
7.87079885e-06
7.87079977e-06
7.87079717e-06
7.87078966e-06
7.87079723e-06
7.87079621e-06
7.87079474e-06
7.87079505e-06
7.87079328e-06
7.87080625e-06
7.87080174e-06
7.87078982e-06
7.87081165e-06
7.87078643e-06
7.87080736e-06
7.87078176e-06
7.87079943e-06
7.87079595e-06
7.87079536e-06
7.87077925e-06
7.87080459e-06
7.87078729e-06
7.87079215e-06
7.87079761e-06
7.87078558e-06
7.87081056e-06
7.87079177e-06
7.87080529e-06
7.87079786e-06
7.87078886e-06
7.87080379e-06
7.87079004e-06
7.87079613e-06
7.87079852e-06
7.8707926e-06
7.87079381e-06
7.870792e-06
7.8708019e-06
7.87079521e-06
7.87080122e-06
7.87079419e-06
7.87079622e-06
7.87080675e-06
7.8707829e-06
7.87079459e-06
7.8708008e-06
7.87079599e-06
7.8707987e-06
7.87080276e-06
7.87080066e-06
7.87079701e-06
7.87080227e-06
7.87080334e-06
7.87079679e-06
7.87080847e-06
7.87079185e-06
7.87079379e-06
7.87079854e-06
7.87079195e-06
7.87080195e-06
7.87079305e-06
7.87080626e-06
7.87078614e-06
7.87081603e-06
7.87078844e-06
7.8708001e-06
7.870797e-06
7.87079816e-06
7.870801e-06
7.87079108e-06
7.87080848e-06
7.87078426e-06
7.87081456e-06
7.87078927e-06
7.87080809e-06
7.87079255e-06
7.87079944e-06
7.87080613e-06
7.87079496e-06
7.87080835e-06
7.87079135e-06
7.87080445e-06
7.87079667e-06
7.87079787e-06
7.87079742e-06
7.87079746e-06
7.87079945e-06
7.87080722e-06
7.87078786e-06
7.87080393e-06
7.87079866e-06
7.87080742e-06
7.87080246e-06
7.87080032e-06
7.87080212e-06
7.87080757e-06
7.87079495e-06
7.87079833e-06
7.87081017e-06
7.87079164e-06
7.87080779e-06
7.87080651e-06
7.87079333e-06
7.87079799e-06
7.87080164e-06
7.87079495e-06
7.87080856e-06
7.87079442e-06
7.87080885e-06
7.87080517e-06
7.87080059e-06
7.87079363e-06
7.87080041e-06
7.87080019e-06
7.87081081e-06
7.87079772e-06
7.87080581e-06
7.87080708e-06
7.87081311e-06
7.87081045e-06
7.87081536e-06
7.87080695e-06
7.87080427e-06
7.87080612e-06
7.8708051e-06
7.87079746e-06
7.8708006e-06
7.87080599e-06
7.87080373e-06
7.87081181e-06
7.87080275e-06
7.8707984e-06
7.8708123e-06
7.87080433e-06
7.87080604e-06
7.87080182e-06
7.87079778e-06
7.87080625e-06
7.87079251e-06
7.8708094e-06
7.87079541e-06
7.87080638e-06
7.87079321e-06
7.87080326e-06
7.87080657e-06
7.87080279e-06
7.87081221e-06
7.87081016e-06
7.87080732e-06
7.87080106e-06
7.87080612e-06
7.87080041e-06
7.87079679e-06
7.87081849e-06
7.87078757e-06
7.87081305e-06
7.87079175e-06
7.8708105e-06
7.8708082e-06
7.87080353e-06
7.87080437e-06
7.87081473e-06
7.87081281e-06
7.87080668e-06
7.87081264e-06
7.87080247e-06
7.87081155e-06
7.87080244e-06
7.87080939e-06
7.87080057e-06
7.87081109e-06
7.87080952e-06
7.87080235e-06
7.87082243e-06
7.87080756e-06
7.87081099e-06
7.87080926e-06
7.87081763e-06
7.87079978e-06
7.87081995e-06
7.87080199e-06
7.87081592e-06
7.87080994e-06
7.87080929e-06
7.87081848e-06
7.8708069e-06
7.87080912e-06
7.87081542e-06
7.87080624e-06
7.87081891e-06
7.8707999e-06
7.87081413e-06
7.8708046e-06
7.87080849e-06
7.87080196e-06
7.87082084e-06
7.87080521e-06
7.87081929e-06
7.87080455e-06
7.87080455e-06
7.87081709e-06
7.87080331e-06
7.87081277e-06
7.87080607e-06
7.87080295e-06
7.8708174e-06
7.87080024e-06
7.87080786e-06
7.87081414e-06
7.87080006e-06
7.87081581e-06
7.87081096e-06
7.87080339e-06
7.87081993e-06
7.87079939e-06
7.87082576e-06
7.87080431e-06
7.87081798e-06
7.87080483e-06
7.87081328e-06
7.87080708e-06
7.87080892e-06
7.87080767e-06
7.87080771e-06
7.87080494e-06
7.87081943e-06
7.87080239e-06
7.87081957e-06
7.87079891e-06
7.87081381e-06
7.87079837e-06
7.87081305e-06
7.8707977e-06
7.87081144e-06
7.87080176e-06
7.87080417e-06
7.87080948e-06
7.87079943e-06
7.87082593e-06
7.87079502e-06
7.87081772e-06
7.87080105e-06
7.87082505e-06
7.87080048e-06
7.87082561e-06
7.87078698e-06
7.87083671e-06
7.87078687e-06
7.87082496e-06
7.87079483e-06
7.87082181e-06
7.87080307e-06
7.87081071e-06
7.87081805e-06
7.87081885e-06
7.87080776e-06
7.87081769e-06
7.87080629e-06
7.87081124e-06
7.87081024e-06
7.87081321e-06
7.87080901e-06
7.87081265e-06
7.87081252e-06
7.87081618e-06
7.87081307e-06
7.87081215e-06
7.87081625e-06
7.87081255e-06
7.87081074e-06
7.87081532e-06
7.87081532e-06
7.87081472e-06
7.87081482e-06
7.87081503e-06
7.87081438e-06
7.87081618e-06
7.87081651e-06
7.87081668e-06
7.87081763e-06
7.87081785e-06
7.87081944e-06
7.87082034e-06
7.8708202e-06
7.87082187e-06
7.87082305e-06
7.87082362e-06
7.87082504e-06
7.8708268e-06
7.8708288e-06
7.87083018e-06
7.87083213e-06
7.87083466e-06
7.87083645e-06
7.8708389e-06
7.87084141e-06
7.87084359e-06
7.87084503e-06
7.87084722e-06
7.87084843e-06
7.87084937e-06
7.87085023e-06
7.87085058e-06
7.8708508e-06
7.87085107e-06
7.87085107e-06
7.87085107e-06
7.87085076e-06
7.87085066e-06
7.87085113e-06
7.87085094e-06
7.87085099e-06
7.870851e-06
7.87085101e-06
7.8708511e-06
7.87085111e-06
7.87085103e-06
7.87085125e-06
7.87085095e-06
7.87085103e-06
7.87085095e-06
7.87085103e-06
7.87085105e-06
7.87085102e-06
7.87085105e-06
7.87085094e-06
7.8708508e-06
7.87085128e-06
)
;

boundaryField
{
    closed
    {
        type            calculated;
        value           uniform 0;
    }
    open
    {
        type            calculated;
        value           uniform 0;
    }
    sides
    {
        type            empty;
    }
}


// ************************************************************************* //
