/*--------------------------------*- C++ -*----------------------------------*\
| =========                 |                                                 |
| \\      /  F ield         | OpenFOAM: The Open Source CFD Toolbox           |
|  \\    /   O peration     | Version:  2206                                  |
|   \\  /    A nd           | Website:  www.openfoam.com                      |
|    \\/     M anipulation  |                                                 |
\*---------------------------------------------------------------------------*/
FoamFile
{
    version     2.0;
    format      ascii;
    arch        "LSB;label=32;scalar=64";
    class       volVectorField;
    location    "1.32e-05";
    object      U;
}
// * * * * * * * * * * * * * * * * * * * * * * * * * * * * * * * * * * * * * //

dimensions      [0 1 -1 0 0 0 0];

internalField   nonuniform List<vector> 
3183
(
(3.80124152e-13 0 0)
(9.37037302e-14 0 0)
(-2.61654443e-13 0 0)
(-2.69354852e-13 0 0)
(-1.40661477e-13 0 0)
(-7.69603105e-18 0 0)
(-5.97237757e-19 0 0)
(-4.74312793e-23 0 0)
(5.54301796e-23 0 0)
(7.37428969e-19 0 0)
(1.33319593e-17 0 0)
(2.00974838e-13 0 0)
(5.71118754e-13 0 0)
(1.82650204e-13 0 0)
(1.188528e-13 0 0)
(6.61926343e-14 0 0)
(-2.74801431e-13 0 0)
(-6.31105223e-13 0 0)
(-7.7936854e-13 0 0)
(-1.03784539e-13 0 0)
(3.60221833e-13 0 0)
(1.49815497e-16 0 0)
(6.30956813e-14 0 0)
(2.92940602e-13 0 0)
(3.72246925e-13 0 0)
(5.20220677e-13 0 0)
(5.92196916e-13 0 0)
(6.77411651e-13 0 0)
(2.78590803e-13 0 0)
(3.89701372e-13 0 0)
(-1.53781827e-14 0 0)
(-3.6584155e-13 0 0)
(-7.3431718e-13 0 0)
(-8.8251226e-13 0 0)
(-9.67961049e-13 0 0)
(-7.64674118e-13 0 0)
(-7.07163166e-13 0 0)
(-5.74594323e-13 0 0)
(-3.33169295e-13 0 0)
(-4.50194313e-13 0 0)
(-6.43028936e-13 0 0)
(-4.13387486e-13 0 0)
(-8.95146399e-14 0 0)
(-4.26718014e-13 0 0)
(1.60523436e-13 0 0)
(3.55264856e-13 0 0)
(2.6720871e-13 0 0)
(6.19040781e-13 0 0)
(6.33929684e-13 0 0)
(9.56165517e-13 0 0)
(1.05085574e-12 0 0)
(1.69996321e-12 0 0)
(1.48193031e-12 0 0)
(1.93744092e-12 0 0)
(2.0575263e-12 0 0)
(1.98182332e-12 0 0)
(1.89759883e-12 0 0)
(1.74847651e-12 0 0)
(1.34898085e-12 0 0)
(1.31097582e-12 0 0)
(9.10397648e-13 0 0)
(1.95312526e-13 0 0)
(7.25498081e-14 0 0)
(-4.09362278e-13 0 0)
(-4.49205516e-13 0 0)
(-4.36038493e-13 0 0)
(-1.02265567e-12 0 0)
(-9.36347195e-13 0 0)
(-1.2421948e-12 0 0)
(-1.90458818e-12 0 0)
(-1.71954867e-12 0 0)
(-2.05440786e-12 0 0)
(-2.19545037e-12 0 0)
(-2.49519679e-12 0 0)
(-3.06081151e-12 0 0)
(-3.07131445e-12 0 0)
(-2.94813546e-12 0 0)
(-3.5066629e-12 0 0)
(-3.81919395e-12 0 0)
(-4.03503451e-12 0 0)
(-4.51209034e-12 0 0)
(-4.64941873e-12 0 0)
(-4.00663745e-12 0 0)
(-5.43675475e-12 0 0)
(-4.52886696e-12 0 0)
(-4.33894462e-12 0 0)
(-5.28839735e-12 0 0)
(-4.80634024e-12 0 0)
(-4.52397352e-12 0 0)
(-4.79357721e-12 0 0)
(-5.80827763e-12 0 0)
(-5.77985782e-12 0 0)
(-4.82647547e-12 0 0)
(-5.80301196e-12 0 0)
(-5.80039723e-12 0 0)
(-5.67931751e-12 0 0)
(-6.69760786e-12 0 0)
(-5.84733594e-12 0 0)
(-6.13077942e-12 0 0)
(-6.89458774e-12 0 0)
(-5.8426216e-12 0 0)
(-6.74242996e-12 0 0)
(-6.30918271e-12 0 0)
(-5.98473083e-12 0 0)
(-5.64622525e-12 0 0)
(-6.57733882e-12 0 0)
(-6.2368828e-12 0 0)
(-5.81824509e-12 0 0)
(-6.81160793e-12 0 0)
(-7.03769603e-12 0 0)
(-5.50318721e-12 0 0)
(-5.92492115e-12 0 0)
(-5.86225885e-12 0 0)
(-6.53759553e-12 0 0)
(-6.12818076e-12 0 0)
(-6.20280249e-12 0 0)
(-6.4595388e-12 0 0)
(-6.14777703e-12 0 0)
(-5.88850845e-12 0 0)
(-6.87262137e-12 0 0)
(-7.21457819e-12 0 0)
(-6.19095828e-12 0 0)
(-6.94307978e-12 0 0)
(-6.33710053e-12 0 0)
(-6.95208289e-12 0 0)
(-6.77578172e-12 0 0)
(-5.97613686e-12 0 0)
(-8.11117089e-12 0 0)
(-6.67725529e-12 0 0)
(-6.06951279e-12 0 0)
(-6.49808773e-12 0 0)
(-6.76872306e-12 0 0)
(-6.93620138e-12 0 0)
(-7.42924487e-12 0 0)
(-6.85555672e-12 0 0)
(-6.80287399e-12 0 0)
(-6.28377764e-12 0 0)
(-7.15717155e-12 0 0)
(-7.32728255e-12 0 0)
(-6.73716636e-12 0 0)
(-6.31518318e-12 0 0)
(-7.0579408e-12 0 0)
(-7.10058189e-12 0 0)
(-7.37130403e-12 0 0)
(-6.69771998e-12 0 0)
(-6.48779469e-12 0 0)
(-6.70409777e-12 0 0)
(-7.08009161e-12 0 0)
(-7.2048573e-12 0 0)
(-7.41871685e-12 0 0)
(-7.24718948e-12 0 0)
(-7.75261799e-12 0 0)
(-7.76463124e-12 0 0)
(-7.2372084e-12 0 0)
(-7.83164515e-12 0 0)
(-7.61691202e-12 0 0)
(-8.93821363e-12 0 0)
(-9.93607831e-12 0 0)
(-8.49169633e-12 0 0)
(-9.38972441e-12 0 0)
(-9.68748323e-12 0 0)
(-8.98673352e-12 0 0)
(-7.94322983e-12 0 0)
(-9.179215e-12 0 0)
(-9.72087281e-12 0 0)
(-9.91471236e-12 0 0)
(-8.93704245e-12 0 0)
(-9.22835646e-12 0 0)
(-9.08641693e-12 0 0)
(-9.2421497e-12 0 0)
(-9.38988191e-12 0 0)
(-8.7014768e-12 0 0)
(-9.23695893e-12 0 0)
(-9.23174393e-12 0 0)
(-1.04198084e-11 0 0)
(-9.30951506e-12 0 0)
(-1.00193805e-11 0 0)
(-9.75099311e-12 0 0)
(-1.11330571e-11 0 0)
(-1.03147895e-11 0 0)
(-1.01911599e-11 0 0)
(-1.18316999e-11 0 0)
(-1.01413845e-11 0 0)
(-1.04015987e-11 0 0)
(-1.15744945e-11 0 0)
(-1.1913035e-11 0 0)
(-1.08369044e-11 0 0)
(-1.11448671e-11 0 0)
(-1.12822305e-11 0 0)
(-1.12864022e-11 0 0)
(-1.21237256e-11 0 0)
(-1.21926779e-11 0 0)
(-1.20425372e-11 0 0)
(-1.25058577e-11 0 0)
(-1.37756813e-11 0 0)
(-1.14518577e-11 0 0)
(-1.1346611e-11 0 0)
(-1.20895956e-11 0 0)
(-1.25983807e-11 0 0)
(-1.45879922e-11 0 0)
(-1.24268959e-11 0 0)
(-1.28680761e-11 0 0)
(-1.26840657e-11 0 0)
(-1.34787746e-11 0 0)
(-1.40831863e-11 0 0)
(-1.26389555e-11 0 0)
(-1.3009305e-11 0 0)
(-1.29983628e-11 0 0)
(-1.33189037e-11 0 0)
(-1.22257894e-11 0 0)
(-1.32520476e-11 0 0)
(-1.45863482e-11 0 0)
(-1.24821634e-11 0 0)
(-1.39536519e-11 0 0)
(-1.30592921e-11 0 0)
(-1.23823938e-11 0 0)
(-1.28731156e-11 0 0)
(-1.27049179e-11 0 0)
(-1.23658846e-11 0 0)
(-1.33797501e-11 0 0)
(-1.34768068e-11 0 0)
(-1.26473462e-11 0 0)
(-1.35796971e-11 0 0)
(-1.23255726e-11 0 0)
(-1.22552134e-11 0 0)
(-1.27018847e-11 0 0)
(-1.19701009e-11 0 0)
(-1.31160143e-11 0 0)
(-1.33277103e-11 0 0)
(-1.30560468e-11 0 0)
(-1.35389155e-11 0 0)
(-1.27722286e-11 0 0)
(-1.33222764e-11 0 0)
(-1.39716454e-11 0 0)
(-1.38486445e-11 0 0)
(-1.25477239e-11 0 0)
(-1.36443994e-11 0 0)
(-1.31219242e-11 0 0)
(-1.44331902e-11 0 0)
(-1.43238376e-11 0 0)
(-1.40855605e-11 0 0)
(-1.48738046e-11 0 0)
(-1.36997757e-11 0 0)
(-1.31861415e-11 0 0)
(-1.36024279e-11 0 0)
(-1.49313723e-11 0 0)
(-1.36029576e-11 0 0)
(-1.32548957e-11 0 0)
(-1.36647436e-11 0 0)
(-1.34182456e-11 0 0)
(-1.2779792e-11 0 0)
(-1.34511017e-11 0 0)
(-1.3568803e-11 0 0)
(-1.36668396e-11 0 0)
(-1.37877265e-11 0 0)
(-1.377615e-11 0 0)
(-1.39267601e-11 0 0)
(-1.31099325e-11 0 0)
(-1.39875166e-11 0 0)
(-1.37665254e-11 0 0)
(-1.45501205e-11 0 0)
(-1.39985307e-11 0 0)
(-1.4407608e-11 0 0)
(-1.41358553e-11 0 0)
(-1.43726722e-11 0 0)
(-1.38783417e-11 0 0)
(-1.38005253e-11 0 0)
(-1.49303921e-11 0 0)
(-1.30819676e-11 0 0)
(-1.45855962e-11 0 0)
(-1.44896242e-11 0 0)
(-1.38577529e-11 0 0)
(-1.45193169e-11 0 0)
(-1.4124006e-11 0 0)
(-1.39203708e-11 0 0)
(-1.33681548e-11 0 0)
(-1.43271175e-11 0 0)
(-1.45474852e-11 0 0)
(-1.4056491e-11 0 0)
(-1.37205426e-11 0 0)
(-1.45535295e-11 0 0)
(-1.46512006e-11 0 0)
(-1.4942437e-11 0 0)
(-1.46071296e-11 0 0)
(-1.46708425e-11 0 0)
(-1.49641687e-11 0 0)
(-1.44407505e-11 0 0)
(-1.56533196e-11 0 0)
(-1.52116651e-11 0 0)
(-1.52762513e-11 0 0)
(-1.56789495e-11 0 0)
(-1.52227239e-11 0 0)
(-1.56386949e-11 0 0)
(-1.4876159e-11 0 0)
(-1.48114432e-11 0 0)
(-1.56227605e-11 0 0)
(-1.58825077e-11 0 0)
(-1.64573219e-11 0 0)
(-1.62001226e-11 0 0)
(-1.64269803e-11 0 0)
(-1.61925285e-11 0 0)
(-1.63206617e-11 0 0)
(-1.62825123e-11 0 0)
(-1.63643389e-11 0 0)
(-1.75873233e-11 0 0)
(-1.72298674e-11 0 0)
(-1.61200191e-11 0 0)
(-1.71299259e-11 0 0)
(-1.74930998e-11 0 0)
(-1.74290873e-11 0 0)
(-1.76314311e-11 0 0)
(-1.6749437e-11 0 0)
(-1.69669379e-11 0 0)
(-1.67288268e-11 0 0)
(-1.76313564e-11 0 0)
(-1.76005293e-11 0 0)
(-1.8517135e-11 0 0)
(-1.72104689e-11 0 0)
(-1.70700458e-11 0 0)
(-1.8991021e-11 0 0)
(-1.78907856e-11 0 0)
(-1.79289847e-11 0 0)
(-1.79198349e-11 0 0)
(-1.77208497e-11 0 0)
(-1.77881007e-11 0 0)
(-1.77583644e-11 0 0)
(-1.77131314e-11 0 0)
(-1.76116835e-11 0 0)
(-1.74255676e-11 0 0)
(-1.76033636e-11 0 0)
(-1.61482746e-11 0 0)
(-1.74781321e-11 0 0)
(-1.75965622e-11 0 0)
(-1.68854806e-11 0 0)
(-1.56842696e-11 0 0)
(-1.62112176e-11 0 0)
(-1.68049208e-11 0 0)
(-1.77007075e-11 0 0)
(-1.74766498e-11 0 0)
(-1.72919873e-11 0 0)
(-1.64333043e-11 0 0)
(-1.74833009e-11 0 0)
(-1.63237665e-11 0 0)
(-1.5595632e-11 0 0)
(-1.6929297e-11 0 0)
(-1.69522612e-11 0 0)
(-1.71065157e-11 0 0)
(-1.71552346e-11 0 0)
(-1.61490311e-11 0 0)
(-1.74322856e-11 0 0)
(-1.64852095e-11 0 0)
(-1.65545016e-11 0 0)
(-1.7388662e-11 0 0)
(-1.61785617e-11 0 0)
(-1.59937203e-11 0 0)
(-1.67456753e-11 0 0)
(-1.77401367e-11 0 0)
(-1.60449942e-11 0 0)
(-1.77899417e-11 0 0)
(-1.67782219e-11 0 0)
(-1.67702194e-11 0 0)
(-1.77681166e-11 0 0)
(-1.71525797e-11 0 0)
(-1.81991584e-11 0 0)
(-1.64392542e-11 0 0)
(-1.8277394e-11 0 0)
(-1.7410574e-11 0 0)
(-1.83741348e-11 0 0)
(-1.74693621e-11 0 0)
(-1.80973279e-11 0 0)
(-1.69012248e-11 0 0)
(-1.73086189e-11 0 0)
(-1.66305682e-11 0 0)
(-1.67035243e-11 0 0)
(-1.61339557e-11 0 0)
(-1.71967034e-11 0 0)
(-1.5795846e-11 0 0)
(-1.61992758e-11 0 0)
(-1.62933099e-11 0 0)
(-1.61976941e-11 0 0)
(-1.60599082e-11 0 0)
(-1.5501063e-11 0 0)
(-1.68149946e-11 0 0)
(-1.67848223e-11 0 0)
(-1.64518413e-11 0 0)
(-1.62980778e-11 0 0)
(-1.58558238e-11 0 0)
(-1.67834469e-11 0 0)
(-1.69587275e-11 0 0)
(-1.61235643e-11 0 0)
(-1.52961643e-11 0 0)
(-1.62552276e-11 0 0)
(-1.52381978e-11 0 0)
(-1.52192748e-11 0 0)
(-1.55867256e-11 0 0)
(-1.4201124e-11 0 0)
(-1.47495563e-11 0 0)
(-1.48342018e-11 0 0)
(-1.43398321e-11 0 0)
(-1.33366513e-11 0 0)
(-1.39661856e-11 0 0)
(-1.36640949e-11 0 0)
(-1.44213984e-11 0 0)
(-1.43067472e-11 0 0)
(-1.35789594e-11 0 0)
(-1.40632643e-11 0 0)
(-1.27464703e-11 0 0)
(-1.42574204e-11 0 0)
(-1.3916196e-11 0 0)
(-1.41335379e-11 0 0)
(-1.3149456e-11 0 0)
(-1.20886034e-11 0 0)
(-1.25205177e-11 0 0)
(-1.41656004e-11 0 0)
(-1.36693397e-11 0 0)
(-1.27588062e-11 0 0)
(-1.26661609e-11 0 0)
(-1.3297579e-11 0 0)
(-1.35566053e-11 0 0)
(-1.43993628e-11 0 0)
(-1.29924104e-11 0 0)
(-1.22441791e-11 0 0)
(-1.28365873e-11 0 0)
(-1.24068604e-11 0 0)
(-1.36350582e-11 0 0)
(-1.35675969e-11 0 0)
(-1.33598526e-11 0 0)
(-1.25375154e-11 0 0)
(-1.28788136e-11 0 0)
(-1.26052274e-11 0 0)
(-1.25760821e-11 0 0)
(-1.28746192e-11 0 0)
(-1.25805696e-11 0 0)
(-1.17723651e-11 0 0)
(-1.16000995e-11 0 0)
(-1.19751637e-11 0 0)
(-1.25573545e-11 0 0)
(-1.30014522e-11 0 0)
(-1.02942862e-11 0 0)
(-1.16346561e-11 0 0)
(-1.16597046e-11 0 0)
(-1.26154394e-11 0 0)
(-1.03767496e-11 0 0)
(-1.04119487e-11 0 0)
(-1.03265509e-11 0 0)
(-1.08149292e-11 0 0)
(-1.11191747e-11 0 0)
(-1.0425033e-11 0 0)
(-1.10164339e-11 0 0)
(-9.91652836e-12 0 0)
(-9.9904294e-12 0 0)
(-1.00251353e-11 0 0)
(-1.0457491e-11 0 0)
(-9.27715476e-12 0 0)
(-9.93801873e-12 0 0)
(-9.63542153e-12 0 0)
(-9.68615509e-12 0 0)
(-1.06391681e-11 0 0)
(-9.63111768e-12 0 0)
(-8.07702092e-12 0 0)
(-9.675486e-12 0 0)
(-9.97370544e-12 0 0)
(-9.59465113e-12 0 0)
(-8.49918117e-12 0 0)
(-1.00462228e-11 0 0)
(-8.94352747e-12 0 0)
(-8.03619412e-12 0 0)
(-8.4162472e-12 0 0)
(-7.89192022e-12 0 0)
(-8.33864835e-12 0 0)
(-8.06670722e-12 0 0)
(-8.21335226e-12 0 0)
(-8.1794741e-12 0 0)
(-8.10023166e-12 0 0)
(-8.10311378e-12 0 0)
(-7.98695616e-12 0 0)
(-7.07061471e-12 0 0)
(-7.54919824e-12 0 0)
(-7.06552246e-12 0 0)
(-7.69543638e-12 0 0)
(-7.42332693e-12 0 0)
(-7.83157668e-12 0 0)
(-7.82000436e-12 0 0)
(-7.60221052e-12 0 0)
(-7.513508e-12 0 0)
(-7.66122655e-12 0 0)
(-6.40875756e-12 0 0)
(-7.49650066e-12 0 0)
(-7.04270517e-12 0 0)
(-6.69433725e-12 0 0)
(-7.60357242e-12 0 0)
(-7.0535289e-12 0 0)
(-7.19083294e-12 0 0)
(-6.73179892e-12 0 0)
(-7.58883911e-12 0 0)
(-6.86252366e-12 0 0)
(-7.02623585e-12 0 0)
(-6.990495e-12 0 0)
(-6.24739e-12 0 0)
(-6.09660029e-12 0 0)
(-6.86076751e-12 0 0)
(-6.04576006e-12 0 0)
(-5.54826057e-12 0 0)
(-6.79552621e-12 0 0)
(-6.3704772e-12 0 0)
(-6.58945009e-12 0 0)
(-6.91649966e-12 0 0)
(-6.90644677e-12 0 0)
(-6.87079179e-12 0 0)
(-7.11704356e-12 0 0)
(-6.8316363e-12 0 0)
(-6.78224872e-12 0 0)
(-6.49032371e-12 0 0)
(-6.2940937e-12 0 0)
(-7.08248192e-12 0 0)
(-5.21425959e-12 0 0)
(-5.65348598e-12 0 0)
(-4.40997818e-12 0 0)
(-4.97577211e-12 0 0)
(-4.78727758e-12 0 0)
(-4.97882647e-12 0 0)
(-4.51103568e-12 0 0)
(-3.85220866e-12 0 0)
(-3.95977296e-12 0 0)
(-4.30503507e-12 0 0)
(-2.95386323e-12 0 0)
(-3.86616767e-12 0 0)
(-3.12548751e-12 0 0)
(-3.35641489e-12 0 0)
(-3.50291982e-12 0 0)
(-3.92570084e-12 0 0)
(-3.31310209e-12 0 0)
(-4.06193432e-12 0 0)
(-4.55908533e-12 0 0)
(-3.62867205e-12 0 0)
(-3.5582674e-12 0 0)
(-4.00196123e-12 0 0)
(-3.50510731e-12 0 0)
(-3.70407378e-12 0 0)
(-4.41205891e-12 0 0)
(-4.31793512e-12 0 0)
(-3.2953611e-12 0 0)
(-4.56720142e-12 0 0)
(-3.147644e-12 0 0)
(-3.34749082e-12 0 0)
(-3.66772419e-12 0 0)
(-3.22173226e-12 0 0)
(-2.55593493e-12 0 0)
(-2.7979462e-12 0 0)
(-3.23559326e-12 0 0)
(-2.25669774e-12 0 0)
(-2.02323848e-12 0 0)
(-2.08377687e-12 0 0)
(-3.21802788e-12 0 0)
(-2.76148284e-12 0 0)
(-2.15925302e-12 0 0)
(-2.28294762e-12 0 0)
(-2.71636635e-12 0 0)
(-3.06798332e-12 0 0)
(-2.39900369e-12 0 0)
(-2.11362344e-12 0 0)
(-2.92691719e-12 0 0)
(-1.77960038e-12 0 0)
(-1.94502623e-12 0 0)
(-2.64359958e-12 0 0)
(-1.42812029e-12 0 0)
(-1.52131991e-12 0 0)
(-1.59171743e-12 0 0)
(-8.61541761e-13 0 0)
(-1.5872204e-12 0 0)
(-1.16865059e-12 0 0)
(-1.00267634e-12 0 0)
(-6.05290691e-13 0 0)
(-4.69631805e-13 0 0)
(5.94666987e-14 0 0)
(-8.07490179e-13 0 0)
(-1.97725307e-12 0 0)
(-6.50951154e-13 0 0)
(-8.14413188e-13 0 0)
(-4.51077949e-13 0 0)
(-1.03360383e-12 0 0)
(5.04542324e-13 0 0)
(3.3889509e-13 0 0)
(8.42363674e-13 0 0)
(-3.51170001e-13 0 0)
(6.73820652e-13 0 0)
(1.20952382e-12 0 0)
(7.32231254e-13 0 0)
(1.77807241e-13 0 0)
(6.29506155e-13 0 0)
(1.25868377e-12 0 0)
(1.4946865e-12 0 0)
(-1.20196607e-13 0 0)
(1.28338075e-12 0 0)
(9.38570869e-13 0 0)
(4.51367902e-13 0 0)
(1.20861439e-12 0 0)
(8.97498741e-13 0 0)
(8.97255114e-13 0 0)
(1.5803602e-12 0 0)
(6.11581662e-13 0 0)
(1.075452e-13 0 0)
(1.32864084e-12 0 0)
(1.48916687e-12 0 0)
(1.6675799e-12 0 0)
(8.52643657e-13 0 0)
(1.64477619e-12 0 0)
(1.34567157e-12 0 0)
(1.60758625e-12 0 0)
(8.74409448e-13 0 0)
(1.51769333e-12 0 0)
(1.74205668e-12 0 0)
(3.79622134e-13 0 0)
(9.06785648e-13 0 0)
(1.33772404e-12 0 0)
(1.63332812e-12 0 0)
(1.59742488e-12 0 0)
(2.12800314e-12 0 0)
(6.01239947e-13 0 0)
(1.43213651e-12 0 0)
(1.32405198e-12 0 0)
(4.45611395e-13 0 0)
(1.88956672e-12 0 0)
(1.51209744e-12 0 0)
(1.2517882e-12 0 0)
(1.72596676e-12 0 0)
(1.17201552e-12 0 0)
(1.2691501e-12 0 0)
(2.43572011e-12 0 0)
(2.12254727e-12 0 0)
(1.54294847e-12 0 0)
(1.84282159e-12 0 0)
(1.74116925e-12 0 0)
(2.31048793e-12 0 0)
(1.98671474e-12 0 0)
(2.34647756e-12 0 0)
(2.31271685e-12 0 0)
(2.59787414e-12 0 0)
(2.51139659e-12 0 0)
(2.30173686e-12 0 0)
(1.90177506e-12 0 0)
(1.72519792e-12 0 0)
(2.54375496e-12 0 0)
(1.97523211e-12 0 0)
(1.90932661e-12 0 0)
(2.38382074e-12 0 0)
(1.41935915e-12 0 0)
(2.02350718e-12 0 0)
(2.2790474e-12 0 0)
(2.63364089e-12 0 0)
(2.7339366e-12 0 0)
(3.2429973e-12 0 0)
(2.11603958e-12 0 0)
(3.42695512e-12 0 0)
(2.93158516e-12 0 0)
(3.31976601e-12 0 0)
(2.05094904e-12 0 0)
(2.8896356e-12 0 0)
(2.50556427e-12 0 0)
(1.32502933e-12 0 0)
(3.33222163e-12 0 0)
(3.08418606e-12 0 0)
(2.4463968e-12 0 0)
(2.57593975e-12 0 0)
(3.77426365e-12 0 0)
(3.08516719e-12 0 0)
(4.01731977e-12 0 0)
(3.87845247e-12 0 0)
(3.90497824e-12 0 0)
(3.47484637e-12 0 0)
(4.07214167e-12 0 0)
(3.45157898e-12 0 0)
(3.98846708e-12 0 0)
(3.20428351e-12 0 0)
(4.36484348e-12 0 0)
(3.86958881e-12 0 0)
(5.5532564e-12 0 0)
(3.9294091e-12 0 0)
(3.11870441e-12 0 0)
(5.30740569e-12 0 0)
(4.74642205e-12 0 0)
(5.44121317e-12 0 0)
(5.51561068e-12 0 0)
(5.99556217e-12 0 0)
(5.8697498e-12 0 0)
(5.50988111e-12 0 0)
(5.35284855e-12 0 0)
(6.11793611e-12 0 0)
(6.76537212e-12 0 0)
(6.17252452e-12 0 0)
(6.14189577e-12 0 0)
(6.00966376e-12 0 0)
(6.23070554e-12 0 0)
(5.47551923e-12 0 0)
(6.76610881e-12 0 0)
(5.70533946e-12 0 0)
(6.39838447e-12 0 0)
(5.97515874e-12 0 0)
(7.28493905e-12 0 0)
(6.94509584e-12 0 0)
(7.3841211e-12 0 0)
(6.1432644e-12 0 0)
(7.0989865e-12 0 0)
(7.50155633e-12 0 0)
(8.0112957e-12 0 0)
(7.65504222e-12 0 0)
(8.14280953e-12 0 0)
(7.57502935e-12 0 0)
(7.69437368e-12 0 0)
(6.98168886e-12 0 0)
(7.79671747e-12 0 0)
(7.19971442e-12 0 0)
(7.40769963e-12 0 0)
(7.65397185e-12 0 0)
(7.78009764e-12 0 0)
(7.35647704e-12 0 0)
(7.77126273e-12 0 0)
(7.99265852e-12 0 0)
(7.64399581e-12 0 0)
(7.94897361e-12 0 0)
(8.40603938e-12 0 0)
(7.96932902e-12 0 0)
(9.09518974e-12 0 0)
(8.96373314e-12 0 0)
(9.17936906e-12 0 0)
(8.57302433e-12 0 0)
(8.52650812e-12 0 0)
(8.43440498e-12 0 0)
(9.68320798e-12 0 0)
(8.80301818e-12 0 0)
(9.81776792e-12 0 0)
(8.70604482e-12 0 0)
(9.9680961e-12 0 0)
(9.04099939e-12 0 0)
(8.71168146e-12 0 0)
(1.03539615e-11 0 0)
(1.00815737e-11 0 0)
(9.70177157e-12 0 0)
(1.03806328e-11 0 0)
(1.08596209e-11 0 0)
(1.08905722e-11 0 0)
(9.28430266e-12 0 0)
(1.06234879e-11 0 0)
(9.75214446e-12 0 0)
(1.02708258e-11 0 0)
(9.91303284e-12 0 0)
(1.06063462e-11 0 0)
(1.03903453e-11 0 0)
(9.91525056e-12 0 0)
(1.01923554e-11 0 0)
(1.04958486e-11 0 0)
(1.00595108e-11 0 0)
(1.0632257e-11 0 0)
(1.10786659e-11 0 0)
(1.03522898e-11 0 0)
(1.08485153e-11 0 0)
(1.16378591e-11 0 0)
(1.13578139e-11 0 0)
(1.01210606e-11 0 0)
(1.066503e-11 0 0)
(1.11799125e-11 0 0)
(1.07047494e-11 0 0)
(1.10776819e-11 0 0)
(1.11183004e-11 0 0)
(1.14721539e-11 0 0)
(1.04723764e-11 0 0)
(1.00259112e-11 0 0)
(1.01605318e-11 0 0)
(1.02674719e-11 0 0)
(9.87397073e-12 0 0)
(1.14890633e-11 0 0)
(9.60258594e-12 0 0)
(8.80598267e-12 0 0)
(1.02584636e-11 0 0)
(9.50651429e-12 0 0)
(1.069813e-11 0 0)
(9.79878198e-12 0 0)
(1.04811541e-11 0 0)
(1.06076684e-11 0 0)
(9.08558121e-12 0 0)
(9.78201552e-12 0 0)
(1.07051426e-11 0 0)
(9.94128717e-12 0 0)
(1.08687011e-11 0 0)
(1.01123367e-11 0 0)
(1.06500102e-11 0 0)
(9.86808436e-12 0 0)
(1.0021439e-11 0 0)
(9.28550707e-12 0 0)
(9.7446412e-12 0 0)
(1.10710681e-11 0 0)
(1.10803682e-11 0 0)
(1.064128e-11 0 0)
(1.01628269e-11 0 0)
(9.2572659e-12 0 0)
(9.66673765e-12 0 0)
(1.06278092e-11 0 0)
(9.59630182e-12 0 0)
(1.06229947e-11 0 0)
(8.70726804e-12 0 0)
(9.9230581e-12 0 0)
(9.89806559e-12 0 0)
(9.89550526e-12 0 0)
(9.25397097e-12 0 0)
(9.37669274e-12 0 0)
(9.51015727e-12 0 0)
(1.01359162e-11 0 0)
(9.86011594e-12 0 0)
(9.19870304e-12 0 0)
(8.5866091e-12 0 0)
(9.66218399e-12 0 0)
(8.07699825e-12 0 0)
(9.00204943e-12 0 0)
(8.13780191e-12 0 0)
(9.31125142e-12 0 0)
(8.81855653e-12 0 0)
(9.03798825e-12 0 0)
(9.31068231e-12 0 0)
(8.89662971e-12 0 0)
(9.09965978e-12 0 0)
(8.72266448e-12 0 0)
(8.32437909e-12 0 0)
(9.39705251e-12 0 0)
(8.79478573e-12 0 0)
(9.3444962e-12 0 0)
(9.47672143e-12 0 0)
(8.32044097e-12 0 0)
(9.94195609e-12 0 0)
(9.74921804e-12 0 0)
(9.22334845e-12 0 0)
(8.44029357e-12 0 0)
(9.70381851e-12 0 0)
(8.7751977e-12 0 0)
(9.13290917e-12 0 0)
(9.13660726e-12 0 0)
(8.76835427e-12 0 0)
(8.46259729e-12 0 0)
(8.4152359e-12 0 0)
(8.95595863e-12 0 0)
(8.94002217e-12 0 0)
(8.75646707e-12 0 0)
(8.98185266e-12 0 0)
(9.14167071e-12 0 0)
(8.93376922e-12 0 0)
(8.60084587e-12 0 0)
(9.15455119e-12 0 0)
(8.68087349e-12 0 0)
(9.09295384e-12 0 0)
(8.79776391e-12 0 0)
(9.74767028e-12 0 0)
(9.01553799e-12 0 0)
(9.56926679e-12 0 0)
(9.27542539e-12 0 0)
(9.23772027e-12 0 0)
(8.92390492e-12 0 0)
(8.78309842e-12 0 0)
(8.65456319e-12 0 0)
(1.15362571e-11 0 0)
(1.02340969e-11 0 0)
(1.0111172e-11 0 0)
(9.58094875e-12 0 0)
(1.02927857e-11 0 0)
(1.03718427e-11 0 0)
(1.09236786e-11 0 0)
(1.05088538e-11 0 0)
(1.06009371e-11 0 0)
(1.16311994e-11 0 0)
(1.08862376e-11 0 0)
(1.0976606e-11 0 0)
(1.05250116e-11 0 0)
(9.57256418e-12 0 0)
(1.10419332e-11 0 0)
(9.81194986e-12 0 0)
(1.00827155e-11 0 0)
(1.03664679e-11 0 0)
(9.16253558e-12 0 0)
(1.00943543e-11 0 0)
(9.76734518e-12 0 0)
(9.87671288e-12 0 0)
(9.00486366e-12 0 0)
(9.17679699e-12 0 0)
(9.45386482e-12 0 0)
(8.58243896e-12 0 0)
(9.6941354e-12 0 0)
(9.41267343e-12 0 0)
(9.02449617e-12 0 0)
(9.52646491e-12 0 0)
(9.01560574e-12 0 0)
(9.70119395e-12 0 0)
(9.99927522e-12 0 0)
(9.50378597e-12 0 0)
(9.44825616e-12 0 0)
(9.08627814e-12 0 0)
(8.69304974e-12 0 0)
(9.29519056e-12 0 0)
(9.08667941e-12 0 0)
(9.00655372e-12 0 0)
(9.50207252e-12 0 0)
(9.12776783e-12 0 0)
(8.89069054e-12 0 0)
(9.07609788e-12 0 0)
(9.1979248e-12 0 0)
(8.27944306e-12 0 0)
(8.26292741e-12 0 0)
(8.64723143e-12 0 0)
(7.97733301e-12 0 0)
(7.17288792e-12 0 0)
(8.46337496e-12 0 0)
(8.21040648e-12 0 0)
(8.20490748e-12 0 0)
(7.78265099e-12 0 0)
(7.89848526e-12 0 0)
(8.65787416e-12 0 0)
(7.6980523e-12 0 0)
(7.56121846e-12 0 0)
(8.80780176e-12 0 0)
(9.29621318e-12 0 0)
(7.84495632e-12 0 0)
(8.31470138e-12 0 0)
(8.49142614e-12 0 0)
(9.71938546e-12 0 0)
(8.91617876e-12 0 0)
(8.51010257e-12 0 0)
(8.65355118e-12 0 0)
(8.29309642e-12 0 0)
(7.61880257e-12 0 0)
(8.298658e-12 0 0)
(7.45401443e-12 0 0)
(8.65546186e-12 0 0)
(8.2293324e-12 0 0)
(8.4131091e-12 0 0)
(7.91594272e-12 0 0)
(8.54859995e-12 0 0)
(8.43226559e-12 0 0)
(8.21990443e-12 0 0)
(8.90277109e-12 0 0)
(8.80414372e-12 0 0)
(8.28290267e-12 0 0)
(7.93322733e-12 0 0)
(8.03537759e-12 0 0)
(8.96333478e-12 0 0)
(7.92811166e-12 0 0)
(8.58863397e-12 0 0)
(7.94965308e-12 0 0)
(9.08795525e-12 0 0)
(8.17304659e-12 0 0)
(7.87625075e-12 0 0)
(8.40421823e-12 0 0)
(8.94204663e-12 0 0)
(9.81138859e-12 0 0)
(7.92573468e-12 0 0)
(8.06771859e-12 0 0)
(8.88630521e-12 0 0)
(8.49341206e-12 0 0)
(8.4184092e-12 0 0)
(8.23937888e-12 0 0)
(8.59404614e-12 0 0)
(8.41624918e-12 0 0)
(8.54736016e-12 0 0)
(8.66880676e-12 0 0)
(7.81393071e-12 0 0)
(9.75548306e-12 0 0)
(9.61532401e-12 0 0)
(8.75623866e-12 0 0)
(9.41209112e-12 0 0)
(7.93040026e-12 0 0)
(9.30823495e-12 0 0)
(8.81974829e-12 0 0)
(9.2251646e-12 0 0)
(8.45989222e-12 0 0)
(8.50007467e-12 0 0)
(8.13602791e-12 0 0)
(8.6223392e-12 0 0)
(8.29264355e-12 0 0)
(7.6575949e-12 0 0)
(8.21224729e-12 0 0)
(7.33223883e-12 0 0)
(6.66349711e-12 0 0)
(7.68456521e-12 0 0)
(6.65659718e-12 0 0)
(7.92268161e-12 0 0)
(7.15455815e-12 0 0)
(6.76022231e-12 0 0)
(8.26220489e-12 0 0)
(7.17083834e-12 0 0)
(8.53909746e-12 0 0)
(6.83507496e-12 0 0)
(7.69785323e-12 0 0)
(7.36886004e-12 0 0)
(5.8561963e-12 0 0)
(7.41089408e-12 0 0)
(7.54592932e-12 0 0)
(6.66961138e-12 0 0)
(7.59219604e-12 0 0)
(6.51474467e-12 0 0)
(7.94895488e-12 0 0)
(6.98062248e-12 0 0)
(7.20489046e-12 0 0)
(7.66080134e-12 0 0)
(7.24261257e-12 0 0)
(8.03555311e-12 0 0)
(6.6861151e-12 0 0)
(6.48015977e-12 0 0)
(7.3021376e-12 0 0)
(7.6624753e-12 0 0)
(6.92309723e-12 0 0)
(6.93577908e-12 0 0)
(6.84507026e-12 0 0)
(6.25983581e-12 0 0)
(7.00800107e-12 0 0)
(6.20704845e-12 0 0)
(6.34538569e-12 0 0)
(6.36950311e-12 0 0)
(5.48055742e-12 0 0)
(7.18817546e-12 0 0)
(5.97356039e-12 0 0)
(6.94135169e-12 0 0)
(6.56102185e-12 0 0)
(6.59080975e-12 0 0)
(6.25399561e-12 0 0)
(7.06462507e-12 0 0)
(6.96397377e-12 0 0)
(6.06505994e-12 0 0)
(4.97752742e-12 0 0)
(6.35686907e-12 0 0)
(5.08918748e-12 0 0)
(5.82011109e-12 0 0)
(5.91655682e-12 0 0)
(5.68317373e-12 0 0)
(5.38653609e-12 0 0)
(5.50886707e-12 0 0)
(4.84133856e-12 0 0)
(4.3445592e-12 0 0)
(5.55473842e-12 0 0)
(4.72145349e-12 0 0)
(4.68487092e-12 0 0)
(4.65079081e-12 0 0)
(4.75334765e-12 0 0)
(3.51636257e-12 0 0)
(4.17122188e-12 0 0)
(3.80485793e-12 0 0)
(4.25304057e-12 0 0)
(3.5127715e-12 0 0)
(3.90058844e-12 0 0)
(3.21936455e-12 0 0)
(3.89877847e-12 0 0)
(3.82313428e-12 0 0)
(3.76582688e-12 0 0)
(3.77359414e-12 0 0)
(4.37749751e-12 0 0)
(4.7783865e-12 0 0)
(3.31918138e-12 0 0)
(3.70578415e-12 0 0)
(4.48867197e-12 0 0)
(3.82069188e-12 0 0)
(3.09478533e-12 0 0)
(3.3443237e-12 0 0)
(3.57602209e-12 0 0)
(3.09803437e-12 0 0)
(3.00649392e-12 0 0)
(2.80649334e-12 0 0)
(2.79668961e-12 0 0)
(3.61527357e-12 0 0)
(4.0354906e-12 0 0)
(3.6696221e-12 0 0)
(3.18572271e-12 0 0)
(2.95324026e-12 0 0)
(3.36630085e-12 0 0)
(3.69334824e-12 0 0)
(2.8817368e-12 0 0)
(3.92030183e-12 0 0)
(4.07002228e-12 0 0)
(3.83611592e-12 0 0)
(4.34158965e-12 0 0)
(3.79731995e-12 0 0)
(3.86368862e-12 0 0)
(3.27021401e-12 0 0)
(4.4562827e-12 0 0)
(4.20739096e-12 0 0)
(3.82357744e-12 0 0)
(3.34940289e-12 0 0)
(5.38292275e-12 0 0)
(3.03653121e-12 0 0)
(3.2593579e-12 0 0)
(3.39356199e-12 0 0)
(3.31662469e-12 0 0)
(3.28882647e-12 0 0)
(2.69770936e-12 0 0)
(3.30449862e-12 0 0)
(3.07615963e-12 0 0)
(2.29756625e-12 0 0)
(2.45078993e-12 0 0)
(1.4413592e-12 0 0)
(1.6154296e-12 0 0)
(2.6054099e-12 0 0)
(1.27182862e-12 0 0)
(8.10969349e-13 0 0)
(1.90578619e-12 0 0)
(1.7128656e-12 0 0)
(1.64262139e-12 0 0)
(1.00152576e-12 0 0)
(1.53099494e-13 0 0)
(-3.33885089e-13 0 0)
(-3.4601488e-13 0 0)
(-4.601924e-13 0 0)
(-5.00516313e-13 0 0)
(-4.96258741e-13 0 0)
(-7.73041505e-13 0 0)
(-9.77150758e-13 0 0)
(-9.85028193e-13 0 0)
(-1.07964138e-12 0 0)
(-1.23204882e-12 0 0)
(-1.35840683e-12 0 0)
(-1.75434157e-12 0 0)
(-2.44077314e-12 0 0)
(-2.33454056e-12 0 0)
(-2.24871257e-12 0 0)
(-2.41355692e-12 0 0)
(-3.04415702e-12 0 0)
(-2.87956288e-12 0 0)
(-3.82792166e-12 0 0)
(-2.29517363e-12 0 0)
(-2.62479673e-12 0 0)
(-3.72589736e-12 0 0)
(-2.10646951e-12 0 0)
(-2.5829564e-12 0 0)
(-2.36446122e-12 0 0)
(-3.28246612e-12 0 0)
(-2.92580726e-12 0 0)
(-2.08951538e-12 0 0)
(-2.54796341e-12 0 0)
(-2.61612543e-12 0 0)
(-2.7894977e-12 0 0)
(-2.84955722e-12 0 0)
(-2.7181608e-12 0 0)
(-3.32428837e-12 0 0)
(-3.34201757e-12 0 0)
(-4.19775474e-12 0 0)
(-2.89444149e-12 0 0)
(-4.00236979e-12 0 0)
(-2.37666514e-12 0 0)
(-2.43182854e-12 0 0)
(-2.62797028e-12 0 0)
(-2.46096874e-12 0 0)
(-2.82825747e-12 0 0)
(-3.00212223e-12 0 0)
(-2.84613923e-12 0 0)
(-2.3979115e-12 0 0)
(-1.96383579e-12 0 0)
(-2.33877622e-12 0 0)
(-1.67487785e-12 0 0)
(-2.28878575e-12 0 0)
(-2.27639856e-12 0 0)
(-2.53382029e-12 0 0)
(-2.67421479e-12 0 0)
(-2.34101312e-12 0 0)
(-1.78426684e-12 0 0)
(-2.88471247e-12 0 0)
(-2.21082162e-12 0 0)
(-3.24815793e-12 0 0)
(-3.22803604e-12 0 0)
(-3.10874564e-12 0 0)
(-3.69871274e-12 0 0)
(-3.19157219e-12 0 0)
(-4.01374214e-12 0 0)
(-4.06350327e-12 0 0)
(-4.72551944e-12 0 0)
(-3.64876146e-12 0 0)
(-3.81316539e-12 0 0)
(-4.48404276e-12 0 0)
(-3.33349374e-12 0 0)
(-4.04216388e-12 0 0)
(-4.36468699e-12 0 0)
(-4.07044315e-12 0 0)
(-4.21479516e-12 0 0)
(-4.92889297e-12 0 0)
(-5.04383533e-12 0 0)
(-5.2294301e-12 0 0)
(-5.77850674e-12 0 0)
(-6.05385422e-12 0 0)
(-4.76873927e-12 0 0)
(-5.77965998e-12 0 0)
(-7.19458563e-12 0 0)
(-7.20673112e-12 0 0)
(-6.74463678e-12 0 0)
(-7.36212707e-12 0 0)
(-7.46936983e-12 0 0)
(-8.25769752e-12 0 0)
(-7.43998417e-12 0 0)
(-7.95778634e-12 0 0)
(-8.56571968e-12 0 0)
(-8.3960016e-12 0 0)
(-9.45188022e-12 0 0)
(-7.92730325e-12 0 0)
(-6.62019933e-12 0 0)
(-8.34586872e-12 0 0)
(-8.6641344e-12 0 0)
(-8.76126008e-12 0 0)
(-8.06404337e-12 0 0)
(-8.87955206e-12 0 0)
(-7.62416866e-12 0 0)
(-7.96257143e-12 0 0)
(-8.26407481e-12 0 0)
(-1.05946809e-11 0 0)
(-8.91166198e-12 0 0)
(-8.54186093e-12 0 0)
(-9.00252914e-12 0 0)
(-1.01233488e-11 0 0)
(-9.64772647e-12 0 0)
(-9.68586785e-12 0 0)
(-9.06597946e-12 0 0)
(-1.09539744e-11 0 0)
(-9.29416449e-12 0 0)
(-1.09795005e-11 0 0)
(-1.09848602e-11 0 0)
(-9.84867529e-12 0 0)
(-9.63472132e-12 0 0)
(-1.0282588e-11 0 0)
(-1.13330468e-11 0 0)
(-9.75526428e-12 0 0)
(-9.84166882e-12 0 0)
(-1.00344024e-11 0 0)
(-1.09328846e-11 0 0)
(-1.06816977e-11 0 0)
(-9.96340639e-12 0 0)
(-1.07438839e-11 0 0)
(-1.09340214e-11 0 0)
(-9.36873624e-12 0 0)
(-1.12418894e-11 0 0)
(-9.09309684e-12 0 0)
(-8.8951847e-12 0 0)
(-8.36333129e-12 0 0)
(-9.17666383e-12 0 0)
(-9.11195356e-12 0 0)
(-9.53583607e-12 0 0)
(-9.20029921e-12 0 0)
(-9.26419047e-12 0 0)
(-9.28937672e-12 0 0)
(-9.01369513e-12 0 0)
(-8.97501846e-12 0 0)
(-8.62870797e-12 0 0)
(-9.62851891e-12 0 0)
(-9.18606733e-12 0 0)
(-9.47324832e-12 0 0)
(-8.38424236e-12 0 0)
(-9.4197643e-12 0 0)
(-9.15106556e-12 0 0)
(-8.29467679e-12 0 0)
(-8.94280255e-12 0 0)
(-8.28385637e-12 0 0)
(-7.72848298e-12 0 0)
(-7.50865588e-12 0 0)
(-7.65679852e-12 0 0)
(-7.75369395e-12 0 0)
(-8.54634091e-12 0 0)
(-7.06648204e-12 0 0)
(-8.48437162e-12 0 0)
(-9.39159482e-12 0 0)
(-6.79053177e-12 0 0)
(-7.95017469e-12 0 0)
(-7.85540334e-12 0 0)
(-7.50228258e-12 0 0)
(-8.25331788e-12 0 0)
(-7.93883754e-12 0 0)
(-7.43994515e-12 0 0)
(-8.13732223e-12 0 0)
(-7.36039129e-12 0 0)
(-8.15873609e-12 0 0)
(-7.65233814e-12 0 0)
(-7.48910953e-12 0 0)
(-8.13363395e-12 0 0)
(-7.01075824e-12 0 0)
(-7.85979236e-12 0 0)
(-7.90718969e-12 0 0)
(-8.168983e-12 0 0)
(-7.66118981e-12 0 0)
(-8.38085061e-12 0 0)
(-7.97175607e-12 0 0)
(-8.10350951e-12 0 0)
(-8.10741684e-12 0 0)
(-8.13974443e-12 0 0)
(-8.08261784e-12 0 0)
(-8.53076771e-12 0 0)
(-8.27322598e-12 0 0)
(-8.57847381e-12 0 0)
(-7.4621318e-12 0 0)
(-8.28759231e-12 0 0)
(-7.8466466e-12 0 0)
(-7.81459285e-12 0 0)
(-7.21203712e-12 0 0)
(-7.73491048e-12 0 0)
(-7.57518365e-12 0 0)
(-7.22216912e-12 0 0)
(-7.58158136e-12 0 0)
(-7.87903986e-12 0 0)
(-8.10226947e-12 0 0)
(-8.2876558e-12 0 0)
(-8.01176519e-12 0 0)
(-8.35858858e-12 0 0)
(-7.70410773e-12 0 0)
(-8.57091112e-12 0 0)
(-8.84758544e-12 0 0)
(-8.28644197e-12 0 0)
(-8.07058693e-12 0 0)
(-9.1611516e-12 0 0)
(-7.58148939e-12 0 0)
(-8.03603126e-12 0 0)
(-8.51748943e-12 0 0)
(-8.38069964e-12 0 0)
(-8.73692655e-12 0 0)
(-8.8555547e-12 0 0)
(-9.84871117e-12 0 0)
(-8.0472896e-12 0 0)
(-9.90328591e-12 0 0)
(-8.99340913e-12 0 0)
(-8.615216e-12 0 0)
(-8.95142115e-12 0 0)
(-8.4624353e-12 0 0)
(-9.74915334e-12 0 0)
(-8.54021818e-12 0 0)
(-9.2045306e-12 0 0)
(-9.10465363e-12 0 0)
(-9.73128285e-12 0 0)
(-9.75613833e-12 0 0)
(-8.95583798e-12 0 0)
(-8.29990566e-12 0 0)
(-8.7433722e-12 0 0)
(-9.23432985e-12 0 0)
(-9.07156304e-12 0 0)
(-8.31443689e-12 0 0)
(-9.23107277e-12 0 0)
(-9.29584024e-12 0 0)
(-8.7257624e-12 0 0)
(-1.00832792e-11 0 0)
(-1.02266615e-11 0 0)
(-9.79203394e-12 0 0)
(-1.06259723e-11 0 0)
(-1.08730875e-11 0 0)
(-1.02598197e-11 0 0)
(-1.05994758e-11 0 0)
(-1.0755247e-11 0 0)
(-1.06897862e-11 0 0)
(-1.15473532e-11 0 0)
(-1.18183992e-11 0 0)
(-1.04948634e-11 0 0)
(-1.16194231e-11 0 0)
(-1.09451374e-11 0 0)
(-1.21493747e-11 0 0)
(-1.22220696e-11 0 0)
(-1.17074584e-11 0 0)
(-1.05348582e-11 0 0)
(-1.17976803e-11 0 0)
(-1.24056413e-11 0 0)
(-1.12490601e-11 0 0)
(-1.13809961e-11 0 0)