/*--------------------------------*- C++ -*----------------------------------*\
| =========                 |                                                 |
| \\      /  F ield         | OpenFOAM: The Open Source CFD Toolbox           |
|  \\    /   O peration     | Version:  2206                                  |
|   \\  /    A nd           | Website:  www.openfoam.com                      |
|    \\/     M anipulation  |                                                 |
\*---------------------------------------------------------------------------*/
FoamFile
{
    version     2.0;
    format      ascii;
    arch        "LSB;label=32;scalar=64";
    class       surfaceScalarField;
    location    "2.6e-06";
    object      phi;
}
// * * * * * * * * * * * * * * * * * * * * * * * * * * * * * * * * * * * * * //

dimensions      [1 0 -1 0 0 0 0];

oriented        oriented;

internalField   nonuniform List<scalar> 
3182
(
6.6338031e-19
-5.82101536e-19
1.75867375e-19
-3.6575936e-19
-3.04324813e-23
-1.02560693e-24
-7.46064521e-26
-8.67405078e-31
1.27123698e-29
5.28873783e-25
7.2449575e-24
4.29576679e-22
1.39324732e-18
-5.41566341e-19
-1.02906128e-18
-1.37353742e-23
1.0815528e-18
-1.16508177e-18
-2.02890682e-18
2.56498953e-18
9.14286023e-22
2.68418538e-23
2.93478408e-24
1.15487061e-23
1.12316484e-22
7.33531134e-19
2.64051151e-18
-2.05082954e-18
-1.1924348e-18
-3.27829418e-19
-1.4033162e-18
1.51404939e-18
-5.40846564e-20
-9.72815589e-19
3.24894546e-19
4.8578564e-19
-4.87696623e-19
-4.85964827e-19
4.87056899e-19
-1.64590539e-19
-1.51924595e-18
-1.07783462e-18
3.23276887e-19
1.41018113e-18
4.35929301e-19
1.83999853e-18
4.33592639e-19
1.07271755e-19
-7.57917601e-19
-7.59475051e-19
-2.03899942e-21
-1.51059305e-18
-3.23437783e-19
5.39076454e-19
6.49297471e-19
-2.15362619e-19
1.51787912e-21
-2.19553616e-19
-2.16770304e-19
-6.50014589e-19
-1.51514268e-18
-8.69576105e-19
-4.200097e-21
1.00569625e-22
-6.39839703e-19
4.38078648e-19
4.34881536e-19
1.7303266e-18
1.312255e-18
1.72303153e-18
1.73552516e-18
1.75555609e-18
2.60782481e-18
3.04161146e-18
3.05575346e-18
2.19385261e-18
3.47858528e-18
3.93626348e-18
5.24608575e-18
4.82505814e-18
6.53891689e-18
6.92283406e-18
5.15681243e-18
4.33237469e-18
4.23112651e-18
4.27082776e-18
4.37007484e-18
4.29519127e-18
3.37989328e-18
6.91070939e-18
5.23439842e-18
3.67125803e-18
2.90062211e-19
-1.74543292e-18
-8.019932e-20
-1.5473651e-18
-1.41630288e-18
-1.61705502e-18
-2.01257946e-18
-5.60042002e-19
-2.35456845e-18
-2.25328964e-18
-2.52791247e-18
-1.25735353e-18
-4.04235599e-18
-8.58301475e-18
-9.03484171e-18
-6.62929502e-18
-4.74847295e-18
-5.38597677e-18
-8.21306192e-18
-7.83609691e-18
-5.37753391e-18
-3.77429069e-18
-5.89618653e-18
-3.3936047e-18
-3.18798061e-18
1.67046556e-18
1.57350971e-18
-2.22136004e-19
4.71023315e-19
4.02026126e-19
-4.18143679e-18
-1.54599975e-18
-3.92560003e-18
-4.06497672e-18
-2.0842249e-18
-3.52969551e-18
-3.35103967e-18
-2.33594635e-18
-1.01831016e-18
-2.42536429e-18
-5.50221813e-19
1.18202077e-18
-1.25888835e-18
-4.4296775e-18
-2.91781754e-18
-1.26635576e-18
1.19613062e-18
-4.88031842e-19
9.00947564e-19
-1.66645581e-18
-1.38327442e-18
-1.56333342e-18
-7.90004881e-19
1.16042129e-19
-7.27350208e-19
4.16714019e-19
-4.82137319e-19
-4.18407416e-19
-1.50839328e-20
1.74554397e-18
1.65125012e-18
2.45007197e-18
5.93379873e-18
4.16612918e-18
3.11377522e-18
6.48287406e-18
5.82342746e-18
6.21247084e-18
4.56717951e-18
2.47550673e-18
4.64011956e-18
1.11567772e-18
4.84967148e-18
6.81954179e-18
8.92336151e-18
5.42692702e-18
3.29299211e-18
4.20361654e-18
5.27469908e-18
4.97354071e-18
3.83802315e-18
3.51869638e-18
4.94279564e-18
5.932679e-18
6.49908957e-18
7.87218277e-18
7.40441363e-18
5.49789307e-18
7.0906957e-18
3.84632116e-18
4.60195188e-18
5.24792002e-18
5.69781932e-18
6.55392551e-18
6.3247133e-18
9.8540715e-18
6.72355754e-18
6.79658489e-18
6.53233227e-18
5.03595654e-18
5.59860857e-18
5.80653436e-18
6.3448336e-18
7.19331282e-18
6.72416858e-18
6.7147303e-18
7.02098809e-18
6.14924315e-18
6.78298534e-18
4.82862402e-18
4.16663959e-18
2.21434729e-18
1.58793122e-18
1.6232143e-18
2.61499364e-18
7.03774023e-19
1.38529097e-18
1.20636009e-18
9.62546549e-19
2.23060333e-18
3.43994621e-18
2.84310353e-18
3.07028451e-18
2.29491206e-18
1.31283328e-18
4.26277415e-18
3.90451043e-18
5.33448331e-18
1.80909998e-18
1.75279922e-18
-1.16694998e-19
1.28436755e-18
-1.17345065e-18
1.65574167e-18
2.90236667e-19
-1.13514862e-18
4.93206426e-19
2.39861463e-18
1.2633101e-18
7.92833636e-19
4.73138459e-19
-1.1664634e-19
-1.70625055e-18
-3.10734534e-18
-3.03483386e-18
-2.68689605e-18
-1.35722289e-19
-2.46270469e-18
-1.2785038e-18
7.66239224e-19
4.36422591e-19
1.6287836e-18
-6.72333501e-19
1.35196231e-19
2.96999297e-18
2.74993941e-18
-4.74163552e-19
1.31395289e-18
1.34649139e-18
-1.74091485e-19
6.48027815e-19
-1.79469056e-19
-1.9219148e-18
-5.23764455e-19
-2.00103697e-18
-4.43684929e-18
-5.71534678e-18
-6.09789197e-18
-6.94305556e-18
-6.1214735e-18
-7.22188033e-18
-6.32952862e-18
-7.22989752e-18
-1.03433882e-17
-8.36086525e-18
-8.87919729e-18
-1.16476231e-17
-1.06658031e-17
-1.37259062e-17
-1.05968115e-17
-1.05614062e-17
-1.12904703e-17
-1.25859968e-17
-1.29724714e-17
-1.00647727e-17
-1.01746396e-17
-1.02171004e-17
-9.99658175e-18
-1.27496363e-17
-9.76339021e-18
-9.34620224e-18
-1.24536044e-17
-1.58478972e-17
-1.53355563e-17
-1.41957343e-17
-1.39535037e-17
-1.58643639e-17
-1.5816503e-17
-1.53424786e-17
-1.63446103e-17
-1.84234758e-17
-1.52641509e-17
-1.86426782e-17
-1.91143371e-17
-2.01102525e-17
-2.07055009e-17
-1.89679309e-17
-1.98635628e-17
-1.99977498e-17
-1.89342133e-17
-1.92307322e-17
-1.75832364e-17
-1.96272735e-17
-2.08699948e-17
-2.05078125e-17
-2.2081761e-17
-2.28979504e-17
-1.98381125e-17
-2.37493369e-17
-2.38286245e-17
-2.34322585e-17
-2.16995754e-17
-2.25867801e-17
-2.1289331e-17
-1.98571883e-17
-1.99953591e-17
-2.03734734e-17
-2.23428441e-17
-2.19288273e-17
-2.42504039e-17
-2.76485493e-17
-2.28626089e-17
-2.52830391e-17
-2.27947072e-17
-2.34684269e-17
-1.939595e-17
-2.46761807e-17
-2.33972464e-17
-2.12342601e-17
-1.94582925e-17
-2.02731172e-17
-2.01451931e-17
-1.88554253e-17
-1.71785061e-17
-1.92381973e-17
-1.89582196e-17
-1.89262212e-17
-1.80380583e-17
-1.934955e-17
-1.9794278e-17
-1.9291122e-17
-1.67168023e-17
-1.86217726e-17
-2.19790328e-17
-1.79013382e-17
-1.98719734e-17
-2.07336044e-17
-2.13470792e-17
-2.06143431e-17
-1.90870785e-17
-1.92084022e-17
-2.18809564e-17
-2.25918719e-17
-2.30575188e-17
-2.32233062e-17
-2.36059805e-17
-2.38621208e-17
-2.27609772e-17
-2.04476934e-17
-2.33297933e-17
-2.2794559e-17
-2.31840089e-17
-2.01258335e-17
-2.20562346e-17
-2.16030802e-17
-2.06987053e-17
-1.56628524e-17
-1.24675711e-17
-1.54416062e-17
-1.4844339e-17
-1.51292828e-17
-1.22524901e-17
-1.23097368e-17
-1.46940209e-17
-1.06713418e-17
-1.34580041e-17
-1.4042672e-17
-1.66614907e-17
-1.53232486e-17
-1.33763787e-17
-1.48336913e-17
-1.49395516e-17
-1.26498548e-17
-9.85188266e-18
-1.28829031e-17
-1.47810755e-17
-1.3550848e-17
-1.50209737e-17
-1.10373847e-17
-8.58354982e-18
-8.1627278e-18
-5.86765918e-18
-3.52522731e-18
-3.32826343e-18
-8.7417603e-18
-1.02177672e-17
-9.70730078e-18
-2.20531929e-18
-6.38601926e-18
-5.08218186e-18
-5.21606433e-18
-4.88236544e-18
-9.07123628e-18
-2.10187723e-18
-8.07426703e-18
-6.42254284e-18
-2.02577362e-18
-1.87827652e-18
-1.83682157e-18
-4.01205082e-18
-4.73816774e-19
-1.93810893e-18
2.52987681e-18
-1.40302865e-18
2.03858017e-18
2.08187291e-18
6.63675383e-18
4.62022538e-18
2.30379092e-18
1.25766861e-18
3.36924381e-18
3.94067421e-18
1.9093177e-18
-1.19398959e-18
1.47902566e-19
-9.76581422e-19
-8.68038053e-19
-2.86782833e-18
-5.47856043e-18
-4.79472879e-19
-4.90691731e-21
2.28276235e-18
-2.90154097e-18
-3.6310601e-18
-2.88252464e-18
-2.05436518e-18
-3.0276098e-19
-1.04604031e-18
-1.15756499e-18
-3.82632463e-18
-8.75955653e-19
-1.27252403e-18
-9.44663253e-19
4.98646033e-19
-2.45670295e-18
-2.16905994e-18
-3.64205788e-18
1.25115584e-18
3.70179393e-18
2.62488953e-18
2.29126789e-18
1.50144026e-18
2.35026897e-18
2.43214043e-18
3.71988082e-18
3.79008581e-18
4.71632979e-18
2.10323361e-18
2.43812663e-18
2.83022778e-18
4.42225159e-18
3.06878422e-18
4.33329825e-18
3.71096967e-18
4.56372355e-18
6.74440288e-18
7.368886e-18
2.31724283e-18
3.10877135e-18
2.11997178e-18
1.51025764e-18
6.14445348e-18
1.62403188e-18
4.67501703e-18
4.87024543e-18
4.86796285e-18
5.11021069e-18
5.60061199e-18
9.35033858e-19
-1.251558e-19
-3.78493036e-18
-4.61182652e-18
-3.04024268e-18
-1.114655e-18
-4.34516318e-18
-3.6328942e-18
-2.11781608e-18
-1.63822533e-18
-2.56340404e-18
-2.64638015e-18
-2.731832e-18
-3.50640248e-18
-5.80044619e-18
-5.37575655e-18
-5.87007315e-18
-2.01349518e-18
-1.38103506e-19
-3.59135384e-19
3.29432747e-18
-9.57690307e-19
-6.53362755e-20
-3.84286753e-19
-4.2524739e-18
-2.48039221e-18
-6.38061593e-18
-6.39782286e-18
-6.18572936e-18
-5.15514092e-18
-4.42649639e-18
-3.22084442e-18
-5.38189969e-19
-2.81421682e-18
-2.39470015e-18
-3.35581428e-18
-5.07282899e-18
-3.6345431e-18
-5.34274853e-18
-7.48755871e-18
-3.32539351e-18
-3.17272305e-18
-4.96270165e-18
-4.18667634e-18
-5.87690191e-18
-7.1678842e-18
-5.38303059e-18
-4.82078851e-18
-4.5338109e-18
-7.33802935e-18
-6.59636832e-18
-7.05882503e-18
-7.2035452e-18
-5.94434421e-18
-6.9166767e-18
-6.97671103e-18
-7.7556417e-18
-7.12094135e-18
-3.87952158e-18
-3.31011247e-18
-9.65069437e-19
-1.63582615e-18
-9.0989965e-19
-2.9601271e-18
-1.38765616e-18
-4.25791384e-18
-2.56553954e-18
-4.28581612e-18
-1.68500369e-18
-3.42858502e-18
-1.72206625e-19
-2.65879351e-18
-9.6449213e-19
1.84469046e-19
-1.65194269e-19
-2.76113322e-18
-9.13982117e-19
-2.43079722e-18
-2.83809128e-18
2.71497617e-19
-1.3880275e-18
-1.21847794e-18
3.20056323e-18
1.47348381e-18
1.40794104e-18
-1.43603532e-19
2.36084331e-18
5.22441195e-18
8.41278889e-18
7.76553502e-18
6.28031864e-18
1.03375778e-17
8.62319093e-18
1.04398411e-17
1.13126702e-17
1.15395012e-17
9.53269116e-18
6.27752199e-18
9.4528303e-18
1.02346791e-17
9.40754893e-18
1.00846869e-17
8.7251393e-18
1.02449531e-17
1.14188089e-17
1.07820901e-17
1.27242292e-17
9.8876137e-18
1.17689796e-17
1.28212998e-17
1.19717404e-17
1.0694839e-17
1.26926829e-17
7.08960842e-18
9.35547235e-18
9.50227456e-18
1.08892524e-17
1.02279349e-17
1.06184502e-17
1.02347095e-17
9.59160506e-18
9.9667302e-18
1.12203178e-17
1.06572957e-17
7.33459164e-18
8.63407568e-18
9.32861985e-18
7.91699338e-18
8.98396224e-18
3.0095013e-18
4.22939192e-18
-3.39565812e-19
-5.20672669e-19
8.76265785e-20
1.0581014e-18
1.34481868e-18
3.65707287e-18
2.88795136e-18
2.69881366e-18
3.10366561e-18
4.96017212e-18
2.53999642e-18
5.39206679e-18
6.92527998e-18
3.86487345e-18
2.61006507e-18
3.57045467e-18
3.40093358e-18
2.80821901e-18
2.52713397e-18
5.44426403e-18
4.77872143e-18
6.21364779e-18
6.74001093e-18
5.89602032e-18
3.83217624e-18
2.9069856e-18
-4.6405388e-20
4.37808825e-18
1.3529597e-18
1.54813025e-18
2.46726217e-18
9.0707638e-19
3.51330749e-18
2.59061484e-18
6.1030108e-19
-3.46275477e-18
-3.3476141e-18
-2.04194787e-18
-1.65590357e-18
-1.24686337e-18
-2.78574163e-18
6.32460707e-19
5.99024258e-19
3.13616838e-18
3.62793985e-19
2.28095727e-19
1.30515017e-19
-3.29364222e-18
-4.94459567e-18
-4.53821027e-18
-6.4430402e-18
-1.12767277e-17
-9.72741694e-18
-1.22739269e-17
-1.04192849e-17
-7.3176819e-18
-7.6271187e-18
-5.37986415e-18
-6.55412896e-18
-3.94256088e-18
-6.38343873e-18
-4.96722959e-18
-6.66914616e-18
-6.29375924e-18
-5.08762244e-18
-3.64185699e-18
-1.83050171e-18
-4.7112052e-18
-6.26890972e-18
-2.31707566e-18
-4.11225953e-19
1.3105104e-18
4.64833141e-18
5.13325554e-18
4.07696088e-18
3.20267625e-18
3.4221049e-18
3.195607e-18
2.66290206e-18
3.0458895e-18
5.60221058e-18
4.42394094e-18
7.26222355e-18
9.20586587e-18
8.2993392e-18
5.94540235e-18
9.56311428e-18
9.46234102e-18
1.18970878e-17
1.3594226e-17
1.6357857e-17
1.48380431e-17
1.64938027e-17
1.4005363e-17
1.25102195e-17
1.2465303e-17
1.28349923e-17
1.47844289e-17
1.33631409e-17
1.62841022e-17
1.49682779e-17
1.72883832e-17
1.83881992e-17
1.70706949e-17
1.62707835e-17
1.4572996e-17
1.71966282e-17
1.69135087e-17
1.61045841e-17
1.7071627e-17
1.78145971e-17
2.08329482e-17
1.87741464e-17
1.77424256e-17
1.73231319e-17
1.72355883e-17
1.88247853e-17
1.81790195e-17
1.92270963e-17
1.76291948e-17
1.3748177e-17
1.52345423e-17
1.36906816e-17
1.44294392e-17
1.42022725e-17
1.54544052e-17
1.57471874e-17
1.53762557e-17
1.11929683e-17
1.19341075e-17
8.23232055e-18
7.83854759e-18
1.08400192e-17
1.26087954e-17
1.30504946e-17
1.31561976e-17
1.67782868e-17
1.1959427e-17
9.51769172e-18
1.12287794e-17
1.19143492e-17
1.09362321e-17
1.23314203e-17
1.00655387e-17
1.15770988e-17
1.14522501e-17
9.67768085e-18
7.99099855e-18
8.30007093e-18
6.75921422e-18
7.8504324e-18
6.08037438e-18
4.56272017e-18
7.37247053e-18
3.13962798e-18
2.97381197e-18
2.57085575e-19
3.64807573e-18
1.59569901e-18
-7.15034895e-19
-6.44993745e-19
-2.82355109e-19
-2.19362759e-18
-2.07443714e-18
-1.15347667e-18
-5.71932682e-18
-6.49530665e-18
-4.83480928e-18
-4.44442036e-18
-3.68674786e-18
-8.05580577e-18
-6.76690138e-18
-6.65866034e-18
-8.64426469e-18
-8.8957872e-18
-4.61394415e-18
-3.52958947e-18
-6.10308451e-19
-3.64775545e-18
-4.00012291e-18
-4.39220525e-18
-5.7737997e-18
-5.64548391e-18
-8.72070494e-18
-3.5901065e-18
-7.99916773e-18
-4.0270492e-18
-6.46289678e-18
-4.53262085e-18
-9.67345943e-18
-5.56903494e-18
-1.0946239e-17
-1.04719743e-17
-9.45318566e-18
-7.56122282e-18
-4.29072521e-18
-9.47118546e-18
-7.37215223e-18
-8.99828949e-18
-9.8932405e-18
-7.48881181e-18
-2.79394503e-18
-5.85178092e-18
-4.1375471e-18
-6.47340517e-18
-3.6993576e-18
-4.50137672e-18
-3.63506985e-18
-5.43005403e-20
1.23505475e-18
1.30073381e-18
2.89230987e-18
1.11631876e-18
4.39920587e-18
2.47944246e-18
1.66870559e-18
6.85317478e-19
1.37721973e-18
4.54510932e-18
2.71526672e-18
2.57185921e-21
1.5887843e-18
3.55160717e-18
3.13513186e-18
7.44947401e-19
2.34724208e-18
9.49093419e-19
-2.45391871e-18
-1.02315687e-18
-1.54646007e-18
-1.6440778e-18
1.09420899e-18
2.712412e-18
5.74474926e-19
2.48988073e-18
1.42923446e-18
3.25148422e-18
2.36011797e-18
5.3548522e-18
4.51369298e-18
2.83106084e-18
1.13605135e-18
2.08781393e-18
-1.87072193e-18
-3.0189382e-18
-2.46067534e-18
-2.742023e-18
-1.98545602e-18
-2.98115606e-18
-1.85684811e-18
-4.95716638e-18
-2.28966212e-18
-2.01308058e-18
-8.69889908e-19
2.41446789e-18
-2.73802359e-18
3.463986e-19
-6.02151377e-19
-1.01177921e-18
-4.17317482e-19
-5.50832618e-19
-3.5539545e-18
-3.68160358e-18
-3.22629134e-18
-5.49356715e-18
-3.02096606e-18
-3.65354353e-18
-8.293822e-19
-1.28396746e-18
4.3433579e-19
-6.67826194e-19
-1.69099366e-18
-2.64904993e-18
7.16710512e-19
-7.43137462e-19
8.65065748e-19
-3.82938871e-18
-5.7790388e-18
-3.52526522e-18
-2.91752091e-18
-2.47874541e-18
-6.68037525e-19
-2.57914332e-18
3.9042028e-20
1.84577392e-18
5.59603757e-18
3.98080949e-18
3.8889372e-18
6.374151e-18
2.85925062e-18
3.73859886e-18
6.69735841e-18
3.44883288e-18
4.21148277e-18
5.74923805e-18
5.80245331e-18
3.91749998e-18
1.4096957e-18
2.37846005e-18
-1.06721165e-18
-3.0411428e-18
-2.57937997e-19
8.1781491e-19
1.83315768e-18
1.75851281e-19
-1.67975389e-18
-2.76665485e-18
-1.07517161e-18
4.51023254e-19
1.35301697e-18
2.78241791e-18
3.46015232e-19
7.74820298e-19
6.42200858e-20
-2.74033045e-18
1.12536831e-18
3.63183351e-18
2.88409862e-18
1.37398256e-18
3.08421996e-18
2.15506785e-18
5.64194504e-18
4.07289596e-18
3.63806888e-18
-6.85105287e-19
2.12709553e-18
1.15986984e-18
5.67980839e-18
6.4131091e-18
5.25894408e-18
4.54029621e-18
6.89741597e-18
1.80850907e-18
4.96023093e-18
5.75823961e-18
4.47672712e-18
6.33799759e-18
6.39444314e-18
6.40153895e-18
4.07540677e-18
3.84903359e-18
4.25714864e-18
7.00236143e-18
7.34831698e-18
4.13353981e-18
3.81362914e-18
4.03376362e-18
3.88415393e-18
5.45358726e-18
9.40779556e-18
9.40975171e-18
1.09972087e-17
1.43489433e-17
1.09564023e-17
1.47699989e-17
1.68331318e-17
1.70611602e-17
1.63044002e-17
1.71097106e-17
1.63135233e-17
1.64000135e-17
1.52262358e-17
1.67164319e-17
1.44009415e-17
1.52060226e-17
1.53133226e-17
1.431198e-17
1.49893469e-17
1.51517448e-17
1.53613623e-17
1.5287201e-17
1.84206771e-17
1.96083939e-17
2.04509324e-17
1.53022354e-17
2.02292443e-17
1.82471575e-17
1.88815254e-17
1.89248497e-17
2.15848933e-17
2.07128735e-17
2.06027938e-17
2.07591071e-17
1.63358933e-17
1.4411942e-17
1.18887081e-17
1.79725198e-17
1.75965451e-17
1.94001491e-17
1.82930651e-17
1.5967527e-17
1.5704924e-17
1.57937478e-17
1.42584702e-17
1.39886217e-17
1.22741008e-17
1.34100194e-17
1.34135363e-17
1.34375624e-17
1.04590958e-17
1.09367021e-17
9.85771113e-18
1.10597206e-17
1.03628589e-17
1.03118591e-17
9.4124911e-18
1.08709235e-17
1.06279332e-17
9.10252868e-18
6.78405553e-18
9.12293731e-18
1.0469291e-17
9.35716702e-18
1.35418358e-17
1.33626145e-17
1.29791628e-17
8.86380027e-18
7.02728425e-18
7.21061292e-18
3.01024626e-18
4.85411727e-18
3.72726285e-18
4.50547639e-18
2.17827403e-18
3.66383194e-18
4.83530199e-18
5.08899546e-18
1.33418464e-18
5.61187144e-18
2.67239688e-18
4.54925106e-18
6.46400952e-18
7.33846109e-18
8.47457478e-18
7.67275302e-18
7.75139517e-18
8.21466987e-18
1.09428608e-17
1.09680226e-17
1.14653102e-17
9.80793962e-18
9.11339526e-18
7.81079173e-18
7.43496113e-18
1.2271917e-17
1.37148222e-17
1.37465651e-17
1.25878505e-17
9.50172598e-18
1.36571469e-17
1.36286532e-17
1.3224419e-17
1.21462996e-17
1.40314584e-17
9.02790048e-18
1.06929557e-17
1.04127047e-17
1.17520057e-17
1.20127069e-17
1.00510768e-17
1.02784391e-17
7.07632855e-18
7.46462902e-18
8.56755415e-18
8.11931123e-18
8.9142697e-18
9.06147189e-18
8.03205926e-18
1.02673221e-17
8.2525097e-18
5.63394664e-18
4.72568858e-18
7.48478346e-18
4.7614831e-18
4.61861956e-18
4.43579997e-18
4.33846002e-18
3.15102249e-18
2.13338812e-18
4.12075065e-18
4.01886584e-18
5.08133956e-18
1.46687589e-18
3.74580443e-18
3.11785942e-18
3.03813918e-18
2.79219235e-18
-3.53449427e-19
-2.27858716e-18
-1.74912128e-18
-1.61432852e-18
-4.53982809e-18
-2.69867244e-18
-9.6023169e-19
-2.24446859e-18
-1.25840741e-18
9.42028442e-19
-1.08791525e-19
-1.96228971e-18
-2.06525918e-18
-2.25246987e-18
-1.15869184e-18
-1.27143991e-18
-9.4952065e-19
-4.09995495e-18
-3.68227438e-18
-6.02605907e-18
-7.74910213e-18
-7.24119685e-18
-6.02747273e-18
-6.04618889e-18
-5.43000768e-18
-9.59512201e-18
-9.02027479e-18
-1.01379901e-17
-1.26794072e-17
-1.26059181e-17
-1.13143406e-17
-1.17320472e-17
-1.11963984e-17
-1.4285857e-17
-1.64807111e-17
-1.77013199e-17
-2.10426922e-17
-2.09060165e-17
-1.98342275e-17
-1.66160649e-17
-1.37647244e-17
-8.57617094e-18
-1.14351109e-17
-1.00559983e-17
-6.55328054e-18
-5.74544267e-18
-4.99447136e-18
-6.61956231e-18
-7.13207145e-18
-4.45810885e-18
-4.51494798e-18
-5.10698266e-18
-4.47016373e-18
-9.8659044e-19
-3.34027498e-18
8.50526877e-19
-1.01663476e-18
1.428072e-18
2.47612765e-18
-2.50133811e-18
-2.29589434e-18
-5.21147728e-18
-6.6437311e-18
-5.05959604e-18
-6.34109562e-18
-6.72956796e-18
-3.62994874e-18
-2.15355044e-18
-1.66605655e-18
1.04658099e-19
-1.4423911e-18
-1.78502833e-18
-2.84900675e-18
-5.64892206e-18
-8.1476202e-18
-6.53007917e-18
-6.85212286e-18
-8.92929651e-18
-7.24539174e-18
-6.27450262e-18
-7.09307586e-18
-8.25717396e-18
-1.04050149e-17
-7.81558446e-18
-5.70774467e-18
-4.01623225e-18
-7.60835253e-18
-4.55592801e-18
-6.69347149e-18
-7.08410466e-18
-4.93280457e-18
-6.23391174e-18
-7.23983623e-18
-9.09145801e-18
-9.35389224e-18
-1.06922513e-17
-9.49458808e-18
-8.88176386e-18
-1.01090314e-17
-1.16967956e-17
-1.04141018e-17
-1.312792e-17
-1.05690242e-17
-1.24566573e-17
-1.50438866e-17
-1.36012002e-17
-1.00368628e-17
-1.04724086e-17
-9.68818893e-18
-1.13195743e-17
-1.31474004e-17
-1.07997224e-17
-1.29068095e-17
-1.29737731e-17
-1.54915335e-17
-1.53764268e-17
-1.73947221e-17
-1.77169136e-17
-1.88409374e-17
-1.75544392e-17
-1.90285454e-17
-1.7894291e-17
-1.49706832e-17
-1.66991878e-17
-1.39097879e-17
-1.40347635e-17
-1.50936708e-17
-1.44427291e-17
-1.51685253e-17
-1.576439e-17
-1.76471512e-17
-1.56672652e-17
-1.40072904e-17
-1.67551316e-17
-1.86590498e-17
-1.60479529e-17
-1.70543382e-17
-1.59950294e-17
-1.41276604e-17
-1.41798653e-17
-1.37111078e-17
-1.45032831e-17
-1.81504241e-17
-1.49674185e-17
-1.5857882e-17
-1.45350235e-17
-1.24383731e-17
-1.51390504e-17
-1.36939327e-17
-1.61396699e-17
-1.27419896e-17
-1.26228506e-17
-1.42617735e-17
-1.26366399e-17
-1.32404965e-17
-1.43578622e-17
-1.54561721e-17
-1.35518528e-17
-1.21998032e-17
-1.44041861e-17
-1.58486718e-17
-1.59574542e-17
-1.25423158e-17
-1.59646202e-17
-1.41115361e-17
-1.18367306e-17
-1.19956624e-17
-1.24630471e-17
-1.35346372e-17
-1.44256105e-17
-1.33304698e-17
-9.88443052e-18
-1.07476386e-17
-8.67681754e-18
-6.32172083e-18
-7.11681881e-18
-9.87085288e-18
-6.58891372e-18
-9.14478778e-18
-7.04297934e-18
-5.87694647e-18
-5.64454916e-18
-4.07225084e-18
-1.82110443e-18
-3.2289833e-18
-3.14291613e-18
-4.7156569e-18
-2.19391114e-18
-2.2605485e-18
-1.90202185e-18
-3.84625209e-18
-4.86180808e-18
-4.42505181e-18
-7.10940934e-20
8.95933257e-19
1.87645979e-18
6.2913285e-18
5.63383712e-18
4.22215718e-18
3.15656613e-18
3.17127088e-18
1.12629976e-18
5.62530656e-19
1.60004215e-18
7.89459402e-19
9.16116848e-20
1.14880798e-18
1.72820238e-18
1.80905674e-18
3.43505745e-18
4.9706003e-18
1.86344577e-18
3.8182483e-20
-3.61398428e-18
-5.00323767e-18
-3.2004871e-18
-2.52615536e-18
-3.69288768e-18
-2.85991889e-21
3.26833465e-20
-2.35299924e-18
-4.40726565e-19
1.28399561e-18
-3.44835625e-18
-5.39534835e-18
-3.6334321e-18
-2.55591289e-18
-2.39925329e-18
-8.20689591e-20
-1.66684203e-19
-1.72406311e-18
-6.33765611e-19
-2.44002618e-18
-1.58435092e-18
-1.3439852e-18
-1.77498885e-18
-2.46829365e-18
4.58588032e-19
1.23873783e-18
2.07851601e-18
4.51896278e-18
8.3844412e-19
5.829508e-18
2.04335107e-18
1.47718827e-18
3.92481394e-18
4.8373944e-18
6.04224287e-18
3.99481273e-18
1.60178998e-18
7.01604347e-19
6.43092458e-19
2.96865461e-18
1.14858615e-18
-1.22214086e-18
7.51997681e-20
3.6816336e-18
2.88887233e-19
9.40017389e-19
3.73251035e-19
5.59954205e-18
6.00972705e-19
2.5902904e-18
1.4661089e-19
-4.55863182e-19
1.8027453e-18
3.56324235e-18
2.18248751e-18
1.2511782e-18
4.35775203e-19
5.624308e-18
3.79682881e-18
7.31719237e-18
5.74157142e-18
8.71940044e-18
7.8870222e-18
1.04892799e-17
8.54786104e-18
1.07494633e-17
7.70389593e-18
8.49049265e-18
6.73908741e-18
7.49586769e-18
5.51484205e-18
2.8813482e-18
3.25398363e-18
4.2748787e-18
2.7540775e-18
4.15156514e-18
1.84533599e-18
1.18752288e-18
1.22395629e-18
4.2191077e-18
3.58001079e-18
1.14712074e-18
2.30266695e-18
1.12879234e-18
3.25980969e-18
4.07504271e-18
2.98247768e-18
5.67838475e-18
4.02254431e-18
1.92148068e-18
2.80989402e-18
-5.92915255e-19
1.47343979e-18
4.21537134e-19
2.40464516e-18
2.48708964e-18
3.71597452e-18
4.77004285e-18
4.90522269e-18
7.11105501e-18
5.62993121e-18
6.22197352e-18
7.59448912e-18
7.55239234e-18
8.41765525e-18
5.72267836e-18
3.94361823e-18
3.72023588e-18
4.38307465e-18
6.30203079e-19
1.12905869e-18
5.28969e-18
2.96487904e-18
4.09709191e-18
3.9962553e-18
1.51161109e-18
1.86917429e-18
7.15106278e-19
2.95315031e-18
2.06690753e-18
1.46170032e-18
6.05795939e-19
1.93194513e-18
-1.21195716e-18
-1.13525958e-18
-2.69897759e-18
-3.03206278e-18
-1.72329554e-18
-2.9782652e-18
-5.6319518e-18
-6.2967003e-18
-6.8614521e-18
-4.13953394e-18
-2.87334634e-18
-7.76215155e-19
-2.92281083e-18
-2.69512905e-18
-4.32657802e-18
-5.66856302e-18
-6.9942052e-18
-7.83964189e-18
-9.78688342e-18
-8.99326712e-18
-7.89456221e-18
-9.8921125e-18
-8.77873162e-18
-6.35982409e-18
-9.47796932e-18
-7.1384335e-18
-8.58205215e-18
-1.18438543e-17
-6.56153063e-18
-9.30934958e-18
-8.97792195e-18
-8.048573e-18
-6.71230699e-18
-6.82748736e-18
-1.11574951e-17
-1.29926243e-17
-1.27187138e-17
-1.26638431e-17
-1.2029929e-17
-1.2560517e-17
-1.47421287e-17
-1.06175565e-17
-1.27649236e-17
-1.04266258e-17
-8.24949423e-18
-9.87184894e-18
-8.6255317e-18
-8.83040305e-18
-6.7904101e-18
-8.37116424e-18
-9.37823212e-18
-1.23130278e-17
-1.43863519e-17
-1.29886182e-17
-1.354302e-17
-1.1652407e-17
-1.29555772e-17
-1.71960571e-17
-1.61407469e-17
-1.65035464e-17
-1.27237132e-17
-1.38639981e-17
-1.53513018e-17
-1.40920224e-17
-1.35145413e-17
-1.37201929e-17
-1.65823839e-17
-1.32337777e-17
-1.43978175e-17
-1.16443893e-17
-1.04398007e-17
-1.08513624e-17
-1.11609476e-17
-1.10939327e-17
-7.58793957e-18
-9.04042962e-18
-8.11862562e-18
-9.3858218e-18
-7.34364693e-18
-4.57963715e-18
-5.8262861e-18
-4.799181e-18
-8.88030364e-18
-6.82502971e-18
-3.80364635e-18
-6.48134096e-18
-4.10052192e-18
-5.07223047e-18
-3.8182558e-18
-2.00877145e-18
-2.94880348e-18
-3.5102761e-18
-3.33897695e-18
-2.9599901e-18
-2.3836288e-19
7.1122818e-20
3.83778402e-18
5.01121117e-18
4.01085399e-18
2.89428481e-18
5.71166163e-18
2.08238968e-18
2.45689073e-18
6.42670591e-18
9.12729146e-18
7.63242202e-18
9.67586167e-18
5.386665e-18
4.13097027e-18
9.24520824e-18
9.42712004e-18
1.1991138e-17
1.20929691e-17
8.38730832e-18
7.03364954e-18
5.43539579e-18
6.13932387e-18
6.45523023e-18
6.21255788e-18
5.8918148e-18
5.02611112e-18
1.08563983e-18
1.12388521e-18
1.83504619e-18
2.37401062e-18
2.09857921e-19
-3.0264652e-19
4.63231773e-18
3.91199058e-18
5.61166442e-20
-1.00287359e-18
-4.26772292e-18
-6.42848276e-18
-1.10856017e-17
-1.1084883e-17
-6.86642926e-18
-1.03851437e-17
-7.97278505e-18
-1.17283157e-17
-1.07369602e-17
-1.30794513e-17
-1.33201069e-17
-1.14412743e-17
-1.18622197e-17
-9.79948457e-18
-4.99495093e-18
-9.3257204e-18
-8.17963517e-18
-9.50494236e-18
-1.14315213e-17
-1.0512731e-17
-1.22834852e-17
-1.23982387e-17
-1.40955299e-17
-1.43621513e-17
-1.76198763e-17
-1.66093469e-17
-1.18079119e-17
-1.51317877e-17
-1.21907129e-17
-1.26883342e-17
-8.87131018e-18
-1.06479337e-17
-9.3601603e-18
-1.31649815e-17
-1.15434349e-17
-7.08747373e-18
-9.63841208e-18
-7.68598956e-18
-6.28694543e-18
-9.3576174e-18
-1.07601701e-17
-8.81689461e-18
-1.17628124e-17
-1.26434266e-17
-1.5958054e-17
-1.88572412e-17
-1.90015698e-17
-1.52805372e-17
-1.46604484e-17
-1.51534121e-17
-1.26413785e-17
-1.29458889e-17
-1.07292479e-17
-1.26810539e-17
-1.07861218e-17
-8.00480843e-18
-1.00150869e-17
-9.5021661e-18
-5.90162199e-18
-6.21803534e-18
-5.02816193e-18
-8.52887605e-18
-1.03534427e-17
-1.08581342e-17
-1.07312104e-17
-1.18710135e-17
-1.13161203e-17
-1.28951275e-17
-1.23985623e-17
-1.45603983e-17
-1.8922454e-17
-1.45353077e-17
-1.3405795e-17
-1.3444169e-17
-8.29807199e-18
-7.33045198e-18
-3.45054653e-18
-2.57215405e-18
-5.14329028e-19
-2.68796002e-19
-1.17488695e-18
-1.03884479e-18
-2.36912638e-19
-9.30799961e-19
-1.03540996e-18
-1.83076114e-18
1.9978702e-19
-3.57658333e-18
-4.72677623e-18
-2.84534217e-18
-5.1037363e-18
-4.9657687e-18
-3.74273462e-18
-1.42229376e-18
-2.74911614e-18
-3.17296635e-18
-2.13196478e-18
-3.48655327e-18
-3.63405966e-18
-1.29306962e-19
-1.62058169e-18
-7.01587035e-19
3.30070686e-18
3.35488961e-18
1.76277549e-18
2.64581892e-18
1.77430924e-18
1.21600261e-18
2.08663256e-19
3.19336212e-18
2.29944625e-18
4.58613836e-18
3.63290944e-18
4.47392938e-18
2.26595921e-18
2.37731132e-18
-9.93748355e-19
-1.23749619e-18
-1.99982392e-18
3.82028529e-19
-3.08992075e-19
1.19290113e-18
-2.03942024e-18
-2.54799409e-19
1.56467417e-18
-5.18225892e-19
-1.96622416e-18
-2.28063288e-19
2.83612688e-18
1.59441288e-18
1.40221744e-18
4.21993709e-18
1.97893502e-18
-1.9176919e-18
2.04735364e-18
3.02259868e-18
-2.8859769e-19
3.252504e-18
2.43808844e-18
7.65194529e-18
7.58789627e-18
8.16041771e-18
6.89185664e-18
8.19685617e-18
1.04527156e-17
9.97456337e-18
8.24941614e-18
7.99850546e-18
7.52831226e-18
4.33509642e-18
4.5249591e-18
1.90049503e-18
2.6211533e-18
2.13003296e-18
3.64568966e-18
5.52045084e-18
1.52603308e-18
1.73928445e-18
2.54582605e-18
3.56026452e-19
3.51504111e-18
3.96436509e-18
2.90636728e-18
4.29046299e-18
6.03565767e-18
3.22475178e-18
6.56762816e-18
3.59526006e-18
6.4605892e-18
3.3257363e-18
8.75969857e-19
2.69228256e-18
1.03399195e-18
1.43820285e-18
2.52852162e-18
4.09387374e-18
7.17120821e-18
3.56883866e-18
6.54638665e-18
5.03554618e-18
7.74644542e-18
5.47861726e-18
5.01584817e-18
4.62927724e-18
1.01569966e-17
1.06123844e-17
9.85800321e-18
9.69618568e-18
1.3072134e-17
1.35214337e-17
1.1362565e-17
1.52565685e-17
1.08567218e-17
1.32836268e-17
1.08730124e-17
1.12797422e-17
1.05311013e-17
7.45142433e-18
6.62265722e-18
8.08403429e-18
9.30066594e-18
8.52458445e-18
7.58265672e-18
5.84454879e-18
2.46654432e-18
5.6125695e-18
6.83257964e-18
2.89109651e-18
5.54580367e-18
5.06267761e-18
3.9430713e-18
5.31526024e-18
8.38819957e-18
7.72802098e-18
8.36897978e-18
5.77495449e-18
4.63616776e-18
5.91442477e-18
3.1091089e-18
1.4800477e-18
-1.30288337e-18
1.38746263e-18
4.47145501e-18
1.74297682e-18
8.27236299e-19
7.83608234e-19
2.00227872e-18
3.07300072e-18
4.4591019e-18
3.09334513e-18
6.89099634e-18
2.63276192e-18
2.90834444e-18
9.46049278e-19
3.28928758e-18
3.54060682e-18
6.4755448e-18
5.39358423e-18
7.03126827e-18
6.84618389e-18
8.02347569e-18
1.03305462e-17
9.23171517e-18
8.56627009e-18
6.51559179e-18
1.00900441e-17
1.42116055e-17
9.57723869e-18
1.29197046e-17
1.20834555e-17
1.30097728e-17
1.38609649e-17
1.2757975e-17
1.27451874e-17
1.56119137e-17
1.38405736e-17
1.01976799e-17
1.35092038e-17
1.12806126e-17
1.28468408e-17
1.26131939e-17
9.42986114e-18
1.04467835e-17
9.51663668e-18
9.06832675e-18
7.26896162e-18
1.01426811e-17
9.08360474e-18
9.75992112e-18
9.57617929e-18
6.93935238e-18
7.53775805e-18
9.09195358e-18
1.25780726e-17
1.35662373e-17
1.22038966e-17
1.54759961e-17
1.58156694e-17
1.46734355e-17
1.64921351e-17
1.64476891e-17
1.30382671e-17
1.34147615e-17
1.4482982e-17
1.37317948e-17
1.85056338e-17
1.64904215e-17
1.55922342e-17
1.42351278e-17
1.4006746e-17
1.96794456e-17
2.07903999e-17
2.0366367e-17
2.14653858e-17
2.30980392e-17
2.47272875e-17
2.24703915e-17
2.50476458e-17
2.50072371e-17
2.25771e-17
2.30205652e-17
2.34555483e-17
2.50608143e-17
2.57923687e-17
2.23011447e-17
2.33547863e-17
2.18810737e-17
1.92553431e-17
1.59646534e-17
1.53220578e-17
1.42098428e-17
1.72281674e-17
1.76952484e-17
1.68456761e-17
1.81488786e-17
2.03076814e-17
2.13467048e-17
2.45054879e-17
2.46181904e-17
2.68720318e-17
2.84621837e-17
2.72083311e-17
2.71800171e-17
2.48471401e-17
2.14786408e-17
2.198795e-17
2.48281878e-17
2.32189731e-17
2.15985576e-17