/*--------------------------------*- C++ -*----------------------------------*\
| =========                 |                                                 |
| \\      /  F ield         | OpenFOAM: The Open Source CFD Toolbox           |
|  \\    /   O peration     | Version:  2206                                  |
|   \\  /    A nd           | Website:  www.openfoam.com                      |
|    \\/     M anipulation  |                                                 |
\*---------------------------------------------------------------------------*/
FoamFile
{
    version     2.0;
    format      ascii;
    arch        "LSB;label=32;scalar=64";
    class       volVectorField;
    location    "2.6e-06";
    object      U;
}
// * * * * * * * * * * * * * * * * * * * * * * * * * * * * * * * * * * * * * //

dimensions      [0 1 -1 0 0 0 0];

internalField   nonuniform List<vector> 
3183
(
(4.45227169e-14 0 0)
(-5.40557369e-15 0 0)
(-1.89614416e-14 0 0)
(-2.59377525e-14 0 0)
(-2.72932983e-14 0 0)
(-2.99243252e-19 0 0)
(-2.3571964e-20 0 0)
(-4.10856909e-25 0 0)
(1.30000102e-25 0 0)
(3.69351329e-24 0 0)
(1.58797806e-19 0 0)
(2.02448344e-18 0 0)
(1.07296143e-13 0 0)
(4.6489285e-14 0 0)
(-8.03671601e-14 0 0)
(-9.19193436e-14 0 0)
(9.2850458e-14 0 0)
(-1.22185066e-14 0 0)
(-2.65601203e-13 0 0)
(1.35190475e-14 0 0)
(1.80247572e-13 0 0)
(7.66712358e-18 0 0)
(7.73317816e-19 0 0)
(1.46299973e-19 0 0)
(3.32861769e-18 0 0)
(5.50962631e-14 0 0)
(2.76864489e-13 0 0)
(1.35498891e-14 0 0)
(-2.56635344e-13 0 0)
(-6.00844865e-14 0 0)
(-1.81532568e-13 0 0)
(8.30558413e-14 0 0)
(1.31067147e-13 0 0)
(-1.10312063e-13 0 0)
(2.69876684e-18 0 0)
(9.1582063e-14 0 0)
(-9.63982759e-14 0 0)
(-1.01421412e-13 0 0)
(1.06670313e-13 0 0)
(-3.74912551e-14 0 0)
(-2.36455923e-13 0 0)
(-2.07245724e-13 0 0)
(2.89890806e-14 0 0)
(1.37755022e-13 0 0)
(1.93231845e-13 0 0)
(1.52647061e-13 0 0)
(1.42675363e-13 0 0)
(3.74085199e-14 0 0)
(-1.18251782e-13 0 0)
(-1.45453774e-13 0 0)
(-3.09519407e-16 0 0)
(-1.14883143e-13 0 0)
(-1.44805257e-13 0 0)
(5.07272486e-14 0 0)
(1.33301737e-13 0 0)
(-2.75165913e-14 0 0)
(1.18687344e-13 0 0)
(-3.16253851e-14 0 0)
(-3.31281783e-14 0 0)
(1.08812891e-16 0 0)
(-2.17847936e-13 0 0)
(-1.91332688e-13 0 0)
(-8.10580683e-14 0 0)
(-4.19087134e-14 0 0)
(-4.37199932e-14 0 0)
(9.30797757e-14 0 0)
(4.99080115e-14 0 0)
(1.55063549e-13 0 0)
(3.26239463e-13 0 0)
(4.73306252e-15 0 0)
(3.58524065e-13 0 0)
(3.21085094e-13 0 0)
(2.70488431e-13 0 0)
(5.58324066e-13 0 0)
(5.18586869e-13 0 0)
(2.47672046e-13 0 0)
(3.27370713e-13 0 0)
(7.78528218e-13 0 0)
(5.53296099e-13 0 0)
(9.54556346e-13 0 0)
(1.09861021e-12 0 0)
(8.47081927e-13 0 0)
(1.19593366e-12 0 0)
(2.605923e-13 0 0)
(1.52432728e-13 0 0)
(6.09407097e-13 0 0)
(4.1111457e-13 0 0)
(7.51113265e-13 0 0)
(5.54615517e-13 0 0)
(5.29151881e-13 0 0)
(9.88153669e-13 0 0)
(8.41946291e-13 0 0)
(8.20107536e-14 0 0)
(-4.90805027e-13 0 0)
(3.03788802e-13 0 0)
(-4.44051634e-14 0 0)
(-1.05731306e-12 0 0)
(4.75604014e-13 0 0)
(-2.92451893e-13 0 0)
(-1.56068938e-13 0 0)
(-3.20121745e-13 0 0)
(2.35357494e-13 0 0)
(-9.17033548e-13 0 0)
(-1.97774109e-13 0 0)
(-6.65293197e-13 0 0)
(-2.25020909e-13 0 0)
(-1.4008836e-12 0 0)
(-1.23126807e-12 0 0)
(-1.02955281e-12 0 0)
(-6.68934278e-13 0 0)
(-7.81107005e-13 0 0)
(-9.04238408e-13 0 0)
(-9.95411318e-13 0 0)
(-6.78750581e-13 0 0)
(-4.17449514e-13 0 0)
(-1.47720999e-12 0 0)
(-1.19149615e-13 0 0)
(-3.03057569e-13 0 0)
(8.72557666e-13 0 0)
(2.38043532e-13 0 0)
(-1.35136062e-13 0 0)
(-4.7002841e-13 0 0)
(-2.42083746e-13 0 0)
(-3.67488509e-13 0 0)
(-2.72170747e-13 0 0)
(-8.32765135e-13 0 0)
(1.98725141e-13 0 0)
(-7.35196301e-13 0 0)
(-6.5350036e-13 0 0)
(-1.15789374e-12 0 0)
(3.71704537e-13 0 0)
(-6.75492364e-13 0 0)
(1.85665333e-14 0 0)
(-2.10148427e-13 0 0)
(3.2991488e-13 0 0)
(-6.03160978e-13 0 0)
(-8.12950374e-13 0 0)
(-2.00173295e-13 0 0)
(4.85706221e-14 0 0)
(-1.35435904e-14 0 0)
(3.18138473e-13 0 0)
(-7.5567022e-13 0 0)
(-9.09694792e-14 0 0)
(-5.57549757e-13 0 0)
(8.48315631e-14 0 0)
(8.4333372e-13 0 0)
(-3.49187549e-13 0 0)
(-2.87712468e-13 0 0)
(-7.70023098e-13 0 0)
(2.736976e-14 0 0)
(3.58727273e-13 0 0)
(-3.86247775e-13 0 0)
(-8.36922384e-14 0 0)
(1.01546101e-12 0 0)
(6.33089797e-13 0 0)
(5.9238014e-13 0 0)
(5.29000406e-13 0 0)
(4.88619013e-13 0 0)
(1.35412307e-12 0 0)
(7.30787318e-13 0 0)
(7.54312446e-13 0 0)
(1.49913531e-12 0 0)
(5.22873292e-14 0 0)
(2.85924466e-13 0 0)
(5.37506084e-13 0 0)
(1.40575386e-12 0 0)
(6.45918757e-13 0 0)
(3.39413062e-13 0 0)
(9.9687788e-13 0 0)
(8.32329536e-13 0 0)
(-1.48621496e-14 0 0)
(1.39210379e-12 0 0)
(6.03098027e-13 0 0)
(1.01315923e-12 0 0)
(3.82241449e-13 0 0)
(8.83230512e-13 0 0)
(1.57586465e-12 0 0)
(1.06232759e-12 0 0)
(6.60685837e-13 0 0)
(1.40592848e-12 0 0)
(6.09604237e-13 0 0)
(5.34777698e-13 0 0)
(6.00943677e-13 0 0)
(8.04743174e-13 0 0)
(1.59232984e-12 0 0)
(7.67150874e-13 0 0)
(1.17995154e-12 0 0)
(1.08479784e-12 0 0)
(9.54473651e-13 0 0)
(1.09658254e-12 0 0)
(1.14263645e-12 0 0)
(1.09896161e-12 0 0)
(-3.4656963e-14 0 0)
(1.26090116e-12 0 0)
(1.21718061e-12 0 0)
(9.7444508e-13 0 0)
(1.20420509e-12 0 0)
(7.63290461e-13 0 0)
(9.25844297e-13 0 0)
(2.07049341e-12 0 0)
(9.21620395e-13 0 0)
(-5.95553979e-14 0 0)
(9.79484662e-13 0 0)
(8.15485381e-13 0 0)
(5.7776678e-14 0 0)
(3.04468215e-13 0 0)
(-4.19860222e-13 0 0)
(1.15406548e-12 0 0)
(-7.98124043e-14 0 0)
(3.12376923e-13 0 0)
(-8.51373307e-14 0 0)
(6.46284523e-13 0 0)
(-5.10113366e-13 0 0)
(1.04651443e-12 0 0)
(-1.1185828e-13 0 0)
(4.23596344e-13 0 0)
(7.29995147e-13 0 0)
(-1.6609501e-13 0 0)
(1.3561334e-12 0 0)
(6.13989796e-13 0 0)
(-4.47739373e-13 0 0)
(7.07041461e-13 0 0)
(-1.57476404e-13 0 0)
(3.63330333e-13 0 0)
(1.06872018e-13 0 0)
(-1.14462422e-12 0 0)
(4.08847027e-13 0 0)
(4.40212038e-13 0 0)
(-1.25359921e-13 0 0)
(-7.907532e-14 0 0)
(2.68914184e-13 0 0)
(4.99862653e-13 0 0)
(-2.22467793e-13 0 0)
(5.59576545e-13 0 0)
(-1.9957642e-13 0 0)
(-6.00463041e-13 0 0)
(-5.43037337e-13 0 0)
(4.27289973e-13 0 0)
(-5.45228316e-13 0 0)
(1.17218392e-13 0 0)
(-2.70950148e-13 0 0)
(-5.5068807e-13 0 0)
(3.18789045e-13 0 0)
(5.7179891e-13 0 0)
(3.20990217e-14 0 0)
(-7.60631702e-13 0 0)
(1.1539022e-13 0 0)
(2.24967602e-13 0 0)
(3.8123816e-13 0 0)
(-1.21382606e-13 0 0)
(6.13349345e-13 0 0)
(-2.66042412e-13 0 0)
(3.61538316e-13 0 0)
(-2.24191234e-13 0 0)
(-1.66922118e-13 0 0)
(-2.19817389e-13 0 0)
(-2.49020877e-13 0 0)
(-3.66203292e-13 0 0)
(-3.33079637e-13 0 0)
(-1.34333236e-12 0 0)
(-5.57269664e-13 0 0)
(-6.01393307e-13 0 0)
(-1.14288604e-12 0 0)
(-1.23942692e-12 0 0)
(-1.18785694e-12 0 0)
(-1.88287425e-12 0 0)
(-1.1407064e-12 0 0)
(-1.14692673e-12 0 0)
(-1.82368841e-12 0 0)
(-1.76217866e-12 0 0)
(-1.56792364e-12 0 0)
(-1.60236985e-12 0 0)
(-2.24012976e-12 0 0)
(-1.27399114e-12 0 0)
(-2.0886831e-12 0 0)
(-1.63326557e-12 0 0)
(-1.81681024e-12 0 0)
(-1.45755186e-12 0 0)
(-2.02363622e-12 0 0)
(-1.58445339e-12 0 0)
(-1.74852177e-12 0 0)
(-1.85341555e-12 0 0)
(-1.80350548e-12 0 0)
(-1.44546996e-12 0 0)
(-1.88019838e-12 0 0)
(-1.72778978e-12 0 0)
(-2.56463274e-12 0 0)
(-1.74124336e-12 0 0)
(-3.23926338e-12 0 0)
(-2.10953171e-12 0 0)
(-2.56680191e-12 0 0)
(-2.14695665e-12 0 0)
(-2.49087729e-12 0 0)
(-2.57003101e-12 0 0)
(-2.94881452e-12 0 0)
(-2.53917585e-12 0 0)
(-2.76618577e-12 0 0)
(-3.59556492e-12 0 0)
(-2.87791657e-12 0 0)
(-4.19372954e-12 0 0)
(-1.87542719e-12 0 0)
(-2.80208874e-12 0 0)
(-2.7264957e-12 0 0)
(-2.8478303e-12 0 0)
(-3.6458118e-12 0 0)
(-3.830286e-12 0 0)
(-2.80228422e-12 0 0)
(-3.36220953e-12 0 0)
(-3.63151243e-12 0 0)
(-3.0227368e-12 0 0)
(-3.78579066e-12 0 0)
(-3.850829e-12 0 0)
(-3.49170533e-12 0 0)
(-3.39956788e-12 0 0)
(-3.2053123e-12 0 0)
(-3.41104619e-12 0 0)
(-3.57314013e-12 0 0)
(-3.3967738e-12 0 0)
(-2.80041942e-12 0 0)
(-3.00901168e-12 0 0)
(-3.3419786e-12 0 0)
(-3.9495952e-12 0 0)
(-4.59476163e-12 0 0)
(-3.31069194e-12 0 0)
(-4.0203085e-12 0 0)
(-3.38183078e-12 0 0)
(-3.51314496e-12 0 0)
(-3.74625268e-12 0 0)
(-3.5801134e-12 0 0)
(-3.70145759e-12 0 0)
(-2.94155212e-12 0 0)
(-3.01846045e-12 0 0)
(-2.78388405e-12 0 0)
(-3.61446627e-12 0 0)
(-2.84760023e-12 0 0)
(-2.68165126e-12 0 0)
(-2.33793679e-12 0 0)
(-3.28828812e-12 0 0)
(-3.15675628e-12 0 0)
(-2.33113743e-12 0 0)
(-2.8166115e-12 0 0)
(-3.24745406e-12 0 0)
(-3.09024405e-12 0 0)
(-2.29213804e-12 0 0)
(-2.48381012e-12 0 0)
(-2.96527148e-12 0 0)
(-4.04997335e-12 0 0)
(-2.46804005e-12 0 0)
(-3.10637278e-12 0 0)
(-3.41159328e-12 0 0)
(-3.48240081e-12 0 0)
(-2.20981258e-12 0 0)
(-3.8384065e-12 0 0)
(-3.05009365e-12 0 0)
(-3.23061395e-12 0 0)
(-3.0787961e-12 0 0)
(-3.94390756e-12 0 0)
(-3.52520823e-12 0 0)
(-4.08110083e-12 0 0)
(-3.53892344e-12 0 0)
(-2.82398914e-12 0 0)
(-3.66238383e-12 0 0)
(-3.98103304e-12 0 0)
(-3.84248608e-12 0 0)
(-2.84551131e-12 0 0)
(-3.45266292e-12 0 0)
(-3.07353099e-12 0 0)
(-3.6620163e-12 0 0)
(-2.41766388e-12 0 0)
(-2.19105457e-12 0 0)
(-1.78052883e-12 0 0)
(-2.64621614e-12 0 0)
(-1.85962262e-12 0 0)
(-2.79048216e-12 0 0)
(-1.94091279e-12 0 0)
(-2.17828677e-12 0 0)
(-1.68458274e-12 0 0)
(-2.04433532e-12 0 0)
(-2.11528078e-12 0 0)
(-3.2804967e-12 0 0)
(-1.99270764e-12 0 0)
(-1.68870203e-12 0 0)
(-2.08169889e-12 0 0)
(-3.08876986e-12 0 0)
(-2.11514448e-12 0 0)
(-1.85405178e-12 0 0)
(-1.95455805e-12 0 0)
(-2.1059516e-12 0 0)
(-2.25558574e-12 0 0)
(-1.85514685e-12 0 0)
(-2.42159552e-12 0 0)
(-1.50461585e-12 0 0)
(-1.12208892e-12 0 0)
(-1.21353982e-12 0 0)
(-6.55690476e-13 0 0)
(-2.97592624e-13 0 0)
(-1.05472088e-12 0 0)
(-1.56018419e-12 0 0)
(-1.95960618e-12 0 0)
(-3.32398398e-13 0 0)
(-3.12959098e-13 0 0)
(-9.11990285e-13 0 0)
(-1.00246367e-12 0 0)
(-9.00409145e-13 0 0)
(-1.324611e-12 0 0)
(-1.17865608e-12 0 0)
(-2.17049365e-13 0 0)
(-9.4395134e-13 0 0)
(-9.98651153e-13 0 0)
(-5.93940266e-13 0 0)
(-7.45706776e-14 0 0)
(-2.11491845e-13 0 0)
(-1.29265739e-13 0 0)
(-4.13144046e-13 0 0)
(2.07396111e-13 0 0)
(-7.10553195e-13 0 0)
(8.76896286e-14 0 0)
(2.84581852e-13 0 0)
(1.05971367e-12 0 0)
(9.25427912e-13 0 0)
(6.69268943e-13 0 0)
(-1.23160783e-13 0 0)
(7.29760109e-13 0 0)
(7.92286932e-13 0 0)
(-1.33200378e-13 0 0)
(-3.72866248e-14 0 0)
(1.0043034e-12 0 0)
(-3.61586494e-13 0 0)
(-8.00587289e-13 0 0)
(1.185138e-13 0 0)
(-2.00834705e-13 0 0)
(-7.66498409e-13 0 0)
(-3.13850027e-14 0 0)
(3.48529356e-13 0 0)
(-1.05656287e-14 0 0)
(-1.14070405e-12 0 0)
(-4.90529417e-13 0 0)
(2.26642241e-13 0 0)
(-8.76629261e-13 0 0)
(-3.12423376e-14 0 0)
(-1.0781983e-13 0 0)
(-3.44172863e-13 0 0)
(-8.18970762e-13 0 0)
(2.16462611e-13 0 0)
(-3.75872828e-14 0 0)
(2.52986105e-13 0 0)
(-4.22499121e-13 0 0)
(2.69706074e-13 0 0)
(-1.18565939e-12 0 0)
(3.92184793e-13 0 0)
(2.54888049e-14 0 0)
(2.71721333e-13 0 0)
(1.16398391e-12 0 0)
(1.64178531e-13 0 0)
(5.35561313e-13 0 0)
(-1.92813367e-13 0 0)
(5.76758857e-13 0 0)
(1.18019256e-12 0 0)
(9.08499818e-13 0 0)
(3.36308793e-13 0 0)
(8.38079892e-14 0 0)
(2.79827074e-13 0 0)
(9.05837079e-13 0 0)
(1.1912706e-13 0 0)
(6.88755401e-13 0 0)
(9.10969489e-13 0 0)
(2.69137954e-13 0 0)
(7.51828128e-13 0 0)
(8.05625653e-13 0 0)
(7.61080683e-13 0 0)
(4.77712778e-13 0 0)
(1.39907197e-12 0 0)
(-5.87669339e-13 0 0)
(1.15361209e-12 0 0)
(4.974086e-13 0 0)
(7.66264171e-13 0 0)
(9.70011457e-15 0 0)
(1.0803037e-12 0 0)
(7.14424198e-13 0 0)
(2.97334292e-13 0 0)
(5.12390329e-13 0 0)
(-3.29447018e-13 0 0)
(-6.28149817e-13 0 0)
(-5.97310063e-13 0 0)
(-6.01315631e-13 0 0)
(-3.96645235e-13 0 0)
(-4.7359531e-14 0 0)
(-3.75461982e-13 0 0)
(-9.36822319e-13 0 0)
(2.71305078e-15 0 0)
(-5.60292833e-13 0 0)
(-7.60881251e-14 0 0)
(-6.68787322e-13 0 0)
(-4.40978379e-13 0 0)
(-4.11295942e-14 0 0)
(-1.07793676e-12 0 0)
(-1.09431089e-12 0 0)
(-2.16071319e-13 0 0)
(-1.14426544e-12 0 0)
(-2.44976632e-14 0 0)
(3.5477047e-13 0 0)
(-1.1925826e-13 0 0)
(-3.53668797e-13 0 0)
(-1.63955116e-14 0 0)
(-2.7563593e-14 0 0)
(-5.17751593e-13 0 0)
(-8.62093354e-13 0 0)
(-3.9394294e-13 0 0)
(-1.33645501e-12 0 0)
(-6.72665099e-13 0 0)
(-8.71870366e-13 0 0)
(-1.14673342e-12 0 0)
(-2.94947085e-13 0 0)
(3.3757864e-13 0 0)
(-5.01025518e-13 0 0)
(-7.35174605e-13 0 0)
(-5.90136162e-13 0 0)
(-6.86802583e-13 0 0)
(-8.85057145e-13 0 0)
(-1.00159805e-12 0 0)
(-7.54839675e-13 0 0)
(-3.03401193e-14 0 0)
(-8.14641473e-13 0 0)
(-1.0418917e-12 0 0)
(-7.48700436e-13 0 0)
(-7.117827e-13 0 0)
(-1.57974284e-12 0 0)
(-2.52645227e-13 0 0)
(-4.07532344e-13 0 0)
(-8.98248589e-13 0 0)
(-1.53255465e-12 0 0)
(-6.38219481e-13 0 0)
(-1.60778289e-12 0 0)
(-7.74572738e-13 0 0)
(-1.06647057e-12 0 0)
(-3.43173424e-13 0 0)
(-1.43284182e-12 0 0)
(-1.76841655e-12 0 0)
(-5.06266077e-13 0 0)
(-2.61345012e-13 0 0)
(-5.09934159e-13 0 0)
(-7.5244007e-14 0 0)
(-4.95843647e-13 0 0)
(-6.42643374e-13 0 0)
(1.65634071e-13 0 0)
(-6.762418e-14 0 0)
(-7.48901249e-13 0 0)
(-5.21320041e-13 0 0)
(-5.04888603e-13 0 0)
(-1.11471963e-13 0 0)
(-4.14395622e-13 0 0)
(-3.59117266e-13 0 0)
(-7.00997102e-13 0 0)
(3.74833983e-13 0 0)
(-2.05458721e-13 0 0)
(-8.17820428e-13 0 0)
(1.79091375e-13 0 0)
(1.08526732e-14 0 0)
(-4.86484155e-13 0 0)
(9.22925418e-14 0 0)
(-1.33583099e-13 0 0)
(-6.15628604e-13 0 0)
(1.09095901e-13 0 0)
(-9.19329703e-14 0 0)
(7.54025101e-13 0 0)
(-1.8910202e-13 0 0)
(8.68994982e-13 0 0)
(3.22148764e-13 0 0)
(9.16956292e-13 0 0)
(1.75599512e-12 0 0)
(1.08487451e-12 0 0)
(1.10383199e-12 0 0)
(1.59332495e-12 0 0)
(1.62969143e-12 0 0)
(1.36585703e-12 0 0)
(1.47964695e-12 0 0)
(1.72060453e-12 0 0)
(9.73779278e-13 0 0)
(1.66589728e-12 0 0)
(1.59684318e-12 0 0)
(1.1403307e-12 0 0)
(1.5756039e-12 0 0)
(1.72485876e-12 0 0)
(1.03206837e-12 0 0)
(1.81996072e-12 0 0)
(2.25762466e-12 0 0)
(1.90652964e-12 0 0)
(1.39517039e-12 0 0)
(1.37219797e-12 0 0)
(2.25437562e-12 0 0)
(1.43783591e-12 0 0)
(2.36986596e-12 0 0)
(1.05077932e-12 0 0)
(1.63021397e-12 0 0)
(1.28422833e-12 0 0)
(1.42728367e-12 0 0)
(1.68097559e-12 0 0)
(1.18471137e-12 0 0)
(1.26601297e-12 0 0)
(1.83553649e-12 0 0)
(1.24015077e-12 0 0)
(1.30452757e-12 0 0)
(2.25103768e-12 0 0)
(1.77249497e-12 0 0)
(8.07374866e-13 0 0)
(1.23806198e-12 0 0)
(1.30234772e-12 0 0)
(1.32046391e-12 0 0)
(1.6832764e-12 0 0)
(1.07460639e-12 0 0)
(3.14124479e-13 0 0)
(2.8569211e-13 0 0)
(5.49640997e-13 0 0)
(-4.89000943e-13 0 0)
(5.53855862e-13 0 0)
(2.31872374e-13 0 0)
(-7.53376528e-15 0 0)
(3.90051403e-13 0 0)
(3.40625241e-13 0 0)
(9.07168963e-13 0 0)
(5.57286988e-13 0 0)
(1.32027736e-12 0 0)
(6.87880838e-13 0 0)
(5.60926276e-13 0 0)
(4.00430433e-13 0 0)
(6.12672705e-13 0 0)
(7.96148113e-13 0 0)
(5.96991566e-13 0 0)
(2.78047515e-13 0 0)
(1.10971181e-12 0 0)
(-1.08161266e-13 0 0)
(6.03865741e-13 0 0)
(1.32460805e-12 0 0)
(1.1607739e-12 0 0)
(7.80761515e-13 0 0)
(5.64525962e-13 0 0)
(1.63701281e-13 0 0)
(4.29201224e-13 0 0)
(2.24885934e-13 0 0)
(3.66597672e-13 0 0)
(2.86805603e-13 0 0)
(3.14990728e-13 0 0)
(2.37822195e-13 0 0)
(2.1810486e-13 0 0)
(1.50737747e-13 0 0)
(6.07421139e-13 0 0)
(-4.39010536e-14 0 0)
(-6.62441616e-13 0 0)
(-5.22511675e-13 0 0)
(-1.03716985e-13 0 0)
(1.56177726e-13 0 0)
(-7.39694159e-13 0 0)
(1.6327821e-13 0 0)
(7.44513596e-13 0 0)
(-2.96412631e-13 0 0)
(6.89914535e-13 0 0)
(3.66346785e-13 0 0)
(-3.85999164e-13 0 0)
(-4.41293714e-13 0 0)
(-6.54347023e-13 0 0)
(-7.48592338e-13 0 0)
(-6.13239369e-13 0 0)
(-1.36828383e-12 0 0)
(-1.81326562e-12 0 0)
(-1.98416583e-12 0 0)
(-1.45066771e-12 0 0)
(-1.46997379e-12 0 0)
(-7.71994823e-13 0 0)
(-1.1120933e-12 0 0)
(-1.14088838e-12 0 0)
(-1.03234926e-12 0 0)
(-7.41942316e-13 0 0)
(-5.80702391e-13 0 0)
(-7.42572409e-13 0 0)
(-1.04538224e-12 0 0)
(-6.24745187e-13 0 0)
(-1.02207387e-12 0 0)
(1.8441821e-13 0 0)
(-4.76459815e-13 0 0)
(-7.76733901e-13 0 0)
(-1.09116509e-12 0 0)
(-2.12945535e-13 0 0)
(-2.85181326e-13 0 0)
(7.61739497e-13 0 0)
(7.831228e-13 0 0)
(8.72934408e-13 0 0)
(6.26107251e-13 0 0)
(9.16641939e-14 0 0)
(7.00860322e-13 0 0)
(3.89248595e-13 0 0)
(9.92483949e-14 0 0)
(7.00949252e-13 0 0)
(9.58711057e-13 0 0)
(1.0749669e-12 0 0)
(6.41704854e-13 0 0)
(1.46268871e-12 0 0)
(1.33679066e-12 0 0)
(1.41381682e-12 0 0)
(3.83808734e-13 0 0)
(2.24591487e-12 0 0)
(1.80067631e-12 0 0)
(2.1491204e-12 0 0)
(2.05704753e-12 0 0)
(2.90486405e-12 0 0)
(1.95908174e-12 0 0)
(2.13503044e-12 0 0)
(1.71879593e-12 0 0)
(1.54695805e-12 0 0)
(1.73882575e-12 0 0)
(2.35370476e-12 0 0)
(2.16126979e-12 0 0)
(2.68781493e-12 0 0)
(3.06821182e-12 0 0)
(3.0015911e-12 0 0)
(2.75879546e-12 0 0)
(2.39489784e-12 0 0)
(2.49653263e-12 0 0)
(2.43914073e-12 0 0)
(1.80524179e-12 0 0)
(2.32007927e-12 0 0)
(2.30396538e-12 0 0)
(2.76846773e-12 0 0)
(3.67881818e-12 0 0)
(2.47337273e-12 0 0)
(3.07614078e-12 0 0)
(3.01845739e-12 0 0)
(2.68084684e-12 0 0)
(2.25673209e-12 0 0)
(3.48805103e-12 0 0)
(3.09604912e-12 0 0)
(1.99439702e-12 0 0)
(2.83612576e-12 0 0)
(2.18717947e-12 0 0)
(2.21627217e-12 0 0)
(1.7210332e-12 0 0)
(2.64327776e-12 0 0)
(2.66204449e-12 0 0)
(2.30175462e-12 0 0)
(2.73975716e-12 0 0)
(2.20897062e-12 0 0)
(1.71478054e-12 0 0)
(1.25379888e-12 0 0)
(1.53466276e-12 0 0)
(9.02915729e-13 0 0)
(1.70497323e-12 0 0)
(2.00461462e-12 0 0)
(2.51751108e-12 0 0)
(2.00870278e-12 0 0)
(1.53933627e-12 0 0)
(2.03480509e-12 0 0)
(9.79990525e-13 0 0)
(1.92544026e-12 0 0)
(2.24011999e-12 0 0)
(1.12592934e-12 0 0)
(2.49414014e-12 0 0)
(1.34341359e-12 0 0)
(2.29301989e-12 0 0)
(1.29891929e-12 0 0)
(1.44798753e-12 0 0)
(1.40080284e-12 0 0)
(7.33689265e-13 0 0)
(1.07237566e-12 0 0)
(8.94336311e-13 0 0)
(7.7173956e-13 0 0)
(1.49480533e-12 0 0)
(4.2938084e-13 0 0)
(4.60392919e-13 0 0)
(-7.55357894e-14 0 0)
(8.73755777e-13 0 0)
(8.33255164e-14 0 0)
(6.03030004e-13 0 0)
(-2.91725673e-13 0 0)
(-5.01524416e-13 0 0)
(4.59090317e-13 0 0)
(-4.31893524e-13 0 0)
(2.14176708e-13 0 0)
(-1.11015265e-12 0 0)
(-7.98772651e-13 0 0)
(-9.74053544e-13 0 0)
(-8.40151659e-13 0 0)
(-4.16973008e-13 0 0)
(-1.30334715e-12 0 0)
(-3.63717954e-13 0 0)
(-1.49883735e-12 0 0)
(-9.43218713e-13 0 0)
(-1.39440287e-12 0 0)
(-1.33546551e-12 0 0)
(-6.1801319e-14 0 0)
(-1.69128071e-13 0 0)
(-4.74390507e-13 0 0)
(-2.61441905e-13 0 0)
(-9.39302095e-13 0 0)
(-5.96694855e-13 0 0)
(-7.50583777e-13 0 0)
(-1.84667957e-12 0 0)
(-8.10292777e-13 0 0)
(-1.17744237e-12 0 0)
(-5.0412152e-13 0 0)
(-7.68077517e-13 0 0)
(-8.8494908e-13 0 0)
(-1.27666984e-12 0 0)
(-8.91407702e-13 0 0)
(-1.80936199e-12 0 0)
(-1.69159716e-12 0 0)
(-1.22249246e-12 0 0)
(-1.14609385e-12 0 0)
(-5.23078356e-13 0 0)
(-1.26848912e-12 0 0)
(-1.05200234e-12 0 0)
(-1.21718283e-12 0 0)
(-1.34087653e-12 0 0)
(-1.39695597e-12 0 0)
(-6.34581722e-13 0 0)
(-6.14366977e-13 0 0)
(-1.40042047e-12 0 0)
(-6.10958875e-13 0 0)
(-3.57763798e-13 0 0)
(-7.42642012e-13 0 0)
(-7.01387e-13 0 0)
(-2.8654844e-13 0 0)
(3.06143586e-13 0 0)
(5.57572819e-13 0 0)
(2.44142363e-14 0 0)
(4.32107685e-13 0 0)
(2.89615232e-13 0 0)
(4.41710104e-13 0 0)
(4.09418539e-13 0 0)
(5.17258066e-13 0 0)
(1.58169849e-14 0 0)
(3.66765592e-13 0 0)
(1.74222227e-13 0 0)
(2.60317954e-13 0 0)
(-3.2482906e-13 0 0)
(8.74482445e-13 0 0)
(3.76772445e-13 0 0)
(7.23762176e-13 0 0)
(-1.26799009e-13 0 0)
(4.02081663e-13 0 0)
(4.93651665e-13 0 0)
(-3.42060351e-13 0 0)
(-7.82529927e-13 0 0)
(-4.50492297e-13 0 0)
(-4.51613365e-14 0 0)
(8.75958706e-13 0 0)
(-5.85594584e-13 0 0)
(6.3784461e-13 0 0)
(2.12588699e-13 0 0)
(8.77507765e-13 0 0)
(8.22449971e-14 0 0)
(9.11784879e-13 0 0)
(1.05057353e-12 0 0)
(4.56587786e-13 0 0)
(1.11854274e-15 0 0)
(5.26495778e-13 0 0)
(8.0508547e-13 0 0)
(-1.34743843e-12 0 0)
(-9.03235053e-13 0 0)
(-3.28110588e-13 0 0)
(2.29109368e-13 0 0)
(-4.10308827e-13 0 0)
(-7.03674693e-14 0 0)
(-2.75585203e-13 0 0)
(-1.05889954e-12 0 0)
(-2.37169166e-14 0 0)
(-3.12508914e-13 0 0)
(3.89875323e-13 0 0)
(-6.60332173e-13 0 0)
(1.95175018e-13 0 0)
(3.8236503e-13 0 0)
(-5.00698861e-13 0 0)
(-5.36990184e-13 0 0)
(-5.27970612e-14 0 0)
(-7.6812418e-13 0 0)
(-2.86303575e-13 0 0)
(1.63938111e-13 0 0)
(-5.73479535e-13 0 0)
(-1.23295684e-12 0 0)
(-7.63699361e-13 0 0)
(-1.41479951e-14 0 0)
(3.70613736e-13 0 0)
(-1.81769415e-15 0 0)
(-2.90746421e-13 0 0)
(-2.40234231e-13 0 0)
(-3.95326311e-13 0 0)
(6.46017378e-13 0 0)
(-1.09675734e-13 0 0)
(5.67459868e-13 0 0)
(-1.27090038e-12 0 0)
(-1.29672289e-12 0 0)
(-4.41434041e-13 0 0)
(-5.08050413e-13 0 0)
(-4.31415162e-13 0 0)
(1.66247675e-13 0 0)
(-6.5078688e-13 0 0)
(4.63744369e-15 0 0)
(4.44029276e-13 0 0)
(1.10757404e-12 0 0)
(6.95645387e-13 0 0)
(-2.06513304e-13 0 0)
(8.09722378e-13 0 0)
(9.00188895e-13 0 0)
(8.85558173e-13 0 0)
(6.88637992e-13 0 0)
(8.45417684e-13 0 0)
(1.62418881e-13 0 0)
(6.74551959e-13 0 0)
(5.94406341e-14 0 0)
(1.45247731e-12 0 0)
(4.96600606e-13 0 0)
(9.79352606e-13 0 0)
(-8.07760813e-13 0 0)
(-5.25452582e-13 0 0)
(3.64711679e-13 0 0)
(3.92152286e-13 0 0)
(1.26326015e-13 0 0)
(2.91773068e-14 0 0)
(-2.95406135e-13 0 0)
(1.58116665e-14 0 0)
(-2.99111967e-13 0 0)
(3.11974438e-13 0 0)
(-7.29562219e-13 0 0)
(6.18886234e-13 0 0)
(5.39154408e-13 0 0)
(1.50766078e-13 0 0)
(-1.03280464e-13 0 0)
(1.10201659e-13 0 0)
(-9.79172736e-14 0 0)
(5.08756834e-13 0 0)
(2.08566662e-13 0 0)
(-3.04107442e-13 0 0)
(7.77801079e-13 0 0)
(6.61487249e-13 0 0)
(2.24179404e-13 0 0)
(6.46496103e-13 0 0)
(6.58679628e-13 0 0)
(7.76468116e-13 0 0)
(1.13250219e-13 0 0)
(1.97966211e-13 0 0)
(7.30397655e-13 0 0)
(6.92446674e-13 0 0)
(1.05752665e-12 0 0)
(3.09299964e-13 0 0)
(1.60186761e-12 0 0)
(5.30720644e-13 0 0)
(3.21789551e-13 0 0)
(8.19067554e-13 0 0)
(1.15683693e-12 0 0)
(1.08540557e-12 0 0)
(6.47060959e-13 0 0)
(1.34901371e-12 0 0)
(7.73182189e-13 0 0)
(6.97900327e-13 0 0)
(5.9481707e-13 0 0)
(6.3336751e-13 0 0)
(9.70817176e-13 0 0)
(7.23929448e-13 0 0)
(1.12479574e-12 0 0)
(5.31950189e-13 0 0)
(4.71028606e-13 0 0)
(5.3331751e-13 0 0)
(9.03528473e-13 0 0)
(1.98436505e-12 0 0)
(2.11385334e-12 0 0)
(1.21766427e-12 0 0)
(1.75784465e-12 0 0)
(2.34990023e-12 0 0)
(2.30379094e-12 0 0)
(2.51975132e-12 0 0)
(2.63342069e-12 0 0)
(2.78363638e-12 0 0)
(2.36828767e-12 0 0)
(3.03998478e-12 0 0)
(1.98964609e-12 0 0)
(2.83057474e-12 0 0)
(2.22907557e-12 0 0)
(2.66342646e-12 0 0)
(2.28925187e-12 0 0)
(2.8543727e-12 0 0)
(1.87123633e-12 0 0)
(2.81832477e-12 0 0)
(1.87632521e-12 0 0)
(2.5122191e-12 0 0)
(3.13884512e-12 0 0)
(3.03064862e-12 0 0)
(2.40756431e-12 0 0)
(2.32252459e-12 0 0)
(3.15138299e-12 0 0)
(3.49157021e-12 0 0)
(2.13685465e-12 0 0)
(2.78157135e-12 0 0)
(3.33576499e-12 0 0)
(3.0910745e-12 0 0)
(3.75950295e-12 0 0)
(2.74186745e-12 0 0)
(2.92490975e-12 0 0)
(1.83471374e-12 0 0)
(2.3006656e-12 0 0)
(1.81929196e-12 0 0)
(3.5609678e-12 0 0)
(2.74066849e-12 0 0)
(2.77549715e-12 0 0)
(2.94354424e-12 0 0)
(2.73651927e-12 0 0)
(1.6708139e-12 0 0)
(2.53759361e-12 0 0)
(2.12775591e-12 0 0)
(2.77147225e-12 0 0)
(1.41256398e-12 0 0)
(2.56557426e-12 0 0)
(1.69601069e-12 0 0)
(1.81887181e-12 0 0)
(1.82161696e-12 0 0)
(1.49764006e-12 0 0)
(1.61309446e-12 0 0)
(1.19460492e-12 0 0)
(1.50470731e-12 0 0)
(1.238268e-12 0 0)
(1.87330316e-12 0 0)
(1.44836103e-12 0 0)
(2.38000073e-12 0 0)
(1.23054228e-12 0 0)
(9.80362094e-13 0 0)
(9.73461281e-13 0 0)
(1.24599559e-12 0 0)
(2.20251164e-12 0 0)
(1.74371371e-12 0 0)
(2.08918299e-12 0 0)
(1.9041268e-12 0 0)
(1.17095911e-12 0 0)
(8.55862117e-13 0 0)
(8.73114458e-13 0 0)
(7.40208132e-13 0 0)
(1.09302874e-12 0 0)
(3.87551603e-13 0 0)
(3.31304633e-13 0 0)
(1.12844888e-13 0 0)
(1.5631398e-12 0 0)
(4.97089819e-13 0 0)
(-1.10379366e-13 0 0)
(9.50196547e-13 0 0)
(6.37733815e-13 0 0)
(5.99984649e-13 0 0)
(2.84245595e-13 0 0)
(1.54016942e-12 0 0)
(1.4676005e-12 0 0)
(1.1961053e-12 0 0)
(1.28724024e-12 0 0)
(1.12656418e-12 0 0)
(1.06773702e-12 0 0)
(1.64294915e-12 0 0)
(1.05112996e-12 0 0)
(2.08783424e-12 0 0)
(1.10818374e-12 0 0)
(2.16165857e-12 0 0)
(5.42076556e-13 0 0)
(7.06209065e-13 0 0)
(2.01513499e-12 0 0)
(3.24017484e-12 0 0)
(1.44922402e-12 0 0)
(2.84560466e-12 0 0)
(1.27352956e-12 0 0)
(1.26393461e-12 0 0)
(2.59762163e-12 0 0)
(2.59334705e-12 0 0)
(1.59141127e-12 0 0)
(1.28053319e-12 0 0)
(1.96356493e-12 0 0)
(1.50408868e-12 0 0)
(1.5789551e-12 0 0)
(1.61957967e-12 0 0)
(2.20111383e-12 0 0)
(9.12855703e-13 0 0)
(9.60241119e-13 0 0)
(1.25323839e-12 0 0)
(2.50962429e-12 0 0)
(8.66605278e-13 0 0)
(7.54268162e-13 0 0)
(1.46727244e-12 0 0)
(1.55557106e-12 0 0)
(1.06710319e-12 0 0)
(1.42662276e-12 0 0)
(1.25823713e-12 0 0)
(7.08310844e-13 0 0)
(3.54257128e-13 0 0)
(1.32310676e-12 0 0)
(8.77939804e-13 0 0)
(7.08254302e-13 0 0)
(1.15937867e-12 0 0)
(6.44070749e-13 0 0)
(2.28986714e-14 0 0)
(2.21271131e-13 0 0)
(1.17713164e-12 0 0)
(1.17905967e-12 0 0)
(3.15259089e-13 0 0)
(-4.88290794e-14 0 0)
(5.72957126e-13 0 0)
(4.13767711e-13 0 0)
(1.01412212e-12 0 0)
(5.23286203e-13 0 0)
(-6.8342012e-13 0 0)
(-9.04148018e-14 0 0)
(-2.24514448e-13 0 0)
(-1.09915705e-13 0 0)
(-1.27378687e-12 0 0)
(-9.13330849e-14 0 0)
(-9.71905477e-14 0 0)
(-1.84614915e-13 0 0)
(-2.80642188e-13 0 0)
(3.71958951e-13 0 0)
(5.66958931e-15 0 0)
(-5.79242632e-13 0 0)
(-9.06481463e-14 0 0)
(-5.57994793e-13 0 0)
(-7.49491055e-14 0 0)
(1.26205549e-13 0 0)
(-6.44648968e-13 0 0)
(-7.53380274e-13 0 0)
(2.04469905e-13 0 0)
(-1.39598379e-12 0 0)
(-1.35160599e-12 0 0)
(-3.39345778e-13 0 0)
(-5.35201162e-13 0 0)
(-1.73279049e-12 0 0)
(-9.66554063e-13 0 0)
(-1.31344468e-12 0 0)
(-1.91961887e-12 0 0)
(-1.14510009e-12 0 0)
(-1.42248917e-12 0 0)
(-2.04229074e-12 0 0)
(-2.19268696e-12 0 0)
(-1.2910514e-12 0 0)
(-1.92728057e-12 0 0)
(-3.51292735e-12 0 0)
(-2.30198241e-12 0 0)
(-2.37478458e-12 0 0)
(-3.3616398e-12 0 0)
(-3.46619332e-12 0 0)
(-2.25750875e-12 0 0)
(-2.64999003e-12 0 0)
(-1.89546133e-12 0 0)
(-1.56119672e-12 0 0)
(-1.74572075e-12 0 0)
(-1.39721569e-12 0 0)
(-1.02937381e-12 0 0)
(-4.3220983e-13 0 0)
(-5.836534e-13 0 0)
(-1.62381945e-12 0 0)
(-6.04840118e-13 0 0)
(-4.62788562e-13 0 0)
(-7.1580459e-13 0 0)
(-5.954542e-13 0 0)
(-4.0801141e-13 0 0)
(-9.06296282e-13 0 0)
(-5.78089266e-13 0 0)
(1.43671278e-13 0 0)
(1.85498447e-13 0 0)
(9.07322776e-13 0 0)
(-3.11458014e-13 0 0)
(-1.18190803e-13 0 0)
(-5.29556944e-13 0 0)
(-8.36191126e-13 0 0)
(-1.19478052e-12 0 0)
(-7.63270403e-13 0 0)
(-4.43991824e-13 0 0)
(-7.91236249e-13 0 0)
(-5.54550091e-13 0 0)
(-3.55666105e-13 0 0)
(2.78345813e-13 0 0)
(-6.24110793e-13 0 0)
(-1.88484667e-13 0 0)
(-4.24312027e-13 0 0)
(-7.75365349e-14 0 0)
(-1.27196368e-12 0 0)
(-1.70211122e-12 0 0)
(-7.12587259e-13 0 0)
(-9.08004191e-13 0 0)
(-1.67459351e-12 0 0)
(-1.65098973e-12 0 0)
(-4.1453273e-13 0 0)
(-1.2667875e-12 0 0)
(-1.37923815e-12 0 0)
(-1.17043963e-12 0 0)
(-1.32909952e-12 0 0)
(-9.66992973e-13 0 0)
(-1.16191067e-12 0 0)
(-3.17203048e-13 0 0)
(-3.93242187e-13 0 0)
(-9.14101371e-13 0 0)
(-9.5339603e-13 0 0)
(-1.5166441e-12 0 0)
(-1.01039547e-12 0 0)
(-7.12342916e-13 0 0)
(-1.40966281e-12 0 0)
(-6.16385064e-13 0 0)
(-6.77487113e-13 0 0)
(-1.46097022e-12 0 0)
(-1.37325767e-12 0 0)
(-1.8777157e-12 0 0)
(-1.96600206e-12 0 0)
(-2.21197795e-12 0 0)
(-1.32769687e-12 0 0)
(-1.72393356e-12 0 0)
(-1.74714036e-12 0 0)
(-2.27541019e-12 0 0)
(-2.00106207e-12 0 0)
(-1.29571264e-12 0 0)
(-1.8357951e-12 0 0)
(-1.74898877e-12 0 0)
(-1.98099764e-12 0 0)
(-1.7145263e-12 0 0)
(-1.69564253e-12 0 0)
(-2.602157e-12 0 0)
(-2.29432085e-12 0 0)
(-1.98433395e-12 0 0)
(-2.44226412e-12 0 0)
(-2.75253318e-12 0 0)
(-2.58245085e-12 0 0)
(-3.64299117e-12 0 0)
(-3.36938109e-12 0 0)
(-2.12478829e-12 0 0)
(-1.9043223e-12 0 0)
(-3.14542158e-12 0 0)
(-2.21205117e-12 0 0)
(-2.85133479e-12 0 0)
(-1.49566852e-12 0 0)
(-2.43151543e-12 0 0)
(-2.72265551e-12 0 0)
(-2.05297965e-12 0 0)
(-3.08554911e-12 0 0)
(-2.16524113e-12 0 0)
(-2.37217963e-12 0 0)
(-2.01370061e-12 0 0)
(-3.29518614e-12 0 0)
(-1.66126361e-12 0 0)
(-2.74604863e-12 0 0)
(-3.00425656e-12 0 0)
(-2.06367456e-12 0 0)
(-1.72608747e-12 0 0)
(-2.12254576e-12 0 0)
(-2.52485662e-12 0 0)
(-2.63083556e-12 0 0)
(-2.49065467e-12 0 0)
(-2.74263147e-12 0 0)
(-2.89202682e-12 0 0)
(-1.50513923e-12 0 0)
(-1.75146799e-12 0 0)
(-2.4468837e-12 0 0)
(-2.3358149e-12 0 0)
(-1.91777168e-12 0 0)
(-2.88185758e-12 0 0)
(-1.2168305e-12 0 0)
(-2.44192249e-12 0 0)
(-1.57388611e-12 0 0)
(-2.52452309e-12 0 0)
(-2.35004773e-12 0 0)
(-2.14487047e-12 0 0)
(-2.07681299e-12 0 0)
(-2.20302129e-12 0 0)
(-1.6637474e-12 0 0)
(-2.42478509e-12 0 0)
(-2.26261647e-12 0 0)
(-2.21322371e-12 0 0)
(-2.60793127e-12 0 0)
(-1.89417473e-12 0 0)
(-2.21621404e-12 0 0)
(-2.09682306e-12 0 0)
(-1.60402242e-12 0 0)
(-2.21733021e-12 0 0)
(-1.52928961e-12 0 0)
(-1.80674687e-12 0 0)
(-2.00235047e-12 0 0)
(-2.32354075e-12 0 0)
(-8.5916849e-13 0 0)
(-4.65708481e-13 0 0)
(-1.03297934e-12 0 0)
(-1.36058526e-12 0 0)
(-1.57153594e-12 0 0)
(-1.09652457e-12 0 0)
(-1.18946853e-12 0 0)
(-7.54273893e-13 0 0)
(-9.43006512e-13 0 0)
(-4.78181743e-13 0 0)
(-4.39336464e-13 0 0)
(-5.64150853e-13 0 0)
(-5.20955486e-13 0 0)
(-5.375729e-13 0 0)
(-1.77915795e-13 0 0)
(-4.65227085e-13 0 0)
(-4.90592532e-13 0 0)
(-6.24426977e-13 0 0)
(-5.50933881e-13 0 0)
(-2.16815646e-13 0 0)
(1.71268544e-13 0 0)
(3.76132766e-13 0 0)
(2.94850401e-13 0 0)
(1.25715993e-12 0 0)
(1.33774789e-12 0 0)
(-1.31264949e-13 0 0)
(4.83971266e-13 0 0)
(7.47192302e-13 0 0)
(8.78228623e-15 0 0)
(1.69555424e-13 0 0)
(7.5964681e-13 0 0)
(2.20007344e-13 0 0)
(-3.2444945e-14 0 0)
(4.18694675e-13 0 0)
(1.19081039e-12 0 0)
(-8.36257174e-13 0 0)
(7.67136527e-13 0 0)
(1.33304302e-12 0 0)
(1.46870856e-13 0 0)
(-7.34373993e-13 0 0)
(-5.28959269e-13 0 0)
(-1.3680239e-12 0 0)
(9.94382799e-14 0 0)
(-6.80750094e-13 0 0)
(-1.12389608e-13 0 0)
(4.13487244e-13 0 0)
(3.68064145e-14 0 0)
(-8.60231044e-13 0 0)
(3.99644456e-13 0 0)
(-2.99392419e-13 0 0)
(-4.33649229e-13 0 0)
(-5.76311981e-13 0 0)
(-8.97942868e-13 0 0)
(5.24980709e-14 0 0)
(-6.10581028e-13 0 0)
(2.08449749e-13 0 0)
(-1.68505069e-13 0 0)
(3.20403676e-13 0 0)
(-4.06845211e-13 0 0)
(-3.40984572e-13 0 0)
(-8.72079472e-13 0 0)
(-1.0079017e-13 0 0)
(-1.16759833e-13 0 0)
(-2.51577511e-13 0 0)
(1.41059604e-13 0 0)
(1.12382418e-12 0 0)
(4.65396584e-13 0 0)
(4.89732587e-14 0 0)
(-2.55200512e-13 0 0)
(1.28351861e-12 0 0)
(6.29964268e-13 0 0)
(6.73325105e-13 0 0)
(3.25257958e-13 0 0)
(5.71389238e-13 0 0)
(6.34355629e-13 0 0)
(1.08281687e-12 0 0)
(-2.18960971e-13 0 0)
(-6.4896961e-14 0 0)
(5.28521342e-13 0 0)
(-2.54295458e-13 0 0)
(1.97132618e-13 0 0)
(3.05636731e-14 0 0)
(8.85362994e-14 0 0)
(6.35770061e-13 0 0)
(7.04297631e-13 0 0)
(-7.98569165e-13 0 0)
(5.19487046e-13 0 0)