/*--------------------------------*- C++ -*----------------------------------*\
| =========                 |                                                 |
| \\      /  F ield         | OpenFOAM: The Open Source CFD Toolbox           |
|  \\    /   O peration     | Version:  2206                                  |
|   \\  /    A nd           | Website:  www.openfoam.com                      |
|    \\/     M anipulation  |                                                 |
\*---------------------------------------------------------------------------*/
FoamFile
{
    version     2.0;
    format      ascii;
    arch        "LSB;label=32;scalar=64";
    class       surfaceScalarField;
    location    "1.56e-05";
    object      phi;
}
// * * * * * * * * * * * * * * * * * * * * * * * * * * * * * * * * * * * * * //

dimensions      [1 0 -1 0 0 0 0];

oriented        oriented;

internalField   nonuniform List<scalar> 
3182
(
5.55462242e-18
-2.18265845e-18
-2.24768115e-18
-2.12555256e-18
-6.9955506e-21
-3.74170229e-23
-2.63866659e-24
6.56972996e-26
5.35625238e-24
9.26527915e-23
1.20454497e-19
4.13877983e-18
3.63728564e-18
8.56650791e-19
1.33540341e-18
-1.23837048e-18
-4.59614164e-18
-4.8075737e-18
-4.83060634e-18
4.25049616e-18
7.1090091e-20
2.29859981e-21
1.28597167e-18
2.41644475e-18
4.13269139e-18
3.41389946e-18
7.56616128e-18
1.99672251e-18
-1.85558876e-19
2.73089832e-19
-9.92559043e-19
-1.52602564e-18
-5.75893363e-18
-6.9230389e-18
-3.79847455e-18
-5.7230347e-18
-6.36562437e-18
-6.45333972e-18
-8.03262455e-18
-5.15797587e-18
-3.24199519e-18
-4.14474464e-19
2.71306146e-18
4.95420753e-18
5.99985971e-18
7.2651256e-18
9.63934718e-18
1.09414384e-17
1.13819371e-17
1.18323496e-17
1.06378534e-17
8.2823661e-18
5.21398123e-18
2.83171436e-18
-4.24066653e-19
-3.44223919e-18
-6.27396273e-18
-9.08384608e-18
-1.14909991e-17
-1.47583429e-17
-1.77875715e-17
-1.93474063e-17
-2.19970067e-17
-2.49882798e-17
-2.60101997e-17
-2.79674576e-17
-2.92823461e-17
-3.20852226e-17
-3.34003221e-17
-3.39134149e-17
-3.51655703e-17
-3.58336028e-17
-3.55107831e-17
-3.5257285e-17
-3.65770466e-17
-3.69990745e-17
-3.83933639e-17
-3.57741903e-17
-3.62657343e-17
-3.61424032e-17
-3.66630002e-17
-3.82709241e-17
-3.87148807e-17
-3.87374538e-17
-3.92532642e-17
-4.1346986e-17
-4.18364873e-17
-4.19798647e-17
-4.42928589e-17
-4.41395861e-17
-4.62452286e-17
-4.75636233e-17
-4.71826731e-17
-4.9731817e-17
-5.13571749e-17
-4.95058365e-17
-5.16283381e-17
-5.22370042e-17
-4.93480239e-17
-4.94916489e-17
-5.14026865e-17
-5.42334229e-17
-5.66906635e-17
-5.50914345e-17
-6.14801984e-17
-6.09376345e-17
-5.95028106e-17
-6.12977167e-17
-5.93331536e-17
-5.64095437e-17
-5.6128031e-17
-5.80224269e-17
-5.87893404e-17
-5.76410712e-17
-5.87524787e-17
-6.1228426e-17
-6.46889162e-17
-6.40518446e-17
-6.32751041e-17
-6.39239071e-17
-6.17539791e-17
-6.32734602e-17
-6.25501917e-17
-6.3501494e-17
-6.31929391e-17
-6.25668923e-17
-6.00034633e-17
-6.20250779e-17
-6.55123089e-17
-6.45998274e-17
-6.6963032e-17
-6.57713406e-17
-6.55165866e-17
-6.74428055e-17
-6.85016576e-17
-6.71802288e-17
-6.88412262e-17
-7.12466275e-17
-7.00075701e-17
-7.11470889e-17
-7.43513345e-17
-7.29990471e-17
-7.07737551e-17
-6.86027089e-17
-7.14663733e-17
-6.99185334e-17
-6.81506622e-17
-6.87609069e-17
-6.57086442e-17
-6.62950767e-17
-6.87078942e-17
-7.07655085e-17
-7.14430193e-17
-7.42285443e-17
-7.34764568e-17
-7.52787009e-17
-7.52654031e-17
-7.54893765e-17
-7.61531464e-17
-7.90576922e-17
-7.61454068e-17
-7.82217667e-17
-7.62589753e-17
-7.4344072e-17
-7.44999431e-17
-7.41745369e-17
-7.39262056e-17
-7.63965268e-17
-7.801612e-17
-7.98369597e-17
-7.59616165e-17
-8.18342938e-17
-7.9103284e-17
-8.11789249e-17
-8.16995093e-17
-7.96736762e-17
-8.12983677e-17
-8.09443899e-17
-8.22517021e-17
-8.22368779e-17
-8.36528272e-17
-8.41748167e-17
-8.62083023e-17
-8.59966312e-17
-8.36699208e-17
-8.29696821e-17
-8.49063453e-17
-8.87900238e-17
-8.69465444e-17
-8.44305759e-17
-8.44156697e-17
-8.19179242e-17
-8.05953498e-17
-8.49301722e-17
-8.30065141e-17
-8.60563481e-17
-8.66025844e-17
-8.52143702e-17
-8.51647867e-17
-8.63740963e-17
-8.62406774e-17
-8.45051991e-17
-8.68071985e-17
-8.81094599e-17
-8.90416837e-17
-8.66096005e-17
-8.68163707e-17
-8.55119564e-17
-8.50119483e-17
-8.70072345e-17
-8.72613279e-17
-8.48783904e-17
-8.63212463e-17
-8.57694302e-17
-8.64794869e-17
-8.800953e-17
-8.91394295e-17
-8.66911892e-17
-8.86499408e-17
-8.78176684e-17
-8.6211296e-17
-9.06922211e-17
-9.17235457e-17
-9.21837419e-17
-9.36777226e-17
-9.53596212e-17
-9.64231212e-17
-9.62649244e-17
-9.83253277e-17
-1.00035705e-16
-1.01046243e-16
-1.0410133e-16
-1.02056518e-16
-1.05010908e-16
-1.04425947e-16
-1.03694019e-16
-1.06654409e-16
-1.10898644e-16
-1.11150143e-16
-1.12925184e-16
-1.09703673e-16
-1.09451166e-16
-1.09622581e-16
-1.14575574e-16
-1.1139384e-16
-1.14368159e-16
-1.13381943e-16
-1.13574296e-16
-1.12081589e-16
-1.09922389e-16
-1.08612584e-16
-1.07159638e-16
-1.07195871e-16
-1.07927786e-16
-1.10512305e-16
-1.09741711e-16
-1.11056356e-16
-1.1354013e-16
-1.13745505e-16
-1.13719869e-16
-1.15209132e-16
-1.19504079e-16
-1.20115131e-16
-1.18361965e-16
-1.2022068e-16
-1.19449274e-16
-1.18733315e-16
-1.18918927e-16
-1.17861489e-16
-1.16261157e-16
-1.16575954e-16
-1.16787173e-16
-1.16355874e-16
-1.16140251e-16
-1.18240458e-16
-1.17283264e-16
-1.16825283e-16
-1.16681531e-16
-1.18615576e-16
-1.16356283e-16
-1.15548222e-16
-1.17466831e-16
-1.13626422e-16
-1.12007122e-16
-1.17290161e-16
-1.18328658e-16
-1.19768264e-16
-1.17961948e-16
-1.17988206e-16
-1.18282808e-16
-1.20831592e-16
-1.20207518e-16
-1.21464132e-16
-1.19147568e-16
-1.17994358e-16
-1.19387897e-16
-1.22064997e-16
-1.24596203e-16
-1.23670111e-16
-1.26998171e-16
-1.24733309e-16
-1.27300382e-16
-1.24965961e-16
-1.25625102e-16
-1.24126889e-16
-1.23499907e-16
-1.22718079e-16
-1.25203862e-16
-1.23463053e-16
-1.23059339e-16
-1.22867222e-16
-1.27135664e-16
-1.23588977e-16
-1.20336888e-16
-1.20861344e-16
-1.2028178e-16
-1.22029897e-16
-1.21978323e-16
-1.21693946e-16
-1.23037149e-16
-1.23945727e-16
-1.25334258e-16
-1.24035326e-16
-1.21554064e-16
-1.23372941e-16
-1.21126171e-16
-1.23560428e-16
-1.2335793e-16
-1.25543346e-16
-1.23021509e-16
-1.22053381e-16
-1.22709728e-16
-1.16980764e-16
-1.15078443e-16
-1.16676554e-16
-1.17313481e-16
-1.19743307e-16
-1.21995207e-16
-1.22873319e-16
-1.20259331e-16
-1.20430301e-16
-1.20683272e-16
-1.20037527e-16
-1.18155756e-16
-1.1528172e-16
-1.1587991e-16
-1.16607593e-16
-1.18235063e-16
-1.1758631e-16
-1.16764222e-16
-1.17256463e-16
-1.1624388e-16
-1.17226203e-16
-1.18742213e-16
-1.1713651e-16
-1.21263798e-16
-1.18727571e-16
-1.19902842e-16
-1.21233404e-16
-1.18658146e-16
-1.17953137e-16
-1.19212639e-16
-1.21287951e-16
-1.19281893e-16
-1.22464247e-16
-1.23742274e-16
-1.22835405e-16
-1.2006618e-16
-1.20655244e-16
-1.22409266e-16
-1.20721727e-16
-1.18727612e-16
-1.18410316e-16
-1.17582941e-16
-1.16479764e-16
-1.16135728e-16
-1.17946802e-16
-1.16097601e-16
-1.17814631e-16
-1.14151395e-16
-1.15809788e-16
-1.13603367e-16
-1.15756037e-16
-1.15524866e-16
-1.1458258e-16
-1.15149387e-16
-1.18015801e-16
-1.13511962e-16
-1.14595443e-16
-1.14292793e-16
-1.08754909e-16
-1.11245726e-16
-1.04903385e-16
-1.01979249e-16
-1.01159871e-16
-1.05622162e-16
-1.07047346e-16
-1.08306984e-16
-1.04530148e-16
-1.03209781e-16
-1.02413439e-16
-9.97224087e-17
-1.0107266e-16
-9.91896785e-17
-9.57284631e-17
-9.25127267e-17
-9.828858e-17
-9.63682924e-17
-9.62553793e-17
-9.46741989e-17
-9.65468407e-17
-9.49564821e-17
-9.5349046e-17
-9.64702428e-17
-9.60169472e-17
-9.57275185e-17
-9.50935127e-17
-9.48266654e-17
-9.41358458e-17
-9.61620818e-17
-9.97073674e-17
-9.56867338e-17
-9.21438204e-17
-9.29742436e-17
-9.3538446e-17
-9.18444379e-17
-9.1320606e-17
-8.66524909e-17
-9.07233083e-17
-8.83064863e-17
-8.85409452e-17
-8.77980615e-17
-8.5310923e-17
-8.56385246e-17
-8.72433049e-17
-8.4731776e-17
-8.51543245e-17
-8.37588127e-17
-7.59104771e-17
-7.77466919e-17
-7.80395322e-17
-7.90154747e-17
-8.37879199e-17
-8.01977486e-17
-7.72363274e-17
-8.0088634e-17
-7.83217226e-17
-7.87113555e-17
-8.11556221e-17
-7.79530554e-17
-7.73956014e-17
-7.65006888e-17
-7.70355001e-17
-7.7122676e-17
-8.07545883e-17
-7.5339625e-17
-7.60280198e-17
-7.25167686e-17
-7.35349503e-17
-7.2858094e-17
-7.29998321e-17
-7.3157604e-17
-7.33194861e-17
-7.34773331e-17
-7.58346834e-17
-7.32913565e-17
-7.05699566e-17
-6.92262056e-17
-6.61603598e-17
-6.04634944e-17
-5.84633546e-17
-6.18548313e-17
-6.30487092e-17
-6.26894805e-17
-6.40652504e-17
-6.28440018e-17
-6.1366154e-17
-6.23267741e-17
-6.34830397e-17
-6.44939233e-17
-6.26897594e-17
-5.75610568e-17
-5.62057836e-17
-5.66049028e-17
-5.60009493e-17
-5.65878841e-17
-5.88742911e-17
-5.88030229e-17
-5.91007185e-17
-5.86664744e-17
-5.84871466e-17
-5.72917127e-17
-5.81265887e-17
-5.44934603e-17
-5.63169631e-17
-5.68870982e-17
-5.51780668e-17
-5.42504283e-17
-5.15658622e-17
-5.00703339e-17
-5.08411024e-17
-4.79409065e-17
-4.6668742e-17
-4.89954204e-17
-4.65491182e-17
-4.49120587e-17
-4.55968928e-17
-4.6591477e-17
-4.97507114e-17
-4.87151532e-17
-4.73678098e-17
-4.81857345e-17
-4.66489001e-17
-4.68307734e-17
-4.87892468e-17
-4.57941558e-17
-4.18295343e-17
-4.21155327e-17
-4.11164694e-17
-3.83786513e-17
-4.04603405e-17
-4.25838618e-17
-4.26001506e-17
-4.41165195e-17
-4.08815701e-17
-3.79125467e-17
-3.92064751e-17
-3.59412121e-17
-3.66602041e-17
-3.73478138e-17
-3.82071095e-17
-3.80250242e-17
-4.1777381e-17
-3.43504316e-17
-3.48788116e-17
-3.40477307e-17
-3.39347581e-17
-3.40365381e-17
-3.37462479e-17
-3.02512684e-17
-3.18707472e-17
-2.92428076e-17
-2.68932997e-17
-2.7586577e-17
-2.70492119e-17
-2.86207905e-17
-2.91279489e-17
-2.86026221e-17
-2.8559353e-17
-3.07427635e-17
-2.93797068e-17
-2.94071766e-17
-2.95819795e-17
-3.03537102e-17
-3.05657898e-17
-2.92193917e-17
-2.97127753e-17
-2.85984464e-17
-2.85460416e-17
-2.64602675e-17
-2.33684482e-17
-2.29125643e-17
-2.36161303e-17
-2.10648286e-17
-2.18608301e-17
-2.49936384e-17
-1.9880432e-17
-2.01520772e-17
-1.85127712e-17
-1.56313867e-17
-1.53633474e-17
-1.21048966e-17
-1.17834319e-17
-7.80220558e-18
-8.63433557e-18
-9.26906571e-18
-1.03504506e-17
-1.23947079e-17
-1.22260774e-17
-1.35153625e-17
-1.02240859e-17
-9.52904233e-18
-8.19534141e-18
-1.0257693e-17
-9.79551101e-18
-1.08305046e-17
-7.28265096e-18
-5.67691864e-18
-5.32403134e-18
-2.85837249e-18
-3.21324678e-18
-2.78043525e-18
-2.37667417e-18
-4.09013123e-18
-4.87479681e-18
-6.27095604e-18
-3.43588299e-18
-7.45711898e-18
-4.26165715e-18
-4.60764075e-18
-2.33870473e-18
-1.9243181e-18
-3.49632342e-18
-7.00243055e-18
-5.42334396e-18
-7.44627249e-18
-4.68779686e-18
-3.22090269e-18
-4.58360305e-18
-2.81395037e-18
-4.69072084e-18
-5.42224836e-18
-4.51043836e-18
-2.38963104e-18
1.64285312e-19
1.06943286e-18
2.98459579e-18
2.43146934e-19
3.93410848e-18
3.05856049e-18
4.42286397e-18
3.86358103e-18
4.79428443e-18
4.91169061e-18
2.95429744e-18
7.66527958e-18
9.47100827e-18
9.61147611e-18
9.05638898e-18
7.67614441e-18
9.28213221e-18
8.17899892e-18
1.55384004e-17
1.54191859e-17
1.05990432e-17
1.62103677e-17
1.5137873e-17
1.44950303e-17
1.60533745e-17
1.28980329e-17
1.66040277e-17
1.21248993e-17
1.03298191e-17
1.50880127e-17
1.36221542e-17
1.37167271e-17
1.37329183e-17
1.48826188e-17
1.52622176e-17
1.71406259e-17
1.83786083e-17
1.80296754e-17
1.96755952e-17
1.68914062e-17
1.57350388e-17
1.55054377e-17
1.64717201e-17
1.38349616e-17
1.32845491e-17
1.43234782e-17
1.67049872e-17
1.71498976e-17
1.48868558e-17
1.30242172e-17
1.47969556e-17
1.40190833e-17
1.86532829e-17
1.95233675e-17
1.95361811e-17
1.99239227e-17
2.10358858e-17
2.27127963e-17
2.4740964e-17
2.40862506e-17
2.36447119e-17
2.42496427e-17
2.31901083e-17
2.33411522e-17
2.45119138e-17
2.44820187e-17
3.00310755e-17
3.33527583e-17
3.86053274e-17
4.07633576e-17
4.14172984e-17
4.080442e-17
4.41612796e-17
4.40347855e-17
4.71290001e-17
4.74786061e-17
4.64937838e-17
4.50927839e-17
4.87570329e-17
4.8053877e-17
5.11493992e-17
5.21645063e-17
5.30634423e-17
5.59514196e-17
5.69606622e-17
5.32748029e-17
5.3315663e-17
5.28274406e-17
5.23197697e-17
5.23534811e-17
4.82734598e-17
5.12900004e-17
5.20480815e-17
5.43752047e-17
5.16871424e-17
5.63942745e-17
5.76358184e-17
5.78306979e-17
5.80438054e-17
5.71485928e-17
5.48547569e-17
5.31217934e-17
5.5662645e-17
5.92038596e-17
5.78044229e-17
5.80233147e-17
5.88490816e-17
5.5568156e-17
5.72869383e-17
5.47718195e-17
5.9190136e-17
5.7900615e-17
6.00605347e-17
6.10707672e-17
5.95759082e-17
6.06652838e-17
5.47145736e-17
5.64155419e-17
5.56361873e-17
5.7343892e-17
5.65662954e-17
5.58629407e-17
5.7946295e-17
5.7518461e-17
5.98210706e-17
6.03767834e-17
6.37558886e-17
5.8890662e-17
5.87438373e-17
6.10074302e-17
5.85651178e-17
5.95344844e-17
6.0802618e-17
5.89139516e-17
5.7971212e-17
5.75135996e-17
6.04797284e-17
6.28196833e-17
6.20475918e-17
6.29442408e-17
6.41003028e-17
6.51306728e-17
6.36807366e-17
6.44531104e-17
5.95705244e-17
6.07055702e-17
6.08614035e-17
6.17704713e-17
6.0631313e-17
6.07776178e-17
5.85834052e-17
5.86280431e-17
6.24104478e-17
6.11504027e-17
6.2996506e-17
6.23266173e-17
6.00256439e-17
6.08387974e-17
6.29295459e-17
6.43693773e-17
6.43731756e-17
6.36965532e-17
6.00786591e-17
6.22392825e-17
5.93397483e-17
6.19643773e-17
6.45938534e-17
6.12785605e-17
6.4055647e-17
6.49212787e-17
6.57394844e-17
6.53162828e-17
6.44354173e-17
6.60763031e-17
6.37380821e-17
6.48629085e-17
6.2747778e-17
6.29921675e-17
6.30975903e-17
6.14072818e-17
5.94714907e-17
6.45051427e-17
6.63453692e-17
6.5561197e-17
6.28549222e-17
6.02646689e-17
6.46566502e-17
6.09783375e-17
6.78214991e-17
6.89446158e-17
7.0794657e-17
7.18140232e-17
7.1076223e-17
7.23777054e-17
7.22469523e-17
6.96682338e-17
7.09600215e-17
6.85160725e-17
7.14821183e-17
7.17412012e-17
6.95816881e-17
6.91807047e-17
6.92211629e-17
6.86567712e-17
7.29508735e-17
7.61176015e-17
8.05632537e-17
7.72600653e-17
7.72298825e-17
7.50715689e-17
7.60983853e-17
7.57788568e-17
7.27263973e-17
7.50590571e-17
7.74093498e-17
7.63063166e-17
7.84372579e-17
7.57292954e-17
7.68876628e-17
7.70036026e-17
7.20638334e-17
7.39078708e-17
7.44958526e-17
7.37519448e-17
7.17598841e-17
6.92308376e-17
7.02108099e-17
6.78578671e-17
6.82779506e-17
6.69310832e-17
6.41780299e-17
6.63530762e-17
6.63092412e-17
6.79203732e-17
6.76491382e-17
6.67505228e-17
6.92691314e-17
6.72266122e-17
7.08607373e-17
6.83305365e-17
6.54463233e-17
6.85032172e-17
6.56913765e-17
6.52875217e-17
6.62098355e-17
6.4629582e-17
6.30719371e-17
6.36975536e-17
5.99599034e-17
6.0473854e-17
6.09478335e-17
6.19094165e-17
6.24005831e-17
6.36402597e-17
6.07857823e-17
5.83815726e-17
5.86164851e-17
5.74370153e-17
5.77760548e-17
5.74823195e-17
5.68747043e-17
6.03595881e-17
5.90342675e-17
5.72708064e-17
5.66116517e-17
5.19514859e-17
5.39942e-17
5.26969083e-17
5.66870371e-17
5.26487522e-17
5.73109022e-17
5.90408377e-17
6.09540284e-17
6.20044903e-17
5.77041662e-17
5.85922224e-17
5.50501937e-17
5.84044666e-17
5.65434263e-17
5.93682361e-17
5.73157319e-17
5.99283185e-17
5.72569973e-17
5.59857536e-17
5.63400711e-17
5.64190195e-17
5.74037521e-17
5.58178646e-17
5.92060474e-17
5.95073736e-17
5.96430639e-17
5.88995699e-17
5.89898974e-17
6.00834352e-17
6.07178327e-17
6.07747694e-17
6.20091067e-17
6.1837133e-17
6.23266262e-17
6.49191915e-17
6.60962967e-17
6.7006447e-17
6.73032938e-17
6.94986584e-17
6.80758475e-17
6.90989578e-17
7.26800743e-17
6.99466794e-17
7.18038936e-17
6.95207285e-17
6.7280746e-17
6.6446916e-17
6.41170359e-17
6.04980564e-17
6.46609995e-17
6.21141419e-17
6.31733348e-17
6.36978047e-17
6.39285977e-17
6.27310706e-17
6.11026073e-17
6.39023225e-17
6.32924921e-17
6.50497113e-17
6.74345898e-17
6.86154305e-17
6.50282586e-17
6.49392375e-17
6.50864025e-17
5.94577533e-17
6.07559966e-17
6.277783e-17
6.0952555e-17
5.92186227e-17
5.99558821e-17
5.67095936e-17
5.54934295e-17
5.70966311e-17
5.62524388e-17
5.78608807e-17
5.87179867e-17
6.00661212e-17
5.85489762e-17
5.99493493e-17
6.09551477e-17
5.94403759e-17
6.14945652e-17
5.97933618e-17
5.80216843e-17
6.31048609e-17
6.16125466e-17
6.17135188e-17
6.2170979e-17
6.32856119e-17
6.27600064e-17
6.16785227e-17
6.05376445e-17
6.23287007e-17
5.97492605e-17
5.82155109e-17
5.56151048e-17
5.82201242e-17
5.99002752e-17
5.9243294e-17
5.90299122e-17
5.97018233e-17
5.79669485e-17
5.95936937e-17
5.86039283e-17
5.77087317e-17
5.83715897e-17
5.70782785e-17
5.50028053e-17
5.50215482e-17
5.35193897e-17
5.36526858e-17
5.49336836e-17
5.4754798e-17
5.67188981e-17
5.40309749e-17
5.66737859e-17
5.51418929e-17
4.97330709e-17
4.91513682e-17
4.68555845e-17
4.65767115e-17
4.66783304e-17
4.57703212e-17
5.12639977e-17
5.07165947e-17
4.74280995e-17
4.79027828e-17
4.81800758e-17
4.69722184e-17
4.60929486e-17
4.66241626e-17
4.7267668e-17
4.56172368e-17
4.60585545e-17
4.58470085e-17
4.59782932e-17
4.80484282e-17
4.85343185e-17
4.71194522e-17
4.44764069e-17
4.38800704e-17
4.10426277e-17
3.94853871e-17
3.65929377e-17
3.85159069e-17
3.95334226e-17
3.9819881e-17
3.58591412e-17
3.42093661e-17
3.62995851e-17
3.35931664e-17
3.50371068e-17
3.21252344e-17
3.21812984e-17
3.13607294e-17
3.31801937e-17
3.17229573e-17
3.01245322e-17
2.90765844e-17
2.77312457e-17
2.62930069e-17
2.68622294e-17
2.80434165e-17
2.97762715e-17
2.62332686e-17
2.58645008e-17
2.78645322e-17
2.44398818e-17
2.00598082e-17
2.24456743e-17
2.18809865e-17
2.44865851e-17
2.51505384e-17
2.25018771e-17
2.66772295e-17
2.32651088e-17
1.98774987e-17
2.01418872e-17
1.76275322e-17
1.66407566e-17
1.72198547e-17
2.15672505e-17
2.30774493e-17
2.280217e-17
2.31234885e-17
2.48078758e-17
2.09237357e-17
2.21895433e-17
2.48211116e-17
2.56710006e-17
2.51234824e-17
2.28838665e-17
2.39431967e-17
2.4901518e-17
2.78438144e-17
2.48583693e-17
2.29110857e-17
2.35204958e-17
2.37999689e-17
2.47255446e-17
2.61067667e-17
2.27136174e-17
2.34575768e-17
2.04457338e-17
2.15661421e-17
2.30646989e-17
2.25896856e-17
2.01009297e-17
1.64344802e-17
1.41227961e-17
1.49899224e-17
1.66317914e-17
1.60766007e-17
1.50160753e-17
1.58229512e-17
1.58735792e-17
1.48331557e-17
1.55748245e-17
1.54187913e-17
1.56168958e-17
1.53154775e-17
1.4390877e-17
8.69758813e-18
7.73881437e-18
4.49198672e-18
7.79707199e-18
6.30879988e-18
6.25647712e-18
5.15694051e-18
2.42596227e-18
1.77049676e-18
-2.33853632e-18
-2.16082633e-18
-4.86336671e-18
-3.05996079e-18
-5.07782794e-18
-5.43792884e-18
-5.77499787e-18
-9.33783839e-18
-5.97407391e-18
-8.53467918e-18
-8.49980044e-18
-1.08173673e-17
-1.01156954e-17
-1.07891858e-17
-1.64728397e-17
-1.66708072e-17
-1.21897273e-17
-1.03681691e-17
-1.08921987e-17
-1.33603833e-17
-1.43257413e-17
-1.69365183e-17
-1.48365084e-17
-1.78179452e-17
-1.8935619e-17
-1.56321767e-17
-1.59140818e-17
-1.48395821e-17
-1.61712863e-17
-1.61314099e-17
-1.54965592e-17
-1.93953538e-17
-1.79690878e-17
-1.88955575e-17
-2.01928396e-17
-1.74035352e-17
-1.82469145e-17
-1.85546423e-17
-1.90882493e-17
-1.54061948e-17
-1.37979103e-17
-1.31457546e-17
-1.69342991e-17
-1.75488473e-17
-1.64140908e-17
-2.22967039e-17
-2.30847066e-17
-2.60652966e-17
-2.42840341e-17
-2.50643626e-17
-3.04120737e-17
-2.87707628e-17
-3.33159629e-17
-3.21663598e-17
-3.19139574e-17
-3.20569567e-17
-3.41794578e-17
-2.88272566e-17
-2.89743272e-17
-2.75204188e-17
-2.74481227e-17
-2.79863803e-17
-3.48771846e-17
-3.23870005e-17
-3.64353347e-17
-3.73980351e-17
-3.78711961e-17
-4.0826525e-17
-4.12773072e-17
-4.28028084e-17
-4.45086887e-17
-4.37028574e-17
-4.75113374e-17
-4.64958265e-17
-4.65983894e-17
-4.68734876e-17
-4.74614492e-17
-4.89028012e-17
-4.90338946e-17
-4.88654971e-17
-4.96699475e-17
-4.92425869e-17
-5.34109288e-17
-5.26187741e-17
-5.27392291e-17
-5.23141912e-17
-5.42852879e-17
-5.43237417e-17
-5.60317222e-17
-6.07250149e-17
-6.26048603e-17
-6.03469985e-17
-6.32776138e-17
-6.40215931e-17
-6.47983049e-17
-6.03261089e-17
-6.09469216e-17
-6.22388565e-17
-6.3875635e-17
-6.73026834e-17
-6.56251889e-17
-6.59050222e-17
-6.35790441e-17
-6.29863254e-17
-6.01207226e-17
-5.81826528e-17
-6.04278623e-17
-6.08482701e-17
-6.37246265e-17
-6.22298711e-17
-6.39604338e-17
-6.15974537e-17
-5.86595093e-17
-6.17067271e-17
-6.4136916e-17
-6.86546288e-17
-6.78497177e-17
-7.11697249e-17
-6.879571e-17
-6.91190117e-17
-6.87185527e-17
-6.69393357e-17
-6.4739561e-17
-6.54734208e-17
-6.67944768e-17
-6.87724844e-17
-6.57856234e-17
-6.5061575e-17
-6.47956384e-17
-6.40325273e-17
-6.54606227e-17
-6.44515363e-17
-6.55604528e-17
-6.74244475e-17
-6.90055245e-17
-6.81679604e-17
-6.99158165e-17
-7.06260806e-17
-6.80079078e-17
-6.5316386e-17
-6.29530091e-17
-6.78269854e-17
-6.60982435e-17
-6.95719275e-17
-7.174334e-17
-7.03408902e-17
-7.48833468e-17
-7.32023297e-17
-7.40463975e-17
-7.50089397e-17
-7.43124205e-17
-7.44419775e-17
-7.95512047e-17
-7.67454356e-17
-7.70317615e-17
-7.49831093e-17
-7.93801173e-17
-7.73489341e-17
-8.0344717e-17
-7.84564815e-17
-8.121707e-17
-7.74136055e-17
-8.0544181e-17
-8.08089385e-17
-8.06891278e-17
-8.17026661e-17
-7.86470693e-17
-7.68972311e-17
-7.7933581e-17
-7.66789888e-17
-7.73337055e-17
-7.8069527e-17
-7.76704725e-17
-7.95467807e-17
-7.93445326e-17
-8.08929793e-17
-7.67357578e-17
-7.4809874e-17
-7.58998143e-17
-7.74138831e-17
-7.55860494e-17
-7.79646016e-17
-7.75918451e-17
-7.53496028e-17
-7.79764751e-17
-7.8718758e-17
-7.62289217e-17
-7.79877527e-17
-7.66174063e-17
-7.98136111e-17
-8.07637087e-17
-8.36627688e-17
-8.33739865e-17
-8.30927273e-17
-8.59936165e-17
-8.63967946e-17
-8.53749219e-17
-8.49390669e-17
-7.95348376e-17
-8.54611811e-17
-8.41153666e-17
-8.12123335e-17
-8.0356004e-17
-7.98891256e-17
-8.0116088e-17
-8.26964521e-17
-7.84018602e-17
-7.87714766e-17
-7.55890833e-17
-7.48873984e-17
-7.55224194e-17
-7.77992153e-17
-7.52370299e-17
-7.75103907e-17
-7.80910811e-17
-7.70100801e-17
-7.65641754e-17
-7.60902029e-17
-7.4331315e-17
-7.01372285e-17
-7.29155879e-17
-7.37931147e-17
-7.29416844e-17
-7.09622693e-17
-7.34524385e-17
-7.20065872e-17
-7.29701362e-17
-7.03190417e-17
-6.92136136e-17
-7.01099221e-17
-6.7299531e-17
-6.72284547e-17
-6.67115203e-17
-6.8206409e-17
-6.7969369e-17
-6.82309068e-17
-6.59342782e-17
-6.78036161e-17
-6.98407428e-17
-6.95745812e-17
-6.76526116e-17
-6.60106662e-17
-6.82207391e-17
-6.84539512e-17
-6.62478607e-17
-6.50490904e-17
-6.48135939e-17
-6.51249629e-17
-6.66428806e-17
-6.77006126e-17
-6.81376306e-17
-6.91629076e-17
-6.55271464e-17
-6.36864982e-17
-6.27935733e-17
-6.36151529e-17
-6.05963829e-17
-5.90892219e-17
-5.83637576e-17
-5.78343567e-17
-6.03204087e-17
-6.14426852e-17
-6.10884383e-17
-6.19270169e-17
-6.35181005e-17
-6.0113296e-17
-5.9664317e-17
-5.76151308e-17
-5.44535126e-17
-5.68039393e-17
-5.7576868e-17
-5.60824404e-17
-5.58797748e-17
-5.9259161e-17
-5.84265024e-17
-5.72315583e-17
-6.02235266e-17
-5.99474245e-17
-6.02204262e-17
-5.90268978e-17
-5.87921745e-17
-5.7003829e-17
-5.54504678e-17
-5.69123178e-17
-5.68935073e-17
-5.62735576e-17
-6.037854e-17
-6.13166396e-17
-6.09902569e-17
-6.16944617e-17
-6.36698945e-17
-6.45212265e-17
-6.78322219e-17
-6.8477551e-17
-6.79914055e-17
-6.78162561e-17
-6.76186163e-17
-6.93996827e-17
-6.92584123e-17
-6.60186003e-17
-6.92914064e-17
-7.03636902e-17
-6.97792182e-17
-7.04381383e-17
-7.12557883e-17
-7.18283521e-17
-7.08424719e-17
-7.46914019e-17
-7.14690278e-17
-7.04039905e-17
-6.69133098e-17
-7.10603223e-17
-7.08779954e-17
-7.37322988e-17
-7.13908422e-17
-7.04927207e-17
-7.13777933e-17
-7.03133709e-17
-6.70179179e-17
-6.8160401e-17
-7.12891491e-17
-6.8925304e-17
-6.82937563e-17
-6.85165783e-17
-6.99697074e-17
-7.12954055e-17
-7.18635244e-17
-7.44568134e-17
-7.32239331e-17
-7.41821781e-17
-7.02919416e-17
-7.17333043e-17
-7.2133457e-17
-7.08693293e-17
-7.14423925e-17
-6.92760028e-17
-6.96768866e-17
-6.92844993e-17
-7.06727217e-17
-6.88614851e-17
-6.87306317e-17
-6.7469231e-17
-6.42011833e-17
-6.45508976e-17
-6.73903597e-17
-6.61582517e-17
-6.72689201e-17
-6.59311425e-17
-6.42015949e-17
-6.50736756e-17
-6.24711375e-17
-6.3097495e-17
-6.23819259e-17
-6.33518374e-17
-6.30961094e-17
-5.89634729e-17
-6.10592341e-17
-6.25076326e-17
-6.46946164e-17
-6.46789141e-17
-6.31695474e-17
-6.38850152e-17
-6.06969516e-17
-6.13861169e-17
-6.01167927e-17
-5.94053252e-17
-5.5602962e-17
-5.42886687e-17
-5.57237415e-17
-5.53153368e-17
-5.38335026e-17
-5.00345239e-17
-4.69808753e-17
-4.5842754e-17
-4.80232195e-17
-5.03107993e-17
-4.96593844e-17
-5.20177245e-17
-4.90559094e-17
-5.01804392e-17
-4.76265759e-17
-4.94475688e-17
-5.17531627e-17
-5.46514178e-17
-5.68571483e-17
-5.73323381e-17
-5.65544441e-17
-5.22124912e-17
-5.5389878e-17
-5.10355979e-17
-4.82582677e-17
-4.89899412e-17
-5.04315814e-17
-4.76234505e-17
-4.55900862e-17
-4.57664843e-17
-4.43522997e-17
-4.37330542e-17
-4.36933659e-17
-4.45732714e-17
-4.30436012e-17
-4.11890209e-17
-3.9205118e-17
-3.75829381e-17
-3.57791192e-17
-3.53387858e-17
-3.35387384e-17
-3.30930169e-17
-3.53663881e-17
-3.45419155e-17
-2.9953293e-17
-2.73160081e-17
-3.03102891e-17
-2.56108423e-17
-2.51849932e-17
-2.18185296e-17
-2.01422539e-17
-2.0244698e-17
-2.18114194e-17
-1.96522873e-17
-2.17031148e-17
-2.38904625e-17
-2.2635556e-17
-2.09963482e-17
-1.99404881e-17
-1.98337542e-17
-1.7680153e-17
-1.8343627e-17
-1.65918743e-17
-1.61424447e-17
-1.65604223e-17
-1.74299495e-17
-1.50961931e-17
-1.45199892e-17
-1.17999441e-17
-1.45114792e-17
-1.62293053e-17
-1.73811962e-17
-1.57414009e-17
-1.20216327e-17
-1.40785661e-17
-1.49985684e-17
-1.47462157e-17
-1.5428646e-17
-1.64185936e-17
-1.23247199e-17
-1.34247639e-17
-1.40849034e-17
-1.28843494e-17
-1.58822745e-17
-1.58671555e-17
-1.3867334e-17
-8.85753671e-18
-1.03759124e-17
-1.19330071e-17
-7.0635802e-18
-1.04680873e-17
-7.93826854e-18
-8.18887449e-18
-8.93731875e-18
-9.02445677e-18
-9.21995134e-18
-7.86594219e-18
-7.9763474e-18
-7.69169104e-18
-6.80666282e-18
-8.60941772e-18
-5.6431298e-18
-3.08062217e-18
-6.9951325e-18
-5.79184919e-18
-4.06977083e-18
-2.9481774e-19
2.59468355e-18
-3.81579318e-18
-5.17287232e-18
1.0089395e-18
-4.39963578e-18
-4.06462465e-18
-6.17263327e-18
-6.42666795e-18
-6.79235447e-18
-1.10065576e-17
-8.25468143e-18
-4.50974012e-18
-1.60389606e-18
-6.93617823e-19
3.22494445e-18
-1.64795806e-18
4.31349885e-18
2.35948034e-18
5.97341712e-18
4.53528972e-18
7.12802353e-18
8.51761743e-18
5.12401042e-18
4.19487319e-18
5.71127059e-18
2.32075163e-18
5.51330827e-18
4.75627845e-18
6.56474996e-18
5.95428523e-18
9.87671118e-18
1.12903371e-17
1.17294313e-17
1.16154837e-17
1.42647994e-17
1.48415079e-17
1.38597996e-17
1.13397182e-17
1.34000548e-17
1.44031729e-17
1.37543581e-17
1.5781314e-17
1.37360878e-17
1.74680709e-17
1.92126638e-17
1.90022252e-17
2.10746609e-17
2.23425956e-17
2.45159891e-17
2.44071828e-17
2.32502409e-17
2.44554251e-17
2.18510306e-17
2.50597234e-17
2.70537182e-17
3.01731051e-17
2.85560241e-17
3.21320638e-17
3.60995592e-17
3.43796584e-17
3.40757593e-17
3.7493837e-17
3.7825772e-17
3.90011324e-17
4.05549018e-17
3.99350732e-17
4.25336733e-17
4.13213515e-17
4.16083362e-17
4.24482701e-17
4.8784178e-17
5.08213931e-17
5.5652958e-17
5.66271479e-17
6.02823039e-17
6.24080041e-17
6.35595648e-17
7.05487795e-17
7.5768869e-17
8.18917124e-17
8.74985234e-17
9.17611405e-17
9.81142011e-17
1.01585859e-16
1.09312836e-16
1.16478067e-16
1.26940038e-16
1.33764678e-16
1.44793442e-16
1.51803971e-16
1.66524914e-16
1.75353567e-16
1.87793312e-16
2.01338859e-16
2.13538166e-16
2.25439059e-16
2.41488132e-16
2.54392388e-16
2.682087e-16
2.86574545e-16
3.06162209e-16
3.28144776e-16
3.53384258e-16
3.80237041e-16
4.05421187e-16
4.39806458e-16
4.73086528e-16
5.1250177e-16
5.4835159e-16
5.8954247e-16
6.31141399e-16
6.7792753e-16
7.2969766e-16
7.81850347e-16
8.35965226e-16
9.00995716e-16
9.69613586e-16
1.04287591e-15
1.11681237e-15
1.20007189e-15
1.28921272e-15
1.38953954e-15
1.49356138e-15
1.60445792e-15
1.72526999e-15
1.85334197e-15
1.99476978e-15
2.14572104e-15
2.30672986e-15
2.48125166e-15
2.66732366e-15
2.86648971e-15
3.07912654e-15
3.30974018e-15
3.56111159e-15
3.8292302e-15
4.11843616e-15
4.42622694e-15
4.7609715e-15
5.11764036e-15
5.50581007e-15
5.91789338e-15
6.36410207e-15
6.8389877e-15
7.3579831e-15
7.90727924e-15
8.50156779e-15
9.13358143e-15
9.81820607e-15
1.05505259e-14
1.13382127e-14
1.2183562e-14
1.30950942e-14
1.40710789e-14
1.51165273e-14
1.62410826e-14
1.74442454e-14
1.87393988e-14
2.01277999e-14
2.16154368e-14
2.32109645e-14
2.49235331e-14
2.67632756e-14
2.873443e-14
3.08431905e-14
3.31077776e-14
3.55341298e-14
3.81357907e-14
4.09229147e-14
4.39100357e-14
4.71117572e-14
5.05448658e-14
5.42174953e-14
5.81552469e-14
6.23729337e-14
6.68841513e-14
7.17211668e-14
7.68985105e-14
8.24410724e-14
8.83728327e-14
9.47216366e-14
1.01515247e-13
1.08791237e-13
1.1657134e-13
1.24896264e-13
1.33795341e-13
1.43320163e-13
1.53508939e-13
1.64402003e-13
1.76050022e-13
1.88506133e-13
2.01824517e-13
2.16054308e-13
2.31266897e-13
2.47521254e-13
2.64893423e-13
2.83454567e-13
3.03278003e-13
3.24460754e-13
3.47078259e-13
3.71235321e-13
3.97025756e-13
4.24563424e-13
4.53960763e-13
4.85343893e-13
5.188348e-13
5.54576365e-13
5.9271502e-13
6.33403223e-13
6.76810739e-13
7.23109183e-13
7.72494146e-13
8.25151591e-13
8.81300995e-13
9.41162808e-13
1.00497588e-12
1.07299604e-12
1.14548889e-12
1.22273677e-12
1.30504897e-12
1.39273778e-12
1.48614954e-12
1.58563977e-12
1.69159473e-12
1.80442e-12
1.92454832e-12
2.05243072e-12
2.18855493e-12
2.33343061e-12
2.48760207e-12
2.65165068e-12
2.82618135e-12
3.01183968e-12
3.2093168e-12
3.41932605e-12
3.64264414e-12
3.88008482e-12
4.13250441e-12
4.4008155e-12
4.68597816e-12
4.98901009e-12
5.31099864e-12
5.65307585e-12
6.01645297e-12
6.40240083e-12
6.81227698e-12
7.24749621e-12
7.70956237e-12
8.2000816e-12
8.72072265e-12
9.27327014e-12
9.85959693e-12
1.04816887e-11
1.11416344e-11
1.18416407e-11
1.25840475e-11
1.33713105e-11
1.42060265e-11
1.50909419e-11
1.6028934e-11
1.70230633e-11
1.80765338e-11
1.91927405e-11
2.03752559e-11
2.1627846e-11
2.29544738e-11
2.43593237e-11
2.5846806e-11
2.74215468e-11
2.90884387e-11
3.08526255e-11
3.27195164e-11
3.46948173e-11
3.67845189e-11
3.89949375e-11
4.13327111e-11
4.38048202e-11
4.64186119e-11
4.91818022e-11
5.21025123e-11
5.51892706e-11
5.84510463e-11
6.18972539e-11
6.55377952e-11
6.93830616e-11
7.34439609e-11
7.77319581e-11
8.2259084e-11
8.70379529e-11
9.20818201e-11
9.74045825e-11
1.03020819e-10
1.08945821e-10
1.15195616e-10
1.21787014e-10
1.28737627e-10