/*--------------------------------*- C++ -*----------------------------------*\
| =========                 |                                                 |
| \\      /  F ield         | OpenFOAM: The Open Source CFD Toolbox           |
|  \\    /   O peration     | Version:  2206                                  |
|   \\  /    A nd           | Website:  www.openfoam.com                      |
|    \\/     M anipulation  |                                                 |
\*---------------------------------------------------------------------------*/
FoamFile
{
    version     2.0;
    format      ascii;
    arch        "LSB;label=32;scalar=64";
    class       volScalarField;
    location    "1.56e-05";
    object      sourcePV;
}
// * * * * * * * * * * * * * * * * * * * * * * * * * * * * * * * * * * * * * //

dimensions      [1 -3 -1 0 0 0 0];

internalField   nonuniform List<scalar> 
3183
(
0
0
0
0
0
0
0
0
0
0
0
0
0
0
0
0
0
0
0
0
0
0
0
0
0
0
0
0
0
0
0
0
0
0
0
0
0
0
0
0
0
0
0
0
0
0
0
0
0
0
0
0
0
0
0
0
0
0
0
0
0
0
0
0
0
0
0
0
0
0
0
0
0
0
0
0
0
0
0
0
0
0
0
0
0
0
0
0
0
0
0
0
0
0
0
0
0
0
0
0
0
0
0
0
0
0
0
0
0
0
0
0
0
0
0
0
0
0
0
0
0
0
0
0
0
0
0
0
0
0
0
0
0
0
0
0
0
0
0
0
0
0
0
0
0
0
0
0
0
0
0
0
0
0
0
0
0
0
0
0
0
0
0
0
0
0
0
0
0
0
0
0
0
0
0
0
0
0
0
0
0
0
0
0
0
0
0
0
0
0
0
0
0
0
0
0
0
0
0
0
0
0
0
0
0
0
0
0
0
0
0
0
0
0
0
0
0
0
0
0
0
0
0
0
0
0
0
0
0
0
0
0
0
0
0
0
0
0
0
0
0
0
0
0
0
0
0
0
0
0
0
0
0
0
0
0
0
0
0
0
0
0
0
0
0
0
0
0
0
0
0
0
0
0
0
0
0
0
0
0
0
0
0
0
0
0
0
0
0
0
0
0
0
0
0
0
0
0
0
0
0
0
0
0
0
0
0
0
0
0
0
0
0
0
0
0
0
0
0
0
0
0
0
0
0
0
0
0
0
0
0
0
0
0
0
0
0
0
0
0
0
0
0
0
0
0
0
0
0
0
0
0
0
0
0
0
0
0
0
0
0
0
0
0
0
0
0
0
0
0
0
0
0
0
0
0
0
0
0
0
0
0
0
0
0
0
0
0
0
0
0
0
0
0
0
0
0
0
0
0
0
0
0
0
0
0
0
0
0
0
0
0
0
0
0
0
0
0
0
0
0
0
0
0
0
0
0
0
0
0
0
0
0
0
0
0
0
0
0
0
0
0
0
0
0
0
0
0
0
0
0
0
0
0
0
0
0
0
0
0
0
0
0
0
0
0
0
0
0
0
0
0
0
0
0
0
0
0
0
0
0
0
0
0
0
0
0
0
0
0
0
0
0
0
0
0
0
0
0
0
0
0
0
0
0
0
0
0
0
0
0
0
0
0
0
0
0
0
0
0
0
0
0
0
0
0
0
0
0
0
0
0
0
0
0
0
0
0
0
0
0
0
0
0
0
0
0
0
0
0
0
0
0
0
0
0
0
0
0
0
0
0
0
0
0
0
0
0
0
0
0
0
0
0
0
0
0
0
0
0
0
0
0
0
0
0
0
0
0
0
0
0
0
0
0
0
0
0
0
0
0
0
0
0
0
0
0
0
0
0
0
0
0
0
0
0
0
0
0
0
0
0
0
0
0
0
0
0
0
0
0
0
0
0
0
0
0
0
0
0
0
0
0
0
0
0
0
0
0
0
0
0
0
0
0
0
0
0
0
0
0
0
0
0
0
0
0
0
0
0
0
0
0
0
0
0
0
0
0
0
0
0
0
0
0
0
0
0
0
0
0
0
0
0
0
0
0
0
0
0
0
0
0
0
0
0
0
0
0
0
0
0
0
0
0
0
0
0
0
0
0
0
0
0
0
0
0
0
0
0
0
0
0
0
0
0
0
0
0
0
0
0
0
0
0
0
0
0
0
0
0
0
0
0
0
0
0
0
0
0
0
0
0
0
0
0
0
0
0
0
0
0
0
0
0
0
0
0
0
0
0
0
0
0
0
0
0
0
0
0
0
0
0
0
0
0
0
0
0
0
0
0
0
0
0
0
0
0
0
0
0
0
0
0
0
0
0
0
0
0
0
0
0
0
0
0
0
0
0
0
0
0
0
0
0
0
0
0
0
0
0
0
0
0
0
0
0
0
0
0
0
0
0
0
0
0
0
0
0
0
0
0
0
0
0
0
0
0
0
0
0
0
0
0
0
0
0
0
0
0
0
0
0
0
0
0
0
0
0
0
0
0
0
0
0
0
0
0
0
0
0
0
0
0
0
0
0
0
0
0
0
0
0
0
0
0
0
0
0
0
0
0
0
0
0
0
0
0
0
0
0
0
0
0
0
0
0
0
0
0
0
0
0
0
0
0
0
0
0
0
0
0
0
0
0
0
0
0
0
0
0
0
0
0
0
0
0
0
0
0
0
0
0
0
0
0
0
0
0
0
0
0
0
0
0
0
0
0
0
0
0
0
0
0
0
0
0
0
0
0
0
0
0
0
0
0
0
0
0
0
0
0
0
0
0
0
0
0
0
0
0
0
0
0
0
0
0
0
0
0
0
0
0
0
0
0
0
0
0
0
0
0
0
0
0
0
0
0
0
0
0
0
0
0
0
0
0
0
0
0
0
0
0
0
0
0
0
0
0
0
0
0
0
0
0
0
0
0
0
0
0
0
0
0
0
0
0
0
0
0
0
0
0
0
0
0
0
0
0
0
0
0
0
0
0
0
0
0
0
0
0
0
0
0
0
0
0
0
0
0
0
0
0
0
0
0
0
0
0
0
0
0
0
0
0
0
0
0
0
0
0
0
0
0
0
0
0
0
0
0
0
0
0
0
0
0
0
0
0
0
0
0
0
0
0
0
0
0
0
0
0
0
0
0
0
0
0
0
0
0
0
0
0
0
0
0
0
0
0
0
0
0
0
0
0
0
0
0
0
0
0
0
0
0
0
0
0
0
0
0
0
0
0
0
0
0
0
0
0
0
0
0
0
0
0
0
0
0
0
0
0
0
0
0
0
0
0
0
0
0
0
0
0
0
0
0
0
0
0
0
0
0
0
0
0
0
0
0
0
0
0
0
0
0
0
0
0
0
0
0
0
0
0
0
0
0
0
0
0
0
0
0
0
0
0
0
0
0
0
0
0
0
0
0
0
0
0
0
0
0
0
0
0
0
0
0
0
0
0
0
0
0
0
0
0
0
0
0
0
0
0
0
0
0
0
0
0
0
0
0
0
0
0
0
0
0
0
0
0
0
0
0
0
0
0
0
0
0
0
0
0
0
0
0
0
0
0
0
0
0
0
0
0
0
0
0
0
0
0
0
0
0
0
0
0
0
0
0
0
0
0
0
0
0
0
0
0
0
0
0
0
0
0
0
0
0
0
0
0
0
0
0
0
0
0
0
0
0
0
0
0
0
0
0
0
0
0
0
0
0
0
0
0
0
0
0
0
0
0
0
0
0
0
0
0
0
0
0
0
0
0
0
0
0
0
0
0
0
0
0
0
0
0
0
0
0
0
0
0
0
0
0
0
0
0
0
0
0
0
0
0
0
0
0
0
0
0
0
0
0
0
0
0
0
0
0
0
0
0
0
0
0
0
0
0
0
0
0
0
0
0
0
0
0
0
0
0
0
0
0
0
0
0
0
0
0
0
0
0
0
0
0
0
0
0
0
0
0
0
0
0
0
0
0
0
0
0
0
0
0
0
0
0
0
0
0
0
0
0
0
0
0
0
0
0
0
0
0
0
0
0
0
0
0
0
0
0
0
0
0
0
0
0
0
0
0
0
0
0
0
0
0
0
0
0
0
0
0
0
0
0
0
0
0
0
0
0
0
0
0
0
0
0
0
0
0
0
0
0
0
0
0
0
0
0
0
0
0
0
0
0
0
0
0
0
0
0
0
0
0
0
0
0
0
0
0
0
0
0
0
0
0
0
0
0
0
0
0
0
0
0
0
0
0
0
0
0
0
0
0
0
0
0
0
0
0
0
0
0
0
0
0
0
0
0
0
0
0
0
0
0
0
0
0
0
0
0
0
0
0
0
0
0
0
0
0
0
0
0
0
0
0
0
0
0
0
0
0
0
0
0
0
0
0
0
0
0
0
0
0
0
0
0
0
0
0
0
0
0
0
0
0
0
0
0
0
0
0
0
0
0
0
0
0
0
0
0
0
0
0
0
0
0
0
0
0
0
0
0
0
0
0
0
0
0
0
0
0
0
0
0
0
0
0
0
0
0
0
0
0
0
0
0
0
0
0
0
0
0
0
0
0
0
0
0
0
0
0
0
0
0
0
0
0
0
0
0
0
0
0
0
0
0
0
0
0
0
0
0
0
0
0
0
0
0
0
0
0
0
0
0
0
0
0
0
0
0
0
0
0
0
0
0
0
0
0
0
0
0
0
0
0
0
0
0
0
0
0
0
0
0
0
0
0
0
0
0
0
0
0
0
0
0
0
0
0
0
0
0
0
0
0
0
0
0
0
0
0
0
0
0
0
0
0
0
0
0
0
0
0
0
0
0
0
0
0
0
0
0
0
0
0
0
0
0
0
0
0
0
0
0
0
0
0
0
0
0
0
0
0
0
0
0
0
0
0
0
0
0
0
0
0
0
0
0
0
0
0
0
0
0
0
0
0
0
0
0
0
0
0
0
0
0
0
0
0
0
0
0
0
0
0
0
0
0
0
0
0
0
0
0
0
0
0
0
0
0
0
0
0
0
0
0
0
0
0
0
0
0
0
0
0
0
0
0
0
0
0
0
0
0
0
0
0
0
0
0
0
0
0
0
0
0
0
0
0
0
0
0
0
0
0
0
0
0
0
0
0
0
0
0
0
0
0
0
0
0
0
0
0
0
0
0
0
0
0
0
0
0
0
0
0
0
0
0
0
0
0
0
0
0
0
0
0
0
0
0
0
0
0
0
0
0
0
0
0
0
0
0
0
0
0
0
0
0
0
0
0
0
0
0
0
0
0
0
0
0
0
0
0
0
0
0
0
0
0
0
0
0
0
0
0
0
0
0
0
0
0
0
0
0
0
0
0
0
0
0
0
0
0
0
0
0
0
0
0
0
0
0
0
0
0
0
0
0
0
0
0
0
0
0
0
0
0
0
0
0
0
0
0
0
0
0
0
0
0
0
0
0
0
0
0
0
0
0
0
0
0
0
0
0
0
0
0
0
0
0
0
0
0
0
0
0
0
0
0
0
0
0
0
0
0
0
0
0
0
0
0
0
0
0
0
0
0
0
0
0
0
0
0
0
0
0
0
0
0
0
0
0
0
0
0
0
0
0
0
0
0
0
0
0
0
0
0
0
0
0
0
0
0
0
0
0
0
0
0
0
0
0
0
0
0
0
0
0
0
0
0
0
0
0
0
0
0
0
0
0
0
0
0
0
0
0
0
0
0
0
0
0
0
0
0
0
0
0
0
0
0
0
0
0
0
0
0
0
0
0
0
0
0
0
0
0
0
0
0
0
0
0
0
0
0
0
0
0
0
0
0
0
0
0
0
0
0
0
0
0
0
0
0
0
0
0
0
0
0
0
0
0
0
0
3.51597595e-299
1.48069791e-299
2.04846283e-296
8.74663919e-297
1.18139537e-293
5.11318519e-294
6.74450615e-291
2.95820348e-291
3.81148936e-288
1.69379267e-288
2.13221066e-285
9.59810731e-286
1.18074673e-282
5.38295684e-283
6.4725328e-280
2.98794692e-280
3.51221819e-277
1.64137266e-277
1.88658558e-274
8.92464906e-275
1.00312863e-271
4.80293467e-272
5.27981071e-269
2.55740115e-269
2.75078993e-266
1.34844012e-266
1.41862887e-263
7.03628456e-264
7.24180143e-261
3.63505612e-261
3.6591839e-258
1.85755438e-258
1.83009746e-255
9.39446299e-256
9.05958483e-253
4.70214875e-253
4.4389207e-250
2.32920515e-250
2.15264084e-247
1.14182122e-247
1.03318979e-244
5.53934622e-245
4.90785101e-242
2.65937143e-242
2.30724063e-239
1.26342262e-239
1.07342403e-236
5.93957737e-237
4.94210985e-234
2.76303743e-234
2.25165046e-231
1.27182806e-231
1.01512837e-228
5.79249281e-229
4.5285102e-226
2.61025001e-226
1.9988773e-223
1.16375404e-223
8.72960019e-221
5.13315903e-221
3.77189875e-218
2.23992523e-218
1.61236052e-215
9.66912952e-216
6.81834048e-213
4.12881042e-213
2.85224277e-210
1.74390867e-210
1.18021555e-207
7.28551289e-208
4.83034173e-205
3.01029673e-205
1.95528259e-202
1.23011365e-202
7.82760033e-200
4.97096454e-200
3.09889056e-197
1.98640158e-197
1.21314332e-194
7.84864272e-195
4.69585576e-192
3.06614024e-192
1.79713748e-189
1.18420492e-189
6.79950869e-187
4.52131879e-187
2.54312546e-184
1.70636283e-184
9.40188473e-182
6.36515056e-182
3.43542353e-179
2.34659707e-179
1.24057676e-176
8.54910807e-177
4.42693475e-174
3.07761121e-174
1.5609003e-171
1.09464646e-171
5.43743981e-169
3.84641276e-169
1.87117273e-166
1.33509649e-166
6.3603994e-164
4.57714976e-164
2.13528081e-161
1.54971643e-161
7.0790123e-159
5.18120608e-159
2.31729981e-156
1.71031346e-156
7.48904221e-154
5.57351574e-154
2.38915931e-151
1.79279866e-151
7.52274924e-149
5.6914146e-149
2.33752376e-146
1.78291415e-146
7.166649e-144
5.51054492e-144
2.16763819e-141
1.68012723e-141
6.46688303e-139
5.052426e-139
1.90267544e-136
1.49827488e-136
5.51971492e-134
4.38063559e-134
1.57858573e-131
1.26256512e-131
4.4497243e-129
3.58636794e-129
1.23600865e-126
1.00380625e-126
3.38251338e-124
2.76786286e-124
9.11778e-122
7.51692643e-122
2.42029238e-119
2.01017605e-119
6.32511761e-117
5.29198104e-117
1.62696946e-114
1.371135e-114
4.11796797e-112
3.49544125e-112
1.02531305e-109
8.76516655e-110
2.5105637e-107
2.16135098e-107
6.0435517e-105
5.23915986e-105
1.42980814e-102
1.24803499e-102
3.32337194e-100
2.92059258e-100
7.58646193e-98
6.71176845e-98
1.7001767e-95
1.51411605e-95
3.7391234e-93
3.35168499e-93
8.06647095e-91
7.2772151e-91
1.70624865e-88
1.5490705e-88
3.53705679e-86
3.23129116e-86
7.18235543e-84
6.60181082e-84
1.42786882e-81
1.32039066e-81
2.7775625e-79
2.58375067e-79
5.2836738e-77
4.94366304e-77
9.82270077e-75
9.24319419e-75
1.78343321e-72
1.68762967e-72
3.16011226e-70
3.0067777e-70
5.46053453e-68
5.22348342e-68
9.1938723e-66
8.8408833e-66
1.50698907e-63
1.45654204e-63
2.4024754e-61
2.33360961e-61
3.72136226e-59
3.63214992e-59
5.59448952e-57
5.48584842e-57
8.15297473e-55
8.03038089e-55
1.150286e-52
1.13775512e-52
1.56897654e-50
1.557772e-50
2.06575117e-48
2.05727202e-48
2.62093573e-46
2.61460204e-46
3.1984859e-44
3.18856316e-44
3.74672124e-42
3.72092018e-42
4.2032634e-40
4.14886545e-40
4.50440693e-38
4.43389815e-38
4.59762923e-36
4.59606822e-36
4.45458312e-34
4.43981103e-34
4.08330624e-32
4.0593275e-32
3.52559934e-30
3.50184079e-30
2.85326899e-28
2.83541126e-28
2.15210768e-26
2.13629876e-26
1.50274085e-24
1.48784484e-24
9.63598112e-23
9.4379536e-23
5.61917548e-21
5.61155928e-21
2.94184609e-19
2.93513447e-19
1.36259451e-17
1.35815109e-17
5.46889883e-16
5.44461062e-16
1.84987721e-14
1.8364525e-14
5.06670611e-13
5.06283292e-13
1.05485551e-11
1.05981011e-11
1.34723206e-08
1.35826002e-08
0.0950164247
0.381660339
7.78386815
9.05863931
8.46997534
7.53636653
2.51972081
2.06477661
0.393886315
0.346041614
0.0887994431
0.0807048269
0.0176640125
0.0166952236
0.00315979445
0.003099145
0.000527536998
0.000526871362
8.78389355e-05
8.78308412e-05
1.917698e-05
1.92138954e-05
9.32762237e-06
9.32894854e-06
8.00334082e-06
8.00408855e-06
7.83800658e-06
7.83810183e-06
7.81855513e-06
7.81856149e-06
7.81637839e-06
7.81639308e-06
7.81614988e-06
7.81617225e-06
7.81611965e-06
7.81615458e-06
7.81612045e-06
7.81612968e-06
7.81612886e-06
7.81611627e-06
7.81613643e-06
7.8161206e-06
7.8161397e-06
7.81612404e-06
7.81613856e-06
7.81612802e-06
7.8161368e-06
7.81613471e-06
7.81614379e-06
7.81613158e-06
7.81614184e-06
7.81613181e-06
7.81614002e-06
7.81613848e-06
7.81613475e-06
7.81613787e-06
7.81613029e-06
7.81614863e-06
7.81612889e-06
7.81613569e-06
7.81613548e-06
7.81614163e-06
7.81612928e-06
7.81612213e-06
7.81613272e-06
7.81613276e-06
7.81613068e-06
7.81613797e-06
7.81612854e-06
7.81614568e-06
7.81611927e-06
7.81612773e-06
7.81612404e-06
7.81613724e-06
7.81612234e-06
7.81614266e-06
7.81613273e-06
7.81614281e-06
7.8161252e-06
7.81614616e-06
7.81612684e-06
7.81613651e-06
7.81613127e-06
7.81613737e-06
7.81613477e-06
7.81612608e-06
7.81614501e-06
7.81612464e-06
7.81614169e-06
7.81610822e-06
7.81615508e-06
7.81612201e-06
7.81614732e-06
7.81612783e-06
7.81614748e-06
7.81612615e-06
7.81614186e-06
7.8161403e-06
7.81613674e-06
7.81613824e-06
7.81613087e-06
7.81613964e-06
7.81613695e-06
7.8161357e-06
7.81613625e-06
7.81613834e-06
7.81613641e-06
7.81613025e-06
7.81613355e-06
7.816137e-06
7.8161292e-06
7.81613801e-06
7.81613141e-06
7.81613193e-06
7.8161274e-06
7.81613552e-06
7.81612161e-06
7.81614019e-06
7.81612495e-06
7.8161534e-06
7.81612054e-06
7.81614479e-06
7.81611928e-06
7.81613894e-06
7.81613397e-06
7.81613558e-06
7.81612792e-06
7.8161478e-06
7.81613307e-06
7.81614696e-06
7.8161409e-06
7.81613618e-06
7.81615026e-06
7.81614397e-06
7.81613391e-06
7.81615241e-06
7.81613245e-06
7.81614583e-06
7.8161396e-06
7.81612939e-06
7.8161379e-06
7.81613593e-06
7.81612064e-06
7.81614518e-06
7.81611992e-06
7.81614174e-06
7.81612216e-06
7.81613947e-06
7.81614353e-06
7.81612322e-06
7.81614762e-06
7.81612796e-06
7.81614672e-06
7.81612582e-06
7.8161465e-06
7.81613677e-06
7.8161407e-06
7.81613433e-06
7.81613696e-06
7.8161301e-06
7.81616006e-06
7.81611731e-06
7.81615941e-06
7.81612082e-06
7.81616125e-06
7.81612704e-06
7.8161461e-06
7.81614067e-06
7.81613604e-06
7.81613399e-06
7.81612707e-06
7.81612955e-06
7.81613134e-06
7.81614155e-06
7.81612827e-06
7.81613721e-06
7.81614419e-06
7.81613946e-06
7.81614635e-06
7.81614458e-06
7.81614378e-06
7.81615059e-06
7.81613957e-06
7.81615179e-06
7.81613387e-06
7.81613598e-06
7.81614182e-06
7.81613796e-06
7.81614315e-06
7.81613348e-06
7.81615056e-06
7.81612733e-06
7.81614375e-06
7.81613562e-06
7.8161476e-06
7.81613059e-06
7.81613459e-06
7.81613432e-06
7.81614313e-06
7.81613046e-06
7.81616052e-06
7.81611842e-06
7.8161572e-06
7.81613112e-06
7.81614451e-06
7.8161402e-06
7.81613605e-06
7.81613734e-06
7.81615143e-06
7.81614347e-06
7.81614356e-06
7.81614361e-06
7.81614154e-06
7.81614217e-06
7.81614535e-06
7.81614379e-06
7.81613542e-06
7.81613929e-06
7.81613375e-06
7.81615055e-06
7.81613755e-06
7.81613874e-06
7.81614266e-06
7.81614493e-06
7.81614543e-06
7.81613721e-06
7.81616227e-06
7.816127e-06
7.81614802e-06
7.81614496e-06
7.8161374e-06
7.81614876e-06
7.81613291e-06
7.81614777e-06
7.81614036e-06
7.81615233e-06
7.81613809e-06
7.81615359e-06
7.81613784e-06
7.81615073e-06
7.81614897e-06
7.81615876e-06
7.81612658e-06
7.81616564e-06
7.81612306e-06
7.81615605e-06
7.81613221e-06
7.81614033e-06
7.81614413e-06
7.81612411e-06
7.81615148e-06
7.8161333e-06
7.81614589e-06
7.8161367e-06
7.81615165e-06
7.81614357e-06
7.81613867e-06
7.81614655e-06
7.81614445e-06
7.81614876e-06
7.81614678e-06
7.81614006e-06
7.81614993e-06
7.81614082e-06
7.81614748e-06
7.81613074e-06
7.81614764e-06
7.81613662e-06
7.816146e-06
7.81612529e-06
7.81615901e-06
7.81613017e-06
7.81614413e-06
7.81614566e-06
7.81614727e-06
7.81614788e-06
7.81614114e-06
7.81614764e-06
7.81614142e-06
7.81614127e-06
7.8161462e-06
7.8161397e-06
7.81614092e-06
7.81614405e-06
7.81613962e-06
7.81614139e-06
7.81614262e-06
7.81614913e-06
7.81613869e-06
7.81614778e-06
7.81614503e-06
7.81614079e-06
7.81615568e-06
7.81613066e-06
7.81613674e-06
7.81614447e-06
7.81613997e-06
7.81615349e-06
7.81615338e-06
7.81615166e-06
7.81614378e-06
7.81614784e-06
7.81615424e-06
7.81614396e-06
7.81614052e-06
7.81614995e-06
7.81614372e-06
7.81613828e-06
7.81613278e-06
7.81615352e-06
7.81613261e-06
7.81616043e-06
7.81613189e-06
7.81615931e-06
7.81614463e-06
7.81614592e-06
7.81615382e-06
7.81614665e-06
7.8161446e-06
7.81612701e-06
7.81616163e-06
7.81612416e-06
7.81616338e-06
7.81612755e-06
7.8161583e-06
7.81613701e-06
7.81613916e-06
7.81614948e-06
7.81614592e-06
7.8161487e-06
7.81615239e-06
7.81614375e-06
7.81614925e-06
7.81614795e-06
7.816138e-06
7.81614606e-06
7.81615003e-06
7.81615515e-06
7.81613788e-06
7.81614922e-06
7.81614888e-06
7.81615643e-06
7.81614909e-06
7.81615369e-06
7.81614995e-06
7.81614614e-06
7.81614179e-06
7.81615596e-06
7.81614946e-06
7.81614015e-06
7.81616057e-06
7.81614393e-06
7.81614487e-06
7.81614484e-06
7.81614283e-06
7.8161432e-06
7.81615132e-06
7.8161433e-06
7.81615717e-06
7.81614751e-06
7.81614405e-06
7.81615091e-06
7.81614548e-06
7.81615044e-06
7.81614979e-06
7.81614785e-06
7.81614924e-06
7.81614906e-06
7.81615976e-06
7.81615351e-06
7.81615197e-06
7.8161553e-06
7.81615673e-06
7.81614612e-06
7.81616267e-06
7.81614382e-06
7.81615666e-06
7.81614589e-06
7.8161568e-06
7.8161461e-06
7.81615207e-06
7.8161456e-06
7.81615232e-06
7.81614832e-06
7.81615121e-06
7.81615565e-06
7.81614173e-06
7.816155e-06
7.81613719e-06
7.81615818e-06
7.81613613e-06
7.8161574e-06
7.816143e-06
7.81614995e-06
7.81614735e-06
7.81615129e-06
7.81615408e-06
7.81614992e-06
7.81615478e-06
7.8161484e-06
7.81614958e-06
7.81614453e-06
7.81614531e-06
7.81616027e-06
7.81613183e-06
7.81616607e-06
7.81613419e-06
7.81616662e-06
7.81614729e-06
7.81614824e-06
7.81615098e-06
7.81615609e-06
7.81614994e-06
7.81615735e-06
7.81614584e-06
7.81615206e-06
7.8161529e-06
7.81615445e-06
7.81615327e-06
7.81615607e-06
7.81616191e-06
7.81615897e-06
7.8161435e-06
7.81617156e-06
7.81614417e-06
7.81616665e-06
7.81614905e-06
7.81616011e-06
7.81614868e-06
7.81616344e-06
7.81615164e-06
7.81616336e-06
7.81615987e-06
7.81614456e-06
7.81617138e-06
7.81614879e-06
7.81616608e-06
7.81615575e-06
7.81616011e-06
7.81615627e-06
7.81615315e-06
7.81615646e-06
7.81614606e-06
7.81615976e-06
7.81614821e-06
7.81615918e-06
7.81615558e-06
7.81616141e-06
7.81615307e-06
7.81615862e-06
7.81616035e-06
7.81615373e-06
7.81615591e-06
7.81614865e-06
7.8161507e-06
7.81615699e-06
7.81615292e-06
7.8161537e-06
7.81615933e-06
7.81615503e-06
7.81615786e-06
7.81615345e-06
7.81615048e-06
7.81616139e-06
7.81614716e-06
7.81617156e-06
7.81615656e-06
7.81616467e-06
7.81615021e-06
7.816162e-06
7.81614641e-06
7.81614968e-06
7.81615062e-06
7.81614486e-06
7.81615802e-06
7.81615717e-06
7.81615521e-06
7.81616114e-06
7.81615197e-06
7.81615407e-06
7.81614952e-06
7.81615789e-06
7.81614843e-06
7.81615556e-06
7.81615127e-06
7.81614961e-06
7.81614956e-06
7.81614986e-06
7.81615601e-06
7.81615111e-06
7.8161581e-06
7.8161496e-06
7.81617099e-06
7.81614748e-06
7.81616701e-06
7.81613044e-06
7.81617664e-06
7.81614148e-06
7.81616313e-06
7.81614184e-06
7.81615662e-06
7.81615327e-06
7.81615926e-06
7.81616052e-06
7.81616089e-06
7.81614811e-06
7.81616805e-06
7.81615198e-06
7.81615654e-06
7.81615593e-06
7.8161593e-06
7.81615333e-06
7.81616129e-06
7.81615587e-06
7.81616047e-06
7.81615647e-06
7.8161577e-06
7.81616051e-06
7.81615705e-06
7.81615636e-06
7.81616101e-06
7.81615909e-06
7.81615986e-06
7.81615845e-06
7.81615992e-06
7.8161587e-06
7.81616036e-06
7.81616059e-06
7.81616121e-06
7.81616128e-06
7.81616201e-06
7.8161632e-06
7.81616365e-06
7.81616316e-06
7.81616471e-06
7.81616557e-06
7.8161656e-06
7.81616684e-06
7.81616784e-06
7.81616935e-06
7.81617012e-06
7.81617134e-06
7.81617309e-06
7.81617437e-06
7.81617645e-06
7.81617887e-06
7.81618143e-06
7.81618378e-06
7.81618723e-06
7.8161904e-06
7.81619352e-06
7.8161968e-06
7.81619956e-06
7.81620166e-06
7.81620349e-06
7.81620449e-06
7.81620488e-06
7.8162049e-06
7.81620509e-06
7.81620557e-06
7.81620523e-06
7.81620547e-06
7.81620537e-06
7.81620537e-06
7.81620553e-06
7.81620545e-06
7.81620537e-06
7.81620556e-06
7.81620531e-06
7.81620542e-06
7.81620532e-06
7.81620535e-06
7.81620535e-06
7.81620537e-06
7.81620542e-06
7.81620531e-06
7.81620517e-06
7.81620565e-06
)
;

boundaryField
{
    closed
    {
        type            calculated;
        value           uniform 0;
    }
    open
    {
        type            calculated;
        value           uniform 0;
    }
    sides
    {
        type            empty;
    }
}


// ************************************************************************* //
