/*--------------------------------*- C++ -*----------------------------------*\
| =========                 |                                                 |
| \\      /  F ield         | OpenFOAM: The Open Source CFD Toolbox           |
|  \\    /   O peration     | Version:  2206                                  |
|   \\  /    A nd           | Website:  www.openfoam.com                      |
|    \\/     M anipulation  |                                                 |
\*---------------------------------------------------------------------------*/
FoamFile
{
    version     2.0;
    format      ascii;
    arch        "LSB;label=32;scalar=64";
    class       volVectorField;
    location    "1.56e-05";
    object      U;
}
// * * * * * * * * * * * * * * * * * * * * * * * * * * * * * * * * * * * * * //

dimensions      [0 1 -1 0 0 0 0];

internalField   nonuniform List<vector> 
3183
(
(4.62305554e-13 0 0)
(1.80194034e-13 0 0)
(-3.29908701e-13 0 0)
(-3.89064242e-13 0 0)
(-1.65855858e-13 0 0)
(-1.09449603e-17 0 0)
(-8.33623035e-19 0 0)
(-7.69068448e-23 0 0)
(1.97995661e-20 0 0)
(1.58946914e-18 0 0)
(2.282331e-14 0 0)
(2.72959114e-13 0 0)
(6.87852589e-13 0 0)
(2.6236277e-13 0 0)
(1.71266493e-13 0 0)
(2.20522158e-14 0 0)
(-3.67661909e-13 0 0)
(-6.8401936e-13 0 0)
(-9.29243744e-13 0 0)
(-2.11993138e-13 0 0)
(3.6013756e-13 0 0)
(1.93714613e-16 0 0)
(1.26146779e-13 0 0)
(3.59249398e-13 0 0)
(4.42055193e-13 0 0)
(7.09932836e-13 0 0)
(8.81953449e-13 0 0)
(7.92498346e-13 0 0)
(1.28987108e-13 0 0)
(1.79519436e-13 0 0)
(-3.11601219e-14 0 0)
(-5.02184235e-14 0 0)
(-6.3805884e-13 0 0)
(-9.28454624e-13 0 0)
(-8.03350054e-13 0 0)
(-7.7485073e-13 0 0)
(-9.9657612e-13 0 0)
(-1.03705003e-12 0 0)
(-1.15209766e-12 0 0)
(-1.09938244e-12 0 0)
(-7.08500334e-13 0 0)
(-2.19705682e-13 0 0)
(4.62631826e-13 0 0)
(3.54860339e-13 0 0)
(8.69410521e-13 0 0)
(1.2363557e-12 0 0)
(1.14189111e-12 0 0)
(1.59474615e-12 0 0)
(1.56286281e-12 0 0)
(1.8492852e-12 0 0)
(1.64192012e-12 0 0)
(1.67507253e-12 0 0)
(9.02332547e-13 0 0)
(7.38558375e-13 0 0)
(3.67398678e-13 0 0)
(-2.75233233e-13 0 0)
(-6.26062939e-13 0 0)
(-1.00217323e-12 0 0)
(-1.6410349e-12 0 0)
(-1.90777197e-12 0 0)
(-2.43992323e-12 0 0)
(-3.01976134e-12 0 0)
(-3.11418782e-12 0 0)
(-3.9264267e-12 0 0)
(-3.79778791e-12 0 0)
(-4.15008774e-12 0 0)
(-4.67172663e-12 0 0)
(-4.37450417e-12 0 0)
(-4.91373734e-12 0 0)
(-5.46200479e-12 0 0)
(-5.29888056e-12 0 0)
(-5.49330114e-12 0 0)
(-5.08720943e-12 0 0)
(-5.25878688e-12 0 0)
(-6.08243711e-12 0 0)
(-5.65330992e-12 0 0)
(-5.66586048e-12 0 0)
(-5.58322413e-12 0 0)
(-5.46212337e-12 0 0)
(-5.59107108e-12 0 0)
(-6.38102479e-12 0 0)
(-5.62726154e-12 0 0)
(-5.64226028e-12 0 0)
(-6.7075624e-12 0 0)
(-5.84164007e-12 0 0)
(-5.9491363e-12 0 0)
(-6.57762253e-12 0 0)
(-6.76810425e-12 0 0)
(-5.95684864e-12 0 0)
(-6.20704377e-12 0 0)
(-7.78569305e-12 0 0)
(-7.28126969e-12 0 0)
(-6.61803523e-12 0 0)
(-7.84693715e-12 0 0)
(-8.01192536e-12 0 0)
(-8.18573918e-12 0 0)
(-7.81608373e-12 0 0)
(-7.65448641e-12 0 0)
(-8.13025465e-12 0 0)
(-7.71794462e-12 0 0)
(-7.89867494e-12 0 0)
(-8.35249111e-12 0 0)
(-8.83369283e-12 0 0)
(-8.82454744e-12 0 0)
(-8.8225785e-12 0 0)
(-8.98934276e-12 0 0)
(-9.24082003e-12 0 0)
(-9.43836391e-12 0 0)
(-1.0040347e-11 0 0)
(-9.85983638e-12 0 0)
(-8.29867264e-12 0 0)
(-8.46559235e-12 0 0)
(-8.41379819e-12 0 0)
(-8.60219482e-12 0 0)
(-9.147255e-12 0 0)
(-1.00257373e-11 0 0)
(-9.0316599e-12 0 0)
(-9.26595409e-12 0 0)
(-9.49405929e-12 0 0)
(-1.09261102e-11 0 0)
(-1.03933026e-11 0 0)
(-9.30828126e-12 0 0)
(-8.80362553e-12 0 0)
(-9.52404815e-12 0 0)
(-9.88667046e-12 0 0)
(-9.22133809e-12 0 0)
(-9.3846912e-12 0 0)
(-1.02394098e-11 0 0)
(-9.35827408e-12 0 0)
(-1.03140125e-11 0 0)
(-9.49990285e-12 0 0)
(-9.51051245e-12 0 0)
(-1.1032961e-11 0 0)
(-1.06258047e-11 0 0)
(-9.72069334e-12 0 0)
(-1.03865901e-11 0 0)
(-1.12245311e-11 0 0)
(-1.05203484e-11 0 0)
(-1.10480038e-11 0 0)
(-1.02942226e-11 0 0)
(-1.14226585e-11 0 0)
(-1.13469558e-11 0 0)
(-1.13244123e-11 0 0)
(-1.12695641e-11 0 0)
(-9.57341543e-12 0 0)
(-1.11728458e-11 0 0)
(-1.09380547e-11 0 0)
(-1.09261483e-11 0 0)
(-1.06482055e-11 0 0)
(-9.62853365e-12 0 0)
(-9.87230604e-12 0 0)
(-1.12048302e-11 0 0)
(-1.17170297e-11 0 0)
(-1.06324175e-11 0 0)
(-1.13391824e-11 0 0)
(-1.08890535e-11 0 0)
(-1.22947952e-11 0 0)
(-1.23722808e-11 0 0)
(-1.12281212e-11 0 0)
(-1.26453199e-11 0 0)
(-1.13323477e-11 0 0)
(-1.17244244e-11 0 0)
(-1.18431193e-11 0 0)
(-1.11908343e-11 0 0)
(-1.22147844e-11 0 0)
(-1.17151615e-11 0 0)
(-1.0936572e-11 0 0)
(-1.10272291e-11 0 0)
(-1.21539314e-11 0 0)
(-1.24461375e-11 0 0)
(-1.22599299e-11 0 0)
(-1.11774941e-11 0 0)
(-1.31218293e-11 0 0)
(-1.19523387e-11 0 0)
(-1.27776947e-11 0 0)
(-1.23946623e-11 0 0)
(-1.3146875e-11 0 0)
(-1.2289197e-11 0 0)
(-1.18961593e-11 0 0)
(-1.38605316e-11 0 0)
(-1.21312092e-11 0 0)
(-1.32757599e-11 0 0)
(-1.28797588e-11 0 0)
(-1.28860438e-11 0 0)
(-1.31627845e-11 0 0)
(-1.36564296e-11 0 0)
(-1.25773738e-11 0 0)
(-1.33809377e-11 0 0)
(-1.35090566e-11 0 0)
(-1.25382891e-11 0 0)
(-1.29804471e-11 0 0)
(-1.2858614e-11 0 0)
(-1.25855483e-11 0 0)
(-1.28002086e-11 0 0)
(-1.37443711e-11 0 0)
(-1.26191284e-11 0 0)
(-1.32142619e-11 0 0)
(-1.31751037e-11 0 0)
(-1.3408735e-11 0 0)
(-1.34933163e-11 0 0)
(-1.31298934e-11 0 0)
(-1.26479878e-11 0 0)
(-1.3099877e-11 0 0)
(-1.41211028e-11 0 0)
(-1.43354938e-11 0 0)
(-1.31257748e-11 0 0)
(-1.3010145e-11 0 0)
(-1.2872334e-11 0 0)
(-1.4374859e-11 0 0)
(-1.31964222e-11 0 0)
(-1.29108442e-11 0 0)
(-1.29843038e-11 0 0)
(-1.28886108e-11 0 0)
(-1.37480335e-11 0 0)
(-1.36333654e-11 0 0)
(-1.38129546e-11 0 0)
(-1.34003275e-11 0 0)
(-1.33773353e-11 0 0)
(-1.2792827e-11 0 0)
(-1.40069341e-11 0 0)
(-1.36866496e-11 0 0)
(-1.41618617e-11 0 0)
(-1.39008131e-11 0 0)
(-1.39479958e-11 0 0)
(-1.40341052e-11 0 0)
(-1.43275372e-11 0 0)
(-1.43580944e-11 0 0)
(-1.57064516e-11 0 0)
(-1.44197786e-11 0 0)
(-1.52191312e-11 0 0)
(-1.54735185e-11 0 0)
(-1.5839944e-11 0 0)
(-1.59323421e-11 0 0)
(-1.58656434e-11 0 0)
(-1.68187683e-11 0 0)
(-1.550609e-11 0 0)
(-1.52342373e-11 0 0)
(-1.6927235e-11 0 0)
(-1.77098078e-11 0 0)
(-1.7237726e-11 0 0)
(-1.7678587e-11 0 0)
(-1.69911964e-11 0 0)
(-1.63869691e-11 0 0)
(-1.66312315e-11 0 0)
(-1.73674735e-11 0 0)
(-1.77225678e-11 0 0)
(-1.66293747e-11 0 0)
(-1.76225018e-11 0 0)
(-1.75511216e-11 0 0)
(-1.74402908e-11 0 0)
(-1.58897459e-11 0 0)
(-1.69970793e-11 0 0)
(-1.67980666e-11 0 0)
(-1.6569044e-11 0 0)
(-1.76504925e-11 0 0)
(-1.63620424e-11 0 0)
(-1.6973374e-11 0 0)
(-1.67393568e-11 0 0)
(-1.75281089e-11 0 0)
(-1.74483797e-11 0 0)
(-1.77403644e-11 0 0)
(-1.83768175e-11 0 0)
(-1.94599181e-11 0 0)
(-1.68487697e-11 0 0)
(-1.89105241e-11 0 0)
(-1.91837917e-11 0 0)
(-1.81992432e-11 0 0)
(-1.86876547e-11 0 0)
(-1.80633858e-11 0 0)
(-1.76718576e-11 0 0)
(-1.77166982e-11 0 0)
(-1.82178012e-11 0 0)
(-1.81000958e-11 0 0)
(-1.76898713e-11 0 0)
(-1.81139423e-11 0 0)
(-1.70858454e-11 0 0)
(-1.8297535e-11 0 0)
(-1.90116159e-11 0 0)
(-1.74717783e-11 0 0)
(-1.80453609e-11 0 0)
(-1.73486356e-11 0 0)
(-1.79197106e-11 0 0)
(-1.80767625e-11 0 0)
(-1.74958298e-11 0 0)
(-1.71556142e-11 0 0)
(-1.79427662e-11 0 0)
(-1.77017955e-11 0 0)
(-1.87232775e-11 0 0)
(-1.8671148e-11 0 0)
(-1.75698521e-11 0 0)
(-1.9029857e-11 0 0)
(-1.81454624e-11 0 0)
(-1.90230334e-11 0 0)
(-1.7493111e-11 0 0)
(-1.80488609e-11 0 0)
(-1.77209992e-11 0 0)
(-1.88084067e-11 0 0)
(-1.92554544e-11 0 0)
(-1.88690547e-11 0 0)
(-1.98754296e-11 0 0)
(-1.89268781e-11 0 0)
(-2.02049579e-11 0 0)
(-1.86837537e-11 0 0)
(-1.94038323e-11 0 0)
(-1.97982198e-11 0 0)
(-2.01095169e-11 0 0)
(-1.80828151e-11 0 0)
(-1.83656722e-11 0 0)
(-1.94353983e-11 0 0)
(-1.94044643e-11 0 0)
(-1.90537911e-11 0 0)
(-1.91079754e-11 0 0)
(-1.86389478e-11 0 0)
(-1.91464887e-11 0 0)
(-1.83838154e-11 0 0)
(-1.88012009e-11 0 0)
(-1.82291939e-11 0 0)
(-1.94575943e-11 0 0)
(-1.84320899e-11 0 0)
(-1.90806795e-11 0 0)
(-1.89288084e-11 0 0)
(-1.89333812e-11 0 0)
(-1.94505271e-11 0 0)
(-1.85704093e-11 0 0)
(-1.88536309e-11 0 0)
(-1.89984878e-11 0 0)
(-1.89483464e-11 0 0)
(-1.92504576e-11 0 0)
(-1.8765191e-11 0 0)
(-1.95067401e-11 0 0)
(-1.85768645e-11 0 0)
(-1.86203531e-11 0 0)
(-1.87762344e-11 0 0)
(-1.78055162e-11 0 0)
(-1.76113584e-11 0 0)
(-1.75916218e-11 0 0)
(-1.81232542e-11 0 0)
(-1.94853414e-11 0 0)
(-1.86073383e-11 0 0)
(-1.9144623e-11 0 0)
(-1.82505077e-11 0 0)
(-1.90301581e-11 0 0)
(-1.78401032e-11 0 0)
(-1.7961034e-11 0 0)
(-1.80494844e-11 0 0)
(-1.78523073e-11 0 0)
(-1.88343639e-11 0 0)
(-1.76761431e-11 0 0)
(-1.75303584e-11 0 0)
(-1.90612037e-11 0 0)
(-1.80027866e-11 0 0)
(-1.80019882e-11 0 0)
(-1.796874e-11 0 0)
(-1.82491065e-11 0 0)
(-1.74491026e-11 0 0)
(-1.84159131e-11 0 0)
(-1.89299811e-11 0 0)
(-1.84957222e-11 0 0)
(-1.8961183e-11 0 0)
(-1.76028676e-11 0 0)
(-1.82195425e-11 0 0)
(-1.88203162e-11 0 0)
(-1.84695901e-11 0 0)
(-1.90376164e-11 0 0)
(-1.7731375e-11 0 0)
(-1.91755028e-11 0 0)
(-1.86993524e-11 0 0)
(-1.90014599e-11 0 0)
(-1.8361004e-11 0 0)
(-1.91305042e-11 0 0)
(-1.80252009e-11 0 0)
(-1.85550479e-11 0 0)
(-1.86572356e-11 0 0)
(-1.76998318e-11 0 0)
(-1.78966485e-11 0 0)
(-1.85619728e-11 0 0)
(-1.81387288e-11 0 0)
(-1.79368994e-11 0 0)
(-1.84171723e-11 0 0)
(-1.82455579e-11 0 0)
(-1.75142969e-11 0 0)
(-1.72723447e-11 0 0)
(-1.80611895e-11 0 0)
(-1.78081301e-11 0 0)
(-1.74081797e-11 0 0)
(-1.8041313e-11 0 0)
(-1.76803632e-11 0 0)
(-1.85592377e-11 0 0)
(-1.73758787e-11 0 0)
(-1.75469836e-11 0 0)
(-1.68982943e-11 0 0)
(-1.6909666e-11 0 0)
(-1.67887523e-11 0 0)
(-1.56606409e-11 0 0)
(-1.60454475e-11 0 0)
(-1.54559547e-11 0 0)
(-1.66862704e-11 0 0)
(-1.70985606e-11 0 0)
(-1.64408054e-11 0 0)
(-1.52448078e-11 0 0)
(-1.61623278e-11 0 0)
(-1.57342745e-11 0 0)
(-1.48992445e-11 0 0)
(-1.58047414e-11 0 0)
(-1.45368057e-11 0 0)
(-1.42564699e-11 0 0)
(-1.53173063e-11 0 0)
(-1.51493674e-11 0 0)
(-1.4238377e-11 0 0)
(-1.45842235e-11 0 0)
(-1.51289175e-11 0 0)
(-1.41682919e-11 0 0)
(-1.44070862e-11 0 0)
(-1.47822797e-11 0 0)
(-1.54306455e-11 0 0)
(-1.43203001e-11 0 0)
(-1.44795253e-11 0 0)
(-1.42798888e-11 0 0)
(-1.53535549e-11 0 0)
(-1.50870491e-11 0 0)
(-1.50147576e-11 0 0)
(-1.47659034e-11 0 0)
(-1.37160315e-11 0 0)
(-1.43916434e-11 0 0)
(-1.46410406e-11 0 0)
(-1.43440045e-11 0 0)
(-1.41178446e-11 0 0)
(-1.37580286e-11 0 0)
(-1.36233429e-11 0 0)
(-1.31787082e-11 0 0)
(-1.32799675e-11 0 0)
(-1.41659847e-11 0 0)
(-1.32678192e-11 0 0)
(-1.32369356e-11 0 0)
(-1.33941971e-11 0 0)
(-1.274737e-11 0 0)
(-1.30034546e-11 0 0)
(-1.35849001e-11 0 0)
(-1.19679425e-11 0 0)
(-1.15541346e-11 0 0)
(-1.23270288e-11 0 0)
(-1.20849119e-11 0 0)
(-1.30903677e-11 0 0)
(-1.21528036e-11 0 0)
(-1.19974499e-11 0 0)
(-1.20759355e-11 0 0)
(-1.23568945e-11 0 0)
(-1.28692371e-11 0 0)
(-1.25990787e-11 0 0)
(-1.12898772e-11 0 0)
(-1.20258329e-11 0 0)
(-1.20192603e-11 0 0)
(-1.25869083e-11 0 0)
(-1.20644083e-11 0 0)
(-1.16231966e-11 0 0)
(-1.14202917e-11 0 0)
(-1.22350564e-11 0 0)
(-1.15667496e-11 0 0)
(-1.15694647e-11 0 0)
(-1.03263748e-11 0 0)
(-1.12164713e-11 0 0)
(-1.23719454e-11 0 0)
(-1.07522732e-11 0 0)
(-1.15695051e-11 0 0)
(-1.15196149e-11 0 0)
(-1.16892268e-11 0 0)
(-1.11608105e-11 0 0)
(-1.02472776e-11 0 0)
(-1.01452545e-11 0 0)
(-9.98065213e-12 0 0)
(-9.47455575e-12 0 0)
(-8.40960788e-12 0 0)
(-9.56459622e-12 0 0)
(-9.57918012e-12 0 0)
(-1.00437973e-11 0 0)
(-9.7862245e-12 0 0)
(-9.37496618e-12 0 0)
(-9.61972848e-12 0 0)
(-1.00402067e-11 0 0)
(-9.65870508e-12 0 0)
(-1.01963628e-11 0 0)
(-9.17744283e-12 0 0)
(-9.56490811e-12 0 0)
(-8.0682442e-12 0 0)
(-8.96067311e-12 0 0)
(-8.51864082e-12 0 0)
(-8.69403304e-12 0 0)
(-1.01179113e-11 0 0)
(-8.98047582e-12 0 0)
(-8.47328772e-12 0 0)
(-8.83759524e-12 0 0)
(-9.36825754e-12 0 0)
(-9.15270712e-12 0 0)
(-8.7150484e-12 0 0)
(-8.49098663e-12 0 0)
(-8.74964164e-12 0 0)
(-8.700903e-12 0 0)
(-8.88759714e-12 0 0)
(-8.07585225e-12 0 0)
(-7.57816771e-12 0 0)
(-7.97539654e-12 0 0)
(-7.07130496e-12 0 0)
(-7.15638027e-12 0 0)
(-7.46758997e-12 0 0)
(-7.00543684e-12 0 0)
(-7.4648386e-12 0 0)
(-7.46818637e-12 0 0)
(-6.63463559e-12 0 0)
(-7.25318095e-12 0 0)
(-7.04245398e-12 0 0)
(-7.88255787e-12 0 0)
(-7.69321545e-12 0 0)
(-7.48203951e-12 0 0)
(-6.69635221e-12 0 0)
(-7.57645934e-12 0 0)
(-7.09933306e-12 0 0)
(-6.83363111e-12 0 0)
(-6.52117852e-12 0 0)
(-5.87072484e-12 0 0)
(-5.93996528e-12 0 0)
(-7.70270749e-12 0 0)
(-6.43041962e-12 0 0)
(-5.8554782e-12 0 0)
(-6.90469445e-12 0 0)
(-6.50166417e-12 0 0)
(-6.09221201e-12 0 0)
(-6.02827015e-12 0 0)
(-5.70499697e-12 0 0)
(-5.70535615e-12 0 0)
(-6.11170181e-12 0 0)
(-5.69619173e-12 0 0)
(-5.5655877e-12 0 0)
(-6.01469921e-12 0 0)
(-6.29114951e-12 0 0)
(-5.32900781e-12 0 0)
(-5.69071905e-12 0 0)
(-5.34076962e-12 0 0)
(-4.43769666e-12 0 0)
(-5.1616205e-12 0 0)
(-5.39864135e-12 0 0)
(-5.04407549e-12 0 0)
(-4.25109201e-12 0 0)
(-4.3942348e-12 0 0)
(-4.12969938e-12 0 0)
(-4.37164297e-12 0 0)
(-3.75041224e-12 0 0)
(-5.74308164e-12 0 0)
(-4.00991242e-12 0 0)
(-4.35432762e-12 0 0)
(-5.24023861e-12 0 0)
(-4.46523584e-12 0 0)
(-4.16861593e-12 0 0)
(-4.18817249e-12 0 0)
(-4.97067013e-12 0 0)
(-5.5385973e-12 0 0)
(-4.68711206e-12 0 0)
(-4.04344714e-12 0 0)
(-4.12566435e-12 0 0)
(-5.04213603e-12 0 0)
(-3.11908727e-12 0 0)
(-3.50072468e-12 0 0)
(-3.66676028e-12 0 0)
(-3.59692232e-12 0 0)
(-3.98026609e-12 0 0)
(-3.64436903e-12 0 0)
(-3.0548135e-12 0 0)
(-2.73800366e-12 0 0)
(-3.31831148e-12 0 0)
(-2.1939919e-12 0 0)
(-3.64825018e-12 0 0)
(-2.73856163e-12 0 0)
(-1.5726749e-12 0 0)
(-1.66194224e-12 0 0)
(-1.78447607e-12 0 0)
(-1.50368838e-12 0 0)
(-1.25667165e-12 0 0)
(-1.77471296e-12 0 0)
(-1.35305551e-12 0 0)
(-1.70427768e-12 0 0)
(-1.87708231e-12 0 0)
(-2.28997076e-12 0 0)
(-2.02179133e-12 0 0)
(-3.18226031e-13 0 0)
(-1.48572016e-12 0 0)
(-2.17162778e-12 0 0)
(-1.41937798e-12 0 0)
(-1.19938904e-12 0 0)
(-1.2197447e-12 0 0)
(-7.66052406e-13 0 0)
(-1.19568136e-12 0 0)
(-3.84493086e-13 0 0)
(-2.81083785e-14 0 0)
(-5.73519119e-13 0 0)
(2.94392423e-13 0 0)
(-4.54348406e-13 0 0)
(-1.55678938e-12 0 0)
(-4.89785425e-13 0 0)
(-2.80824643e-13 0 0)
(-1.53340948e-12 0 0)
(-2.41655003e-13 0 0)
(-4.89849442e-14 0 0)
(-1.31511924e-12 0 0)
(-2.02319544e-14 0 0)
(-1.36260641e-12 0 0)
(-5.79900508e-13 0 0)
(-8.48459588e-13 0 0)
(-5.6804858e-13 0 0)
(-5.67978899e-13 0 0)
(-7.83464314e-13 0 0)
(-1.40555679e-12 0 0)
(-3.84253217e-13 0 0)
(1.2778178e-13 0 0)
(-9.69557475e-13 0 0)
(-8.84949779e-13 0 0)
(-1.32801762e-13 0 0)
(6.70121336e-13 0 0)
(-9.26263562e-14 0 0)
(1.61433568e-13 0 0)
(-9.62976106e-14 0 0)
(1.04692322e-12 0 0)
(7.87166628e-13 0 0)
(2.11075835e-13 0 0)
(7.28150753e-13 0 0)
(1.04523732e-12 0 0)
(3.15929373e-13 0 0)
(8.59891351e-13 0 0)
(1.01600666e-12 0 0)
(1.54038425e-12 0 0)
(1.63635213e-12 0 0)
(1.65392538e-12 0 0)
(1.39085752e-12 0 0)
(6.85685103e-13 0 0)
(2.10491339e-12 0 0)
(2.59194557e-12 0 0)
(2.18713836e-12 0 0)
(2.32396873e-12 0 0)
(2.25192968e-12 0 0)
(2.50001993e-12 0 0)
(2.19105691e-12 0 0)
(2.03599631e-12 0 0)
(2.40651176e-12 0 0)
(1.76573946e-12 0 0)
(2.52015133e-12 0 0)
(1.95503284e-12 0 0)
(1.80334102e-12 0 0)
(2.02417117e-12 0 0)
(2.7049948e-12 0 0)
(2.46268013e-12 0 0)
(1.75227045e-12 0 0)
(3.02310154e-12 0 0)
(2.31247297e-12 0 0)
(3.09815474e-12 0 0)
(2.96638192e-12 0 0)
(2.88412494e-12 0 0)
(2.41835415e-12 0 0)
(2.58291838e-12 0 0)
(3.11845572e-12 0 0)
(1.75127363e-12 0 0)
(2.41877421e-12 0 0)
(1.2694096e-12 0 0)
(2.20149918e-12 0 0)
(3.63064107e-12 0 0)
(2.39850397e-12 0 0)
(1.43750076e-12 0 0)
(3.38776449e-12 0 0)
(1.51582014e-12 0 0)
(2.54134378e-12 0 0)
(3.49657549e-12 0 0)
(3.34498619e-12 0 0)
(2.25724919e-12 0 0)
(3.76203118e-12 0 0)
(3.36756125e-12 0 0)
(3.49922647e-12 0 0)
(2.92439543e-12 0 0)
(4.1809871e-12 0 0)
(3.0721364e-12 0 0)
(4.26323218e-12 0 0)
(3.50568044e-12 0 0)
(4.17482939e-12 0 0)
(3.60306145e-12 0 0)
(3.80821017e-12 0 0)
(5.30260645e-12 0 0)
(5.40817752e-12 0 0)
(6.67641479e-12 0 0)
(5.73541348e-12 0 0)
(5.79037499e-12 0 0)
(7.09638679e-12 0 0)
(6.49031875e-12 0 0)
(6.82182011e-12 0 0)
(7.37842396e-12 0 0)
(7.72779522e-12 0 0)
(6.57637426e-12 0 0)
(7.59068176e-12 0 0)
(7.42724358e-12 0 0)
(7.95500684e-12 0 0)
(8.29914429e-12 0 0)
(8.29976504e-12 0 0)
(8.26389742e-12 0 0)
(8.06833876e-12 0 0)
(9.29764423e-12 0 0)
(8.04754633e-12 0 0)
(7.7846958e-12 0 0)
(8.41768922e-12 0 0)
(8.18519899e-12 0 0)
(8.29890469e-12 0 0)
(7.42214347e-12 0 0)
(8.21544078e-12 0 0)
(7.84257201e-12 0 0)
(7.85566288e-12 0 0)
(8.14803724e-12 0 0)
(9.32424169e-12 0 0)
(8.17648565e-12 0 0)
(9.03975094e-12 0 0)
(9.57487891e-12 0 0)
(8.31026838e-12 0 0)
(8.65838967e-12 0 0)
(8.30441911e-12 0 0)
(8.76474322e-12 0 0)
(9.089595e-12 0 0)
(8.62840078e-12 0 0)
(8.53741403e-12 0 0)
(8.60686228e-12 0 0)
(8.97728875e-12 0 0)
(9.06224758e-12 0 0)
(8.96814669e-12 0 0)
(9.07008517e-12 0 0)
(8.92410764e-12 0 0)
(9.19367816e-12 0 0)
(9.33170512e-12 0 0)
(9.29404856e-12 0 0)
(8.72442371e-12 0 0)
(8.16045889e-12 0 0)
(8.70563171e-12 0 0)
(7.59603529e-12 0 0)
(8.54448654e-12 0 0)
(9.10602907e-12 0 0)
(9.14318601e-12 0 0)
(8.15437619e-12 0 0)
(9.70472976e-12 0 0)
(9.20129492e-12 0 0)
(9.67331303e-12 0 0)
(8.82843735e-12 0 0)
(9.5849942e-12 0 0)
(9.61183323e-12 0 0)
(8.7024888e-12 0 0)
(8.97654116e-12 0 0)
(9.31928301e-12 0 0)
(8.73433206e-12 0 0)
(9.26686163e-12 0 0)
(8.84968944e-12 0 0)
(9.22395601e-12 0 0)
(8.80134649e-12 0 0)
(1.06969108e-11 0 0)
(8.90314271e-12 0 0)
(9.73519766e-12 0 0)
(9.71032311e-12 0 0)
(1.01151292e-11 0 0)
(9.91343409e-12 0 0)
(9.09432613e-12 0 0)
(9.5171635e-12 0 0)
(9.81622958e-12 0 0)
(9.50498637e-12 0 0)
(8.98865738e-12 0 0)
(9.23378251e-12 0 0)
(9.20914046e-12 0 0)
(9.61198033e-12 0 0)
(8.7989023e-12 0 0)
(9.87275831e-12 0 0)
(9.78358991e-12 0 0)
(9.11766543e-12 0 0)
(1.03597022e-11 0 0)
(8.45838129e-12 0 0)
(9.18180799e-12 0 0)
(9.85726081e-12 0 0)
(1.00891184e-11 0 0)
(1.01119972e-11 0 0)
(9.33443538e-12 0 0)
(9.8378041e-12 0 0)
(9.65247736e-12 0 0)
(8.96083157e-12 0 0)
(1.00057191e-11 0 0)
(9.56606543e-12 0 0)
(9.52076734e-12 0 0)
(9.44373316e-12 0 0)
(1.0118531e-11 0 0)
(1.08344124e-11 0 0)
(9.48913122e-12 0 0)
(1.05628094e-11 0 0)
(8.72466663e-12 0 0)
(1.00841803e-11 0 0)
(9.93703339e-12 0 0)
(1.02744229e-11 0 0)
(9.0145615e-12 0 0)
(9.48358628e-12 0 0)
(9.32065643e-12 0 0)
(9.76784862e-12 0 0)
(9.84983285e-12 0 0)
(1.01374483e-11 0 0)
(9.54650956e-12 0 0)
(9.09660815e-12 0 0)
(1.03154942e-11 0 0)
(9.50090877e-12 0 0)
(9.9487412e-12 0 0)
(1.00582986e-11 0 0)
(1.09198903e-11 0 0)
(1.13058989e-11 0 0)
(1.16048308e-11 0 0)
(1.04704962e-11 0 0)
(1.13939731e-11 0 0)
(1.01520291e-11 0 0)
(1.13025689e-11 0 0)
(1.03737274e-11 0 0)
(1.09948171e-11 0 0)
(1.09898921e-11 0 0)
(1.09796855e-11 0 0)
(1.05581428e-11 0 0)
(1.09481033e-11 0 0)
(1.08317976e-11 0 0)
(1.06402396e-11 0 0)
(1.19871256e-11 0 0)
(1.18137881e-11 0 0)
(1.19061104e-11 0 0)
(1.21600387e-11 0 0)
(1.1889681e-11 0 0)
(1.20148554e-11 0 0)
(1.14405347e-11 0 0)
(1.06310808e-11 0 0)
(1.1889817e-11 0 0)
(1.20172186e-11 0 0)
(1.20997585e-11 0 0)
(1.11453645e-11 0 0)
(1.2445362e-11 0 0)
(1.10073667e-11 0 0)
(1.21411765e-11 0 0)
(1.13966454e-11 0 0)
(1.1479576e-11 0 0)
(1.08169528e-11 0 0)
(1.14090488e-11 0 0)
(1.0773121e-11 0 0)
(1.10234416e-11 0 0)
(1.05974838e-11 0 0)
(1.07183674e-11 0 0)
(1.0758909e-11 0 0)
(1.07263723e-11 0 0)
(9.37023164e-12 0 0)
(1.05809455e-11 0 0)
(9.66160734e-12 0 0)
(1.08229433e-11 0 0)
(1.02360472e-11 0 0)
(1.05346462e-11 0 0)
(1.019185e-11 0 0)
(1.09451269e-11 0 0)
(1.05199948e-11 0 0)
(1.06431408e-11 0 0)
(1.0259144e-11 0 0)
(1.01346175e-11 0 0)
(9.93098565e-12 0 0)
(1.04111635e-11 0 0)
(1.08395524e-11 0 0)
(9.10968138e-12 0 0)
(1.01270624e-11 0 0)
(9.25075538e-12 0 0)
(9.8411148e-12 0 0)
(9.66226733e-12 0 0)
(9.04251372e-12 0 0)
(9.24437229e-12 0 0)
(9.7253838e-12 0 0)
(9.56976414e-12 0 0)
(9.30161473e-12 0 0)
(9.27332993e-12 0 0)
(8.88934909e-12 0 0)
(9.14863977e-12 0 0)
(8.56059415e-12 0 0)
(9.17935348e-12 0 0)
(9.01798641e-12 0 0)
(8.49619036e-12 0 0)
(9.26948736e-12 0 0)
(9.4112286e-12 0 0)
(8.54685257e-12 0 0)
(8.03338085e-12 0 0)
(8.58362205e-12 0 0)
(8.03605436e-12 0 0)
(8.15833259e-12 0 0)
(8.89849209e-12 0 0)
(8.34504891e-12 0 0)
(8.58731739e-12 0 0)
(9.56119256e-12 0 0)
(9.28515935e-12 0 0)
(9.1889016e-12 0 0)
(9.19152372e-12 0 0)
(8.14028293e-12 0 0)
(8.71769188e-12 0 0)
(9.13353657e-12 0 0)
(9.38208259e-12 0 0)
(8.52320525e-12 0 0)
(9.12413219e-12 0 0)
(9.02399305e-12 0 0)
(9.0451075e-12 0 0)
(9.14548481e-12 0 0)
(8.19115945e-12 0 0)
(8.65454706e-12 0 0)
(8.6540754e-12 0 0)
(8.73579241e-12 0 0)
(9.02942003e-12 0 0)
(9.27435902e-12 0 0)
(9.15094856e-12 0 0)
(8.7260241e-12 0 0)
(9.38534332e-12 0 0)
(9.6387995e-12 0 0)
(9.21852638e-12 0 0)
(8.99117471e-12 0 0)
(9.52570332e-12 0 0)
(1.00674793e-11 0 0)
(9.41137936e-12 0 0)
(1.0010717e-11 0 0)
(1.00678987e-11 0 0)
(1.08355759e-11 0 0)
(1.08961664e-11 0 0)
(9.74271584e-12 0 0)
(1.04824161e-11 0 0)
(1.13417575e-11 0 0)
(1.09373747e-11 0 0)
(1.03527633e-11 0 0)
(1.15441001e-11 0 0)
(1.05132145e-11 0 0)
(1.05189413e-11 0 0)
(9.36273162e-12 0 0)
(9.62141887e-12 0 0)
(1.02393483e-11 0 0)
(8.87235666e-12 0 0)
(1.02918256e-11 0 0)
(9.36198615e-12 0 0)
(9.94443135e-12 0 0)
(9.59415511e-12 0 0)
(9.66255569e-12 0 0)
(1.01101848e-11 0 0)
(9.28827192e-12 0 0)
(9.58782102e-12 0 0)
(1.08224584e-11 0 0)
(9.84824091e-12 0 0)
(1.01907657e-11 0 0)
(1.0433086e-11 0 0)
(1.02377315e-11 0 0)
(1.01485977e-11 0 0)
(9.14565628e-12 0 0)
(9.66120248e-12 0 0)
(9.09997184e-12 0 0)
(9.16917052e-12 0 0)
(9.41693387e-12 0 0)
(9.0417013e-12 0 0)
(8.28658718e-12 0 0)
(8.77521848e-12 0 0)
(8.53695515e-12 0 0)
(9.54364745e-12 0 0)
(8.51984157e-12 0 0)
(9.2945465e-12 0 0)
(9.12183781e-12 0 0)
(9.17987467e-12 0 0)
(8.67205491e-12 0 0)
(9.09965323e-12 0 0)
(9.09737803e-12 0 0)
(1.01834147e-11 0 0)
(9.14722077e-12 0 0)
(9.65603454e-12 0 0)
(9.86591688e-12 0 0)
(9.11427883e-12 0 0)
(9.54136982e-12 0 0)
(9.52345129e-12 0 0)
(1.01156955e-11 0 0)
(9.67794677e-12 0 0)
(9.12479922e-12 0 0)
(9.46082511e-12 0 0)
(9.76609626e-12 0 0)
(8.9815452e-12 0 0)
(8.54108648e-12 0 0)
(9.26555737e-12 0 0)
(8.32839704e-12 0 0)
(9.28663096e-12 0 0)
(8.72186617e-12 0 0)
(9.69355154e-12 0 0)
(8.92744802e-12 0 0)
(9.10175063e-12 0 0)
(8.99316406e-12 0 0)
(9.77044915e-12 0 0)
(8.51741111e-12 0 0)
(9.13868897e-12 0 0)
(7.92420685e-12 0 0)
(8.71656307e-12 0 0)
(8.27655681e-12 0 0)
(8.39200558e-12 0 0)
(7.09531214e-12 0 0)
(9.59249076e-12 0 0)
(8.56966799e-12 0 0)
(8.10914462e-12 0 0)
(8.62163536e-12 0 0)
(9.26510248e-12 0 0)
(7.72932884e-12 0 0)
(7.28849521e-12 0 0)
(7.67488846e-12 0 0)
(7.16427467e-12 0 0)
(7.42804486e-12 0 0)
(6.58242639e-12 0 0)
(7.16948054e-12 0 0)
(7.89351012e-12 0 0)
(8.11050374e-12 0 0)
(7.4747352e-12 0 0)
(6.5557593e-12 0 0)
(7.64161055e-12 0 0)
(7.19200151e-12 0 0)
(7.71864336e-12 0 0)
(7.3046971e-12 0 0)
(6.81244466e-12 0 0)
(7.05996582e-12 0 0)
(6.83923674e-12 0 0)
(7.06963702e-12 0 0)
(6.82239997e-12 0 0)
(7.91614439e-12 0 0)
(7.57729882e-12 0 0)
(7.45269137e-12 0 0)
(6.35739225e-12 0 0)
(7.2046168e-12 0 0)
(6.25379831e-12 0 0)
(5.81638931e-12 0 0)
(5.37927246e-12 0 0)
(6.10704132e-12 0 0)
(5.45762344e-12 0 0)
(6.18900378e-12 0 0)
(5.60383367e-12 0 0)
(5.72014521e-12 0 0)
(5.24720915e-12 0 0)
(5.78187889e-12 0 0)
(4.97460679e-12 0 0)
(4.9207924e-12 0 0)
(4.85417315e-12 0 0)
(5.57213967e-12 0 0)
(4.44555815e-12 0 0)
(5.25570073e-12 0 0)
(5.01734067e-12 0 0)
(3.75156949e-12 0 0)
(3.48174403e-12 0 0)
(3.8952206e-12 0 0)
(4.72970372e-12 0 0)
(4.79649246e-12 0 0)
(3.40844639e-12 0 0)
(4.2085024e-12 0 0)
(3.8431919e-12 0 0)
(4.14582738e-12 0 0)
(3.66093441e-12 0 0)
(2.99873707e-12 0 0)
(3.86921246e-12 0 0)
(4.11983048e-12 0 0)
(3.29176135e-12 0 0)
(2.93266247e-12 0 0)
(3.90485217e-12 0 0)
(3.78655573e-12 0 0)
(3.89943754e-12 0 0)
(2.50987523e-12 0 0)
(3.11666199e-12 0 0)
(3.24211976e-12 0 0)
(2.08278774e-12 0 0)
(2.7036011e-12 0 0)
(3.73360657e-12 0 0)
(3.91735773e-12 0 0)
(3.53588763e-12 0 0)
(3.68140002e-12 0 0)
(3.5848211e-12 0 0)
(3.33834426e-12 0 0)
(3.34962985e-12 0 0)
(3.66255411e-12 0 0)
(3.35410332e-12 0 0)
(3.93047148e-12 0 0)
(4.68630469e-12 0 0)
(3.92903859e-12 0 0)
(3.50825431e-12 0 0)
(3.81005734e-12 0 0)
(3.66662417e-12 0 0)
(3.89071765e-12 0 0)
(3.44000759e-12 0 0)
(4.15358483e-12 0 0)
(3.68378446e-12 0 0)
(3.60986257e-12 0 0)
(3.74709691e-12 0 0)
(3.3516157e-12 0 0)
(3.14934809e-12 0 0)
(3.1753872e-12 0 0)
(2.66401559e-12 0 0)
(3.45722579e-12 0 0)
(2.92866012e-12 0 0)
(2.41043058e-12 0 0)
(2.81841276e-12 0 0)
(2.52572388e-12 0 0)
(1.90720745e-12 0 0)
(2.1083487e-12 0 0)
(2.1056472e-12 0 0)
(3.3840073e-12 0 0)
(1.6147084e-12 0 0)
(2.66456837e-12 0 0)
(2.69304746e-12 0 0)
(1.74373648e-12 0 0)
(2.19394362e-12 0 0)
(2.65347081e-12 0 0)
(2.17120077e-12 0 0)
(9.31388325e-13 0 0)
(7.7826571e-13 0 0)
(7.45990192e-13 0 0)
(3.62208923e-13 0 0)
(1.20733496e-12 0 0)
(7.0573739e-13 0 0)
(1.14303186e-12 0 0)
(7.66571103e-13 0 0)
(-8.94857409e-14 0 0)
(-3.39611227e-13 0 0)
(-6.05267165e-13 0 0)
(-6.39465607e-13 0 0)
(-6.44069726e-13 0 0)
(-9.53238939e-13 0 0)
(-6.42266995e-13 0 0)
(-1.07529383e-12 0 0)
(-1.70517204e-12 0 0)
(-2.34837254e-13 0 0)
(-2.06183505e-12 0 0)
(-1.93080574e-12 0 0)
(-1.0911239e-12 0 0)
(-2.04835041e-12 0 0)
(-1.83783674e-12 0 0)
(-2.59377924e-12 0 0)
(-1.72319729e-12 0 0)
(-2.46765401e-12 0 0)
(-1.90452622e-12 0 0)
(-1.55403698e-12 0 0)
(-2.00286842e-12 0 0)
(-2.66930377e-12 0 0)
(-2.48319274e-12 0 0)
(-2.34909884e-12 0 0)
(-2.79381676e-12 0 0)
(-2.51007532e-12 0 0)
(-1.77441912e-12 0 0)
(-2.93834158e-12 0 0)
(-2.89172453e-12 0 0)
(-1.53250543e-12 0 0)
(-2.90549579e-12 0 0)
(-2.52969358e-12 0 0)
(-2.9367648e-12 0 0)
(-3.07129712e-12 0 0)
(-2.76115948e-12 0 0)
(-3.0821159e-12 0 0)
(-2.5210251e-12 0 0)
(-2.77151001e-12 0 0)
(-2.70038954e-12 0 0)
(-3.00102607e-12 0 0)
(-2.0354687e-12 0 0)
(-2.00194172e-12 0 0)
(-2.20907962e-12 0 0)
(-2.60402261e-12 0 0)
(-3.35833431e-12 0 0)
(-2.88550339e-12 0 0)
(-2.96974787e-12 0 0)
(-3.83527337e-12 0 0)
(-4.13850267e-12 0 0)
(-3.61802986e-12 0 0)
(-4.58854342e-12 0 0)
(-4.20563609e-12 0 0)
(-4.86470909e-12 0 0)
(-4.4186274e-12 0 0)
(-5.38854371e-12 0 0)
(-4.93892172e-12 0 0)
(-5.04889967e-12 0 0)
(-4.2353842e-12 0 0)
(-5.26187105e-12 0 0)
(-4.0847228e-12 0 0)
(-3.93820582e-12 0 0)
(-4.56305898e-12 0 0)
(-4.1054395e-12 0 0)
(-5.21686114e-12 0 0)
(-5.13385608e-12 0 0)
(-6.32566737e-12 0 0)
(-5.36763958e-12 0 0)
(-6.09406258e-12 0 0)
(-6.48950061e-12 0 0)
(-6.50006002e-12 0 0)
(-6.21530019e-12 0 0)
(-6.88401997e-12 0 0)
(-7.69050064e-12 0 0)
(-6.76437121e-12 0 0)
(-6.73976077e-12 0 0)
(-7.40154831e-12 0 0)
(-7.42271784e-12 0 0)
(-7.12141185e-12 0 0)
(-7.77904006e-12 0 0)
(-7.29384204e-12 0 0)
(-7.50512354e-12 0 0)
(-8.22569572e-12 0 0)
(-7.63145378e-12 0 0)
(-7.76677359e-12 0 0)
(-6.80912963e-12 0 0)
(-8.25299748e-12 0 0)
(-8.30304498e-12 0 0)
(-8.71340302e-12 0 0)
(-7.61606066e-12 0 0)
(-9.1702066e-12 0 0)
(-8.65011326e-12 0 0)
(-9.97294823e-12 0 0)
(-9.67332969e-12 0 0)
(-1.01552827e-11 0 0)
(-1.02965136e-11 0 0)
(-9.53716604e-12 0 0)
(-9.19379606e-12 0 0)
(-9.57231786e-12 0 0)
(-9.56237786e-12 0 0)
(-9.92331677e-12 0 0)
(-1.01715743e-11 0 0)
(-1.01228153e-11 0 0)
(-9.26840097e-12 0 0)
(-1.04585855e-11 0 0)
(-9.51961381e-12 0 0)
(-9.18191039e-12 0 0)
(-9.63329459e-12 0 0)
(-9.0519827e-12 0 0)
(-1.00368481e-11 0 0)
(-9.32198491e-12 0 0)
(-9.02887802e-12 0 0)
(-9.80554606e-12 0 0)
(-9.92167335e-12 0 0)
(-8.94428618e-12 0 0)
(-9.56344228e-12 0 0)
(-1.04982546e-11 0 0)
(-1.162064e-11 0 0)
(-1.02085052e-11 0 0)
(-1.0911564e-11 0 0)
(-1.06389839e-11 0 0)
(-1.07459906e-11 0 0)
(-1.01118906e-11 0 0)
(-1.06307525e-11 0 0)
(-9.58901937e-12 0 0)
(-1.05150523e-11 0 0)
(-9.83739084e-12 0 0)
(-1.05187072e-11 0 0)
(-1.06872495e-11 0 0)
(-1.05175011e-11 0 0)
(-9.61481846e-12 0 0)
(-9.2841807e-12 0 0)
(-1.06219622e-11 0 0)
(-9.66205079e-12 0 0)
(-1.06134839e-11 0 0)
(-1.04449923e-11 0 0)
(-9.77848669e-12 0 0)
(-1.00559259e-11 0 0)
(-1.14774319e-11 0 0)
(-1.15167617e-11 0 0)
(-1.067401e-11 0 0)
(-8.79948557e-12 0 0)
(-9.81670307e-12 0 0)
(-9.9143657e-12 0 0)
(-1.09929547e-11 0 0)
(-1.0945788e-11 0 0)
(-1.07769788e-11 0 0)
(-1.11922208e-11 0 0)
(-1.20921869e-11 0 0)
(-1.16667207e-11 0 0)
(-1.09071735e-11 0 0)
(-1.10933269e-11 0 0)
(-1.13327632e-11 0 0)
(-1.22888976e-11 0 0)
(-1.16945978e-11 0 0)
(-1.19293762e-11 0 0)
(-1.19818931e-11 0 0)
(-1.10296614e-11 0 0)
(-1.22301494e-11 0 0)
(-1.21802409e-11 0 0)
(-1.21008862e-11 0 0)
(-1.26882179e-11 0 0)
(-1.1789413e-11 0 0)
(-1.2406285e-11 0 0)
(-1.27514332e-11 0 0)
(-1.22845438e-11 0 0)
(-1.26774912e-11 0 0)
(-1.26217354e-11 0 0)
(-1.15686721e-11 0 0)
(-1.17842534e-11 0 0)
(-1.13612902e-11 0 0)
(-1.17285682e-11 0 0)
(-1.22173618e-11 0 0)
(-1.20634548e-11 0 0)
(-1.2708821e-11 0 0)
(-1.1681079e-11 0 0)
(-1.21180027e-11 0 0)
(-1.25758528e-11 0 0)
(-1.18104077e-11 0 0)
(-1.19691645e-11 0 0)
(-1.22515317e-11 0 0)
(-1.10335675e-11 0 0)
(-1.21962477e-11 0 0)
(-1.13232541e-11 0 0)
(-1.2196691e-11 0 0)
(-1.16474507e-11 0 0)
(-1.20022692e-11 0 0)
(-1.2038739e-11 0 0)
(-1.196468e-11 0 0)
(-1.21264295e-11 0 0)
(-1.16018297e-11 0 0)
(-1.26466718e-11 0 0)
(-1.27845087e-11 0 0)
(-1.26948382e-11 0 0)
(-1.25310408e-11 0 0)
(-1.28394373e-11 0 0)
(-1.30993677e-11 0 0)
(-1.31851545e-11 0 0)
(-1.27109744e-11 0 0)
(-1.34019526e-11 0 0)
(-1.28226677e-11 0 0)
(-1.23974145e-11 0 0)
(-1.30745773e-11 0 0)
(-1.23828365e-11 0 0)
(-1.22757069e-11 0 0)
(-1.22073634e-11 0 0)
(-1.28912138e-11 0 0)
(-1.21522287e-11 0 0)
(-1.1818617e-11 0 0)
(-1.24207866e-11 0 0)
(-1.13859255e-11 0 0)
(-1.18034689e-11 0 0)
(-1.23293287e-11 0 0)
(-1.19154718e-11 0 0)
(-1.16207443e-11 0 0)
(-1.18890938e-11 0 0)
(-1.15776756e-11 0 0)
(-1.16716254e-11 0 0)
(-1.1768765e-11 0 0)
(-1.17120323e-11 0 0)
(-1.10679506e-11 0 0)
(-1.09283295e-11 0 0)
(-1.13755295e-11 0 0)
(-1.13367083e-11 0 0)
(-1.14165478e-11 0 0)
(-1.11286164e-11 0 0)
(-1.10042605e-11 0 0)
(-1.0827322e-11 0 0)
(-1.08915652e-11 0 0)
(-1.1039836e-11 0 0)
(-1.08329107e-11 0 0)
(-1.00782088e-11 0 0)
(-1.10121649e-11 0 0)
(-1.04606922e-11 0 0)
(-9.84093874e-12 0 0)
(-1.09010069e-11 0 0)
(-1.09346724e-11 0 0)
(-9.86220125e-12 0 0)
(-1.0656491e-11 0 0)
(-1.03892152e-11 0 0)
(-1.03883295e-11 0 0)
(-9.94580065e-12 0 0)
(-1.08133853e-11 0 0)
(-1.04887907e-11 0 0)