/*--------------------------------*- C++ -*----------------------------------*\
| =========                 |                                                 |
| \\      /  F ield         | OpenFOAM: The Open Source CFD Toolbox           |
|  \\    /   O peration     | Version:  2206                                  |
|   \\  /    A nd           | Website:  www.openfoam.com                      |
|    \\/     M anipulation  |                                                 |
\*---------------------------------------------------------------------------*/
FoamFile
{
    version     2.0;
    format      ascii;
    arch        "LSB;label=32;scalar=64";
    class       volScalarField;
    location    "1.42e-05";
    object      p;
}
// * * * * * * * * * * * * * * * * * * * * * * * * * * * * * * * * * * * * * //

dimensions      [1 -1 -2 0 0 0 0];

internalField   nonuniform List<scalar> 
3183
(
101325
101325
101325
101325
101325
101325
101325
101325
101325
101325
101325
101325
101325
101325
101325
101325
101325
101325
101325
101325
101325
101325
101325
101325
101325
101325
101325
101325
101325
101325
101325
101325
101325
101325
101325
101325
101325
101325
101325
101325
101325
101325
101325
101325
101325
101325
101325
101325
101325
101325
101325
101325
101325
101325
101325
101325
101325
101325
101325
101325
101325
101325
101325
101325
101325
101325
101325
101325
101325
101325
101325
101325
101325
101325
101325
101325
101325
101325
101325
101325
101325
101325
101325
101325
101325
101325
101325
101325
101325
101325
101325
101325
101325
101325
101325
101325
101325
101325
101325
101325
101325
101325
101325
101325
101325
101325
101325
101325
101325
101325
101325
101325
101325
101325
101325
101325
101325
101325
101325
101325
101325
101325
101325
101325
101325
101325
101325
101325
101325
101325
101325
101325
101325
101325
101325
101325
101325
101325
101325
101325
101325
101325
101325
101325
101325
101325
101325
101325
101325
101325
101325
101325
101325
101325
101325
101325
101325
101325
101325
101325
101325
101325
101325
101325
101325
101325
101325
101325
101325
101325
101325
101325
101325
101325
101325
101325
101325
101325
101325
101325
101325
101325
101325
101325
101325
101325
101325
101325
101325
101325
101325
101325
101325
101325
101325
101325
101325
101325
101325
101325
101325
101325
101325
101325
101325
101325
101325
101325
101325
101325
101325
101325
101325
101325
101325
101325
101325
101325
101325
101325
101325
101325
101325
101325
101325
101325
101325
101325
101325
101325
101325
101325
101325
101325
101325
101325
101325
101325
101325
101325
101325
101325
101325
101325
101325
101325
101325
101325
101325
101325
101325
101325
101325
101325
101325
101325
101325
101325
101325
101325
101325
101325
101325
101325
101325
101325
101325
101325
101325
101325
101325
101325
101325
101325
101325
101325
101325
101325
101325
101325
101325
101325
101325
101325
101325
101325
101325
101325
101325
101325
101325
101325
101325
101325
101325
101325
101325
101325
101325
101325
101325
101325
101325
101325
101325
101325
101325
101325
101325
101325
101325
101325
101325
101325
101325
101325
101325
101325
101325
101325
101325
101325
101325
101325
101325
101325
101325
101325
101325
101325
101325
101325
101325
101325
101325
101325
101325
101325
101325
101325
101325
101325
101325
101325
101325
101325
101325
101325
101325
101325
101325
101325
101325
101325
101325
101325
101325
101325
101325
101325
101325
101325
101325
101325
101325
101325
101325
101325
101325
101325
101325
101325
101325
101325
101325
101325
101325
101325
101325
101325
101325
101325
101325
101325
101325
101325
101325
101325
101325
101325
101325
101325
101325
101325
101325
101325
101325
101325
101325
101325
101325
101325
101325
101325
101325
101325
101325
101325
101325
101325
101325
101325
101325
101325
101325
101325
101325
101325
101325
101325
101325
101325
101325
101325
101325
101325
101325
101325
101325
101325
101325
101325
101325
101325
101325
101325
101325
101325
101325
101325
101325
101325
101325
101325
101325
101325
101325
101325
101325
101325
101325
101325
101325
101325
101325
101325
101325
101325
101325
101325
101325
101325
101325
101325
101325
101325
101325
101325
101325
101325
101325
101325
101325
101325
101325
101325
101325
101325
101325
101325
101325
101325
101325
101325
101325
101325
101325
101325
101325
101325
101325
101325
101325
101325
101325
101325
101325
101325
101325
101325
101325
101325
101325
101325
101325
101325
101325
101325
101325
101325
101325
101325
101325
101325
101325
101325
101325
101325
101325
101325
101325
101325
101325
101325
101325
101325
101325
101325
101325
101325
101325
101325
101325
101325
101325
101325
101325
101325
101325
101325
101325
101325
101325
101325
101325
101325
101325
101325
101325
101325
101325
101325
101325
101325
101325
101325
101325
101325
101325
101325
101325
101325
101325
101325
101325
101325
101325
101325
101325
101325
101325
101325
101325
101325
101325
101325
101325
101325
101325
101325
101325
101325
101325
101325
101325
101325
101325
101325
101325
101325
101325
101325
101325
101325
101325
101325
101325
101325
101325
101325
101325
101325
101325
101325
101325
101325
101325
101325
101325
101325
101325
101325
101325
101325
101325
101325
101325
101325
101325
101325
101325
101325
101325
101325
101325
101325
101325
101325
101325
101325
101325
101325
101325
101325
101325
101325
101325
101325
101325
101325
101325
101325
101325
101325
101325
101325
101325
101325
101325
101325
101325
101325
101325
101325
101325
101325
101325
101325
101325
101325
101325
101325
101325
101325
101325
101325
101325
101325
101325
101325
101325
101325
101325
101325
101325
101325
101325
101325
101325
101325
101325
101325
101325
101325
101325
101325
101325
101325
101325
101325
101325
101325
101325
101325
101325
101325
101325
101325
101325
101325
101325
101325
101325
101325
101325
101325
101325
101325
101325
101325
101325
101325
101325
101325
101325
101325
101325
101325
101325
101325
101325
101325
101325
101325
101325
101325
101325
101325
101325
101325
101325
101325
101325
101325
101325
101325
101325
101325
101325
101325
101325
101325
101325
101325
101325
101325
101325
101325
101325
101325
101325
101325
101325
101325
101325
101325
101325
101325
101325
101325
101325
101325
101325
101325
101325
101325
101325
101325
101325
101325
101325
101325
101325
101325
101325
101325
101325
101325
101325
101325
101325
101325
101325
101325
101325
101325
101325
101325
101325
101325
101325
101325
101325
101325
101325
101325
101325
101325
101325
101325
101325
101325
101325
101325
101325
101325
101325
101325
101325
101325
101325
101325
101325
101325
101325
101325
101325
101325
101325
101325
101325
101325
101325
101325
101325
101325
101325
101325
101325
101325
101325
101325
101325
101325
101325
101325
101325
101325
101325
101325
101325
101325
101325
101325
101325
101325
101325
101325
101325
101325
101325
101325
101325
101325
101325
101325
101325
101325
101325
101325
101325
101325
101325
101325
101325
101325
101325
101325
101325
101325
101325
101325
101325
101325
101325
101325
101325
101325
101325
101325
101325
101325
101325
101325
101325
101325
101325
101325
101325
101325
101325
101325
101325
101325
101325
101325
101325
101325
101325
101325
101325
101325
101325
101325
101325
101325
101325
101325
101325
101325
101325
101325
101325
101325
101325
101325
101325
101325
101325
101325
101325
101325
101325
101325
101325
101325
101325
101325
101325
101325
101325
101325
101325
101325
101325
101325
101325
101325
101325
101325
101325
101325
101325
101325
101325
101325
101325
101325
101325
101325
101325
101325
101325
101325
101325
101325
101325
101325
101325
101325
101325
101325
101325
101325
101325
101325
101325
101325
101325
101325
101325
101325
101325
101325
101325
101325
101325
101325
101325
101325
101325
101325
101325
101325
101325
101325
101325
101325
101325
101325
101325
101325
101325
101325
101325
101325
101325
101325
101325
101325
101325
101325
101325
101325
101325
101325
101325
101325
101325
101325
101325
101325
101325
101325
101325
101325
101325
101325
101325
101325
101325
101325
101325
101325
101325
101325
101325
101325
101325
101325
101325
101325
101325
101325
101325
101325
101325
101325
101325
101325
101325
101325
101325
101325
101325
101325
101325
101325
101325
101325
101325
101325
101325
101325
101325
101325
101325
101325
101325
101325
101325
101325
101325
101325
101325
101325
101325
101325
101325
101325
101325
101325
101325
101325
101325
101325
101325
101325
101325
101325
101325
101325
101325
101325
101325
101325
101325
101325
101325
101325
101325
101325
101325
101325
101325
101325
101325
101325
101325
101325
101325
101325
101325
101325
101325
101325
101325
101325
101325
101325
101325
101325
101325
101325
101325
101325
101325
101325
101325
101325
101325
101325
101325
101325
101325
101325
101325
101325
101325
101325
101325
101325
101325
101325
101325
101325
101325
101325
101325
101325
101325
101325
101325
101325
101325
101325
101325
101325
101325
101325
101325
101325
101325
101325
101325
101325
101325
101325
101325
101325
101325
101325
101325
101325
101325
101325
101325
101325
101325
101325
101325
101325
101325
101325
101325
101325
101325
101325
101325
101325
101325
101325
101325
101325
101325
101325
101325
101325
101325
101325
101325
101325
101325
101325
101325
101325
101325
101325
101325
101325
101325
101325
101325
101325
101325
101325
101325
101325
101325
101325
101325
101325
101325
101325
101325
101325
101325
101325
101325
101325
101325
101325
101325
101325
101325
101325
101325
101325
101325
101325
101325
101325
101325
101325
101325
101325
101325
101325
101325
101325
101325
101325
101325
101325
101325
101325
101325
101325
101325
101325
101325
101325
101325
101325
101325
101325
101325
101325
101325
101325
101325
101325
101325
101325
101325
101325
101325
101325
101325
101325
101325
101325
101325
101325
101325
101325
101325
101325
101325
101325
101325
101325
101325
101325
101325
101325
101325
101325
101325
101325
101325
101325
101325
101325
101325
101325
101325
101325
101325
101325
101325
101325
101325
101325
101325
101325
101325
101325
101325
101325
101325
101325
101325
101325
101325
101325
101325
101325
101325
101325
101325
101325
101325
101325
101325
101325
101325
101325
101325
101325
101325
101325
101325
101325
101325
101325
101325
101325
101325
101325
101325
101325
101325
101325
101325
101325
101325
101325
101325
101325
101325
101325
101325
101325
101325
101325
101325
101325
101325
101325
101325
101325
101325
101325
101325
101325
101325
101325
101325
101325
101325
101325
101325
101325
101325
101325
101325
101325
101325
101325
101325
101325
101325
101325
101325
101325
101325
101325
101325
101325
101325
101325
101325
101325
101325
101325
101325
101325
101325
101325
101325
101325
101325
101325
101325
101325
101325
101325
101325
101325
101325
101325
101325
101325
101325
101325
101325
101325
101325
101325
101325
101325
101325
101325
101325
101325
101325
101325
101325
101325
101325
101325
101325
101325
101325
101325
101325
101325
101325
101325
101325
101325
101325
101325
101325
101325
101325
101325
101325
101325
101325
101325
101325
101325
101325
101325
101325
101325
101325
101325
101325
101325
101325
101325
101325
101325
101325
101325
101325
101325
101325
101325
101325
101325
101325
101325
101325
101325
101325
101325
101325
101325
101325
101325
101325
101325
101325
101325
101325
101325
101325
101325
101325
101325
101325
101325
101325
101325
101325
101325
101325
101325
101325
101325
101325
101325
101325
101325
101325
101325
101325
101325
101325
101325
101325
101325
101325
101325
101325
101325
101325
101325
101325
101325
101325
101325
101325
101325
101325
101325
101325
101325
101325
101325
101325
101325
101325
101325
101325
101325
101325
101325
101325
101325
101325
101325
101325
101325
101325
101325
101325
101325
101325
101325
101325
101325
101325
101325
101325
101325
101325
101325
101325
101325
101325
101325
101325
101325
101325
101325
101325
101325
101325
101325
101325
101325
101325
101325
101325
101325
101325
101325
101325
101325
101325
101325
101325
101325
101325
101325
101325
101325
101325
101325
101325
101325
101325
101325
101325
101325
101325
101325
101325
101325
101325
101325
101325
101325
101325
101325
101325
101325
101325
101325
101325
101325
101325
101325
101325
101325
101325
101325
101325
101325
101325
101325
101325
101325
101325
101325
101325
101325
101325
101325
101325
101325
101325
101325
101325
101325
101325
101325
101325
101325
101325
101325
101325
101325
101325
101325
101325
101325
101325
101325
101325
101325
101325
101325
101325
101325
101325
101325
101325
101325
101325
101325
101325
101325
101325
101325
101325
101325
101325
101325
101325
101325
101325
101325
101325
101325
101325
101325
101325
101325
101325
101325
101325
101325
101325
101325
101325
101325
101325
101325
101325
101325
101325
101325
101325
101325
101325
101325
101325
101325
101325
101325
101325
101325
101325
101325
101325
101325
101325
101325
101325
101325
101325
101325
101325
101325
101325
101325
101325
101325
101325
101325
101325
101325
101325
101325
101325
101325
101325
101325
101325
101325
101325
101325
101325
101325
101325
101325
101325
101325
101325
101325
101325
101325
101325
101325
101325
101325
101325
101325
101325
101325
101325
101325
101325
101325
101325
101325
101325
101325
101325
101325
101325
101325
101325
101325
101325
101325
101325
101325
101325
101325
101325
101325
101325
101325
101325
101325
101325
101325
101325
101325
101325
101325
101325
101325
101325
101325
101325
101325
101325
101325
101325
101325
101325
101325
101325
101325
101325
101325
101325
101325
101325
101325
101325
101325
101325
101325
101325
101325
101325
101325
101325
101325
101325
101325
101325
101325
101325
101325
101325
101325
101325
101325
101325
101325
101325
101325
101325
101325
101325
101325
101325
101325
101325
101325
101325
101325
101325
101325
101325
101325
101325
101325
101325
101325
101325
101325
101325
101325
101325
101325
101325
101325
101325
101325
101325
101325
101325
101325
101325
101325
101325
101325
101325
101325
101325
101325
101325
101325
101325
101325
101325
101325
101325
101325
101325
101325
101325
101325
101325
101325
101325
101325
101325
101325
101324.999
101324.999
101324.999
101324.999
101324.999
101324.999
101324.999
101324.999
101324.999
101324.999
101324.999
101324.999
101324.999
101324.999
101324.999
101324.999
101324.999
101324.999
101324.998
101324.998
101324.998
101324.998
101324.998
101324.998
101324.998
101324.998
101324.997
101324.997
101324.997
101324.997
101324.997
101324.997
101324.996
101324.996
101324.996
101324.996
101324.995
101324.995
101324.995
101324.994
101324.994
101324.994
101324.993
101324.993
101324.993
101324.992
101324.992
101324.991
101324.991
101324.99
101324.99
101324.989
101324.988
101324.988
101324.987
101324.986
101324.986
101324.985
101324.984
101324.983
101324.982
101324.981
101324.98
101324.979
101324.978
101324.976
101324.975
101324.974
101324.972
101324.971
101324.969
101324.967
101324.966
101324.964
101324.962
101324.96
101324.958
101324.955
101324.953
101324.95
101324.948
101324.945
101324.942
101324.939
101324.936
101324.933
101324.929
101324.925
101324.921
101324.917
101324.913
101324.909
101324.904
101324.899
101324.894
101324.889
101324.883
101324.877
101324.871
101324.865
101324.858
101324.851
101324.844
101324.836
101324.829
101324.82
101324.812
101324.802
101324.793
101324.783
101324.773
101324.762
101324.751
101324.739
101324.727
101324.714
101324.701
101324.687
101324.673
101324.658
101324.642
101324.626
101324.609
101324.591
101324.573
101324.554
101324.534
101324.513
101324.492
101324.47
101324.446
101324.422
101324.397
101324.371
101324.344
101324.316
101324.287
101324.257
101324.226
101324.194
101324.16
101324.125
101324.089
101324.052
101324.013
101323.973
101323.931
101323.888
101323.844
101323.798
101323.75
101323.701
101323.65
101323.597
101323.543
101323.487
101323.429
101323.369
101323.307
101323.244
101323.178
101323.11
101323.04
101322.968
101322.893
101322.817
101322.738
101322.656
101322.573
101322.486
101322.398
101322.307
101322.213
101322.116
101322.017
101321.915
101321.81
101321.703
101321.593
101321.479
101321.363
101321.244
101321.121
101320.996
101320.867
101320.735
101320.6
101320.462
101320.321
101320.176
101320.027
101319.876
101319.721
101319.562
101319.4
101319.235
101319.066
101318.893
101318.717
101318.537
101318.354
101318.167
101317.977
101317.782
101317.585
101317.383
101317.178
101316.97
101316.757
101316.542
101316.322
101316.099
101315.873
101315.643
101315.409
101315.172
101314.932
101314.688
101314.441
101314.191
101313.937
101313.681
101313.421
101313.158
101312.892
101312.623
101312.351
101312.077
101311.8
101311.52
101311.238
101310.954
101310.667
101310.378
101310.087
101309.794
101309.499
101309.203
101308.905
101308.605
101308.305
101308.003
101307.699
101307.396
101307.091
101306.786
101306.48
101306.174
101305.868
101305.562
101305.256
101304.95
101304.645
101304.341
101304.038
101303.736
101303.435
101303.135
101302.837
101302.541
101302.247
101301.955
101301.666
101301.379
101301.094
101300.813
101300.535
101300.26
101299.988
101299.72
101299.456
101299.196
101298.94
101298.688
101298.441
101298.199
101297.961
101297.729
101297.501
101297.279
101297.063
101296.851
101296.646
101296.447
101296.253
101296.066
101295.885
101295.71
101295.542
101295.38
101295.225
101295.077
101294.935
101294.801
101294.673
101294.552
101294.439
101294.333
101294.233
101294.141
101294.057
101293.979
101293.909
101293.846
101293.79
101293.742
101293.7
101293.666
101293.639
101293.619
101293.606
101293.601
101293.602
101293.61
101293.625
101293.646
101293.674
101293.709
101293.75
101293.797
101293.85
101293.91
101293.975
101294.046
101294.123
101294.205
101294.293
101294.386
101294.484
101294.587
101294.694
101294.806
101294.922
101295.043
101295.168
101295.296
101295.428
101295.564
101295.703
101295.845
101295.99
101296.138
101296.288
101296.441
101296.596
101296.753
101296.911
101297.072
101297.234
101297.397
101297.562
101297.727
101297.893
101298.06
101298.227
101298.395
101298.563
101298.73
101298.898
101299.066
101299.232
101299.399
101299.565
101299.73
101299.894
101300.057
101300.219
101300.379
101300.538
101300.696
101300.853
101301.007
101301.16
101301.311
101301.461
101301.608
101301.753
101301.897
101302.038
101302.177
101302.315
101302.449
101302.582
101302.712
101302.841
101302.966
101303.09
101303.211
101303.33
101303.447
101303.561
101303.673
101303.782
101303.89
101303.995
101304.098
101304.198
101304.297
101304.393
101304.487
101304.579
101304.669
101304.757
101304.843
101304.926
101305.008
101305.088
101305.167
101305.243
101305.318
101305.391
101305.462
101305.532
101305.6
101305.667
101305.732
101305.796
101305.858
101305.919
101305.979
101306.038
101306.095
101306.152
101306.207
101306.261
101306.315
101306.367
101306.419
101306.469
101306.519
101306.568
101306.617
101306.665
101306.712
101306.759
101306.805
101306.85
101306.895
101306.94
101306.985
101307.029
101307.072
101307.116
101307.159
101307.201
101307.244
101307.287
101307.329
101307.371
101307.413
101307.455
101307.497
101307.538
101307.58
101307.622
101307.663
101307.705
101307.746
101307.788
101307.829
101307.871
101307.912
101307.954
101307.995
101308.036
101308.078
101308.119
101308.161
101308.202
101308.243
101308.285
101308.326
101308.367
101308.408
101308.449
101308.49
101308.53
101308.571
101308.611
101308.651
101308.691
101308.731
101308.771
101308.81
101308.849
101308.887
101308.925
101308.963
101309.001
101309.038
101309.075
101309.111
101309.147
101309.182
101309.217
101309.251
101309.285
101309.318
101309.351
101309.383
101309.414
101309.445
101309.475
101309.505
101309.534
101309.562
101309.59
101309.617
101309.643
101309.669
101309.694
101309.718
101309.742
101309.765
101309.787
101309.809
101309.83
101309.85
101309.87
101309.889
101309.908
101309.926
101309.943
101309.96
101309.976
101309.992
101310.007
101310.022
101310.036
101310.05
101310.064
101310.077
101310.089
101310.102
101310.114
101310.125
101310.137
101310.148
101310.159
101310.17
101310.181
101310.192
101310.202
101310.213
101310.223
101310.234
101310.245
101310.255
101310.266
101310.277
101310.288
101310.299
101310.311
101310.323
101310.335
101310.347
101310.36
101310.373
101310.386
101310.4
101310.415
101310.429
101310.445
101310.46
101310.476
101310.493
101310.51
101310.528
101310.546
101310.565
101310.584
101310.604
101310.625
101310.645
101310.667
101310.689
101310.711
101310.734
101310.758
101310.781
101310.806
101310.83
101310.855
101310.881
101310.906
101310.932
101310.958
101310.985
101311.011
101311.038
101311.064
101311.091
101311.118
101311.144
101311.171
101311.197
101311.224
101311.25
101311.275
101311.301
101311.326
101311.351
101311.375
101311.399
101311.422
101311.445
101311.468
101311.49
101311.511
101311.532
101311.552
101311.572
101311.591
101311.609
101311.627
101311.644
101311.661
101311.677
101311.693
101311.708
101311.723
101311.737
101311.75
101311.763
101311.776
101311.788
101311.8
101311.812
101311.823
101311.834
101311.845
101311.856
101311.866
101311.876
101311.886
101311.896
101311.906
101311.916
101311.926
101311.935
101311.945
101311.955
101311.965
101311.974
101311.984
101311.994
101312.004
101312.014
101312.024
101312.034
101312.044
101312.054
101312.065
101312.075
101312.086
101312.096
101312.107
101312.118
101312.129
101312.14
101312.151
101312.162
101312.174
101312.185
101312.197
101312.208
101312.22
101312.232
101312.244
101312.256
101312.268
101312.28
101312.292
101312.305
101312.317
101312.329
101312.342
101312.354
101312.366
101312.378
101312.39
101312.401
101312.412
101312.423
101312.434
101312.444
101312.453
101312.462
101312.47
101312.478
101312.485
101312.491
101312.496
101312.5
101312.503
101312.505
101312.506
101312.507
101312.507
101312.506
101312.504
101312.503
101312.501
101312.5
101312.499
101312.499
101312.5
101312.502
101312.506
101312.512
101312.518
101312.508
101312.481
101312.813
101312.982
101312.909
101312.33
101312.222
101312.182
101312.272
101312.306
101312.402
101312.429
101312.48
101312.495
101312.513
101312.514
101312.517
101312.516
101312.515
101312.514
101312.514
101312.514
101312.514
101312.515
101312.516
101312.517
101312.519
101312.52
101312.521
101312.522
101312.523
101312.524
101312.524
101312.524
101312.524
101312.524
101312.523
101312.522
101312.521
101312.519
101312.517
101312.515
101312.513
101312.51
101312.507
101312.504
101312.501
101312.497
101312.493
101312.489
101312.485
101312.481
101312.476
101312.472
101312.467
101312.462
101312.457
101312.452
101312.446
101312.441
101312.435
101312.43
101312.424
101312.418
101312.413
101312.407
101312.401
101312.395
101312.389
101312.383
101312.377
101312.371
101312.365
101312.359
101312.353
101312.347
101312.34
101312.334
101312.328
101312.322
101312.316
101312.31
101312.303
101312.297
101312.291
101312.285
101312.279
101312.273
101312.267
101312.26
101312.254
101312.248
101312.242
101312.236
101312.23
101312.224
101312.218
101312.212
101312.206
101312.2
101312.194
101312.188
101312.182
101312.176
101312.17
101312.164
101312.158
101312.152
101312.146
101312.14
101312.134
101312.128
101312.123
101312.117
101312.111
101312.105
101312.099
101312.093
101312.087
101312.082
101312.076
101312.07
101312.064
101312.058
101312.053
101312.047
101312.041
101312.035
101312.03
101312.024
101312.018
101312.012
101312.007
101312.001
101311.995
101311.99
101311.984
101311.978
101311.973
101311.967
101311.961
101311.956
101311.95
101311.945
101311.939
101311.933
101311.928
101311.922
101311.917
101311.911
101311.905
101311.9
101311.894
101311.889
101311.883
101311.877
101311.872
101311.866
101311.86
101311.855
101311.849
101311.843
101311.837
101311.831
101311.826
101311.82
101311.814
101311.808
101311.802
101311.796
101311.79
101311.783
101311.777
101311.771
101311.765
101311.758
101311.752
101311.745
101311.738
101311.732
101311.725
101311.718
101311.71
101311.703
101311.696
101311.688
101311.681
101311.673
101311.665
101311.657
101311.649
101311.641
101311.633
101311.625
101311.616
101311.607
101311.599
101311.59
101311.581
101311.571
101311.562
101311.553
101311.543
101311.533
101311.523
101311.513
101311.503
101311.493
101311.482
101311.471
101311.461
101311.45
101311.439
101311.427
101311.416
101311.405
101311.393
101311.381
101311.369
101311.357
101311.345
101311.333
101311.321
101311.308
101311.296
101311.283
101311.27
101311.258
101311.245
101311.232
101311.219
101311.206
101311.193
101311.179
101311.166
101311.153
101311.139
101311.126
101311.113
101311.099
101311.086
101311.072
101311.059
101311.045
101311.031
101311.018
101311.004
101310.991
101310.978
101310.964
101310.951
101310.937
101310.924
101310.911
101310.897
101310.884
101310.871
101310.858
101310.845
101310.832
101310.819
101310.807
101310.794
101310.781
101310.769
101310.756
101310.744
101310.732
101310.72
101310.708
101310.696
101310.684
101310.673
101310.661
101310.65
101310.638
101310.627
101310.616
101310.605
101310.594
101310.584
101310.573
101310.563
101310.553
101310.542
101310.532
101310.522
101310.513
101310.503
101310.493
101310.484
101310.475
101310.466
101310.457
101310.448
101310.439
101310.43
101310.422
101310.413
101310.405
101310.397
101310.388
101310.38
101310.373
101310.365
101310.357
101310.349
101310.342
101310.335
101310.327
101310.32
101310.313
101310.306
101310.299
101310.292
101310.285
101310.278
101310.271
101310.265
101310.258
101310.252
101310.245
101310.239
101310.232
101310.226
101310.219
101310.213
101310.207
101310.201
101310.194
101310.188
101310.182
101310.176
101310.169
101310.163
101310.157
101310.151
101310.145
101310.138
101310.132
101310.126
101310.12
101310.113
101310.107
101310.101
101310.094
101310.088
101310.081
101310.075
101310.068
101310.062
101310.055
101310.048
101310.041
101310.034
101310.027
101310.02
101310.013
101310.006
101309.999
101309.991
101309.984
101309.976
101309.969
101309.961
101309.953
101309.945
101309.937
101309.929
101309.92
101309.912
101309.903
101309.895
101309.886
101309.877
101309.868
101309.859
101309.85
101309.84
101309.831
101309.821
101309.811
101309.801
101309.791
101309.781
101309.77
101309.76
101309.749
101309.738
101309.727
101309.716
101309.705
101309.693
101309.682
101309.67
101309.658
101309.646
101309.633
101309.621
101309.608
101309.596
101309.583
101309.57
101309.556
101309.543
101309.529
101309.516
101309.502
101309.488
101309.474
101309.459
101309.445
101309.43
101309.415
101309.4
101309.385
101309.37
101309.354
101309.339
101309.323
101309.307
101309.291
101309.275
101309.258
101309.242
101309.225
101309.208
101309.191
101309.174
101309.157
101309.14
101309.122
101309.104
101309.087
101309.069
101309.051
101309.032
101309.014
101308.996
101308.977
101308.959
101308.94
101308.921
101308.902
101308.883
101308.864
101308.844
101308.825
101308.806
101308.786
101308.766
101308.746
101308.727
101308.707
101308.687
101308.666
101308.646
101308.626
101308.606
101308.585
101308.565
101308.544
101308.524
101308.503
101308.482
101308.461
101308.441
101308.42
101308.399
101308.378
101308.357
101308.336
101308.315
101308.293
101308.272
101308.251
101308.23
101308.208
101308.187
101308.166
101308.144
101308.123
101308.102
101308.08
101308.059
101308.037
101308.016
101307.994
101307.973
101307.951
101307.93
101307.908
101307.887
101307.865
101307.843
101307.822
101307.8
101307.779
101307.757
101307.735
101307.714
101307.692
101307.671
101307.649
101307.627
101307.605
101307.581
101307.555
101307.528
101307.498
101307.466
101307.432
101307.396
101307.357
101307.315
101307.27
101307.222
101307.17
101307.114
101307.055
101306.99
101306.921
101306.846
101306.764
101306.676
101306.58
101306.475
101306.36
101306.233
101306.091
101305.933
101305.755
101305.551
101305.318
101305.047
101304.73
101304.355
101303.91
101303.378
101302.74
101301.976
101301.068
101300
101298.77
101297.395
101295.925
101294.463
101293.169
101292.27
101292.043
101292.773
101294.679
101297.825
101302.047
101306.931
101311.889
101316.322
101319.808
101322.214
101323.666
101324.433
101324.786
101324.929
101324.979
101324.995
101324.999
101325
101325
101325.001
101325.001
101325.001
101325.001
101325.001
101325.001
101325.001
101325.001
101325.001
101325.001
101325
101325
101325
101325
)
;

boundaryField
{
    closed
    {
        type            zeroGradient;
    }
    open
    {
        type            waveTransmissive;
        gamma           1.25;
        fieldInf        101325;
        lInf            1;
        value           uniform 101325;
    }
    sides
    {
        type            empty;
    }
}


// ************************************************************************* //
