/*--------------------------------*- C++ -*----------------------------------*\
| =========                 |                                                 |
| \\      /  F ield         | OpenFOAM: The Open Source CFD Toolbox           |
|  \\    /   O peration     | Version:  2206                                  |
|   \\  /    A nd           | Website:  www.openfoam.com                      |
|    \\/     M anipulation  |                                                 |
\*---------------------------------------------------------------------------*/
FoamFile
{
    version     2.0;
    format      ascii;
    arch        "LSB;label=32;scalar=64";
    class       surfaceScalarField;
    location    "1.42e-05";
    object      phi;
}
// * * * * * * * * * * * * * * * * * * * * * * * * * * * * * * * * * * * * * //

dimensions      [1 0 -1 0 0 0 0];

oriented        oriented;

internalField   nonuniform List<scalar> 
3182
(
5.06580111e-18
-2.39405936e-18
-1.58307191e-18
-1.93688817e-18
-5.27955025e-21
-3.07051822e-23
-2.18732428e-24
1.89753866e-27
3.25489865e-24
5.92894049e-23
2.10235104e-20
3.57489598e-18
3.54637745e-18
2.83480266e-19
1.5300118e-18
-1.04872667e-18
-3.84277689e-18
-4.99720677e-18
-4.07939853e-18
4.34450591e-18
6.2975264e-20
1.27549688e-21
9.053864e-19
2.2265065e-18
3.86422257e-18
2.18766503e-18
6.73868119e-18
2.09658553e-18
5.62744947e-19
1.24918458e-18
-1.37483039e-18
-3.53112916e-18
-5.110194e-18
-6.16784519e-18
-7.10507378e-18
-4.90927946e-18
-3.48577321e-18
-3.79294412e-18
-5.32476479e-18
-4.7228228e-18
-3.67887114e-18
-7.45189868e-19
3.28095021e-19
9.45800334e-19
1.86600126e-18
4.22927802e-18
5.62902117e-18
6.60485437e-18
8.78093166e-18
9.66617872e-18
1.17241674e-17
1.1751732e-17
1.11803355e-17
1.1181442e-17
9.33585543e-18
6.96723177e-18
4.13559252e-18
2.19056866e-18
4.43098459e-19
-1.52070759e-18
-4.33184224e-18
-6.75191991e-18
-8.3075154e-18
-1.02232105e-17
-1.2542984e-17
-1.42895864e-17
-1.58205838e-17
-1.77599449e-17
-2.03737967e-17
-2.26103968e-17
-2.43046548e-17
-2.63115079e-17
-2.76898171e-17
-2.87288423e-17
-2.91632528e-17
-3.04734934e-17
-3.10145532e-17
-3.09838312e-17
-3.05283208e-17
-3.12846596e-17
-3.17406813e-17
-3.28884823e-17
-3.25923105e-17
-3.34781544e-17
-3.39718456e-17
-3.52897232e-17
-3.57837206e-17
-3.5917618e-17
-3.64603127e-17
-3.35670991e-17
-3.75416252e-17
-3.87092007e-17
-3.92166904e-17
-3.71677818e-17
-3.84595661e-17
-3.82195048e-17
-3.87014116e-17
-4.18553892e-17
-3.86220596e-17
-4.20941824e-17
-4.44874547e-17
-4.32656833e-17
-4.23715565e-17
-4.37026818e-17
-4.55927915e-17
-4.44587545e-17
-4.58139536e-17
-4.73507385e-17
-4.40626743e-17
-4.48769842e-17
-4.57792606e-17
-4.61588969e-17
-4.44365993e-17
-4.49631613e-17
-4.55840545e-17
-4.51657404e-17
-4.28264104e-17
-4.53648256e-17
-4.63503826e-17
-4.50175825e-17
-4.70108565e-17
-4.90149275e-17
-4.96233312e-17
-5.18772074e-17
-5.13287604e-17
-5.14899905e-17
-5.40397715e-17
-5.65935159e-17
-5.52784913e-17
-5.54682375e-17
-5.52589559e-17
-5.50607336e-17
-5.63489624e-17
-5.45359521e-17
-5.55658637e-17
-5.25384666e-17
-5.3388552e-17
-5.41562651e-17
-5.30663731e-17
-5.36291218e-17
-5.17756623e-17
-5.30651304e-17
-5.19813559e-17
-5.35481653e-17
-5.44932462e-17
-5.34590882e-17
-5.09378686e-17
-5.39352311e-17
-5.64086003e-17
-5.70367151e-17
-5.69445081e-17
-5.95996702e-17
-5.91975344e-17
-5.80254997e-17
-6.03842902e-17
-6.10057345e-17
-5.95243067e-17
-6.26058411e-17
-5.98634688e-17
-6.43666947e-17
-6.66180285e-17
-6.91145106e-17
-6.47574315e-17
-6.47676589e-17
-6.56331978e-17
-6.64656428e-17
-6.51714329e-17
-6.59215091e-17
-6.76321243e-17
-7.04696815e-17
-6.82887219e-17
-6.72557364e-17
-6.9036445e-17
-7.08241263e-17
-7.18338327e-17
-7.50530829e-17
-7.25154799e-17
-7.32906033e-17
-7.31296681e-17
-7.28161615e-17
-7.24853072e-17
-7.37912875e-17
-7.39569899e-17
-7.60396403e-17
-7.51095544e-17
-7.75097508e-17
-7.56144326e-17
-7.50345737e-17
-7.60297144e-17
-7.70623379e-17
-7.54462096e-17
-7.94726592e-17
-8.07938485e-17
-8.26161255e-17
-7.88329041e-17
-8.33287704e-17
-8.28548385e-17
-8.24290427e-17
-8.26718936e-17
-8.45408503e-17
-8.21920248e-17
-8.64963197e-17
-8.69410365e-17
-8.62874664e-17
-8.56410511e-17
-8.87086258e-17
-9.1081605e-17
-8.9369027e-17
-8.81933387e-17
-8.66844652e-17
-8.83508497e-17
-8.83233284e-17
-8.75516806e-17
-9.03094562e-17
-8.8913145e-17
-9.01573174e-17
-8.80843724e-17
-9.21823944e-17
-9.24806345e-17
-9.2621404e-17
-9.17403768e-17
-9.1268058e-17
-9.4616885e-17
-9.55251041e-17
-9.30519283e-17
-9.72079099e-17
-9.65917799e-17
-9.44838533e-17
-9.41631409e-17
-9.64133874e-17
-9.58342852e-17
-9.55134065e-17
-9.61942455e-17
-9.87478326e-17
-9.60876938e-17
-9.84818777e-17
-9.74987355e-17
-9.9316374e-17
-9.7331719e-17
-9.94696005e-17
-9.88321929e-17
-1.01189612e-16
-1.04981774e-16
-1.02089372e-16
-1.0279683e-16
-1.04711362e-16
-1.03761642e-16
-1.0664706e-16
-1.04719986e-16
-1.0227965e-16
-1.0296806e-16
-1.04703858e-16
-1.02467046e-16
-1.02064586e-16
-1.00789001e-16
-1.04523142e-16
-1.01097469e-16
-1.01538369e-16
-1.00030918e-16
-9.72797648e-17
-9.85389879e-17
-9.83009824e-17
-9.98289156e-17
-9.92317725e-17
-1.01464586e-16
-9.8509148e-17
-1.02160583e-16
-1.01018463e-16
-1.01741642e-16
-9.99182982e-17
-1.00055201e-16
-1.01871774e-16
-1.01530155e-16
-1.04251857e-16
-1.02023226e-16
-1.01912692e-16
-1.02986094e-16
-1.06214766e-16
-1.02934812e-16
-1.03363846e-16
-1.0263815e-16
-1.0559514e-16
-1.05936132e-16
-1.02472486e-16
-9.97848531e-17
-1.00846729e-16
-9.95287924e-17
-9.99490947e-17
-9.94267123e-17
-9.96115789e-17
-9.94032088e-17
-1.02205963e-16
-1.0127873e-16
-1.01982018e-16
-1.0232682e-16
-1.03415344e-16
-1.03789871e-16
-1.05988177e-16
-1.0827691e-16
-1.08580698e-16
-1.07313283e-16
-1.07586105e-16
-1.1204093e-16
-1.12419881e-16
-1.13349077e-16
-1.13077699e-16
-1.14133079e-16
-1.1418292e-16
-1.17677294e-16
-1.16963677e-16
-1.19298779e-16
-1.16918559e-16
-1.18796218e-16
-1.20323218e-16
-1.18667735e-16
-1.16265014e-16
-1.20542146e-16
-1.17459309e-16
-1.22665433e-16
-1.19654543e-16
-1.23078195e-16
-1.20134704e-16
-1.20309354e-16
-1.19117916e-16
-1.21023085e-16
-1.18282588e-16
-1.19609525e-16
-1.17795407e-16
-1.19041661e-16
-1.1839537e-16
-1.17553316e-16
-1.17840408e-16
-1.17003266e-16
-1.1635017e-16
-1.14906411e-16
-1.1496543e-16
-1.16444487e-16
-1.1949075e-16
-1.17955106e-16
-1.16713216e-16
-1.14936608e-16
-1.13236135e-16
-1.13633088e-16
-1.12889888e-16
-1.15381013e-16
-1.15970311e-16
-1.15053055e-16
-1.17855062e-16
-1.15829925e-16
-1.18172332e-16
-1.1965111e-16
-1.18983249e-16
-1.1883148e-16
-1.15086856e-16
-1.13301385e-16
-1.14258349e-16
-1.10574806e-16
-1.11150781e-16
-1.1043249e-16
-1.08661592e-16
-1.09617209e-16
-1.10199127e-16
-1.09846076e-16
-1.09377578e-16
-1.11489824e-16
-1.11224025e-16
-1.11654289e-16
-1.12794666e-16
-1.11288262e-16
-1.10510226e-16
-1.11498924e-16
-1.09895779e-16
-1.11058989e-16
-1.09183057e-16
-1.0851256e-16
-1.07435558e-16
-1.0850054e-16
-1.09298929e-16
-1.05170776e-16
-1.09354846e-16
-1.07844582e-16
-1.07720326e-16
-1.06801499e-16
-1.09841379e-16
-1.11065637e-16
-1.09741483e-16
-1.07887249e-16
-1.07452033e-16
-1.06444414e-16
-1.06605509e-16
-1.04196384e-16
-1.0793688e-16
-1.06014802e-16
-1.01936523e-16
-1.00495835e-16
-1.01424954e-16
-1.06280318e-16
-1.07508765e-16
-1.04952724e-16
-1.035302e-16
-1.0590189e-16
-1.01573529e-16
-1.0558111e-16
-1.01990586e-16
-1.06688565e-16
-9.93517864e-17
-1.00216884e-16
-9.84677417e-17
-9.56127268e-17
-9.46491456e-17
-9.09675504e-17
-9.48477059e-17
-9.29073913e-17
-9.42679455e-17
-9.82866716e-17
-9.39124495e-17
-9.73751154e-17
-9.6718091e-17
-9.72932785e-17
-9.61885558e-17
-9.54803961e-17
-9.64058589e-17
-9.2948327e-17
-9.53430884e-17
-9.56978328e-17
-9.5622845e-17
-9.50401497e-17
-9.52814817e-17
-9.25960201e-17
-8.971347e-17
-9.04078592e-17
-8.83994159e-17
-8.50245022e-17
-8.74919095e-17
-8.74233127e-17
-8.57898934e-17
-8.31810368e-17
-8.1741072e-17
-8.02565844e-17
-7.81024435e-17
-7.72555036e-17
-7.89719856e-17
-7.97583667e-17
-7.87268655e-17
-7.39017575e-17
-7.37433278e-17
-7.72906334e-17
-7.36688807e-17
-7.60236573e-17
-7.4233881e-17
-7.30648957e-17
-7.2130924e-17
-6.79165802e-17
-6.45189082e-17
-6.58162637e-17
-6.18473808e-17
-6.36385211e-17
-6.43378349e-17
-6.32201955e-17
-6.1751339e-17
-6.21696438e-17
-5.91523127e-17
-5.87225376e-17
-6.01485101e-17
-5.72683259e-17
-5.8280448e-17
-5.8436555e-17
-5.84761753e-17
-6.12166042e-17
-6.11925478e-17
-5.84970979e-17
-5.63691309e-17
-5.4031004e-17
-5.33638433e-17
-5.24490142e-17
-5.53925703e-17
-5.35951043e-17
-5.68598277e-17
-5.51730316e-17
-5.51355893e-17
-5.17646613e-17
-5.4707884e-17
-5.01225402e-17
-4.72263891e-17
-4.4610166e-17
-4.45307295e-17
-4.36640387e-17
-4.74183111e-17
-4.7728188e-17
-4.77553989e-17
-4.71507864e-17
-4.53653053e-17
-4.80357666e-17
-5.19891632e-17
-4.99188522e-17
-4.90733919e-17
-4.9381234e-17
-4.83816261e-17
-4.77780927e-17
-4.66879525e-17
-4.2411859e-17
-4.16489104e-17
-3.97183677e-17
-4.04115129e-17
-3.8578078e-17
-4.17424164e-17
-4.03811723e-17
-3.80991262e-17
-3.85284803e-17
-3.66476589e-17
-3.4576067e-17
-3.58077263e-17
-3.35880546e-17
-3.48487986e-17
-3.40940825e-17
-3.46247635e-17
-3.2600505e-17
-3.27988447e-17
-2.90560928e-17
-3.3026068e-17
-2.83082407e-17
-3.03495933e-17
-3.45594247e-17
-3.47302181e-17
-3.23460853e-17
-3.32763205e-17
-3.26074819e-17
-3.52132772e-17
-3.05652716e-17
-3.156876e-17
-3.06828271e-17
-3.07956754e-17
-2.86916378e-17
-2.75111909e-17
-2.72964624e-17
-3.07990579e-17
-3.08683623e-17
-3.09278791e-17
-3.34971297e-17
-2.94675772e-17
-3.11508987e-17
-2.7126044e-17
-2.62185693e-17
-2.54334104e-17
-2.24883194e-17
-2.30233994e-17
-2.06624846e-17
-2.39540467e-17
-1.89084561e-17
-2.10307121e-17
-1.69171621e-17
-1.89108887e-17
-2.11469272e-17
-2.10472566e-17
-1.80314536e-17
-1.85593021e-17
-2.05394288e-17
-2.22376343e-17
-2.18394006e-17
-2.05684411e-17
-2.18449438e-17
-1.88201475e-17
-2.04719734e-17
-2.25255567e-17
-2.23001148e-17
-2.35241483e-17
-1.90340661e-17
-1.83577626e-17
-1.41653073e-17
-1.6390616e-17
-1.24477236e-17
-1.13313612e-17
-1.301507e-17
-1.32742537e-17
-1.21909293e-17
-1.71674483e-17
-1.66177757e-17
-1.9051455e-17
-1.47727284e-17
-1.3985887e-17
-1.40440497e-17
-1.46221623e-17
-9.95321039e-18
-7.09251435e-18
-1.01994531e-17
-8.33332151e-18
-8.99026286e-18
-8.14818139e-18
-1.05983562e-17
-8.47118289e-18
-8.19979001e-18
-7.35861831e-18
-6.8372544e-18
-7.13363774e-18
-5.24092802e-18
-4.92896382e-18
-4.75779051e-18
-2.74864077e-18
-1.63267608e-18
-3.26934192e-18
-1.71864831e-18
5.50411094e-19
-4.7743741e-19
-1.1685475e-18
2.44908777e-18
1.92597456e-18
1.52686246e-18
1.40819152e-18
3.19846202e-18
4.12620461e-18
4.24065923e-18
5.17504482e-18
5.94975923e-18
3.39845685e-18
2.43166706e-18
4.83606982e-18
4.83861554e-18
3.30250013e-18
9.51676906e-18
9.12933543e-18
6.62117147e-18
3.71032157e-18
5.27590134e-18
6.91308941e-18
4.10564138e-18
2.22222177e-18
7.4694244e-18
5.83862216e-18
9.05743889e-18
1.21654028e-17
1.32087324e-17
1.46741392e-17
1.65766807e-17
1.79675377e-17
1.82032555e-17
1.72402862e-17
1.68007103e-17
1.54438964e-17
1.33394785e-17
1.37394148e-17
1.92793425e-17
1.94592793e-17
2.08804914e-17
1.91361652e-17
1.854826e-17
1.65578302e-17
1.82055281e-17
1.84490799e-17
1.79679356e-17
1.84384236e-17
2.1434233e-17
2.01030457e-17
1.77992474e-17
2.24179941e-17
2.01968646e-17
1.83440803e-17
1.99937268e-17
2.08093356e-17
1.84769115e-17
2.09774301e-17
2.23103441e-17
2.65502059e-17
2.59720207e-17
2.45653392e-17
2.8255587e-17
2.50648691e-17
2.5484845e-17
2.57026835e-17
2.56738644e-17
2.44479239e-17
2.57864118e-17
2.44188104e-17
2.89721145e-17
2.88782091e-17
2.52894389e-17
2.21936569e-17
2.29357109e-17
2.56561764e-17
2.60413812e-17
2.79799567e-17
2.72980693e-17
2.89506513e-17
3.26940655e-17
3.14339598e-17
3.24069159e-17
3.5304891e-17
3.43231337e-17
3.29609109e-17
3.66238582e-17
3.75035069e-17
3.74755606e-17
3.7430562e-17
3.89832174e-17
4.00575602e-17
4.00153013e-17
4.06954439e-17
4.17665984e-17
4.32434063e-17
4.21675522e-17
4.28795159e-17
4.21781668e-17
4.62477737e-17
4.56093548e-17
4.70948829e-17
4.43828949e-17
4.61127473e-17
4.7319096e-17
4.99429403e-17
4.95802675e-17
4.76318163e-17
5.06744577e-17
5.10813084e-17
5.04189789e-17
5.19070717e-17
5.14425567e-17
5.20731028e-17
5.50083217e-17
5.45755987e-17
5.6461028e-17
5.70521386e-17
6.17473044e-17
6.16704808e-17
6.2721258e-17
5.9624124e-17
6.07744448e-17
5.94344627e-17
6.24783955e-17
6.17436874e-17
6.16139363e-17
5.97275007e-17
6.07519121e-17
6.28965746e-17
6.51888454e-17
6.65844528e-17
6.46332322e-17
6.24338538e-17
6.45178853e-17
6.6649321e-17
6.53539537e-17
7.06219186e-17
6.78801087e-17
6.57275125e-17
6.46886503e-17
6.49205889e-17
6.46974063e-17
6.54276193e-17
6.64971153e-17
6.66931922e-17
6.69758215e-17
6.83614526e-17
6.59208909e-17
6.86408473e-17
7.00349528e-17
6.83793024e-17
6.77943546e-17
6.88792319e-17
6.97845833e-17
6.67202707e-17
6.4431137e-17
6.13535398e-17
6.37622269e-17
6.53180819e-17
6.41920572e-17
6.47808794e-17
6.25886493e-17
6.27685474e-17
6.41745093e-17
6.73595475e-17
6.63462056e-17
6.76036642e-17
6.90516986e-17
7.20373494e-17
7.3148449e-17
7.76300975e-17
7.97295697e-17
7.73451411e-17
7.63169598e-17
8.12146374e-17
7.94389889e-17
7.86335569e-17
7.62772017e-17
7.52332089e-17
7.97597487e-17
7.90175252e-17
8.00078378e-17
8.04321567e-17
7.9708631e-17
7.60390547e-17
7.67594195e-17
8.2045938e-17
7.68856425e-17
7.94960819e-17
7.38048052e-17
7.14194241e-17
7.27762188e-17
7.45695827e-17
7.00027296e-17
7.29807547e-17
6.92906521e-17
6.7280302e-17
6.89313632e-17
6.54422918e-17
6.6466148e-17
6.6705141e-17
7.06422119e-17
6.64772875e-17
7.0048179e-17
6.92098812e-17
6.49112746e-17
6.21466126e-17
6.32382142e-17
6.55363637e-17
6.58781368e-17
6.45882342e-17
6.33377469e-17
6.45865696e-17
6.51914908e-17
6.19964297e-17
6.41728059e-17
6.26484674e-17
6.64660207e-17
6.56591648e-17
6.32333576e-17
6.2741482e-17
6.25457528e-17
6.38065168e-17
6.31521553e-17
5.89643589e-17
6.33184083e-17
6.34048658e-17
6.4503871e-17
6.49615003e-17
6.38155959e-17
6.24674514e-17
6.24487748e-17
6.31179099e-17
6.41639346e-17
6.31915557e-17
6.41415731e-17
6.5703272e-17
6.38197724e-17
6.55545386e-17
6.82437219e-17
6.69237211e-17
6.81149067e-17
6.42453745e-17
6.44436414e-17
6.30060272e-17
6.45007567e-17
6.15321098e-17
6.0434702e-17
5.75452762e-17
6.19429447e-17
6.11910834e-17
6.00094101e-17
6.01028286e-17
5.991048e-17
6.1473465e-17
6.14552173e-17
6.13459833e-17
6.21079291e-17
6.17989082e-17
5.97760876e-17
6.40133478e-17
6.27421767e-17
6.07505968e-17
6.15669285e-17
6.22298349e-17
6.24118051e-17
6.33881553e-17
6.35635561e-17
5.96529641e-17
6.10404157e-17
6.06873458e-17
6.679883e-17
6.02838466e-17
6.50493407e-17
6.60435072e-17
6.56927164e-17
6.40739476e-17
6.50119677e-17
6.2635623e-17
6.56402894e-17
6.50706716e-17
6.05143444e-17
6.07245913e-17
5.74037566e-17
5.61771508e-17
5.54734602e-17
5.68173442e-17
5.98552282e-17
5.86968214e-17
5.94410461e-17
5.91515371e-17
5.89279006e-17
5.81707675e-17
5.90379296e-17
5.92796154e-17
5.69750647e-17
5.9367028e-17
6.11169105e-17
6.15915026e-17
6.17067879e-17
6.42254671e-17
5.97209798e-17
5.99915706e-17
6.0211311e-17
5.8185413e-17
5.69412368e-17
6.12980145e-17
5.84958373e-17
5.62017701e-17
5.74068951e-17
5.76772214e-17
5.6464212e-17
5.98899813e-17
5.99033848e-17
6.07220723e-17
6.43789034e-17
6.46700721e-17
6.36924333e-17
6.05160916e-17
6.12100384e-17
6.05119853e-17
5.80889151e-17
5.71164689e-17
5.65549601e-17
5.75418409e-17
5.69185442e-17
5.67927648e-17
5.80164456e-17
5.98956214e-17
6.12723925e-17
6.05963385e-17
6.10986796e-17
5.88030225e-17
5.98949394e-17
5.88725919e-17
5.59835286e-17
5.42470955e-17
5.25114464e-17
5.01016437e-17
5.39685394e-17
5.72072508e-17
5.51751218e-17
5.24199634e-17
5.09038322e-17
5.03085226e-17
5.17118427e-17
4.91743913e-17
4.57921388e-17
4.87335595e-17
4.6140408e-17
4.4953696e-17
4.93732957e-17
4.91180484e-17
4.48872778e-17
5.04881664e-17
5.20893007e-17
5.21747357e-17
5.13234681e-17
5.55994908e-17
5.35676294e-17
5.46429583e-17
5.75625515e-17
5.68975977e-17
5.26509899e-17
5.32521506e-17
5.38021189e-17
5.07632075e-17
5.35723454e-17
5.40917315e-17
5.27659107e-17
5.63189011e-17
5.58069268e-17
5.51588851e-17
5.25390414e-17
5.41519169e-17
5.14228018e-17
5.39473772e-17
5.5897488e-17
5.32001085e-17
5.62742968e-17
5.53027787e-17
5.76906348e-17
5.44386732e-17
5.36987685e-17
5.63746706e-17
5.37323004e-17
5.35679517e-17
5.37683712e-17
5.47291603e-17
5.3443615e-17
5.2534209e-17
5.14060059e-17
5.14147335e-17
4.98634175e-17
5.2901403e-17
5.54878537e-17
5.32450744e-17
5.58241291e-17
5.40634909e-17
5.26907672e-17
5.42683448e-17
5.49687309e-17
5.4283528e-17
5.23238085e-17
5.03668429e-17
5.11401072e-17
4.82467436e-17
4.34471485e-17
4.42111391e-17
4.39440068e-17
4.10405579e-17
4.1083841e-17
3.8644287e-17
4.14669256e-17
4.14227757e-17
3.5597323e-17
3.3944645e-17
3.65553404e-17
3.9222503e-17
4.137628e-17
4.09600315e-17
3.86547018e-17
3.71611458e-17
3.68519133e-17
3.3536492e-17
3.42765883e-17
3.09929824e-17
2.72145582e-17
2.68615753e-17
2.44194905e-17
2.54734075e-17
2.32218386e-17
2.34305445e-17
2.7232477e-17
2.82731869e-17
2.87652171e-17
2.51866285e-17
2.69313374e-17
2.6978094e-17
2.90255404e-17
2.90395378e-17
2.75715065e-17
2.8574937e-17
2.84344949e-17
2.66386387e-17
2.71791711e-17
2.34035714e-17
2.3645202e-17
2.12665101e-17
2.25758487e-17
2.646468e-17
2.30570996e-17
2.55509811e-17
2.18266651e-17
2.41563315e-17
2.30398064e-17
1.99728549e-17
2.28590378e-17
2.05397477e-17
2.01862059e-17
2.09375986e-17
1.93615305e-17
2.05263545e-17
2.17199194e-17
1.56819297e-17
1.97590874e-17
2.05373372e-17
2.34793482e-17
2.32995982e-17
2.09544177e-17
2.35857883e-17
2.4619478e-17
2.14352676e-17
2.19776549e-17
1.83403278e-17
1.95682423e-17
2.32779609e-17
2.12666104e-17
2.22362518e-17
2.52353734e-17
2.50195007e-17
2.58981707e-17
2.49381102e-17
2.44132166e-17
1.98712333e-17
2.27763459e-17
2.10800996e-17
2.07822094e-17
2.06058544e-17
2.06210822e-17
2.17591096e-17
2.35797753e-17
1.66199375e-17
1.66368714e-17
1.42055588e-17
1.39746809e-17
1.20649883e-17
1.2733806e-17
1.39709913e-17
1.17890194e-17
1.54100902e-17
1.564799e-17
1.24634689e-17
1.42782887e-17
1.40365118e-17
1.11066166e-17
1.0381919e-17
9.28254746e-18
8.25970065e-18
4.57753039e-18
3.83828908e-18
7.77355202e-18
4.20572125e-18
4.47940522e-18
2.10289203e-18
2.13405816e-18
3.40482568e-20
-4.2123516e-18
-3.01258218e-18
-6.07124948e-18
-6.91580153e-18
-7.71319008e-18
-8.83487383e-18
-8.71029723e-18
-9.00043864e-18
-1.12081391e-17
-1.30442999e-17
-1.41185882e-17
-1.71625214e-17
-2.19204584e-17
-1.8241975e-17
-2.29837378e-17
-2.42351831e-17
-2.10518292e-17
-2.32063679e-17
-2.04086307e-17
-2.31910162e-17
-2.34229481e-17
-2.34457938e-17
-2.35491313e-17
-2.35296434e-17
-2.56905575e-17
-2.7015492e-17
-2.56589749e-17
-2.51026229e-17
-2.5497409e-17
-2.47685319e-17
-2.7045695e-17
-2.79017782e-17
-2.75982661e-17
-2.99427027e-17
-2.80593869e-17
-2.82846629e-17
-2.89216584e-17
-2.98841811e-17
-2.73716944e-17
-2.87576488e-17
-3.07081109e-17
-3.10333239e-17
-3.61615035e-17
-3.22303398e-17
-3.2038692e-17
-3.21154846e-17
-3.26440153e-17
-3.31850411e-17
-3.29000616e-17
-3.23748401e-17
-3.28412939e-17
-3.3725625e-17
-3.31023534e-17
-3.52301967e-17
-3.51540658e-17
-3.40098539e-17
-3.75752677e-17
-3.50839851e-17
-3.74455808e-17
-3.96818625e-17
-3.95991515e-17
-3.92117332e-17
-4.26587815e-17
-4.24253921e-17
-4.33514853e-17
-4.41556919e-17
-4.43192758e-17
-4.74335702e-17
-4.49332544e-17
-4.21269415e-17
-4.47676341e-17
-4.77912909e-17
-4.96050707e-17
-4.64834325e-17
-5.3652958e-17
-5.55443299e-17
-5.45366645e-17
-6.01230643e-17
-6.23877214e-17
-6.37431551e-17
-6.13829712e-17
-6.7043238e-17
-6.80793586e-17
-6.9675897e-17
-6.84608721e-17
-6.80763438e-17
-6.83557503e-17
-6.51004118e-17
-6.63588336e-17
-6.741526e-17
-6.60167721e-17
-6.47619262e-17
-6.40681208e-17
-6.75847109e-17
-6.57671633e-17
-6.69195236e-17
-6.80625862e-17
-6.65350176e-17
-6.59580494e-17
-6.27425486e-17
-6.41403272e-17
-6.39418546e-17
-6.10892455e-17
-6.15565589e-17
-6.41930107e-17
-6.35332442e-17
-6.51878431e-17
-6.73561076e-17
-6.70510289e-17
-6.77774623e-17
-6.91471389e-17
-6.88583633e-17
-6.76013974e-17
-6.9546329e-17
-6.88088717e-17
-6.76429773e-17
-6.30563619e-17
-6.5059581e-17
-6.30832134e-17
-6.17246338e-17
-6.3476307e-17
-6.4276453e-17
-6.25028924e-17
-6.33036037e-17
-6.11666001e-17
-5.94430744e-17
-5.90082757e-17
-5.88339533e-17
-5.82747033e-17
-5.90565322e-17
-5.91785865e-17
-5.84637923e-17
-5.53255531e-17
-5.72922272e-17
-5.74471512e-17
-5.73251888e-17
-5.80928465e-17
-5.77137635e-17
-5.51105272e-17
-5.57090361e-17
-5.57885411e-17
-5.52822838e-17
-5.6471755e-17
-5.64652631e-17
-5.70743251e-17
-5.83313129e-17
-6.51361644e-17
-6.25073439e-17
-6.48675724e-17
-6.48793516e-17
-6.47660253e-17
-6.57006292e-17
-6.56989533e-17
-6.51885495e-17
-6.53696571e-17
-6.60666797e-17
-6.47531704e-17
-6.60719114e-17
-6.37977486e-17
-6.26672957e-17
-5.94341498e-17
-6.09736856e-17
-6.15746583e-17
-6.14465496e-17
-6.07294929e-17
-6.09935299e-17
-6.10308069e-17
-6.22725792e-17
-6.42036053e-17
-6.59235957e-17
-6.27706705e-17
-6.15030145e-17
-6.23728878e-17
-6.40872943e-17
-6.40527692e-17
-6.47455273e-17
-6.38078447e-17
-6.36471913e-17
-6.6467309e-17
-6.64196727e-17
-7.01616141e-17
-6.76565472e-17
-6.90049042e-17
-7.29121806e-17
-7.02760648e-17
-7.18638908e-17
-7.24965575e-17
-7.01312008e-17
-7.12280248e-17
-7.26242134e-17
-7.15303805e-17
-6.81625078e-17
-6.98023542e-17
-6.80223895e-17
-6.68718817e-17
-6.92328583e-17
-6.91683316e-17
-6.8685178e-17
-7.21433685e-17
-6.87901093e-17
-7.17675151e-17
-7.00149384e-17
-7.0575081e-17
-6.77703633e-17
-6.76154532e-17
-6.77857529e-17
-6.80745816e-17
-6.69513856e-17
-7.05191257e-17
-6.86343005e-17
-6.93272079e-17
-7.05097271e-17
-7.02449062e-17
-6.68336473e-17
-6.80299828e-17
-6.86455495e-17
-6.45444827e-17
-6.50500401e-17
-6.55817741e-17
-6.58419279e-17
-6.53171404e-17
-6.36371572e-17
-6.38332645e-17
-6.24073596e-17
-6.35696096e-17
-6.07586339e-17
-6.19059446e-17
-6.36120456e-17
-6.37243308e-17
-6.2926398e-17
-6.26447677e-17
-6.43844296e-17
-6.74692811e-17
-6.67019965e-17
-6.5795989e-17
-6.47149262e-17
-6.53286308e-17
-6.52722405e-17
-6.28739419e-17
-6.58654595e-17
-7.0393707e-17
-6.72548773e-17
-6.9812958e-17
-7.0350633e-17
-7.18764002e-17
-7.30174107e-17
-7.4076496e-17
-7.26586078e-17
-7.17960852e-17
-7.25035475e-17
-7.17441772e-17
-7.1279058e-17
-7.25677703e-17
-7.2645414e-17
-7.3876091e-17
-7.60836591e-17
-7.29668737e-17
-7.26640606e-17
-7.44240899e-17
-7.70005577e-17
-7.43825853e-17
-7.20428494e-17
-7.48330639e-17
-7.82474855e-17
-7.63490457e-17
-7.53485979e-17
-7.20531272e-17
-7.40774327e-17
-7.30459481e-17
-7.15560585e-17
-6.75875978e-17
-6.76731152e-17
-6.91849772e-17
-6.74788685e-17
-6.87685171e-17
-6.88312003e-17
-6.62279821e-17
-7.12338689e-17
-6.96537577e-17
-7.14780679e-17
-7.52031779e-17
-7.61953524e-17
-7.42944305e-17
-7.47631443e-17
-7.67596614e-17
-7.24693174e-17
-7.7711242e-17
-7.48034658e-17
-7.65031255e-17
-7.28006745e-17
-7.27302848e-17
-7.40911893e-17
-7.51558709e-17
-7.63982227e-17
-7.43361368e-17
-7.31478754e-17
-7.80657166e-17
-7.73528606e-17
-7.52153031e-17
-7.80467786e-17
-7.48355024e-17
-7.50815319e-17
-7.60827005e-17
-7.71280733e-17
-7.66333116e-17
-7.02451733e-17
-7.35423266e-17
-7.49198355e-17
-7.59755584e-17
-7.52064867e-17
-7.14306228e-17
-7.27669972e-17
-7.19269167e-17
-7.33177414e-17
-7.12345678e-17
-6.86489656e-17
-6.71818202e-17
-6.77440424e-17
-6.50419478e-17
-6.52699508e-17
-6.30348507e-17
-6.44952187e-17
-6.28141723e-17
-6.0879154e-17
-5.89439276e-17
-6.27305692e-17
-6.14199371e-17
-6.14322801e-17
-6.32382493e-17
-6.09038444e-17
-6.07652745e-17
-6.33811937e-17
-6.24300452e-17
-6.05206132e-17
-6.04304875e-17
-6.02302976e-17
-6.02233291e-17
-5.82762215e-17
-5.79405432e-17
-5.38150104e-17
-5.10449758e-17
-5.44591714e-17
-5.79745569e-17
-5.50488683e-17
-5.60546166e-17
-5.44588681e-17
-5.25843167e-17
-5.31490189e-17
-5.65943411e-17
-6.06081865e-17
-5.98976468e-17
-5.66058037e-17
-5.4923794e-17
-5.40384333e-17
-5.66984105e-17
-5.75555033e-17
-5.51149792e-17
-5.47023579e-17
-5.77193234e-17
-5.53486825e-17
-5.54230427e-17
-5.62388787e-17
-5.81841578e-17
-5.43481515e-17
-5.22881744e-17
-5.24546881e-17
-5.20210703e-17
-4.98800188e-17
-5.10991349e-17
-5.00844361e-17
-5.01715351e-17
-4.9283111e-17
-4.78874653e-17
-4.82683081e-17
-4.74836934e-17
-4.88795873e-17
-5.03725544e-17
-4.48113195e-17
-4.44994242e-17
-4.3640565e-17
-4.44335091e-17
-4.23290173e-17
-4.10199291e-17
-4.18357223e-17
-4.10442105e-17
-3.92029557e-17
-3.92878082e-17
-4.37166796e-17
-3.82632988e-17
-3.73945529e-17
-3.61443703e-17
-3.20342839e-17
-3.54406007e-17
-3.14292745e-17
-3.05499631e-17
-2.90283559e-17
-3.10658599e-17
-3.13068795e-17
-3.30626015e-17
-2.96953819e-17
-3.08592787e-17
-2.92695522e-17
-3.22151595e-17
-2.91782038e-17
-3.26915063e-17
-3.14697701e-17
-3.06818009e-17
-2.74665956e-17
-2.90663202e-17
-2.68590578e-17
-2.39161949e-17
-2.45804806e-17
-2.58063604e-17
-2.63624792e-17
-2.92997796e-17
-2.97583393e-17
-2.92558041e-17
-2.80582914e-17
-2.90690477e-17
-2.62398596e-17
-2.43238953e-17
-2.54221726e-17
-2.61769366e-17
-2.63435937e-17
-2.48631981e-17
-2.62487655e-17
-2.1346174e-17
-2.36646657e-17
-2.61772856e-17
-2.55212429e-17
-2.71197163e-17
-2.47647058e-17
-2.56017375e-17
-2.6320621e-17
-2.67822346e-17
-2.50455156e-17
-2.34482918e-17
-2.0610727e-17
-2.32794843e-17
-2.28351828e-17
-2.49616578e-17
-2.48678947e-17
-2.1959729e-17
-2.33047137e-17
-2.3661216e-17
-2.35590073e-17
-2.53498582e-17
-2.50473552e-17
-2.30793164e-17
-2.32976851e-17
-2.23378887e-17
-2.47247892e-17
-1.78141785e-17
-2.10407909e-17
-1.97587582e-17
-2.24904814e-17
-2.36275385e-17
-2.53063392e-17
-2.13133128e-17
-1.9405924e-17
-2.51857507e-17
-2.05114037e-17
-2.14710267e-17
-1.73282369e-17
-1.90169814e-17
-1.73070465e-17
-1.75557282e-17
-1.60974999e-17
-1.84612391e-17
-1.30256068e-17
-1.25094828e-17
-1.65104646e-17
-1.26485267e-17
-1.40722213e-17
-1.36552465e-17
-1.32198295e-17
-9.40968265e-18
-1.14445491e-17
-1.16357779e-17
-8.37534961e-18
-8.79865124e-18
-1.0289029e-17
-9.7184807e-18
-5.12448282e-18
-5.48944308e-18
-7.65802604e-18
-5.54384074e-18
-9.1903382e-18
-9.49232529e-18
-8.798164e-18
-9.01423928e-18
-6.85906355e-18
-3.39940921e-18
-5.05666741e-18
-3.97866916e-18
-2.09331732e-19
1.91197872e-18
-5.30049352e-19
-1.80546555e-18
-2.90838145e-18
-2.24275487e-18
-1.81020021e-18
-3.56110691e-19
-4.30550837e-19
3.18693699e-18
4.77484583e-18
5.93540697e-18
6.20014803e-18
9.59357146e-18
1.28924173e-17
1.39261857e-17
1.53177056e-17
1.42036594e-17
1.47401117e-17
1.68118321e-17
1.64534759e-17
1.82006175e-17
1.98097094e-17
2.00753086e-17
2.41955727e-17
2.61284702e-17
2.61945789e-17
2.68591309e-17
3.14674673e-17
2.68645654e-17
2.7141287e-17
2.8938067e-17
2.84715981e-17
2.95916653e-17
2.56741074e-17
3.12787682e-17
2.81920322e-17
2.87549449e-17
2.78846332e-17
3.2514587e-17
3.33882276e-17
3.322139e-17
3.44830285e-17
3.76246602e-17
3.86047488e-17
3.93875577e-17
3.8280223e-17
3.69020756e-17
4.17578274e-17
3.81037592e-17
4.11918545e-17
4.20615563e-17
4.18227662e-17
4.10588193e-17
4.19358636e-17
3.93099928e-17
4.13648461e-17
3.96139799e-17
4.08158896e-17
4.2731822e-17
4.22018994e-17
4.71330368e-17
4.59441216e-17
4.91113658e-17
4.72645637e-17
4.89758274e-17
4.94727132e-17
4.74523241e-17
5.0440216e-17
5.26716745e-17
5.1373534e-17
5.0653118e-17
5.04811064e-17
5.40989326e-17
5.35664785e-17
5.56910845e-17
5.3982667e-17
5.50327227e-17
5.49957641e-17
5.62394964e-17
5.95806524e-17
6.15155265e-17
6.25920509e-17
6.01944738e-17
6.39733053e-17
6.5285934e-17
6.07920462e-17
6.24537141e-17
6.14279942e-17
6.49104384e-17
7.05564663e-17
7.07639452e-17
7.38118188e-17
7.69354656e-17
7.76336098e-17
8.56066214e-17
8.49247663e-17
9.15392834e-17
9.42882354e-17
9.70430551e-17
9.98552494e-17
1.00953234e-16
1.04828946e-16
1.0607768e-16
1.08385616e-16
1.09787331e-16
1.12011152e-16
1.14724148e-16
1.20360069e-16
1.2553772e-16
1.3223963e-16
1.37788756e-16
1.46935504e-16
1.53146693e-16
1.60873326e-16
1.66421381e-16
1.76569848e-16
1.84986533e-16
1.99106889e-16
2.06476545e-16
2.16029665e-16
2.27788926e-16
2.3999572e-16
2.57621486e-16
2.74955249e-16
2.90765045e-16
3.07829172e-16
3.32681378e-16
3.56496735e-16
3.77480464e-16
4.04722315e-16
4.30256384e-16
4.62138812e-16
4.93621703e-16
5.27564816e-16
5.63318424e-16
6.04814861e-16
6.48546054e-16
6.95206095e-16
7.43504759e-16
7.99823229e-16
8.59925132e-16
9.21495317e-16
9.91045787e-16
1.06541882e-15
1.14585305e-15
1.23134568e-15
1.32257961e-15
1.42135607e-15
1.5307845e-15
1.64843259e-15
1.77716112e-15
1.9118828e-15
2.0565188e-15
2.21559859e-15
2.38845676e-15
2.57091667e-15
2.77107847e-15
2.98270152e-15
3.21541928e-15
3.46575527e-15
3.73262507e-15
4.02137962e-15
4.32944965e-15
4.66673608e-15
5.02585206e-15
5.41581748e-15
5.83954089e-15
6.29147907e-15
6.77908442e-15
7.29964372e-15
7.86738762e-15
8.4714752e-15
9.12858044e-15
9.83157298e-15
1.0585582e-14
1.14033771e-14
1.22805522e-14
1.3223831e-14
1.42410553e-14
1.53320107e-14
1.65072104e-14
1.77735274e-14
1.913356e-14
2.0596367e-14
2.21670688e-14
2.38561194e-14
2.5673552e-14
2.76261871e-14
2.97248963e-14
3.19862496e-14
3.44068072e-14
3.70134229e-14
3.98157175e-14
4.28252156e-14
4.60474222e-14
4.95165776e-14
5.32393239e-14
5.72331033e-14
6.15197523e-14
6.61268568e-14
7.10701094e-14
7.63766017e-14
8.20705245e-14
8.81746868e-14
9.47254322e-14
1.01750542e-13
1.09288608e-13
1.17369989e-13
1.2603334e-13
1.35325474e-13
1.45288961e-13
1.55965789e-13
1.67412028e-13
1.79676913e-13
1.92819706e-13
2.0689989e-13
2.21981692e-13
2.38141192e-13
2.55445209e-13
2.73978262e-13
2.93822273e-13
3.15067262e-13
3.37813954e-13
3.62156717e-13
3.88212889e-13
4.16095271e-13
4.45926638e-13
4.77845277e-13
5.11982383e-13
5.48500983e-13
5.875546e-13
6.2931164e-13
6.73962001e-13
7.21691549e-13
7.7271202e-13
8.27241014e-13
8.85512126e-13
9.47781863e-13
1.01430243e-12
1.08536951e-12
1.16127197e-12
1.24232912e-12
1.32888587e-12
1.42130307e-12
1.51996528e-12
1.62527232e-12
1.73767158e-12
1.85760658e-12
1.98557726e-12
2.12211036e-12
2.26774504e-12
2.42307936e-12
2.58873279e-12
2.76536427e-12
2.95368147e-12
3.15442759e-12
3.36839973e-12
3.59642935e-12
3.83941389e-12
4.09829533e-12
4.3740767e-12
4.66782751e-12
4.98066723e-12
5.31379768e-12
5.66847797e-12