/*--------------------------------*- C++ -*----------------------------------*\
| =========                 |                                                 |
| \\      /  F ield         | OpenFOAM: The Open Source CFD Toolbox           |
|  \\    /   O peration     | Version:  2206                                  |
|   \\  /    A nd           | Website:  www.openfoam.com                      |
|    \\/     M anipulation  |                                                 |
\*---------------------------------------------------------------------------*/
FoamFile
{
    version     2.0;
    format      ascii;
    arch        "LSB;label=32;scalar=64";
    class       volScalarField;
    location    "1.42e-05";
    object      PVsourcePV;
}
// * * * * * * * * * * * * * * * * * * * * * * * * * * * * * * * * * * * * * //

dimensions      [1 -3 -1 0 0 0 0];

internalField   nonuniform List<scalar> 
3183
(
0
0
0
0
0
0
0
0
0
0
0
0
0
0
0
0
0
0
0
0
0
0
0
0
0
0
0
0
0
0
0
0
0
0
0
0
0
0
0
0
0
0
0
0
0
0
0
0
0
0
0
0
0
0
0
0
0
0
0
0
0
0
0
0
0
0
0
0
0
0
0
0
0
0
0
0
0
0
0
0
0
0
0
0
0
0
0
0
0
0
0
0
0
0
0
0
0
0
0
0
0
0
0
0
0
0
0
0
0
0
0
0
0
0
0
0
0
0
0
0
0
0
0
0
0
0
0
0
0
0
0
0
0
0
0
0
0
0
0
0
0
0
0
0
0
0
0
0
0
0
0
0
0
0
0
0
0
0
0
0
0
0
0
0
0
0
0
0
0
0
0
0
0
0
0
0
0
0
0
0
0
0
0
0
0
0
0
0
0
0
0
0
0
0
0
0
0
0
0
0
0
0
0
0
0
0
0
0
0
0
0
0
0
0
0
0
0
0
0
0
0
0
0
0
0
0
0
0
0
0
0
0
0
0
0
0
0
0
0
0
0
0
0
0
0
0
0
0
0
0
0
0
0
0
0
0
0
0
0
0
0
0
0
0
0
0
0
0
0
0
0
0
0
0
0
0
0
0
0
0
0
0
0
0
0
0
0
0
0
0
0
0
0
0
0
0
0
0
0
0
0
0
0
0
0
0
0
0
0
0
0
0
0
0
0
0
0
0
0
0
0
0
0
0
0
0
0
0
0
0
0
0
0
0
0
0
0
0
0
0
0
0
0
0
0
0
0
0
0
0
0
0
0
0
0
0
0
0
0
0
0
0
0
0
0
0
0
0
0
0
0
0
0
0
0
0
0
0
0
0
0
0
0
0
0
0
0
0
0
0
0
0
0
0
0
0
0
0
0
0
0
0
0
0
0
0
0
0
0
0
0
0
0
0
0
0
0
0
0
0
0
0
0
0
0
0
0
0
0
0
0
0
0
0
0
0
0
0
0
0
0
0
0
0
0
0
0
0
0
0
0
0
0
0
0
0
0
0
0
0
0
0
0
0
0
0
0
0
0
0
0
0
0
0
0
0
0
0
0
0
0
0
0
0
0
0
0
0
0
0
0
0
0
0
0
0
0
0
0
0
0
0
0
0
0
0
0
0
0
0
0
0
0
0
0
0
0
0
0
0
0
0
0
0
0
0
0
0
0
0
0
0
0
0
0
0
0
0
0
0
0
0
0
0
0
0
0
0
0
0
0
0
0
0
0
0
0
0
0
0
0
0
0
0
0
0
0
0
0
0
0
0
0
0
0
0
0
0
0
0
0
0
0
0
0
0
0
0
0
0
0
0
0
0
0
0
0
0
0
0
0
0
0
0
0
0
0
0
0
0
0
0
0
0
0
0
0
0
0
0
0
0
0
0
0
0
0
0
0
0
0
0
0
0
0
0
0
0
0
0
0
0
0
0
0
0
0
0
0
0
0
0
0
0
0
0
0
0
0
0
0
0
0
0
0
0
0
0
0
0
0
0
0
0
0
0
0
0
0
0
0
0
0
0
0
0
0
0
0
0
0
0
0
0
0
0
0
0
0
0
0
0
0
0
0
0
0
0
0
0
0
0
0
0
0
0
0
0
0
0
0
0
0
0
0
0
0
0
0
0
0
0
0
0
0
0
0
0
0
0
0
0
0
0
0
0
0
0
0
0
0
0
0
0
0
0
0
0
0
0
0
0
0
0
0
0
0
0
0
0
0
0
0
0
0
0
0
0
0
0
0
0
0
0
0
0
0
0
0
0
0
0
0
0
0
0
0
0
0
0
0
0
0
0
0
0
0
0
0
0
0
0
0
0
0
0
0
0
0
0
0
0
0
0
0
0
0
0
0
0
0
0
0
0
0
0
0
0
0
0
0
0
0
0
0
0
0
0
0
0
0
0
0
0
0
0
0
0
0
0
0
0
0
0
0
0
0
0
0
0
0
0
0
0
0
0
0
0
0
0
0
0
0
0
0
0
0
0
0
0
0
0
0
0
0
0
0
0
0
0
0
0
0
0
0
0
0
0
0
0
0
0
0
0
0
0
0
0
0
0
0
0
0
0
0
0
0
0
0
0
0
0
0
0
0
0
0
0
0
0
0
0
0
0
0
0
0
0
0
0
0
0
0
0
0
0
0
0
0
0
0
0
0
0
0
0
0
0
0
0
0
0
0
0
0
0
0
0
0
0
0
0
0
0
0
0
0
0
0
0
0
0
0
0
0
0
0
0
0
0
0
0
0
0
0
0
0
0
0
0
0
0
0
0
0
0
0
0
0
0
0
0
0
0
0
0
0
0
0
0
0
0
0
0
0
0
0
0
0
0
0
0
0
0
0
0
0
0
0
0
0
0
0
0
0
0
0
0
0
0
0
0
0
0
0
0
0
0
0
0
0
0
0
0
0
0
0
0
0
0
0
0
0
0
0
0
0
0
0
0
0
0
0
0
0
0
0
0
0
0
0
0
0
0
0
0
0
0
0
0
0
0
0
0
0
0
0
0
0
0
0
0
0
0
0
0
0
0
0
0
0
0
0
0
0
0
0
0
0
0
0
0
0
0
0
0
0
0
0
0
0
0
0
0
0
0
0
0
0
0
0
0
0
0
0
0
0
0
0
0
0
0
0
0
0
0
0
0
0
0
0
0
0
0
0
0
0
0
0
0
0
0
0
0
0
0
0
0
0
0
0
0
0
0
0
0
0
0
0
0
0
0
0
0
0
0
0
0
0
0
0
0
0
0
0
0
0
0
0
0
0
0
0
0
0
0
0
0
0
0
0
0
0
0
0
0
0
0
0
0
0
0
0
0
0
0
0
0
0
0
0
0
0
0
0
0
0
0
0
0
0
0
0
0
0
0
0
0
0
0
0
0
0
0
0
0
0
0
0
0
0
0
0
0
0
0
0
0
0
0
0
0
0
0
0
0
0
0
0
0
0
0
0
0
0
0
0
0
0
0
0
0
0
0
0
0
0
0
0
0
0
0
0
0
0
0
0
0
0
0
0
0
0
0
0
0
0
0
0
0
0
0
0
0
0
0
0
0
0
0
0
0
0
0
0
0
0
0
0
0
0
0
0
0
0
0
0
0
0
0
0
0
0
0
0
0
0
0
0
0
0
0
0
0
0
0
0
0
0
0
0
0
0
0
0
0
0
0
0
0
0
0
0
0
0
0
0
0
0
0
0
0
0
0
0
0
0
0
0
0
0
0
0
0
0
0
0
0
0
0
0
0
0
0
0
0
0
0
0
0
0
0
0
0
0
0
0
0
0
0
0
0
0
0
0
0
0
0
0
0
0
0
0
0
0
0
0
0
0
0
0
0
0
0
0
0
0
0
0
0
0
0
0
0
0
0
0
0
0
0
0
0
0
0
0
0
0
0
0
0
0
0
0
0
0
0
0
0
0
0
0
0
0
0
0
0
0
0
0
0
0
0
0
0
0
0
0
0
0
0
0
0
0
0
0
0
0
0
0
0
0
0
0
0
0
0
0
0
0
0
0
0
0
0
0
0
0
0
0
0
0
0
0
0
0
0
0
0
0
0
0
0
0
0
0
0
0
0
0
0
0
0
0
0
0
0
0
0
0
0
0
0
0
0
0
0
0
0
0
0
0
0
0
0
0
0
0
0
0
0
0
0
0
0
0
0
0
0
0
0
0
0
0
0
0
0
0
0
0
0
0
0
0
0
0
0
0
0
0
0
0
0
0
0
0
0
0
0
0
0
0
0
0
0
0
0
0
0
0
0
0
0
0
0
0
0
0
0
0
0
0
0
0
0
0
0
0
0
0
0
0
0
0
0
0
0
0
0
0
0
0
0
0
0
0
0
0
0
0
0
0
0
0
0
0
0
0
0
0
0
0
0
0
0
0
0
0
0
0
0
0
0
0
0
0
0
0
0
0
0
0
0
0
0
0
0
0
0
0
0
0
0
0
0
0
0
0
0
0
0
0
0
0
0
0
0
0
0
0
0
0
0
0
0
0
0
0
0
0
0
0
0
0
0
0
0
0
0
0
0
0
0
0
0
0
0
0
0
0
0
0
0
0
0
0
0
0
0
0
0
0
0
0
0
0
0
0
0
0
0
0
0
0
0
0
0
0
0
0
0
0
0
0
0
0
0
0
0
0
0
0
0
0
0
0
0
0
0
0
0
0
0
0
0
0
0
0
0
0
0
0
0
0
0
0
0
0
0
0
0
0
0
0
0
0
0
0
0
0
0
0
0
0
0
0
0
0
0
0
0
0
0
0
0
0
0
0
0
0
0
0
0
0
0
0
0
0
0
0
0
0
0
0
0
0
0
0
0
0
0
0
0
0
0
0
0
0
0
0
0
0
0
0
0
0
0
0
0
0
0
0
0
0
0
0
0
0
0
0
0
0
0
0
0
0
0
0
0
0
0
0
0
0
0
0
0
0
0
0
0
0
0
0
0
0
0
0
0
0
0
0
0
0
0
0
0
0
0
0
0
0
0
0
0
0
0
0
0
0
0
0
0
0
0
0
0
0
0
0
0
0
0
0
0
0
0
0
0
0
0
0
0
0
0
0
0
0
0
0
0
0
0
0
0
0
0
0
0
0
0
0
0
0
0
0
0
0
0
0
0
0
0
0
0
0
0
0
0
0
0
0
0
0
0
0
0
0
0
0
0
0
0
0
0
0
0
0
0
0
0
0
0
0
0
0
0
0
0
0
0
0
0
0
0
0
0
0
0
0
0
0
0
0
0
0
0
0
0
0
0
0
0
0
0
0
0
0
0
0
0
0
0
0
0
0
0
0
0
0
0
0
0
0
0
0
0
0
0
0
0
0
0
0
0
0
0
0
0
0
0
0
0
0
0
0
0
0
0
0
0
0
0
0
0
0
0
0
0
0
0
0
0
0
0
0
0
0
0
0
0
0
0
0
0
0
0
0
0
0
0
0
0
0
0
0
0
0
0
0
0
0
0
0
0
0
0
0
0
0
0
0
0
0
0
0
0
0
0
0
0
0
0
0
0
0
0
0
0
0
0
0
0
0
0
0
0
0
0
0
0
0
0
0
0
0
0
0
0
0
0
0
0
0
0
0
0
0
0
0
0
0
0
0
0
0
0
0
0
0
0
0
0
0
0
0
0
0
0
0
0
0
0
0
0
0
0
0
0
0
0
0
0
0
0
0
0
0
0
0
0
0
0
0
0
0
0
0
0
0
0
0
0
0
0
0
0
0
0
0
0
0
0
0
0
0
0
0
0
0
0
0
0
0
0
0
0
0
0
0
0
0
0
0
0
0
0
0
0
0
0
0
0
0
0
0
0
0
0
0
0
0
0
0
0
0
0
0
1.09487083e-298
3.85728098e-299
6.97102985e-296
2.50439878e-296
4.38856823e-293
1.60679352e-293
2.73182124e-290
1.01883507e-290
1.6814957e-287
6.38504093e-288
1.02344088e-284
3.95454262e-285
6.15972953e-282
2.42122833e-282
3.66606125e-279
1.46542561e-279
2.15766102e-276
8.76342265e-277
1.25579088e-273
5.18437854e-274
7.22780096e-271
3.03163386e-271
4.11389196e-268
1.75346441e-268
2.31557832e-265
1.00186879e-265
1.28892303e-262
5.65935728e-263
7.09504896e-260
3.16062257e-260
3.86227925e-257
1.7451501e-257
2.0791687e-254
9.52689635e-255
1.10685431e-251
5.14198752e-252
5.82695578e-249
2.74392676e-249
3.03346036e-246
1.44768981e-246
1.56161522e-243
7.55158696e-244
7.94953198e-241
3.89455171e-241
4.00158976e-238
1.98576901e-238
1.99176281e-235
1.00102774e-235
9.80271177e-233
4.98887255e-233
4.77031228e-230
2.45804064e-230
2.29523232e-227
1.19728122e-227
1.09187251e-224
5.76517521e-225
5.13532217e-222
2.74426161e-222
2.38779927e-219
1.29128245e-219
1.09760227e-216
6.00598784e-217
4.98758997e-214
2.76120386e-214
2.2403472e-211
1.25471559e-211
9.94712983e-209
5.63515022e-209
4.36531779e-206
2.50125661e-206
1.89341587e-203
1.09718858e-203
8.11639796e-201
4.75609872e-201
3.43828256e-198
2.03723804e-198
1.43930566e-195
8.62238279e-196
5.95344871e-193
3.60561335e-193
2.43308739e-190
1.48959251e-190
9.82399572e-188
6.07940114e-188
3.91855787e-185
2.45090218e-185
1.54396218e-182
9.75951344e-183
6.00872474e-180
3.83822799e-180
2.30953444e-177
1.4907176e-177
8.76642428e-175
5.71717819e-175
3.28574606e-172
2.16494881e-172
1.21594687e-169
8.09373373e-170
4.44240258e-167
2.98702832e-167
1.6021216e-164
1.08810436e-164
5.70291178e-162
3.91193812e-162
2.0034041e-159
1.38787626e-159
6.94473943e-157
4.85838146e-157
2.37520531e-154
1.67786428e-154
8.01389996e-152
5.71591908e-152
2.66698963e-149
1.92050883e-149
8.75321669e-147
6.36328955e-147
2.83278979e-144
2.07880328e-144
9.03836018e-142
6.69482963e-142
2.84261907e-139
2.12512733e-139
8.81095828e-137
6.64769563e-137
2.69104691e-134
2.04887718e-134
8.09706259e-132
6.22061718e-132
2.39967467e-129
1.86008993e-129
7.00329272e-127
5.47675498e-127
2.01223761e-124
1.5874614e-124
5.69089701e-122
4.52866771e-122
1.58379585e-119
1.27120959e-119
4.33632705e-117
3.5101855e-117
1.16769944e-114
9.53214028e-115
3.09173556e-112
2.54491684e-112
8.04647462e-110
6.67803489e-110
2.0578048e-107
1.72178187e-107
5.16956567e-105
4.36030902e-105
1.27527508e-102
1.08421105e-102
3.08811971e-100
2.64610712e-100
7.33764448e-98
6.33620082e-98
1.71007056e-95
1.48798964e-95
3.90731802e-93
3.42556194e-93
8.74888304e-91
7.7272564e-91
1.91878225e-88
1.70714081e-88
4.11979422e-86
3.69181709e-86
8.65497786e-84
7.81088756e-84
1.77805844e-81
1.61583736e-81
3.56983875e-79
3.26635513e-79
6.99985282e-77
6.44779774e-77
1.33956227e-74
1.2420413e-74
2.50003091e-72
2.33297689e-72
4.54661138e-70
4.26957218e-70
8.05037476e-68
7.60644569e-68
1.38652458e-65
1.31794731e-65
2.32053485e-63
2.21869093e-63
3.76988707e-61
3.6249844e-61
5.93799251e-59
5.74135234e-59
9.05668315e-57
8.80367073e-57
1.33571645e-54
1.30510527e-54
1.90202336e-52
1.86762112e-52
2.61066131e-50
2.57542339e-50
3.4476362e-48
3.41575915e-48
4.37166628e-46
4.34756724e-46
5.31065052e-44
5.29676567e-44
6.16495467e-42
6.15845779e-42
6.81970538e-40
6.80960394e-40
7.16584809e-38
7.13429757e-38
7.12616928e-36
7.0590899e-36
6.67905008e-34
6.58491478e-34
5.8712492e-32
5.7911807e-32
4.81304447e-30
4.78707502e-30
3.65476797e-28
3.55783731e-28
2.55133446e-26
2.54255603e-26
1.61973744e-24
1.61056168e-24
9.24777561e-23
9.17948003e-23
4.67339746e-21
4.63718616e-21
2.04815335e-19
2.02351353e-19
7.57111423e-18
7.54782921e-18
2.26624833e-16
2.2583456e-16
5.15915707e-15
5.17796633e-15
7.07924047e-11
7.17105738e-11
0.00581025377
0.0255562293
0.580413962
0.680222858
0.617012083
0.54285991
0.162798675
0.133111309
0.025315396
0.0223551497
0.00526497473
0.0048310764
0.000965696761
0.00092401292
0.000159910352
0.000158449456
2.51790473e-05
2.51479428e-05
4.15116197e-06
4.15327326e-06
1.12629365e-06
1.12710487e-06
7.2479999e-07
7.24753957e-07
6.7496907e-07
6.74976772e-07
6.69218273e-07
6.69219065e-07
6.68592146e-07
6.68593352e-07
6.68527806e-07
6.68528713e-07
6.68521761e-07
6.6852298e-07
6.68519909e-07
6.68522565e-07
6.68520707e-07
6.68520522e-07
6.68521078e-07
6.68519341e-07
6.685221e-07
6.68520019e-07
6.6852255e-07
6.68520249e-07
6.68521396e-07
6.68521243e-07
6.68521109e-07
6.68521362e-07
6.68521429e-07
6.68521205e-07
6.68521825e-07
6.6852114e-07
6.68521671e-07
6.68521403e-07
6.68521776e-07
6.68521369e-07
6.68520878e-07
6.68522785e-07
6.68520853e-07
6.6852133e-07
6.68521573e-07
6.68522188e-07
6.68521594e-07
6.68520452e-07
6.68521275e-07
6.68520766e-07
6.6852132e-07
6.68521126e-07
6.68521144e-07
6.68520914e-07
6.68520632e-07
6.6852131e-07
6.68520306e-07
6.68521453e-07
6.68520686e-07
6.68521312e-07
6.68521482e-07
6.68521745e-07
6.68521333e-07
6.68522074e-07
6.68520692e-07
6.68521795e-07
6.68521298e-07
6.68521528e-07
6.6852174e-07
6.68520082e-07
6.68522087e-07
6.68520411e-07
6.68521958e-07
6.68519468e-07
6.68522754e-07
6.6852042e-07
6.68522484e-07
6.68520842e-07
6.68522111e-07
6.68520678e-07
6.68521803e-07
6.68521276e-07
6.68522287e-07
6.68521898e-07
6.68521144e-07
6.68521369e-07
6.68521711e-07
6.68521373e-07
6.68521849e-07
6.68521041e-07
6.6852146e-07
6.68521674e-07
6.68521566e-07
6.68521685e-07
6.68520609e-07
6.68521625e-07
6.6852125e-07
6.68521207e-07
6.68521154e-07
6.68521013e-07
6.6852008e-07
6.68522412e-07
6.68519783e-07
6.68522356e-07
6.68521096e-07
6.68522038e-07
6.68520047e-07
6.68521316e-07
6.68521215e-07
6.68521456e-07
6.68520673e-07
6.6852238e-07
6.68521109e-07
6.6852223e-07
6.68521669e-07
6.68521307e-07
6.68522785e-07
6.68522048e-07
6.68521572e-07
6.68521906e-07
6.68522082e-07
6.68521614e-07
6.68521322e-07
6.68521321e-07
6.68521077e-07
6.68521512e-07
6.68520225e-07
6.68522103e-07
6.68520661e-07
6.68521448e-07
6.6852065e-07
6.68521112e-07
6.68522372e-07
6.68520307e-07
6.68522281e-07
6.68520287e-07
6.68522255e-07
6.68520629e-07
6.6852236e-07
6.68521532e-07
6.68521892e-07
6.68522082e-07
6.68521232e-07
6.68521033e-07
6.68523687e-07
6.68520223e-07
6.68523628e-07
6.68520608e-07
6.68523318e-07
6.685209e-07
6.68522034e-07
6.68521673e-07
6.68521215e-07
6.68521104e-07
6.68521031e-07
6.68521772e-07
6.68520355e-07
6.68522097e-07
6.68521143e-07
6.68522245e-07
6.68521692e-07
6.68522416e-07
6.68521706e-07
6.68522647e-07
6.68521998e-07
6.68522887e-07
6.68522274e-07
6.68522713e-07
6.68521519e-07
6.68521362e-07
6.68521909e-07
6.68521031e-07
6.68522592e-07
6.685217e-07
6.68522254e-07
6.68520658e-07
6.68522441e-07
6.68521625e-07
6.68522573e-07
6.68521292e-07
6.68521546e-07
6.68521229e-07
6.68522241e-07
6.68521116e-07
6.68523075e-07
6.68520276e-07
6.68523335e-07
6.68520994e-07
6.68522112e-07
6.68522115e-07
6.68521455e-07
6.68521905e-07
6.68523011e-07
6.68522144e-07
6.68522631e-07
6.68521833e-07
6.68522214e-07
6.68522005e-07
6.68522466e-07
6.68522247e-07
6.68521414e-07
6.68522018e-07
6.68521316e-07
6.68522388e-07
6.68521863e-07
6.68521593e-07
6.68522251e-07
6.68522155e-07
6.68522234e-07
6.68521925e-07
6.68523301e-07
6.6852128e-07
6.68522288e-07
6.6852236e-07
6.68522383e-07
6.68521814e-07
6.68521943e-07
6.68522295e-07
6.68521919e-07
6.68522922e-07
6.68522179e-07
6.68522941e-07
6.6852173e-07
6.68522851e-07
6.68521995e-07
6.6852357e-07
6.68521001e-07
6.68524376e-07
6.68520401e-07
6.68523558e-07
6.68521677e-07
6.6852113e-07
6.68522788e-07
6.68520677e-07
6.68522984e-07
6.68522031e-07
6.68522298e-07
6.68521773e-07
6.68522538e-07
6.68522438e-07
6.6852203e-07
6.68521942e-07
6.68522359e-07
6.68522702e-07
6.6852242e-07
6.68522214e-07
6.68522719e-07
6.68521639e-07
6.68522509e-07
6.68521525e-07
6.68522358e-07
6.68521805e-07
6.68522448e-07
6.68520631e-07
6.68522916e-07
6.68521328e-07
6.68522147e-07
6.68522411e-07
6.68521674e-07
6.68523198e-07
6.68522004e-07
6.68522251e-07
6.68522349e-07
6.6852194e-07
6.68522289e-07
6.68522235e-07
6.68521711e-07
6.68522133e-07
6.68521752e-07
6.68522207e-07
6.68521709e-07
6.68522969e-07
6.6852182e-07
6.68522874e-07
6.68521953e-07
6.68522087e-07
6.68523198e-07
6.68520926e-07
6.68521381e-07
6.68522722e-07
6.68521502e-07
6.68523283e-07
6.68522718e-07
6.68522684e-07
6.68522652e-07
6.68522134e-07
6.68523125e-07
6.68522269e-07
6.68522736e-07
6.68521934e-07
6.68522058e-07
6.6852228e-07
6.6852149e-07
6.6852238e-07
6.68521784e-07
6.68523297e-07
6.68521459e-07
6.68523579e-07
6.68521784e-07
6.68522457e-07
6.68522169e-07
6.68522793e-07
6.68522362e-07
6.68521242e-07
6.68523768e-07
6.68520929e-07
6.68523823e-07
6.68521254e-07
6.68522959e-07
6.68521677e-07
6.68521994e-07
6.68523219e-07
6.68521941e-07
6.68522886e-07
6.68521968e-07
6.68522766e-07
6.68521969e-07
6.68522505e-07
6.6852181e-07
6.6852281e-07
6.68522445e-07
6.68522823e-07
6.68521647e-07
6.68522821e-07
6.68522562e-07
6.68523286e-07
6.68522854e-07
6.68522792e-07
6.68522469e-07
6.68523012e-07
6.68521691e-07
6.68523057e-07
6.68522838e-07
6.68521892e-07
6.68523453e-07
6.6852261e-07
6.68522079e-07
6.68522133e-07
6.6852266e-07
6.68521994e-07
6.68523202e-07
6.68522069e-07
6.68523131e-07
6.68522479e-07
6.68522387e-07
6.68522415e-07
6.68522373e-07
6.68522855e-07
6.68523134e-07
6.68522454e-07
6.68522827e-07
6.68522846e-07
6.68523444e-07
6.68523182e-07
6.68523585e-07
6.6852289e-07
6.6852293e-07
6.68522676e-07
6.68523245e-07
6.68522069e-07
6.68523097e-07
6.6852256e-07
6.68522994e-07
6.6852279e-07
6.68522914e-07
6.68522472e-07
6.68523057e-07
6.6852226e-07
6.68523014e-07
6.6852295e-07
6.68521961e-07
6.68523561e-07
6.68521353e-07
6.68522977e-07
6.68521999e-07
6.68523365e-07
6.68521922e-07
6.68522684e-07
6.68522583e-07
6.68522796e-07
6.68523604e-07
6.68522769e-07
6.68522968e-07
6.68522483e-07
6.68522548e-07
6.68522726e-07
6.68521872e-07
6.68523579e-07
6.68521692e-07
6.68523781e-07
6.68521671e-07
6.68523717e-07
6.68522381e-07
6.68523085e-07
6.68522772e-07
6.68523647e-07
6.68522929e-07
6.68523221e-07
6.68523063e-07
6.68522334e-07
6.68523017e-07
6.68523051e-07
6.68523421e-07
6.68522822e-07
6.68523311e-07
6.68523844e-07
6.6852214e-07
6.68524852e-07
6.68522781e-07
6.68523727e-07
6.68523033e-07
6.68523844e-07
6.68522909e-07
6.68524192e-07
6.68522515e-07
6.68524171e-07
6.68523522e-07
6.68522748e-07
6.68524012e-07
6.68522766e-07
6.68523355e-07
6.6852367e-07
6.6852292e-07
6.68524044e-07
6.68522656e-07
6.68523683e-07
6.68522583e-07
6.68523324e-07
6.68522503e-07
6.68524024e-07
6.68522926e-07
6.68523905e-07
6.68522894e-07
6.6852329e-07
6.68524001e-07
6.68522728e-07
6.68523824e-07
6.6852288e-07
6.68522803e-07
6.68523666e-07
6.6852258e-07
6.68523238e-07
6.68523568e-07
6.68522617e-07
6.68524157e-07
6.68523072e-07
6.6852269e-07
6.68524043e-07
6.68522545e-07
6.68524355e-07
6.68523134e-07
6.68523821e-07
6.68523037e-07
6.6852325e-07
6.68523245e-07
6.68523125e-07
6.68522755e-07
6.68522999e-07
6.68522806e-07
6.68523754e-07
6.68523005e-07
6.68523885e-07
6.68522452e-07
6.68523052e-07
6.68522806e-07
6.68523436e-07
6.68521908e-07
6.68523499e-07
6.685226e-07
6.68523166e-07
6.68522812e-07
6.68522446e-07
6.68524086e-07
6.68522535e-07
6.68523791e-07
6.68522518e-07
6.68524299e-07
6.68522289e-07
6.68524445e-07
6.68521058e-07
6.68525432e-07
6.68521327e-07
6.68524886e-07
6.68521684e-07
6.68523649e-07
6.68522791e-07
6.68523461e-07
6.68523813e-07
6.68523748e-07
6.68522694e-07
6.68524143e-07
6.68523005e-07
6.68523212e-07
6.68523359e-07
6.68523453e-07
6.68523087e-07
6.68523539e-07
6.68523454e-07
6.68523769e-07
6.68523465e-07
6.68523473e-07
6.68523735e-07
6.68523413e-07
6.6852331e-07
6.68523682e-07
6.68523692e-07
6.68523661e-07
6.68523582e-07
6.68523692e-07
6.68523572e-07
6.68523753e-07
6.68523756e-07
6.6852381e-07
6.68523828e-07
6.6852386e-07
6.68523987e-07
6.68524042e-07
6.68524016e-07
6.68524144e-07
6.68524228e-07
6.68524261e-07
6.68524363e-07
6.68524483e-07
6.68524638e-07
6.68524724e-07
6.68524873e-07
6.68525065e-07
6.68525208e-07
6.68525428e-07
6.68525666e-07
6.68525903e-07
6.68526088e-07
6.68526346e-07
6.68526546e-07
6.68526709e-07
6.68526858e-07
6.68526953e-07
6.68527014e-07
6.68527066e-07
6.6852708e-07
6.68527088e-07
6.68527061e-07
6.68527059e-07
6.68527096e-07
6.6852708e-07
6.68527085e-07
6.68527081e-07
6.68527082e-07
6.68527093e-07
6.68527092e-07
6.68527084e-07
6.68527104e-07
6.68527081e-07
6.6852709e-07
6.6852708e-07
6.68527083e-07
6.68527085e-07
6.68527084e-07
6.68527091e-07
6.68527078e-07
6.68527066e-07
6.68527108e-07
)
;

boundaryField
{
    closed
    {
        type            calculated;
        value           uniform 0;
    }
    open
    {
        type            calculated;
        value           uniform 0;
    }
    sides
    {
        type            empty;
    }
}


// ************************************************************************* //
