/*--------------------------------*- C++ -*----------------------------------*\
| =========                 |                                                 |
| \\      /  F ield         | OpenFOAM: The Open Source CFD Toolbox           |
|  \\    /   O peration     | Version:  2206                                  |
|   \\  /    A nd           | Website:  www.openfoam.com                      |
|    \\/     M anipulation  |                                                 |
\*---------------------------------------------------------------------------*/
FoamFile
{
    version     2.0;
    format      ascii;
    arch        "LSB;label=32;scalar=64";
    class       volScalarField;
    location    "1.42e-05";
    object      sourcePV;
}
// * * * * * * * * * * * * * * * * * * * * * * * * * * * * * * * * * * * * * //

dimensions      [1 -3 -1 0 0 0 0];

internalField   nonuniform List<scalar> 
3183
(
0
0
0
0
0
0
0
0
0
0
0
0
0
0
0
0
0
0
0
0
0
0
0
0
0
0
0
0
0
0
0
0
0
0
0
0
0
0
0
0
0
0
0
0
0
0
0
0
0
0
0
0
0
0
0
0
0
0
0
0
0
0
0
0
0
0
0
0
0
0
0
0
0
0
0
0
0
0
0
0
0
0
0
0
0
0
0
0
0
0
0
0
0
0
0
0
0
0
0
0
0
0
0
0
0
0
0
0
0
0
0
0
0
0
0
0
0
0
0
0
0
0
0
0
0
0
0
0
0
0
0
0
0
0
0
0
0
0
0
0
0
0
0
0
0
0
0
0
0
0
0
0
0
0
0
0
0
0
0
0
0
0
0
0
0
0
0
0
0
0
0
0
0
0
0
0
0
0
0
0
0
0
0
0
0
0
0
0
0
0
0
0
0
0
0
0
0
0
0
0
0
0
0
0
0
0
0
0
0
0
0
0
0
0
0
0
0
0
0
0
0
0
0
0
0
0
0
0
0
0
0
0
0
0
0
0
0
0
0
0
0
0
0
0
0
0
0
0
0
0
0
0
0
0
0
0
0
0
0
0
0
0
0
0
0
0
0
0
0
0
0
0
0
0
0
0
0
0
0
0
0
0
0
0
0
0
0
0
0
0
0
0
0
0
0
0
0
0
0
0
0
0
0
0
0
0
0
0
0
0
0
0
0
0
0
0
0
0
0
0
0
0
0
0
0
0
0
0
0
0
0
0
0
0
0
0
0
0
0
0
0
0
0
0
0
0
0
0
0
0
0
0
0
0
0
0
0
0
0
0
0
0
0
0
0
0
0
0
0
0
0
0
0
0
0
0
0
0
0
0
0
0
0
0
0
0
0
0
0
0
0
0
0
0
0
0
0
0
0
0
0
0
0
0
0
0
0
0
0
0
0
0
0
0
0
0
0
0
0
0
0
0
0
0
0
0
0
0
0
0
0
0
0
0
0
0
0
0
0
0
0
0
0
0
0
0
0
0
0
0
0
0
0
0
0
0
0
0
0
0
0
0
0
0
0
0
0
0
0
0
0
0
0
0
0
0
0
0
0
0
0
0
0
0
0
0
0
0
0
0
0
0
0
0
0
0
0
0
0
0
0
0
0
0
0
0
0
0
0
0
0
0
0
0
0
0
0
0
0
0
0
0
0
0
0
0
0
0
0
0
0
0
0
0
0
0
0
0
0
0
0
0
0
0
0
0
0
0
0
0
0
0
0
0
0
0
0
0
0
0
0
0
0
0
0
0
0
0
0
0
0
0
0
0
0
0
0
0
0
0
0
0
0
0
0
0
0
0
0
0
0
0
0
0
0
0
0
0
0
0
0
0
0
0
0
0
0
0
0
0
0
0
0
0
0
0
0
0
0
0
0
0
0
0
0
0
0
0
0
0
0
0
0
0
0
0
0
0
0
0
0
0
0
0
0
0
0
0
0
0
0
0
0
0
0
0
0
0
0
0
0
0
0
0
0
0
0
0
0
0
0
0
0
0
0
0
0
0
0
0
0
0
0
0
0
0
0
0
0
0
0
0
0
0
0
0
0
0
0
0
0
0
0
0
0
0
0
0
0
0
0
0
0
0
0
0
0
0
0
0
0
0
0
0
0
0
0
0
0
0
0
0
0
0
0
0
0
0
0
0
0
0
0
0
0
0
0
0
0
0
0
0
0
0
0
0
0
0
0
0
0
0
0
0
0
0
0
0
0
0
0
0
0
0
0
0
0
0
0
0
0
0
0
0
0
0
0
0
0
0
0
0
0
0
0
0
0
0
0
0
0
0
0
0
0
0
0
0
0
0
0
0
0
0
0
0
0
0
0
0
0
0
0
0
0
0
0
0
0
0
0
0
0
0
0
0
0
0
0
0
0
0
0
0
0
0
0
0
0
0
0
0
0
0
0
0
0
0
0
0
0
0
0
0
0
0
0
0
0
0
0
0
0
0
0
0
0
0
0
0
0
0
0
0
0
0
0
0
0
0
0
0
0
0
0
0
0
0
0
0
0
0
0
0
0
0
0
0
0
0
0
0
0
0
0
0
0
0
0
0
0
0
0
0
0
0
0
0
0
0
0
0
0
0
0
0
0
0
0
0
0
0
0
0
0
0
0
0
0
0
0
0
0
0
0
0
0
0
0
0
0
0
0
0
0
0
0
0
0
0
0
0
0
0
0
0
0
0
0
0
0
0
0
0
0
0
0
0
0
0
0
0
0
0
0
0
0
0
0
0
0
0
0
0
0
0
0
0
0
0
0
0
0
0
0
0
0
0
0
0
0
0
0
0
0
0
0
0
0
0
0
0
0
0
0
0
0
0
0
0
0
0
0
0
0
0
0
0
0
0
0
0
0
0
0
0
0
0
0
0
0
0
0
0
0
0
0
0
0
0
0
0
0
0
0
0
0
0
0
0
0
0
0
0
0
0
0
0
0
0
0
0
0
0
0
0
0
0
0
0
0
0
0
0
0
0
0
0
0
0
0
0
0
0
0
0
0
0
0
0
0
0
0
0
0
0
0
0
0
0
0
0
0
0
0
0
0
0
0
0
0
0
0
0
0
0
0
0
0
0
0
0
0
0
0
0
0
0
0
0
0
0
0
0
0
0
0
0
0
0
0
0
0
0
0
0
0
0
0
0
0
0
0
0
0
0
0
0
0
0
0
0
0
0
0
0
0
0
0
0
0
0
0
0
0
0
0
0
0
0
0
0
0
0
0
0
0
0
0
0
0
0
0
0
0
0
0
0
0
0
0
0
0
0
0
0
0
0
0
0
0
0
0
0
0
0
0
0
0
0
0
0
0
0
0
0
0
0
0
0
0
0
0
0
0
0
0
0
0
0
0
0
0
0
0
0
0
0
0
0
0
0
0
0
0
0
0
0
0
0
0
0
0
0
0
0
0
0
0
0
0
0
0
0
0
0
0
0
0
0
0
0
0
0
0
0
0
0
0
0
0
0
0
0
0
0
0
0
0
0
0
0
0
0
0
0
0
0
0
0
0
0
0
0
0
0
0
0
0
0
0
0
0
0
0
0
0
0
0
0
0
0
0
0
0
0
0
0
0
0
0
0
0
0
0
0
0
0
0
0
0
0
0
0
0
0
0
0
0
0
0
0
0
0
0
0
0
0
0
0
0
0
0
0
0
0
0
0
0
0
0
0
0
0
0
0
0
0
0
0
0
0
0
0
0
0
0
0
0
0
0
0
0
0
0
0
0
0
0
0
0
0
0
0
0
0
0
0
0
0
0
0
0
0
0
0
0
0
0
0
0
0
0
0
0
0
0
0
0
0
0
0
0
0
0
0
0
0
0
0
0
0
0
0
0
0
0
0
0
0
0
0
0
0
0
0
0
0
0
0
0
0
0
0
0
0
0
0
0
0
0
0
0
0
0
0
0
0
0
0
0
0
0
0
0
0
0
0
0
0
0
0
0
0
0
0
0
0
0
0
0
0
0
0
0
0
0
0
0
0
0
0
0
0
0
0
0
0
0
0
0
0
0
0
0
0
0
0
0
0
0
0
0
0
0
0
0
0
0
0
0
0
0
0
0
0
0
0
0
0
0
0
0
0
0
0
0
0
0
0
0
0
0
0
0
0
0
0
0
0
0
0
0
0
0
0
0
0
0
0
0
0
0
0
0
0
0
0
0
0
0
0
0
0
0
0
0
0
0
0
0
0
0
0
0
0
0
0
0
0
0
0
0
0
0
0
0
0
0
0
0
0
0
0
0
0
0
0
0
0
0
0
0
0
0
0
0
0
0
0
0
0
0
0
0
0
0
0
0
0
0
0
0
0
0
0
0
0
0
0
0
0
0
0
0
0
0
0
0
0
0
0
0
0
0
0
0
0
0
0
0
0
0
0
0
0
0
0
0
0
0
0
0
0
0
0
0
0
0
0
0
0
0
0
0
0
0
0
0
0
0
0
0
0
0
0
0
0
0
0
0
0
0
0
0
0
0
0
0
0
0
0
0
0
0
0
0
0
0
0
0
0
0
0
0
0
0
0
0
0
0
0
0
0
0
0
0
0
0
0
0
0
0
0
0
0
0
0
0
0
0
0
0
0
0
0
0
0
0
0
0
0
0
0
0
0
0
0
0
0
0
0
0
0
0
0
0
0
0
0
0
0
0
0
0
0
0
0
0
0
0
0
0
0
0
0
0
0
0
0
0
0
0
0
0
0
0
0
0
0
0
0
0
0
0
0
0
0
0
0
0
0
0
0
0
0
0
0
0
0
0
0
0
0
0
0
0
0
0
0
0
0
0
0
0
0
0
0
0
0
0
0
0
0
0
0
0
0
0
0
0
0
0
0
0
0
0
0
0
0
0
0
0
0
0
0
0
0
0
0
0
0
0
0
0
0
0
0
0
0
0
0
0
0
0
0
0
0
0
0
0
0
0
0
0
0
0
0
0
0
0
0
0
0
0
0
0
0
0
0
0
0
0
0
0
0
0
0
0
0
0
0
0
0
0
0
0
0
0
0
0
0
0
0
0
0
0
0
0
0
0
0
0
0
0
0
0
0
0
0
0
0
0
0
0
0
0
0
0
0
0
0
0
0
0
0
0
0
0
0
0
0
0
0
0
0
0
0
0
0
0
0
0
0
0
0
0
0
0
0
0
0
0
0
0
0
0
0
0
0
0
0
0
0
0
0
0
0
0
0
0
0
0
0
0
0
0
0
0
0
0
0
0
0
0
0
0
0
0
0
0
0
0
0
0
0
0
0
0
0
0
0
0
0
0
0
0
0
0
0
0
0
0
0
0
0
0
0
0
0
0
0
0
0
0
0
0
0
0
0
0
0
0
0
0
0
0
0
0
0
0
0
0
0
0
0
0
0
0
0
0
0
0
0
0
0
0
0
0
0
0
0
0
0
0
0
0
0
0
0
0
0
0
0
0
0
0
0
0
0
0
0
0
0
0
0
0
0
0
0
0
0
0
0
0
0
0
0
0
0
0
0
0
0
0
0
0
0
0
0
0
0
0
0
0
0
0
0
0
0
0
0
0
0
0
0
0
0
0
0
0
0
0
0
0
0
0
0
0
0
0
0
0
0
0
0
0
0
0
0
0
0
0
0
0
0
0
0
0
0
0
0
0
0
0
0
0
0
0
0
0
0
0
0
0
0
0
0
0
0
0
0
0
0
0
0
0
0
0
0
0
0
0
0
0
0
0
0
0
0
0
0
0
0
0
0
0
0
0
0
0
0
0
0
0
0
0
0
0
0
0
0
0
0
0
0
0
0
0
0
0
0
0
0
0
0
0
0
0
0
0
0
0
0
0
0
0
0
0
0
0
0
0
0
0
2.96843237e-298
1.02494727e-298
1.91153446e-295
6.73442501e-296
1.21707177e-292
4.37242862e-293
7.66199916e-290
2.80530003e-290
4.76948539e-287
1.77878365e-287
2.93572253e-284
1.11476399e-284
1.78682493e-281
6.90423406e-282
1.07542688e-278
4.22722138e-279
6.40057456e-276
2.55848587e-276
3.76705934e-273
1.53000554e-273
2.1924847e-270
9.051404e-271
1.26190142e-267
5.2929281e-268
7.18244199e-265
3.06137267e-265
4.04276708e-262
1.74916224e-262
2.2503301e-259
9.88066916e-260
1.23872426e-256
5.51812943e-257
6.74315148e-254
3.04685672e-254
3.63001963e-251
1.66330037e-251
1.93245641e-248
8.97739353e-249
1.01732793e-245
4.79062041e-246
5.29611697e-243
2.52752095e-243
2.72642325e-240
1.3184312e-240
1.38790841e-237
6.79949595e-238
6.98637363e-235
3.46695316e-235
3.47741774e-232
1.74769385e-232
1.71145498e-229
8.71007018e-230
8.32848591e-227
4.29149197e-227
4.00724501e-224
2.0903327e-224
1.90629969e-221
1.00654166e-221
8.9657565e-219
4.79120502e-219
4.1688576e-216
2.2544494e-216
1.91630328e-213
1.04858513e-213
8.70783092e-211
4.82078449e-211
3.9114211e-208
2.19060735e-208
1.73666892e-205
9.83840606e-206
7.62140623e-203
4.36694271e-203
3.30571385e-200
1.91558102e-200
1.41704153e-197
8.30367046e-198
6.00289587e-195
3.55681291e-195
2.51288305e-192
1.5053814e-192
1.03941232e-189
6.29503861e-190
4.2479261e-187
2.60067884e-187
1.71517094e-184
1.06140235e-184
6.84140831e-182
4.27902893e-182
2.69560283e-179
1.70391298e-179
1.04906296e-176
6.7011604e-177
4.03221508e-174
2.60264313e-174
1.53052959e-171
9.98161865e-172
5.73658246e-169
3.77978308e-169
2.12292105e-166
1.41308458e-166
7.75598853e-164
5.2150513e-164
2.79714333e-161
1.89972088e-161
9.95671094e-159
6.82985087e-159
3.49774226e-156
2.42309249e-156
1.21248172e-153
8.48224585e-154
4.14686981e-151
2.92938244e-151
1.39914641e-148
9.97942037e-149
4.65629591e-146
3.35301545e-146
1.52822368e-143
1.11096642e-143
4.94576633e-141
3.62938164e-141
1.57800687e-138
1.16884998e-138
4.96292727e-136
3.71025878e-136
1.53830478e-133
1.16062086e-133
4.6982975e-131
3.57713369e-131
1.41366577e-128
1.08605725e-128
4.18959085e-126
3.24753011e-126
1.22270454e-123
9.56186388e-124
3.51316467e-121
2.77154809e-121
9.93573435e-119
7.90659877e-119
2.76514841e-116
2.2194042e-116
7.57079131e-114
6.12843117e-114
2.03868589e-111
1.66421591e-111
5.39785963e-109
4.44316908e-109
1.40483362e-106
1.16591779e-106
3.5927204e-104
3.00605815e-104
9.02554221e-102
7.61266141e-102
2.22650215e-99
1.89292355e-99
5.39154672e-97
4.61983714e-97
1.281079e-94
1.106237e-94
2.98561137e-92
2.5978804e-92
6.82178465e-90
5.98068693e-90
1.52746707e-87
1.34910132e-87
3.35000101e-85
2.98049632e-85
7.19274674e-83
6.44554168e-83
1.51107217e-80
1.36370248e-80
3.10431137e-78
2.82108966e-78
6.23257975e-76
5.70272785e-76
1.22210397e-73
1.1257207e-73
2.33874112e-71
2.16847932e-71
4.36480277e-69
4.07314323e-69
7.93792661e-67
7.45424401e-67
1.40551454e-64
1.32800899e-64
2.42073259e-62
2.30100358e-62
4.05142068e-60
3.87361143e-60
6.58184401e-58
6.32885852e-58
1.03671383e-55
1.00238243e-55
1.58120587e-53
1.53703245e-53
2.3320267e-51
2.27858266e-51
3.32074166e-49
3.26067882e-49
4.55795233e-47
4.49643046e-47
6.01922638e-45
5.96357225e-45
7.63249005e-43
7.59041556e-43
9.27186218e-41
9.24762063e-41
1.07633914e-38
1.07520485e-38
1.19065203e-36
1.18888842e-36
1.25108507e-34
1.24557667e-34
1.24415755e-32
1.23244617e-32
1.16609503e-30
1.14965995e-30
1.02506112e-28
1.01108196e-28
8.40309203e-27
8.35775197e-27
6.38085763e-25
6.21162645e-25
4.45437361e-23
4.43904735e-23
2.82789882e-21
2.81187885e-21
1.6145687e-19
1.60264498e-19
8.15928238e-18
8.09606108e-18
3.57586994e-16
3.5328513e-16
1.32184047e-14
1.31777514e-14
3.95664186e-13
3.94284449e-13
9.00736984e-12
9.04020892e-12
1.00733142e-08
1.01770627e-08
0.132393836
0.524891915
8.45631722
9.56019168
7.7149538
6.71432908
1.93675241
1.58002982
0.297332636
0.262564155
0.0618378134
0.0567416208
0.011342231
0.0108526488
0.00187816412
0.00186100569
0.000295727304
0.000295361977
4.87520382e-05
4.87768357e-05
1.3224564e-05
1.32340918e-05
8.50896836e-06
8.50842769e-06
7.92369768e-06
7.92378814e-06
7.85615382e-06
7.85616312e-06
7.84879988e-06
7.84881404e-06
7.8480442e-06
7.84805485e-06
7.8479732e-06
7.84798751e-06
7.84795144e-06
7.84798264e-06
7.84796081e-06
7.84795864e-06
7.84796518e-06
7.84794477e-06
7.84797718e-06
7.84795273e-06
7.84798246e-06
7.84795543e-06
7.84796891e-06
7.84796711e-06
7.84796554e-06
7.8479685e-06
7.8479693e-06
7.84796666e-06
7.84797395e-06
7.8479659e-06
7.84797214e-06
7.84796899e-06
7.84797338e-06
7.84796859e-06
7.84796283e-06
7.84798522e-06
7.84796253e-06
7.84796813e-06
7.84797098e-06
7.8479782e-06
7.84797124e-06
7.84795782e-06
7.84796749e-06
7.84796151e-06
7.84796802e-06
7.84796574e-06
7.84796595e-06
7.84796325e-06
7.84795994e-06
7.8479679e-06
7.8479561e-06
7.84796957e-06
7.84796057e-06
7.84796792e-06
7.84796992e-06
7.847973e-06
7.84796816e-06
7.84797687e-06
7.84796063e-06
7.8479736e-06
7.84796775e-06
7.84797046e-06
7.84797295e-06
7.84795347e-06
7.84797702e-06
7.84795734e-06
7.8479755e-06
7.84794626e-06
7.84798486e-06
7.84795745e-06
7.84798169e-06
7.8479624e-06
7.8479773e-06
7.84796048e-06
7.84797369e-06
7.8479675e-06
7.84797937e-06
7.84797481e-06
7.84796595e-06
7.84796859e-06
7.84797261e-06
7.84796864e-06
7.84797423e-06
7.84796473e-06
7.84796966e-06
7.84797218e-06
7.84797091e-06
7.84797231e-06
7.84795966e-06
7.8479716e-06
7.84796719e-06
7.84796669e-06
7.84796607e-06
7.8479644e-06
7.84795345e-06
7.84798084e-06
7.84794996e-06
7.84798019e-06
7.84796538e-06
7.84797645e-06
7.84795306e-06
7.84796797e-06
7.84796679e-06
7.84796962e-06
7.84796041e-06
7.84798046e-06
7.84796554e-06
7.8479787e-06
7.84797211e-06
7.84796787e-06
7.84798522e-06
7.84797656e-06
7.84797097e-06
7.8479749e-06
7.84797697e-06
7.84797147e-06
7.84796804e-06
7.84796803e-06
7.84796517e-06
7.84797027e-06
7.84795516e-06
7.84797721e-06
7.84796027e-06
7.84796952e-06
7.84796015e-06
7.84796557e-06
7.84798038e-06
7.84795611e-06
7.84797931e-06
7.84795588e-06
7.847979e-06
7.8479599e-06
7.84798023e-06
7.84797051e-06
7.84797473e-06
7.84797697e-06
7.84796698e-06
7.84796465e-06
7.84799582e-06
7.84795513e-06
7.84799512e-06
7.84795965e-06
7.84799149e-06
7.84796308e-06
7.8479764e-06
7.84797216e-06
7.84796678e-06
7.84796547e-06
7.84796462e-06
7.84797332e-06
7.84795668e-06
7.84797715e-06
7.84796594e-06
7.84797888e-06
7.84797239e-06
7.84798088e-06
7.84797255e-06
7.84798361e-06
7.84797598e-06
7.84798642e-06
7.84797922e-06
7.84798438e-06
7.84797036e-06
7.84796851e-06
7.84797493e-06
7.84796462e-06
7.84798295e-06
7.84797247e-06
7.84797899e-06
7.84796024e-06
7.84798118e-06
7.8479716e-06
7.84798273e-06
7.84796769e-06
7.84797067e-06
7.84796695e-06
7.84797883e-06
7.84796562e-06
7.84798863e-06
7.84795575e-06
7.84799168e-06
7.84796418e-06
7.84797732e-06
7.84797736e-06
7.8479696e-06
7.84797489e-06
7.84798787e-06
7.8479777e-06
7.84798342e-06
7.84797404e-06
7.84797851e-06
7.84797607e-06
7.84798148e-06
7.8479789e-06
7.84796912e-06
7.84797621e-06
7.84796796e-06
7.84798056e-06
7.84797439e-06
7.84797123e-06
7.84797895e-06
7.84797782e-06
7.84797874e-06
7.84797512e-06
7.84799128e-06
7.84796755e-06
7.84797938e-06
7.84798023e-06
7.8479805e-06
7.84797382e-06
7.84797533e-06
7.84797947e-06
7.84797505e-06
7.84798683e-06
7.84797811e-06
7.84798706e-06
7.84797284e-06
7.847986e-06
7.84797595e-06
7.84799444e-06
7.84796427e-06
7.84800391e-06
7.84795722e-06
7.8479943e-06
7.84797221e-06
7.84796578e-06
7.84798526e-06
7.84796046e-06
7.84798756e-06
7.84797636e-06
7.84797951e-06
7.84797333e-06
7.84798232e-06
7.84798115e-06
7.84797635e-06
7.84797532e-06
7.84798022e-06
7.84798425e-06
7.84798094e-06
7.84797851e-06
7.84798444e-06
7.84797177e-06
7.84798198e-06
7.84797042e-06
7.84798021e-06
7.84797371e-06
7.84798127e-06
7.84795992e-06
7.84798676e-06
7.84796811e-06
7.84797773e-06
7.84798083e-06
7.84797218e-06
7.84799007e-06
7.84797605e-06
7.84797895e-06
7.8479801e-06
7.8479753e-06
7.8479794e-06
7.84797877e-06
7.84797261e-06
7.84797757e-06
7.84797309e-06
7.84797844e-06
7.84797258e-06
7.84798739e-06
7.84797388e-06
7.84798626e-06
7.84797545e-06
7.84797702e-06
7.84799008e-06
7.84796339e-06
7.84796874e-06
7.84798449e-06
7.84797016e-06
7.84799107e-06
7.84798443e-06
7.84798404e-06
7.84798366e-06
7.84797758e-06
7.84798922e-06
7.84797916e-06
7.84798464e-06
7.84797523e-06
7.84797668e-06
7.84797929e-06
7.84797001e-06
7.84798046e-06
7.84797347e-06
7.84799123e-06
7.84796965e-06
7.84799455e-06
7.84797346e-06
7.84798137e-06
7.84797798e-06
7.84798531e-06
7.84798025e-06
7.84796709e-06
7.84799677e-06
7.84796342e-06
7.84799742e-06
7.84796724e-06
7.84798727e-06
7.84797221e-06
7.84797593e-06
7.84799032e-06
7.84797531e-06
7.84798641e-06
7.84797563e-06
7.84798499e-06
7.84797564e-06
7.84798193e-06
7.84797377e-06
7.84798551e-06
7.84798123e-06
7.84798567e-06
7.84797186e-06
7.84798564e-06
7.8479826e-06
7.8479911e-06
7.84798603e-06
7.8479853e-06
7.84798151e-06
7.84798789e-06
7.84797237e-06
7.84798841e-06
7.84798584e-06
7.84797473e-06
7.84799306e-06
7.84798317e-06
7.84797693e-06
7.84797757e-06
7.84798375e-06
7.84797593e-06
7.84799012e-06
7.84797681e-06
7.84798928e-06
7.84798163e-06
7.84798055e-06
7.84798087e-06
7.84798039e-06
7.84798604e-06
7.84798933e-06
7.84798133e-06
7.84798571e-06
7.84798594e-06
7.84799296e-06
7.84798989e-06
7.84799462e-06
7.84798646e-06
7.84798692e-06
7.84798395e-06
7.84799063e-06
7.84797681e-06
7.84798889e-06
7.84798258e-06
7.84798767e-06
7.84798528e-06
7.84798674e-06
7.84798155e-06
7.84798841e-06
7.84797905e-06
7.84798792e-06
7.84798716e-06
7.84797555e-06
7.84799434e-06
7.84796841e-06
7.84798748e-06
7.84797599e-06
7.84799204e-06
7.84797508e-06
7.84798403e-06
7.84798285e-06
7.84798535e-06
7.84799484e-06
7.84798504e-06
7.84798738e-06
7.84798168e-06
7.84798244e-06
7.84798453e-06
7.8479745e-06
7.84799455e-06
7.84797238e-06
7.84799692e-06
7.84797214e-06
7.84799617e-06
7.84798047e-06
7.84798874e-06
7.84798507e-06
7.84799535e-06
7.84798691e-06
7.84799034e-06
7.84798849e-06
7.84797992e-06
7.84798795e-06
7.84798834e-06
7.84799269e-06
7.84798566e-06
7.8479914e-06
7.84799766e-06
7.84797764e-06
7.8480095e-06
7.84798517e-06
7.84799628e-06
7.84798814e-06
7.84799766e-06
7.84798668e-06
7.84800175e-06
7.84798205e-06
7.84800151e-06
7.84799388e-06
7.84798478e-06
7.84799963e-06
7.84798499e-06
7.84799192e-06
7.84799562e-06
7.8479868e-06
7.84800001e-06
7.84798371e-06
7.84799576e-06
7.84798285e-06
7.84799155e-06
7.84798191e-06
7.84799978e-06
7.84798688e-06
7.84799838e-06
7.8479865e-06
7.84799116e-06
7.8479995e-06
7.84798455e-06
7.84799743e-06
7.84798634e-06
7.84798543e-06
7.84799557e-06
7.84798281e-06
7.84799054e-06
7.84799442e-06
7.84798325e-06
7.84800134e-06
7.84798859e-06
7.8479841e-06
7.848e-06
7.8479824e-06
7.84800367e-06
7.84798933e-06
7.84799739e-06
7.84798818e-06
7.84799068e-06
7.84799063e-06
7.84798922e-06
7.84798487e-06
7.84798774e-06
7.84798547e-06
7.8479966e-06
7.8479878e-06
7.84799814e-06
7.84798131e-06
7.84798836e-06
7.84798547e-06
7.84799286e-06
7.84797492e-06
7.8479936e-06
7.84798304e-06
7.8479897e-06
7.84798553e-06
7.84798124e-06
7.8480005e-06
7.84798228e-06
7.84799704e-06
7.84798209e-06
7.848003e-06
7.8479794e-06
7.84800471e-06
7.84796493e-06
7.84801631e-06
7.8479681e-06
7.84800989e-06
7.84797229e-06
7.84799537e-06
7.84798529e-06
7.84799316e-06
7.8479973e-06
7.84799653e-06
7.84798416e-06
7.84800118e-06
7.8479878e-06
7.84799024e-06
7.84799196e-06
7.84799306e-06
7.84798877e-06
7.84799408e-06
7.84799307e-06
7.84799678e-06
7.84799321e-06
7.8479933e-06
7.84799638e-06
7.8479926e-06
7.84799139e-06
7.84799575e-06
7.84799587e-06
7.84799551e-06
7.84799458e-06
7.84799587e-06
7.84799446e-06
7.84799659e-06
7.84799662e-06
7.84799726e-06
7.84799747e-06
7.84799785e-06
7.84799933e-06
7.84799999e-06
7.84799968e-06
7.84800119e-06
7.84800217e-06
7.84800255e-06
7.84800376e-06
7.84800517e-06
7.84800699e-06
7.848008e-06
7.84800975e-06
7.848012e-06
7.84801369e-06
7.84801626e-06
7.84801905e-06
7.84802184e-06
7.84802401e-06
7.84802705e-06
7.84802939e-06
7.84803131e-06
7.84803306e-06
7.84803418e-06
7.84803489e-06
7.8480355e-06
7.84803567e-06
7.84803576e-06
7.84803544e-06
7.84803542e-06
7.84803585e-06
7.84803566e-06
7.84803573e-06
7.84803568e-06
7.84803569e-06
7.84803582e-06
7.84803581e-06
7.84803571e-06
7.84803595e-06
7.84803568e-06
7.84803579e-06
7.84803567e-06
7.8480357e-06
7.84803573e-06
7.84803571e-06
7.8480358e-06
7.84803564e-06
7.8480355e-06
7.848036e-06
)
;

boundaryField
{
    closed
    {
        type            calculated;
        value           uniform 0;
    }
    open
    {
        type            calculated;
        value           uniform 0;
    }
    sides
    {
        type            empty;
    }
}


// ************************************************************************* //
