/*--------------------------------*- C++ -*----------------------------------*\
| =========                 |                                                 |
| \\      /  F ield         | OpenFOAM: The Open Source CFD Toolbox           |
|  \\    /   O peration     | Version:  2206                                  |
|   \\  /    A nd           | Website:  www.openfoam.com                      |
|    \\/     M anipulation  |                                                 |
\*---------------------------------------------------------------------------*/
FoamFile
{
    version     2.0;
    format      ascii;
    arch        "LSB;label=32;scalar=64";
    class       volVectorField;
    location    "1.42e-05";
    object      U;
}
// * * * * * * * * * * * * * * * * * * * * * * * * * * * * * * * * * * * * * //

dimensions      [0 1 -1 0 0 0 0];

internalField   nonuniform List<vector> 
3183
(
(4.14366691e-13 0 0)
(1.29741644e-13 0 0)
(-2.90093906e-13 0 0)
(-3.1923408e-13 0 0)
(-1.51158998e-13 0 0)
(-8.97434801e-18 0 0)
(-6.91037672e-19 0 0)
(-5.86673727e-23 0 0)
(6.25514365e-22 0 0)
(9.76731714e-19 0 0)
(2.86702106e-15 0 0)
(2.30968296e-13 0 0)
(6.21599219e-13 0 0)
(2.15863819e-13 0 0)
(1.46807379e-13 0 0)
(4.78004861e-14 0 0)
(-3.13493965e-13 0 0)
(-6.55526635e-13 0 0)
(-8.39318826e-13 0 0)
(-1.4887217e-13 0 0)
(3.6018786e-13 0 0)
(1.67461687e-16 0 0)
(8.93677692e-14 0 0)
(3.20569196e-13 0 0)
(4.01331835e-13 0 0)
(5.81417149e-13 0 0)
(7.20985395e-13 0 0)
(7.45132808e-13 0 0)
(1.85943799e-13 0 0)
(3.29629528e-13 0 0)
(4.09846618e-16 0 0)
(-2.49540139e-13 0 0)
(-7.08052301e-13 0 0)
(-8.36515838e-13 0 0)
(-9.87278549e-13 0 0)
(-9.37818518e-13 0 0)
(-7.28616547e-13 0 0)
(-6.76101962e-13 0 0)
(-7.01138969e-13 0 0)
(-8.49770734e-13 0 0)
(-7.08620078e-13 0 0)
(-2.88902561e-13 0 0)
(2.88501105e-13 0 0)
(-1.66090004e-13 0 0)
(2.57142775e-13 0 0)
(6.43279114e-13 0 0)
(6.24246533e-13 0 0)
(9.56755621e-13 0 0)
(1.04895386e-12 0 0)
(1.49645011e-12 0 0)
(1.59796278e-12 0 0)
(2.06738355e-12 0 0)
(1.57947374e-12 0 0)
(1.88596786e-12 0 0)
(1.68180829e-12 0 0)
(1.30462347e-12 0 0)
(9.17858397e-13 0 0)
(6.85725381e-13 0 0)
(1.6604272e-13 0 0)
(3.02179157e-14 0 0)
(-4.00626383e-13 0 0)
(-1.02951104e-12 0 0)
(-1.21786129e-12 0 0)
(-1.63820482e-12 0 0)
(-1.74351254e-12 0 0)
(-1.89397888e-12 0 0)
(-2.60096184e-12 0 0)
(-2.34274835e-12 0 0)
(-2.66782792e-12 0 0)
(-3.62628565e-12 0 0)
(-3.53936638e-12 0 0)
(-3.71132075e-12 0 0)
(-3.80697964e-12 0 0)
(-4.12156658e-12 0 0)
(-4.90987941e-12 0 0)
(-4.63647775e-12 0 0)
(-4.59511703e-12 0 0)
(-4.6294665e-12 0 0)
(-4.8216402e-12 0 0)
(-4.81036756e-12 0 0)
(-5.40642731e-12 0 0)
(-4.96712313e-12 0 0)
(-4.93886881e-12 0 0)
(-6.08053699e-12 0 0)
(-4.68686507e-12 0 0)
(-4.89099583e-12 0 0)
(-5.78992636e-12 0 0)
(-5.65752095e-12 0 0)
(-5.00419703e-12 0 0)
(-5.00863874e-12 0 0)
(-6.24756505e-12 0 0)
(-6.09533396e-12 0 0)
(-5.1243448e-12 0 0)
(-5.97258057e-12 0 0)
(-6.18643097e-12 0 0)
(-6.18549916e-12 0 0)
(-6.15556183e-12 0 0)
(-5.93906518e-12 0 0)
(-6.17778616e-12 0 0)
(-6.48668591e-12 0 0)
(-6.11205792e-12 0 0)
(-6.2911006e-12 0 0)
(-7.11890404e-12 0 0)
(-6.81093376e-12 0 0)
(-6.13142719e-12 0 0)
(-7.03485051e-12 0 0)
(-7.08040316e-12 0 0)
(-6.98681824e-12 0 0)
(-7.87773476e-12 0 0)
(-7.43376633e-12 0 0)
(-6.71893673e-12 0 0)
(-6.91194834e-12 0 0)
(-6.57185925e-12 0 0)
(-6.6569597e-12 0 0)
(-6.92232347e-12 0 0)
(-7.50349761e-12 0 0)
(-6.31215307e-12 0 0)
(-6.41019605e-12 0 0)
(-6.85325021e-12 0 0)
(-7.7328784e-12 0 0)
(-7.8953815e-12 0 0)
(-6.7959778e-12 0 0)
(-7.21662241e-12 0 0)
(-7.88069987e-12 0 0)
(-7.88639666e-12 0 0)
(-7.77570979e-12 0 0)
(-7.56133451e-12 0 0)
(-9.88078378e-12 0 0)
(-8.26625382e-12 0 0)
(-8.84732394e-12 0 0)
(-7.67407468e-12 0 0)
(-8.39470234e-12 0 0)
(-8.9518515e-12 0 0)
(-9.11598703e-12 0 0)
(-7.74145186e-12 0 0)
(-7.77250084e-12 0 0)
(-8.70302387e-12 0 0)
(-8.06009821e-12 0 0)
(-8.60958349e-12 0 0)
(-8.15156264e-12 0 0)
(-7.68642191e-12 0 0)
(-8.6167889e-12 0 0)
(-8.0677137e-12 0 0)
(-8.31792405e-12 0 0)
(-7.78175387e-12 0 0)
(-8.96814599e-12 0 0)
(-7.43875354e-12 0 0)
(-8.59754428e-12 0 0)
(-8.03167792e-12 0 0)
(-8.57996691e-12 0 0)
(-8.43205322e-12 0 0)
(-9.44523327e-12 0 0)
(-9.62670842e-12 0 0)
(-8.77662713e-12 0 0)
(-9.04940827e-12 0 0)
(-8.82396889e-12 0 0)
(-9.67437643e-12 0 0)
(-1.04929783e-11 0 0)
(-9.08703667e-12 0 0)
(-9.49001456e-12 0 0)
(-1.01070366e-11 0 0)
(-1.05527776e-11 0 0)
(-9.89740815e-12 0 0)
(-9.78089815e-12 0 0)
(-1.0565588e-11 0 0)
(-1.07107495e-11 0 0)
(-9.49560167e-12 0 0)
(-9.94194009e-12 0 0)
(-1.00575957e-11 0 0)
(-1.02716246e-11 0 0)
(-1.096863e-11 0 0)
(-1.00079178e-11 0 0)
(-1.07031516e-11 0 0)
(-1.04757465e-11 0 0)
(-1.14266338e-11 0 0)
(-1.09112286e-11 0 0)
(-1.18414766e-11 0 0)
(-1.11319169e-11 0 0)
(-1.09412139e-11 0 0)
(-1.12639049e-11 0 0)
(-1.10176942e-11 0 0)
(-1.21054097e-11 0 0)
(-1.05880787e-11 0 0)
(-1.11702399e-11 0 0)
(-1.16097313e-11 0 0)
(-1.28901618e-11 0 0)
(-1.0830978e-11 0 0)
(-1.19900766e-11 0 0)
(-1.15743122e-11 0 0)
(-1.11724522e-11 0 0)
(-1.19748801e-11 0 0)
(-1.18410888e-11 0 0)
(-1.22014558e-11 0 0)
(-1.2076458e-11 0 0)
(-1.35736484e-11 0 0)
(-1.18392931e-11 0 0)
(-1.23859816e-11 0 0)
(-1.27358416e-11 0 0)
(-1.28769501e-11 0 0)
(-1.44357834e-11 0 0)
(-1.24937276e-11 0 0)
(-1.2416483e-11 0 0)
(-1.30980475e-11 0 0)
(-1.39416977e-11 0 0)
(-1.35749395e-11 0 0)
(-1.36156433e-11 0 0)
(-1.35779202e-11 0 0)
(-1.33903606e-11 0 0)
(-1.47933302e-11 0 0)
(-1.34049477e-11 0 0)
(-1.30871947e-11 0 0)
(-1.38878762e-11 0 0)
(-1.30429494e-11 0 0)
(-1.45212094e-11 0 0)
(-1.37966735e-11 0 0)
(-1.3815818e-11 0 0)
(-1.37996611e-11 0 0)
(-1.36161923e-11 0 0)
(-1.34156543e-11 0 0)
(-1.4454865e-11 0 0)
(-1.44045889e-11 0 0)
(-1.47506118e-11 0 0)
(-1.49156313e-11 0 0)
(-1.3974207e-11 0 0)
(-1.43022417e-11 0 0)
(-1.42621542e-11 0 0)
(-1.42938713e-11 0 0)
(-1.53478159e-11 0 0)
(-1.48858733e-11 0 0)
(-1.44330611e-11 0 0)
(-1.51124594e-11 0 0)
(-1.47241953e-11 0 0)
(-1.48776358e-11 0 0)
(-1.52352085e-11 0 0)
(-1.53693416e-11 0 0)
(-1.40627419e-11 0 0)
(-1.47696008e-11 0 0)
(-1.47108288e-11 0 0)
(-1.59744945e-11 0 0)
(-1.55261121e-11 0 0)
(-1.4967866e-11 0 0)
(-1.59042403e-11 0 0)
(-1.55644368e-11 0 0)
(-1.5360043e-11 0 0)
(-1.57747783e-11 0 0)
(-1.68151069e-11 0 0)
(-1.51770286e-11 0 0)
(-1.58168234e-11 0 0)
(-1.64701394e-11 0 0)
(-1.60446881e-11 0 0)
(-1.49459648e-11 0 0)
(-1.64243761e-11 0 0)
(-1.5798535e-11 0 0)
(-1.62623553e-11 0 0)
(-1.63248338e-11 0 0)
(-1.54057909e-11 0 0)
(-1.5809865e-11 0 0)
(-1.48076513e-11 0 0)
(-1.56495073e-11 0 0)
(-1.51669643e-11 0 0)
(-1.49661225e-11 0 0)
(-1.55036226e-11 0 0)
(-1.56850309e-11 0 0)
(-1.47860758e-11 0 0)
(-1.61729591e-11 0 0)
(-1.56309204e-11 0 0)
(-1.56653997e-11 0 0)
(-1.59613361e-11 0 0)
(-1.52157553e-11 0 0)
(-1.51699851e-11 0 0)
(-1.57402576e-11 0 0)
(-1.53356285e-11 0 0)
(-1.5999281e-11 0 0)
(-1.53807209e-11 0 0)
(-1.58326314e-11 0 0)
(-1.53220464e-11 0 0)
(-1.6212017e-11 0 0)
(-1.68524537e-11 0 0)
(-1.54024366e-11 0 0)
(-1.56145241e-11 0 0)
(-1.57559906e-11 0 0)
(-1.61915523e-11 0 0)
(-1.67457951e-11 0 0)
(-1.55881363e-11 0 0)
(-1.53650373e-11 0 0)
(-1.60405256e-11 0 0)
(-1.49067545e-11 0 0)
(-1.52620015e-11 0 0)
(-1.55503141e-11 0 0)
(-1.55955192e-11 0 0)
(-1.53153801e-11 0 0)
(-1.56692574e-11 0 0)
(-1.59247316e-11 0 0)
(-1.50829711e-11 0 0)
(-1.57647401e-11 0 0)
(-1.50952665e-11 0 0)
(-1.63504085e-11 0 0)
(-1.67144263e-11 0 0)
(-1.57953697e-11 0 0)
(-1.67069988e-11 0 0)
(-1.70809995e-11 0 0)
(-1.60567657e-11 0 0)
(-1.66347537e-11 0 0)
(-1.74357688e-11 0 0)
(-1.80304457e-11 0 0)
(-1.80088333e-11 0 0)
(-1.64526124e-11 0 0)
(-1.72165062e-11 0 0)
(-1.89258321e-11 0 0)
(-1.84171855e-11 0 0)
(-1.82862508e-11 0 0)
(-1.78562274e-11 0 0)
(-1.77624095e-11 0 0)
(-1.83031232e-11 0 0)
(-1.82979798e-11 0 0)
(-1.80606263e-11 0 0)
(-1.8870437e-11 0 0)
(-1.82459297e-11 0 0)
(-1.76096866e-11 0 0)
(-1.96044486e-11 0 0)
(-1.87989783e-11 0 0)
(-1.78984433e-11 0 0)
(-1.86770078e-11 0 0)
(-1.82694416e-11 0 0)
(-1.8530557e-11 0 0)
(-1.86299758e-11 0 0)
(-1.7815528e-11 0 0)
(-1.87171555e-11 0 0)
(-1.79182753e-11 0 0)
(-1.89871231e-11 0 0)
(-1.7929569e-11 0 0)
(-1.83122296e-11 0 0)
(-1.85765939e-11 0 0)
(-1.78692786e-11 0 0)
(-1.7113137e-11 0 0)
(-1.72625652e-11 0 0)
(-1.76943289e-11 0 0)
(-1.90830393e-11 0 0)
(-1.78339887e-11 0 0)
(-1.90819932e-11 0 0)
(-1.71633599e-11 0 0)
(-1.82785837e-11 0 0)
(-1.70528636e-11 0 0)
(-1.64202355e-11 0 0)
(-1.74040529e-11 0 0)
(-1.77309581e-11 0 0)
(-1.87017879e-11 0 0)
(-1.78193685e-11 0 0)
(-1.75957684e-11 0 0)
(-1.89682088e-11 0 0)
(-1.81072353e-11 0 0)
(-1.79608395e-11 0 0)
(-1.8473976e-11 0 0)
(-1.79536511e-11 0 0)
(-1.68133631e-11 0 0)
(-1.75217068e-11 0 0)
(-1.77184603e-11 0 0)
(-1.73660221e-11 0 0)
(-1.7353372e-11 0 0)
(-1.63561504e-11 0 0)
(-1.69297458e-11 0 0)
(-1.71088084e-11 0 0)
(-1.75891174e-11 0 0)
(-1.69427264e-11 0 0)
(-1.59754823e-11 0 0)
(-1.7303663e-11 0 0)
(-1.69835331e-11 0 0)
(-1.76322215e-11 0 0)
(-1.70085302e-11 0 0)
(-1.75161651e-11 0 0)
(-1.68100583e-11 0 0)
(-1.75220609e-11 0 0)
(-1.69963242e-11 0 0)
(-1.6210865e-11 0 0)
(-1.67210988e-11 0 0)
(-1.75765026e-11 0 0)
(-1.61817113e-11 0 0)
(-1.7069849e-11 0 0)
(-1.62814823e-11 0 0)
(-1.66440087e-11 0 0)
(-1.66483091e-11 0 0)
(-1.61596329e-11 0 0)
(-1.66726518e-11 0 0)
(-1.70617499e-11 0 0)
(-1.70934896e-11 0 0)
(-1.6922509e-11 0 0)
(-1.61674661e-11 0 0)
(-1.71160288e-11 0 0)
(-1.63734189e-11 0 0)
(-1.63439542e-11 0 0)
(-1.59304224e-11 0 0)
(-1.69015698e-11 0 0)
(-1.58838582e-11 0 0)
(-1.62297186e-11 0 0)
(-1.61473278e-11 0 0)
(-1.54407878e-11 0 0)
(-1.58502506e-11 0 0)
(-1.72170645e-11 0 0)
(-1.67639342e-11 0 0)
(-1.50232661e-11 0 0)
(-1.60765241e-11 0 0)
(-1.58619817e-11 0 0)
(-1.61126289e-11 0 0)
(-1.63148196e-11 0 0)
(-1.56130757e-11 0 0)
(-1.64375364e-11 0 0)
(-1.44633961e-11 0 0)
(-1.60772491e-11 0 0)
(-1.47345301e-11 0 0)
(-1.45516486e-11 0 0)
(-1.42201764e-11 0 0)
(-1.36933175e-11 0 0)
(-1.43850421e-11 0 0)
(-1.49883976e-11 0 0)
(-1.55316629e-11 0 0)
(-1.4348798e-11 0 0)
(-1.36774359e-11 0 0)
(-1.51932674e-11 0 0)
(-1.53825576e-11 0 0)
(-1.566842e-11 0 0)
(-1.44451412e-11 0 0)
(-1.35838727e-11 0 0)
(-1.46155186e-11 0 0)
(-1.41920988e-11 0 0)
(-1.55340302e-11 0 0)
(-1.5156952e-11 0 0)
(-1.4868341e-11 0 0)
(-1.42720659e-11 0 0)
(-1.44218264e-11 0 0)
(-1.39838819e-11 0 0)
(-1.31394755e-11 0 0)
(-1.42863788e-11 0 0)
(-1.35098019e-11 0 0)
(-1.32122994e-11 0 0)
(-1.30435345e-11 0 0)
(-1.29505634e-11 0 0)
(-1.34420455e-11 0 0)
(-1.32569793e-11 0 0)
(-1.15112351e-11 0 0)
(-1.18774267e-11 0 0)
(-1.23165728e-11 0 0)
(-1.25632658e-11 0 0)
(-1.19538722e-11 0 0)
(-1.18045361e-11 0 0)
(-1.17900604e-11 0 0)
(-1.18494303e-11 0 0)
(-1.1541458e-11 0 0)
(-1.25017873e-11 0 0)
(-1.16005131e-11 0 0)
(-1.04882848e-11 0 0)
(-1.13869264e-11 0 0)
(-1.14263304e-11 0 0)
(-1.17708773e-11 0 0)
(-1.01954339e-11 0 0)
(-9.39624766e-12 0 0)
(-9.77758862e-12 0 0)
(-9.23533173e-12 0 0)
(-1.02668201e-11 0 0)
(-9.94511815e-12 0 0)
(-8.62825986e-12 0 0)
(-1.00333068e-11 0 0)
(-1.02105494e-11 0 0)
(-8.57169395e-12 0 0)
(-9.15907925e-12 0 0)
(-9.16447358e-12 0 0)
(-8.9701118e-12 0 0)
(-8.81152919e-12 0 0)
(-8.9764706e-12 0 0)
(-8.85153761e-12 0 0)
(-9.5577602e-12 0 0)
(-8.95590382e-12 0 0)
(-8.35490857e-12 0 0)
(-8.61994699e-12 0 0)
(-8.2225076e-12 0 0)
(-8.48426827e-12 0 0)
(-8.28024879e-12 0 0)
(-8.38104606e-12 0 0)
(-8.70241904e-12 0 0)
(-8.44235168e-12 0 0)
(-8.75164889e-12 0 0)
(-8.23493436e-12 0 0)
(-8.40884607e-12 0 0)
(-8.72163609e-12 0 0)
(-7.05831931e-12 0 0)
(-7.28370035e-12 0 0)
(-6.38596346e-12 0 0)
(-6.94818276e-12 0 0)
(-7.49151576e-12 0 0)
(-7.2433107e-12 0 0)
(-7.10097542e-12 0 0)
(-7.67559338e-12 0 0)
(-7.27424499e-12 0 0)
(-6.58653658e-12 0 0)
(-7.93416935e-12 0 0)
(-8.12726219e-12 0 0)
(-7.5513869e-12 0 0)
(-7.65932953e-12 0 0)
(-7.32051621e-12 0 0)
(-7.33867889e-12 0 0)
(-6.91322602e-12 0 0)
(-7.42309057e-12 0 0)
(-6.17727346e-12 0 0)
(-5.69788372e-12 0 0)
(-6.34812469e-12 0 0)
(-5.81994807e-12 0 0)
(-6.27927393e-12 0 0)
(-6.32649362e-12 0 0)
(-6.20198044e-12 0 0)
(-5.8376647e-12 0 0)
(-5.54096158e-12 0 0)
(-5.18122053e-12 0 0)
(-5.36267579e-12 0 0)
(-5.77358895e-12 0 0)
(-5.30897776e-12 0 0)
(-5.73752478e-12 0 0)
(-4.53456505e-12 0 0)
(-5.56307992e-12 0 0)
(-4.47808603e-12 0 0)
(-4.82406354e-12 0 0)
(-4.89770416e-12 0 0)
(-5.51070945e-12 0 0)
(-5.00296907e-12 0 0)
(-4.23062081e-12 0 0)
(-5.73080262e-12 0 0)
(-4.78430904e-12 0 0)
(-5.1735131e-12 0 0)
(-5.54069046e-12 0 0)
(-5.15936357e-12 0 0)
(-5.5558031e-12 0 0)
(-4.66496509e-12 0 0)
(-5.2140986e-12 0 0)
(-4.28180872e-12 0 0)
(-4.7091124e-12 0 0)
(-4.43462646e-12 0 0)
(-3.48290814e-12 0 0)
(-5.18046154e-12 0 0)
(-4.67695192e-12 0 0)
(-4.66466788e-12 0 0)
(-4.48621997e-12 0 0)
(-5.6336923e-12 0 0)
(-4.67541933e-12 0 0)
(-3.40193681e-12 0 0)
(-5.36066282e-12 0 0)
(-3.57462594e-12 0 0)
(-3.69047408e-12 0 0)
(-3.37852932e-12 0 0)
(-3.98836216e-12 0 0)
(-2.88969004e-12 0 0)
(-3.25621126e-12 0 0)
(-3.73551334e-12 0 0)
(-2.5761394e-12 0 0)
(-2.47881101e-12 0 0)
(-2.90865539e-12 0 0)
(-3.78035374e-12 0 0)
(-3.83656981e-12 0 0)
(-2.30298619e-12 0 0)
(-2.4829445e-12 0 0)
(-2.91858574e-12 0 0)
(-4.09560265e-12 0 0)
(-2.50665155e-12 0 0)
(-2.91239762e-12 0 0)
(-3.59994369e-12 0 0)
(-2.90958206e-12 0 0)
(-2.83232291e-12 0 0)
(-4.5203962e-12 0 0)
(-2.69162935e-12 0 0)
(-2.88690627e-12 0 0)
(-3.30961032e-12 0 0)
(-2.07300946e-12 0 0)
(-2.72058291e-12 0 0)
(-2.26591328e-12 0 0)
(-2.02923255e-12 0 0)
(-1.78219906e-12 0 0)
(-2.19333645e-12 0 0)
(-2.09326557e-12 0 0)
(-1.91648206e-12 0 0)
(-3.02163779e-12 0 0)
(-2.34416692e-12 0 0)
(-3.23501797e-12 0 0)
(-1.99335235e-12 0 0)
(-2.70671465e-12 0 0)
(-1.79000755e-12 0 0)
(-2.05487971e-12 0 0)
(-6.23669499e-13 0 0)
(-1.67731085e-12 0 0)
(-1.47740176e-12 0 0)
(-1.52564827e-12 0 0)
(-1.64646143e-12 0 0)
(-1.13672981e-12 0 0)
(-1.87374966e-12 0 0)
(-8.32469235e-13 0 0)
(-1.68638097e-13 0 0)
(-1.92763826e-12 0 0)
(-1.17857614e-12 0 0)
(-5.82131825e-13 0 0)
(-1.34187939e-12 0 0)
(-3.24953849e-13 0 0)
(7.75214601e-14 0 0)
(-1.2776086e-12 0 0)
(4.78545365e-13 0 0)
(-8.45255704e-13 0 0)
(-6.32996645e-13 0 0)
(6.33276485e-13 0 0)
(-7.45480121e-13 0 0)
(5.4278641e-13 0 0)
(5.35197363e-14 0 0)
(7.90969581e-13 0 0)
(1.58169896e-13 0 0)
(1.30873482e-13 0 0)
(5.33437303e-14 0 0)
(1.12279705e-12 0 0)
(1.6431186e-12 0 0)
(3.44415465e-13 0 0)
(2.46959238e-13 0 0)
(2.94121578e-13 0 0)
(8.99297619e-13 0 0)
(7.35627541e-13 0 0)
(9.16693304e-13 0 0)
(1.08869171e-12 0 0)
(1.15025078e-12 0 0)
(1.88336566e-12 0 0)
(-3.04635924e-13 0 0)
(7.46506786e-13 0 0)
(1.14092549e-12 0 0)
(5.40382302e-13 0 0)
(1.22134402e-12 0 0)
(3.51444131e-13 0 0)
(9.14098753e-13 0 0)
(1.35260069e-12 0 0)
(2.33601387e-12 0 0)
(1.42699922e-12 0 0)
(1.65912309e-12 0 0)
(2.26511861e-12 0 0)
(3.11084428e-12 0 0)
(3.03260454e-12 0 0)
(2.18749159e-12 0 0)
(2.90583118e-12 0 0)
(2.44734083e-12 0 0)
(1.77601526e-12 0 0)
(2.67969349e-12 0 0)
(2.00832624e-12 0 0)
(2.92450642e-12 0 0)
(3.58263163e-12 0 0)
(2.75774194e-12 0 0)
(3.43779695e-12 0 0)
(2.40031335e-12 0 0)
(2.93875618e-12 0 0)
(2.59783041e-12 0 0)
(3.08167571e-12 0 0)
(3.23488593e-12 0 0)
(2.34358609e-12 0 0)
(4.07596959e-12 0 0)
(2.19512402e-12 0 0)
(3.22706844e-12 0 0)
(3.61074067e-12 0 0)
(3.5345259e-12 0 0)
(2.91800088e-12 0 0)
(2.77517418e-12 0 0)
(3.11058274e-12 0 0)
(2.75179645e-12 0 0)
(3.21150951e-12 0 0)
(4.63986079e-12 0 0)
(3.77434983e-12 0 0)
(3.46647025e-12 0 0)
(4.69225066e-12 0 0)
(3.90152573e-12 0 0)
(3.77902131e-12 0 0)
(4.08758376e-12 0 0)
(4.50764113e-12 0 0)
(3.35053865e-12 0 0)
(4.25912801e-12 0 0)
(3.95757786e-12 0 0)
(4.15516567e-12 0 0)
(4.04323864e-12 0 0)
(3.84690669e-12 0 0)
(3.72938306e-12 0 0)
(3.75443895e-12 0 0)
(3.98079665e-12 0 0)
(3.40898763e-12 0 0)
(4.74784766e-12 0 0)
(4.39460163e-12 0 0)
(4.62039699e-12 0 0)
(4.24767033e-12 0 0)
(4.63202675e-12 0 0)
(4.9559395e-12 0 0)
(4.83891927e-12 0 0)
(5.04277651e-12 0 0)
(5.42727729e-12 0 0)
(5.37925329e-12 0 0)
(5.89067639e-12 0 0)
(5.83000779e-12 0 0)
(5.79483049e-12 0 0)
(6.13611201e-12 0 0)
(6.03493213e-12 0 0)
(6.65608214e-12 0 0)
(5.96797023e-12 0 0)
(6.60360906e-12 0 0)
(6.37813906e-12 0 0)
(6.76265557e-12 0 0)
(6.86785644e-12 0 0)
(6.74876968e-12 0 0)
(5.76345542e-12 0 0)
(6.99139834e-12 0 0)
(7.23793861e-12 0 0)
(8.05237493e-12 0 0)
(6.45964831e-12 0 0)
(7.60237196e-12 0 0)
(7.37690269e-12 0 0)
(7.66929498e-12 0 0)
(6.67753633e-12 0 0)
(8.33703322e-12 0 0)
(7.25178456e-12 0 0)
(8.35505431e-12 0 0)
(8.06598854e-12 0 0)
(7.86554967e-12 0 0)
(8.0928313e-12 0 0)
(8.01847557e-12 0 0)
(8.82386781e-12 0 0)
(8.53423019e-12 0 0)
(8.72699251e-12 0 0)
(8.66108774e-12 0 0)
(9.38337274e-12 0 0)
(9.45388642e-12 0 0)
(9.82510794e-12 0 0)
(9.75683337e-12 0 0)
(9.27327414e-12 0 0)
(8.99815922e-12 0 0)
(9.28479791e-12 0 0)
(1.00234648e-11 0 0)
(9.02512536e-12 0 0)
(9.31421855e-12 0 0)
(9.31032595e-12 0 0)
(1.05409351e-11 0 0)
(9.28037379e-12 0 0)
(9.88097513e-12 0 0)
(1.04921546e-11 0 0)
(9.74593913e-12 0 0)
(9.83078615e-12 0 0)
(1.03257514e-11 0 0)
(1.04989637e-11 0 0)
(1.09720923e-11 0 0)
(9.66776976e-12 0 0)
(1.03800906e-11 0 0)
(9.96569754e-12 0 0)
(1.00536519e-11 0 0)
(9.86876191e-12 0 0)
(1.05127569e-11 0 0)
(1.03029903e-11 0 0)
(1.03792239e-11 0 0)
(1.04876894e-11 0 0)
(1.03709887e-11 0 0)
(9.56339081e-12 0 0)
(1.11877589e-11 0 0)
(1.04943532e-11 0 0)
(1.02565e-11 0 0)
(1.04440765e-11 0 0)
(1.12931036e-11 0 0)
(9.99292025e-12 0 0)
(9.73168897e-12 0 0)
(9.67181865e-12 0 0)
(1.06813056e-11 0 0)
(9.5595959e-12 0 0)
(9.48430046e-12 0 0)
(9.82506632e-12 0 0)
(9.61482425e-12 0 0)
(1.00186567e-11 0 0)
(9.18813757e-12 0 0)
(1.04492686e-11 0 0)
(1.01800051e-11 0 0)
(1.02460331e-11 0 0)
(1.12151436e-11 0 0)
(1.11162588e-11 0 0)
(1.04723908e-11 0 0)
(1.16902494e-11 0 0)
(1.21549027e-11 0 0)
(1.22234725e-11 0 0)
(1.23010527e-11 0 0)
(1.22916235e-11 0 0)
(1.31935783e-11 0 0)
(1.12465659e-11 0 0)
(1.17121187e-11 0 0)
(1.16258609e-11 0 0)
(1.15964723e-11 0 0)
(1.28746756e-11 0 0)
(1.23919967e-11 0 0)
(1.24458358e-11 0 0)
(1.23787473e-11 0 0)
(1.18480714e-11 0 0)
(1.09449452e-11 0 0)
(1.18234148e-11 0 0)
(1.25629613e-11 0 0)
(1.32345212e-11 0 0)
(1.11338869e-11 0 0)
(1.1367169e-11 0 0)
(1.05270562e-11 0 0)
(1.12177096e-11 0 0)
(1.09980593e-11 0 0)
(1.07201959e-11 0 0)
(1.18041893e-11 0 0)
(9.95741116e-12 0 0)
(1.09701793e-11 0 0)
(1.04476934e-11 0 0)
(1.01714169e-11 0 0)
(9.70688928e-12 0 0)
(1.0952106e-11 0 0)
(1.02957142e-11 0 0)
(1.10019029e-11 0 0)
(1.06152979e-11 0 0)
(9.97681627e-12 0 0)
(9.63054201e-12 0 0)
(1.0516094e-11 0 0)
(9.71603685e-12 0 0)
(9.86309357e-12 0 0)
(9.97911095e-12 0 0)
(1.00288843e-11 0 0)
(9.36700279e-12 0 0)
(1.00718525e-11 0 0)
(1.02035217e-11 0 0)
(9.67196054e-12 0 0)
(9.72928133e-12 0 0)
(9.63911769e-12 0 0)
(1.04298648e-11 0 0)
(9.68125184e-12 0 0)
(9.90697375e-12 0 0)
(1.01792746e-11 0 0)
(9.39465541e-12 0 0)
(9.38061847e-12 0 0)
(9.65150289e-12 0 0)
(9.80727908e-12 0 0)
(1.01355962e-11 0 0)
(8.56561066e-12 0 0)
(1.02061194e-11 0 0)
(9.91512796e-12 0 0)
(9.61493356e-12 0 0)
(1.00593489e-11 0 0)
(9.46693556e-12 0 0)
(9.2494657e-12 0 0)
(9.52448246e-12 0 0)
(9.53777919e-12 0 0)
(1.00627302e-11 0 0)
(1.02864656e-11 0 0)
(9.75128141e-12 0 0)
(1.0729098e-11 0 0)
(9.94742887e-12 0 0)
(1.00763741e-11 0 0)
(1.06766772e-11 0 0)
(9.81203548e-12 0 0)
(9.92129805e-12 0 0)
(9.36884249e-12 0 0)
(9.5874449e-12 0 0)
(1.00443856e-11 0 0)
(9.09424247e-12 0 0)
(9.12928604e-12 0 0)
(9.10184228e-12 0 0)
(9.50628446e-12 0 0)
(8.84535691e-12 0 0)
(8.45677613e-12 0 0)
(1.054372e-11 0 0)
(9.97958092e-12 0 0)
(8.7908019e-12 0 0)
(9.6213279e-12 0 0)
(8.95799668e-12 0 0)
(9.54152187e-12 0 0)
(1.00120211e-11 0 0)
(9.29730535e-12 0 0)
(9.32104476e-12 0 0)
(9.15514679e-12 0 0)
(9.84613326e-12 0 0)
(9.64591045e-12 0 0)
(9.8103461e-12 0 0)
(9.70495912e-12 0 0)
(9.5410938e-12 0 0)
(9.23730928e-12 0 0)
(8.87647498e-12 0 0)
(1.03961724e-11 0 0)
(8.58490739e-12 0 0)
(1.02723354e-11 0 0)
(1.02422179e-11 0 0)
(1.01579089e-11 0 0)
(9.88823896e-12 0 0)
(9.84859302e-12 0 0)
(1.00421102e-11 0 0)
(9.45130056e-12 0 0)
(1.04935634e-11 0 0)
(9.11518165e-12 0 0)
(9.18389715e-12 0 0)
(9.34390855e-12 0 0)
(8.46510313e-12 0 0)
(8.42669577e-12 0 0)
(9.13333623e-12 0 0)
(8.67527425e-12 0 0)
(9.04862132e-12 0 0)
(9.6854834e-12 0 0)
(9.00590302e-12 0 0)
(8.66390246e-12 0 0)
(9.18464693e-12 0 0)
(8.89698015e-12 0 0)
(9.98532111e-12 0 0)
(8.86119654e-12 0 0)
(8.66633034e-12 0 0)
(9.34718173e-12 0 0)
(9.94687027e-12 0 0)
(8.79183635e-12 0 0)
(9.7349395e-12 0 0)
(9.3918379e-12 0 0)
(1.04287265e-11 0 0)
(8.58741675e-12 0 0)
(9.10376464e-12 0 0)
(8.72313192e-12 0 0)
(9.18627983e-12 0 0)
(9.22547926e-12 0 0)
(8.40585213e-12 0 0)
(8.85619622e-12 0 0)
(8.7804825e-12 0 0)
(8.50837082e-12 0 0)
(9.30401433e-12 0 0)
(9.51060384e-12 0 0)
(9.28349354e-12 0 0)
(9.50083064e-12 0 0)
(9.44729785e-12 0 0)
(1.08198349e-11 0 0)
(8.96998139e-12 0 0)
(9.24198565e-12 0 0)
(9.94616413e-12 0 0)
(8.69009329e-12 0 0)
(8.93724559e-12 0 0)
(8.8270056e-12 0 0)
(8.4525595e-12 0 0)
(9.4416282e-12 0 0)
(8.371516e-12 0 0)
(8.9762403e-12 0 0)
(8.76187623e-12 0 0)
(9.49081296e-12 0 0)
(9.29027187e-12 0 0)
(9.17841614e-12 0 0)
(9.69777988e-12 0 0)
(9.26692735e-12 0 0)
(8.72831341e-12 0 0)
(8.58387875e-12 0 0)
(7.92414341e-12 0 0)
(8.64974253e-12 0 0)
(7.76688014e-12 0 0)
(7.8632671e-12 0 0)
(8.5702692e-12 0 0)
(9.37199318e-12 0 0)
(7.95221962e-12 0 0)
(7.79403718e-12 0 0)
(7.47992558e-12 0 0)
(8.02073175e-12 0 0)
(8.14999923e-12 0 0)
(6.7117469e-12 0 0)
(7.70519565e-12 0 0)
(7.18546576e-12 0 0)
(7.36920424e-12 0 0)
(7.22974397e-12 0 0)
(7.84978486e-12 0 0)
(6.81787442e-12 0 0)
(7.13289079e-12 0 0)
(8.1517547e-12 0 0)
(8.29309172e-12 0 0)
(7.44554671e-12 0 0)
(7.96034349e-12 0 0)
(9.15826468e-12 0 0)
(8.01413617e-12 0 0)
(9.3979757e-12 0 0)
(7.98439962e-12 0 0)
(8.89213823e-12 0 0)
(8.10046478e-12 0 0)
(8.54045665e-12 0 0)
(7.97476123e-12 0 0)
(8.07935716e-12 0 0)
(8.11443393e-12 0 0)
(8.46715497e-12 0 0)
(8.54302773e-12 0 0)
(8.22394594e-12 0 0)
(9.14514976e-12 0 0)
(7.34878176e-12 0 0)
(8.42288078e-12 0 0)
(8.1926286e-12 0 0)
(8.25939437e-12 0 0)
(8.40972939e-12 0 0)
(8.53464379e-12 0 0)
(7.82988987e-12 0 0)
(1.00393716e-11 0 0)
(8.05132663e-12 0 0)
(8.9138192e-12 0 0)
(8.11935233e-12 0 0)
(8.36003427e-12 0 0)
(9.12932021e-12 0 0)
(8.50986805e-12 0 0)
(7.49356924e-12 0 0)
(9.11731919e-12 0 0)
(8.04232296e-12 0 0)
(8.15371683e-12 0 0)
(7.60703217e-12 0 0)
(8.3280887e-12 0 0)
(7.53390224e-12 0 0)
(7.90681286e-12 0 0)
(8.32022036e-12 0 0)
(7.9024712e-12 0 0)
(9.50008881e-12 0 0)
(7.6525856e-12 0 0)
(8.17282224e-12 0 0)
(7.98230017e-12 0 0)
(9.27758245e-12 0 0)
(8.04458926e-12 0 0)
(7.74739033e-12 0 0)
(8.61841368e-12 0 0)
(6.97002974e-12 0 0)
(8.49766703e-12 0 0)
(6.4234583e-12 0 0)
(7.11205123e-12 0 0)
(7.26021719e-12 0 0)
(5.86326338e-12 0 0)
(6.84027576e-12 0 0)
(5.88333141e-12 0 0)
(6.34043603e-12 0 0)
(6.22514318e-12 0 0)
(6.34119702e-12 0 0)
(5.09580698e-12 0 0)
(6.26638627e-12 0 0)
(6.07990304e-12 0 0)
(5.87226531e-12 0 0)
(5.78298551e-12 0 0)
(6.61547295e-12 0 0)
(5.07887797e-12 0 0)
(5.97418941e-12 0 0)
(5.62155107e-12 0 0)
(5.52550726e-12 0 0)
(4.58338255e-12 0 0)
(4.54786429e-12 0 0)
(4.46883113e-12 0 0)
(3.60936907e-12 0 0)
(4.24808493e-12 0 0)
(3.66878291e-12 0 0)
(3.75311461e-12 0 0)
(4.07002837e-12 0 0)
(4.81655567e-12 0 0)
(3.49004748e-12 0 0)
(4.10106072e-12 0 0)
(3.86952638e-12 0 0)
(4.27835716e-12 0 0)
(4.51563549e-12 0 0)
(4.15718697e-12 0 0)
(4.06770937e-12 0 0)
(4.72307763e-12 0 0)
(4.16872102e-12 0 0)
(4.57459134e-12 0 0)
(3.8763321e-12 0 0)
(3.72142576e-12 0 0)
(3.83091957e-12 0 0)
(3.69987685e-12 0 0)
(3.00255457e-12 0 0)
(4.12956934e-12 0 0)
(3.45547926e-12 0 0)
(3.51589513e-12 0 0)
(3.88220105e-12 0 0)
(3.60439117e-12 0 0)
(3.92011884e-12 0 0)
(3.17715666e-12 0 0)
(3.27168369e-12 0 0)
(3.09592209e-12 0 0)
(3.7899954e-12 0 0)
(3.12779036e-12 0 0)
(3.10154079e-12 0 0)
(2.95435658e-12 0 0)
(3.06157961e-12 0 0)
(2.80275342e-12 0 0)
(2.64832765e-12 0 0)
(2.56689039e-12 0 0)
(3.4876241e-12 0 0)
(4.50206639e-12 0 0)
(3.4691331e-12 0 0)
(3.41867199e-12 0 0)
(3.76065779e-12 0 0)
(3.78269333e-12 0 0)
(2.8519039e-12 0 0)
(3.56621414e-12 0 0)
(3.4453155e-12 0 0)
(2.88192355e-12 0 0)
(2.1750507e-12 0 0)
(4.29981301e-12 0 0)
(3.61597851e-12 0 0)
(3.2859971e-12 0 0)
(3.80004553e-12 0 0)
(3.80870832e-12 0 0)
(3.78564148e-12 0 0)
(3.47885331e-12 0 0)
(3.61569383e-12 0 0)
(3.42059647e-12 0 0)
(2.7756055e-12 0 0)
(2.96919752e-12 0 0)
(2.70106263e-12 0 0)
(3.22814659e-12 0 0)
(4.71476419e-12 0 0)
(2.0452302e-12 0 0)
(2.08564239e-12 0 0)
(3.06190291e-12 0 0)
(2.1156661e-12 0 0)
(1.68661883e-12 0 0)
(2.12801962e-12 0 0)
(1.87032229e-12 0 0)
(1.92261567e-12 0 0)
(2.48317016e-12 0 0)
(2.05957027e-12 0 0)
(2.56827473e-12 0 0)
(1.75513334e-12 0 0)
(1.89179537e-12 0 0)
(2.15586641e-12 0 0)
(2.00476822e-12 0 0)
(2.00333332e-12 0 0)
(1.03223929e-12 0 0)
(1.03473583e-12 0 0)
(4.88745026e-13 0 0)
(1.17152999e-12 0 0)
(9.03334732e-13 0 0)
(6.68409899e-13 0 0)
(2.23122408e-13 0 0)
(-4.485259e-13 0 0)
(8.32276064e-13 0 0)
(-5.2711615e-13 0 0)
(-7.45272435e-13 0 0)
(1.19792521e-13 0 0)
(-2.23942753e-12 0 0)
(-1.93256147e-13 0 0)
(-1.42907934e-12 0 0)
(-9.5189837e-13 0 0)
(-2.01852734e-12 0 0)
(-1.67851745e-12 0 0)
(-1.60160863e-12 0 0)
(-1.65156194e-12 0 0)
(-2.5624644e-12 0 0)
(-3.50613841e-12 0 0)
(-2.3019767e-12 0 0)
(-3.54923935e-12 0 0)
(-3.67277327e-12 0 0)
(-2.65465894e-12 0 0)
(-3.62987271e-12 0 0)
(-3.44926507e-12 0 0)
(-3.56764568e-12 0 0)
(-3.30731937e-12 0 0)
(-3.3071462e-12 0 0)
(-3.82069039e-12 0 0)
(-3.66765084e-12 0 0)
(-3.50005036e-12 0 0)
(-4.31717603e-12 0 0)
(-3.65642418e-12 0 0)
(-3.90023192e-12 0 0)
(-3.9363434e-12 0 0)
(-3.2281555e-12 0 0)
(-3.74012063e-12 0 0)
(-4.77264011e-12 0 0)
(-4.70781122e-12 0 0)
(-4.28844857e-12 0 0)
(-5.68810194e-12 0 0)
(-4.04555298e-12 0 0)
(-3.70290873e-12 0 0)
(-4.88379251e-12 0 0)
(-3.96761304e-12 0 0)
(-5.23845742e-12 0 0)
(-4.12887197e-12 0 0)
(-4.80626453e-12 0 0)
(-5.19367523e-12 0 0)
(-4.41896764e-12 0 0)
(-5.56390539e-12 0 0)
(-5.40300404e-12 0 0)
(-4.6320517e-12 0 0)
(-4.20227247e-12 0 0)
(-5.36789316e-12 0 0)
(-5.51313913e-12 0 0)
(-4.58004606e-12 0 0)
(-5.2164228e-12 0 0)
(-4.67006917e-12 0 0)
(-5.29155611e-12 0 0)
(-5.02474116e-12 0 0)
(-5.49088761e-12 0 0)
(-5.43864301e-12 0 0)
(-5.4125811e-12 0 0)
(-6.39251623e-12 0 0)
(-5.95925954e-12 0 0)
(-5.52213264e-12 0 0)
(-5.88655217e-12 0 0)
(-7.04788123e-12 0 0)
(-6.0144265e-12 0 0)
(-6.53151256e-12 0 0)
(-7.03531441e-12 0 0)
(-6.33776662e-12 0 0)
(-6.98675857e-12 0 0)
(-7.17300444e-12 0 0)
(-6.7887792e-12 0 0)
(-7.14973294e-12 0 0)
(-6.72463232e-12 0 0)
(-8.31508948e-12 0 0)
(-6.46662346e-12 0 0)
(-6.17463803e-12 0 0)
(-8.02840433e-12 0 0)
(-9.11726837e-12 0 0)
(-8.95180813e-12 0 0)
(-8.94145094e-12 0 0)
(-9.88900842e-12 0 0)
(-9.30153701e-12 0 0)
(-9.63326217e-12 0 0)
(-1.04388231e-11 0 0)
(-1.12691469e-11 0 0)
(-1.07668844e-11 0 0)
(-1.05281174e-11 0 0)
(-1.02866789e-11 0 0)
(-1.00618643e-11 0 0)
(-1.00283147e-11 0 0)
(-1.05827258e-11 0 0)
(-9.97727801e-12 0 0)
(-1.07115118e-11 0 0)
(-9.15281404e-12 0 0)
(-1.0589653e-11 0 0)
(-1.07957036e-11 0 0)
(-1.01680335e-11 0 0)
(-1.01229646e-11 0 0)
(-1.03046966e-11 0 0)
(-1.05537246e-11 0 0)
(-1.01543178e-11 0 0)
(-9.38231671e-12 0 0)
(-9.97997539e-12 0 0)
(-9.84210588e-12 0 0)
(-9.61372701e-12 0 0)
(-9.48902708e-12 0 0)
(-1.0181487e-11 0 0)
(-1.06116099e-11 0 0)
(-9.85166941e-12 0 0)
(-1.08706665e-11 0 0)
(-1.02124737e-11 0 0)
(-1.05675553e-11 0 0)
(-1.02444538e-11 0 0)
(-1.01477886e-11 0 0)
(-1.06812824e-11 0 0)
(-1.13112152e-11 0 0)
(-1.01027307e-11 0 0)
(-1.02697834e-11 0 0)
(-1.04268566e-11 0 0)
(-9.98939715e-12 0 0)
(-9.06199517e-12 0 0)
(-9.26470688e-12 0 0)
(-1.01721504e-11 0 0)
(-9.75313967e-12 0 0)
(-1.02781262e-11 0 0)
(-9.19748585e-12 0 0)
(-8.75321868e-12 0 0)
(-8.78950454e-12 0 0)
(-9.40670086e-12 0 0)
(-9.67051242e-12 0 0)
(-9.57632178e-12 0 0)
(-8.38156589e-12 0 0)
(-8.48249766e-12 0 0)
(-8.88170348e-12 0 0)
(-9.08359034e-12 0 0)
(-8.84060082e-12 0 0)
(-8.5100128e-12 0 0)
(-8.95773142e-12 0 0)
(-9.51730235e-12 0 0)
(-8.65235859e-12 0 0)
(-8.60693501e-12 0 0)
(-8.24835551e-12 0 0)
(-7.83251474e-12 0 0)
(-9.02433935e-12 0 0)
(-8.9865207e-12 0 0)
(-9.05880546e-12 0 0)
(-8.65175894e-12 0 0)
(-8.91528025e-12 0 0)
(-1.01011578e-11 0 0)
(-9.67960521e-12 0 0)
(-9.92753105e-12 0 0)
(-1.0495411e-11 0 0)
(-9.33695284e-12 0 0)
(-1.01209917e-11 0 0)
(-1.05657325e-11 0 0)
(-1.01453873e-11 0 0)
(-1.01823526e-11 0 0)
(-9.94121356e-12 0 0)
(-9.75243393e-12 0 0)
(-9.77999096e-12 0 0)
(-9.54263131e-12 0 0)
(-9.08757403e-12 0 0)
(-9.70136375e-12 0 0)
(-9.49615372e-12 0 0)
(-1.00239613e-11 0 0)
(-9.20454301e-12 0 0)
(-9.34646643e-12 0 0)
(-9.74615948e-12 0 0)
(-9.66181988e-12 0 0)
(-9.95495562e-12 0 0)
(-1.02913445e-11 0 0)
(-9.61972104e-12 0 0)
(-9.79347328e-12 0 0)
(-9.19719681e-12 0 0)
(-9.99667909e-12 0 0)
(-9.88584395e-12 0 0)
(-9.62538139e-12 0 0)
(-1.04823483e-11 0 0)
(-9.79371797e-12 0 0)
(-1.04530111e-11 0 0)
(-9.68272585e-12 0 0)
(-1.03841078e-11 0 0)
(-1.1035518e-11 0 0)
(-1.02752001e-11 0 0)
(-1.02837323e-11 0 0)
(-1.15546094e-11 0 0)
(-1.05808059e-11 0 0)
(-1.09417273e-11 0 0)
(-1.10645547e-11 0 0)
(-1.08415012e-11 0 0)
(-1.14817269e-11 0 0)
(-1.09964999e-11 0 0)
(-1.1218098e-11 0 0)
(-1.02506706e-11 0 0)
(-1.07886377e-11 0 0)
(-1.07134282e-11 0 0)
(-1.00915136e-11 0 0)
(-1.03683159e-11 0 0)
(-1.03406661e-11 0 0)
(-1.16519121e-11 0 0)
(-9.88929572e-12 0 0)
(-1.0912861e-11 0 0)
(-1.14216658e-11 0 0)
(-1.12897139e-11 0 0)
(-1.10741227e-11 0 0)
(-1.03824714e-11 0 0)
(-9.77550104e-12 0 0)
(-9.94879933e-12 0 0)
(-1.0755206e-11 0 0)
(-1.06539334e-11 0 0)
(-1.05614119e-11 0 0)
(-1.07634314e-11 0 0)
(-1.09208552e-11 0 0)
(-1.06126495e-11 0 0)
(-1.03877097e-11 0 0)
(-1.08729086e-11 0 0)
(-9.85194413e-12 0 0)
(-1.08015125e-11 0 0)
(-9.65553857e-12 0 0)
(-9.82973254e-12 0 0)
(-9.8618637e-12 0 0)
(-1.01456318e-11 0 0)
(-1.03357646e-11 0 0)
(-1.01394745e-11 0 0)
(-9.10338051e-12 0 0)
(-1.005121e-11 0 0)
(-1.00635739e-11 0 0)
(-8.86113652e-12 0 0)
(-9.8092748e-12 0 0)
(-9.97899881e-12 0 0)
(-9.30545544e-12 0 0)
(-9.39721222e-12 0 0)
(-1.0178276e-11 0 0)
(-9.97386318e-12 0 0)
(-1.048622e-11 0 0)