/*--------------------------------*- C++ -*----------------------------------*\
| =========                 |                                                 |
| \\      /  F ield         | OpenFOAM: The Open Source CFD Toolbox           |
|  \\    /   O peration     | Version:  2206                                  |
|   \\  /    A nd           | Website:  www.openfoam.com                      |
|    \\/     M anipulation  |                                                 |
\*---------------------------------------------------------------------------*/
FoamFile
{
    version     2.0;
    format      ascii;
    arch        "LSB;label=32;scalar=64";
    class       volScalarField;
    location    "1.7e-05";
    object      p;
}
// * * * * * * * * * * * * * * * * * * * * * * * * * * * * * * * * * * * * * //

dimensions      [1 -1 -2 0 0 0 0];

internalField   nonuniform List<scalar> 
3183
(
101325
101325
101325
101325
101325
101325
101325
101325
101325
101325
101325
101325
101325
101325
101325
101325
101325
101325
101325
101325
101325
101325
101325
101325
101325
101325
101325
101325
101325
101325
101325
101325
101325
101325
101325
101325
101325
101325
101325
101325
101325
101325
101325
101325
101325
101325
101325
101325
101325
101325
101325
101325
101325
101325
101325
101325
101325
101325
101325
101325
101325
101325
101325
101325
101325
101325
101325
101325
101325
101325
101325
101325
101325
101325
101325
101325
101325
101325
101325
101325
101325
101325
101325
101325
101325
101325
101325
101325
101325
101325
101325
101325
101325
101325
101325
101325
101325
101325
101325
101325
101325
101325
101325
101325
101325
101325
101325
101325
101325
101325
101325
101325
101325
101325
101325
101325
101325
101325
101325
101325
101325
101325
101325
101325
101325
101325
101325
101325
101325
101325
101325
101325
101325
101325
101325
101325
101325
101325
101325
101325
101325
101325
101325
101325
101325
101325
101325
101325
101325
101325
101325
101325
101325
101325
101325
101325
101325
101325
101325
101325
101325
101325
101325
101325
101325
101325
101325
101325
101325
101325
101325
101325
101325
101325
101325
101325
101325
101325
101325
101325
101325
101325
101325
101325
101325
101325
101325
101325
101325
101325
101325
101325
101325
101325
101325
101325
101325
101325
101325
101325
101325
101325
101325
101325
101325
101325
101325
101325
101325
101325
101325
101325
101325
101325
101325
101325
101325
101325
101325
101325
101325
101325
101325
101325
101325
101325
101325
101325
101325
101325
101325
101325
101325
101325
101325
101325
101325
101325
101325
101325
101325
101325
101325
101325
101325
101325
101325
101325
101325
101325
101325
101325
101325
101325
101325
101325
101325
101325
101325
101325
101325
101325
101325
101325
101325
101325
101325
101325
101325
101325
101325
101325
101325
101325
101325
101325
101325
101325
101325
101325
101325
101325
101325
101325
101325
101325
101325
101325
101325
101325
101325
101325
101325
101325
101325
101325
101325
101325
101325
101325
101325
101325
101325
101325
101325
101325
101325
101325
101325
101325
101325
101325
101325
101325
101325
101325
101325
101325
101325
101325
101325
101325
101325
101325
101325
101325
101325
101325
101325
101325
101325
101325
101325
101325
101325
101325
101325
101325
101325
101325
101325
101325
101325
101325
101325
101325
101325
101325
101325
101325
101325
101325
101325
101325
101325
101325
101325
101325
101325
101325
101325
101325
101325
101325
101325
101325
101325
101325
101325
101325
101325
101325
101325
101325
101325
101325
101325
101325
101325
101325
101325
101325
101325
101325
101325
101325
101325
101325
101325
101325
101325
101325
101325
101325
101325
101325
101325
101325
101325
101325
101325
101325
101325
101325
101325
101325
101325
101325
101325
101325
101325
101325
101325
101325
101325
101325
101325
101325
101325
101325
101325
101325
101325
101325
101325
101325
101325
101325
101325
101325
101325
101325
101325
101325
101325
101325
101325
101325
101325
101325
101325
101325
101325
101325
101325
101325
101325
101325
101325
101325
101325
101325
101325
101325
101325
101325
101325
101325
101325
101325
101325
101325
101325
101325
101325
101325
101325
101325
101325
101325
101325
101325
101325
101325
101325
101325
101325
101325
101325
101325
101325
101325
101325
101325
101325
101325
101325
101325
101325
101325
101325
101325
101325
101325
101325
101325
101325
101325
101325
101325
101325
101325
101325
101325
101325
101325
101325
101325
101325
101325
101325
101325
101325
101325
101325
101325
101325
101325
101325
101325
101325
101325
101325
101325
101325
101325
101325
101325
101325
101325
101325
101325
101325
101325
101325
101325
101325
101325
101325
101325
101325
101325
101325
101325
101325
101325
101325
101325
101325
101325
101325
101325
101325
101325
101325
101325
101325
101325
101325
101325
101325
101325
101325
101325
101325
101325
101325
101325
101325
101325
101325
101325
101325
101325
101325
101325
101325
101325
101325
101325
101325
101325
101325
101325
101325
101325
101325
101325
101325
101325
101325
101325
101325
101325
101325
101325
101325
101325
101325
101325
101325
101325
101325
101325
101325
101325
101325
101325
101325
101325
101325
101325
101325
101325
101325
101325
101325
101325
101325
101325
101325
101325
101325
101325
101325
101325
101325
101325
101325
101325
101325
101325
101325
101325
101325
101325
101325
101325
101325
101325
101325
101325
101325
101325
101325
101325
101325
101325
101325
101325
101325
101325
101325
101325
101325
101325
101325
101325
101325
101325
101325
101325
101325
101325
101325
101325
101325
101325
101325
101325
101325
101325
101325
101325
101325
101325
101325
101325
101325
101325
101325
101325
101325
101325
101325
101325
101325
101325
101325
101325
101325
101325
101325
101325
101325
101325
101325
101325
101325
101325
101325
101325
101325
101325
101325
101325
101325
101325
101325
101325
101325
101325
101325
101325
101325
101325
101325
101325
101325
101325
101325
101325
101325
101325
101325
101325
101325
101325
101325
101325
101325
101325
101325
101325
101325
101325
101325
101325
101325
101325
101325
101325
101325
101325
101325
101325
101325
101325
101325
101325
101325
101325
101325
101325
101325
101325
101325
101325
101325
101325
101325
101325
101325
101325
101325
101325
101325
101325
101325
101325
101325
101325
101325
101325
101325
101325
101325
101325
101325
101325
101325
101325
101325
101325
101325
101325
101325
101325
101325
101325
101325
101325
101325
101325
101325
101325
101325
101325
101325
101325
101325
101325
101325
101325
101325
101325
101325
101325
101325
101325
101325
101325
101325
101325
101325
101325
101325
101325
101325
101325
101325
101325
101325
101325
101325
101325
101325
101325
101325
101325
101325
101325
101325
101325
101325
101325
101325
101325
101325
101325
101325
101325
101325
101325
101325
101325
101325
101325
101325
101325
101325
101325
101325
101325
101325
101325
101325
101325
101325
101325
101325
101325
101325
101325
101325
101325
101325
101325
101325
101325
101325
101325
101325
101325
101325
101325
101325
101325
101325
101325
101325
101325
101325
101325
101325
101325
101325
101325
101325
101325
101325
101325
101325
101325
101325
101325
101325
101325
101325
101325
101325
101325
101325
101325
101325
101325
101325
101325
101325
101325
101325
101325
101325
101325
101325
101325
101325
101325
101325
101325
101325
101325
101325
101325
101325
101325
101325
101325
101325
101325
101325
101325
101325
101325
101325
101325
101325
101325
101325
101325
101325
101325
101325
101325
101325
101325
101325
101325
101325
101325
101325
101325
101325
101325
101325
101325
101325
101325
101325
101325
101325
101325
101325
101325
101325
101325
101325
101325
101325
101325
101325
101325
101325
101325
101325
101325
101325
101325
101325
101325
101325
101325
101325
101325
101325
101325
101325
101325
101325
101325
101325
101325
101325
101325
101325
101325
101325
101325
101325
101325
101325
101325
101325
101325
101325
101325
101325
101325
101325
101325
101325
101325
101325
101325
101325
101325
101325
101325
101325
101325
101325
101325
101325
101325
101325
101325
101325
101325
101325
101325
101325
101325
101325
101325
101325
101325
101325
101325
101325
101325
101325
101325
101325
101325
101325
101325
101325
101325
101325
101325
101325
101325
101325
101325
101325
101325
101325
101325
101325
101325
101325
101325
101325
101325
101325
101325
101325
101325
101325
101325
101325
101325
101325
101325
101325
101325
101325
101325
101325
101325
101325
101325
101325
101325
101325
101325
101325
101325
101325
101325
101325
101325
101325
101325
101325
101325
101325
101325
101325
101325
101325
101325
101325
101325
101325
101325
101325
101325
101325
101325
101325
101325
101325
101325
101325
101325
101325
101325
101325
101325
101325
101325
101325
101325
101325
101325
101325
101325
101325
101325
101325
101325
101325
101325
101325
101325
101325
101325
101325
101325
101325
101325
101325
101325
101325
101325
101325
101325
101325
101325
101325
101325
101325
101325
101325
101325
101325
101325
101325
101325
101325
101325
101325
101325
101325
101325
101325
101325
101325
101325
101325
101325
101325
101325
101325
101325
101325
101325
101325
101325
101325
101325
101325
101325
101325
101325
101325
101325
101325
101325
101325
101325
101325
101325
101325
101325
101325
101325
101325
101325
101325
101325
101325
101325
101325
101325
101325
101325
101325
101325
101325
101325
101325
101325
101325
101325
101325
101325
101325
101325
101325
101325
101325
101325
101325
101325
101325
101325
101325
101325
101325
101325
101325
101325
101325
101325
101325
101325
101325
101325
101325
101325
101325
101325
101325
101325
101325
101325
101325
101325
101325
101325
101325
101325
101325
101325
101325
101325
101325
101325
101325
101325
101325
101325
101325
101325
101325
101325
101325
101325
101325
101325
101325
101325
101325
101325
101325
101325
101325
101325
101325
101325
101325
101325
101325
101325
101325
101325
101325
101325
101325
101325
101325
101325
101325
101325
101325
101325
101325
101325
101325
101325
101325
101325
101325
101325
101325
101325
101325
101325
101325
101325
101325
101325
101325
101325
101325
101325
101325
101325
101325
101325
101325
101325
101325
101325
101325
101325
101325
101325
101325
101325
101325
101325
101325
101325
101325
101325
101325
101325
101325
101325
101325
101325
101325
101325
101325
101325
101325
101325
101325
101325
101325
101325
101325
101325
101325
101325
101325
101325
101325
101325
101325
101325
101325
101325
101325
101325
101325
101325
101325
101325
101325
101325
101325
101325
101325
101325
101325
101325
101325
101325
101325
101325
101325
101325
101325
101325
101325
101325
101325
101325
101325
101325
101325
101325
101325
101325
101325
101325
101325
101325
101325
101325
101325
101325
101325
101325
101325
101325
101325
101325
101325
101325
101325
101325
101325
101325
101325
101325
101325
101325
101325
101325
101325
101325
101325
101325
101325
101325
101325
101325
101325
101325
101325
101325
101325
101325
101325
101325
101325
101325
101325
101325
101325
101325
101325
101325
101325
101325
101325
101325
101325
101325
101325
101325
101325
101325
101325
101325
101325
101325
101325
101325
101325
101325
101325
101325
101325
101325
101325
101325
101325
101325
101325
101325
101325
101325
101325
101325
101325
101325
101325
101325
101325
101325
101325
101325
101325
101325
101325
101325
101325
101325
101325
101325
101325
101325
101325
101325
101325
101325
101325
101325
101325
101325
101325
101325
101325
101325
101325
101325
101325
101325
101325
101325
101325
101325
101325
101325
101325
101325
101325
101325
101325
101325
101325
101325
101325
101325
101325
101325
101325
101325
101325
101325
101325
101325
101325
101325
101325
101325
101325
101325
101325
101325
101325
101325
101325
101325
101325
101325
101325
101325
101325
101325
101325
101325
101325
101325
101325
101325
101325
101325
101325
101325
101325
101325
101325
101325
101325
101325
101325
101325
101325
101325
101325
101325
101325
101325
101325
101325
101325
101325
101325
101325
101325
101325
101325
101325
101325
101325
101325
101325
101325
101325
101325
101325
101325
101325
101325
101325
101325
101325
101325
101325
101325
101325
101325
101325
101325
101325
101325
101325
101325
101325
101325
101325
101325
101325
101325
101325
101325
101325
101325
101325
101325
101325
101325
101325
101325
101325
101325
101325
101325
101325
101325
101325
101325
101325
101325
101325
101325
101325
101325
101325
101325
101325
101325
101325
101325
101325
101325
101325
101325
101325
101325
101325
101325
101325
101325
101325
101325
101325
101325
101325
101325
101325
101325
101325
101325
101325
101325
101325
101325
101325
101325
101325
101325
101325
101325
101325
101325
101325
101325
101325
101325
101325
101325
101325
101325
101325
101325
101325
101325
101325
101325
101325
101325
101325
101325
101325
101325
101325
101325
101325
101325
101325
101325
101325
101325
101325
101325
101325
101325
101325
101325
101325
101325
101325
101325
101325
101325
101325
101325
101325
101325
101325
101325
101325
101325
101325
101325
101325
101325
101325
101325
101325
101325
101325
101325
101325
101325
101325
101325
101325
101325
101325
101325
101325
101325
101325
101325
101325
101325
101325
101325
101325
101325
101325
101325
101325
101325
101325
101325
101325
101325
101325
101325
101325
101325
101325
101325
101325
101325
101325
101325
101325
101325
101325
101325
101324.999
101324.999
101324.999
101324.999
101324.999
101324.999
101324.999
101324.999
101324.999
101324.999
101324.999
101324.999
101324.999
101324.999
101324.999
101324.999
101324.999
101324.999
101324.999
101324.998
101324.998
101324.998
101324.998
101324.998
101324.998
101324.998
101324.998
101324.998
101324.997
101324.997
101324.997
101324.997
101324.997
101324.997
101324.996
101324.996
101324.996
101324.996
101324.996
101324.995
101324.995
101324.995
101324.994
101324.994
101324.994
101324.994
101324.993
101324.993
101324.992
101324.992
101324.992
101324.991
101324.991
101324.99
101324.99
101324.989
101324.988
101324.988
101324.987
101324.986
101324.986
101324.985
101324.984
101324.983
101324.982
101324.982
101324.981
101324.98
101324.979
101324.977
101324.976
101324.975
101324.974
101324.972
101324.971
101324.97
101324.968
101324.966
101324.965
101324.963
101324.961
101324.959
101324.957
101324.955
101324.953
101324.95
101324.948
101324.945
101324.943
101324.94
101324.937
101324.934
101324.931
101324.928
101324.924
101324.921
101324.917
101324.913
101324.909
101324.904
101324.9
101324.895
101324.89
101324.885
101324.88
101324.874
101324.869
101324.863
101324.856
101324.85
101324.843
101324.836
101324.829
101324.821
101324.813
101324.805
101324.796
101324.787
101324.778
101324.768
101324.758
101324.747
101324.736
101324.725
101324.713
101324.701
101324.688
101324.675
101324.661
101324.647
101324.632
101324.616
101324.6
101324.584
101324.567
101324.549
101324.53
101324.511
101324.492
101324.471
101324.45
101324.428
101324.405
101324.381
101324.357
101324.331
101324.305
101324.278
101324.25
101324.221
101324.191
101324.16
101324.128
101324.095
101324.061
101324.026
101323.989
101323.951
101323.913
101323.873
101323.831
101323.789
101323.745
101323.699
101323.652
101323.604
101323.555
101323.503
101323.451
101323.397
101323.341
101323.283
101323.224
101323.163
101323.101
101323.036
101322.97
101322.902
101322.832
101322.76
101322.687
101322.611
101322.533
101322.453
101322.371
101322.287
101322.201
101322.113
101322.022
101321.929
101321.834
101321.736
101321.636
101321.534
101321.429
101321.322
101321.212
101321.1
101320.985
101320.868
101320.748
101320.626
101320.5
101320.372
101320.242
101320.108
101319.972
101319.833
101319.692
101319.547
101319.4
101319.25
101319.097
101318.941
101318.782
101318.62
101318.456
101318.288
101318.118
101317.945
101317.769
101317.59
101317.408
101317.223
101317.036
101316.845
101316.652
101316.456
101316.257
101316.055
101315.85
101315.643
101315.433
101315.22
101315.005
101314.787
101314.567
101314.344
101314.118
101313.89
101313.66
101313.427
101313.192
101312.955
101312.716
101312.474
101312.231
101311.985
101311.738
101311.489
101311.238
101310.985
101310.731
101310.475
101310.218
101309.96
101309.701
101309.44
101309.178
101308.916
101308.652
101308.388
101308.123
101307.858
101307.593
101307.327
101307.061
101306.795
101306.529
101306.263
101305.998
101305.733
101305.468
101305.205
101304.942
101304.68
101304.419
101304.16
101303.901
101303.645
101303.39
101303.136
101302.885
101302.636
101302.388
101302.143
101301.901
101301.661
101301.424
101301.189
101300.958
101300.729
101300.504
101300.282
101300.063
101299.848
101299.637
101299.429
101299.226
101299.026
101298.83
101298.639
101298.452
101298.27
101298.091
101297.918
101297.749
101297.585
101297.426
101297.272
101297.123
101296.979
101296.841
101296.707
101296.579
101296.456
101296.338
101296.226
101296.12
101296.019
101295.923
101295.833
101295.749
101295.67
101295.597
101295.53
101295.468
101295.412
101295.361
101295.316
101295.277
101295.243
101295.215
101295.192
101295.175
101295.163
101295.157
101295.156
101295.16
101295.169
101295.184
101295.204
101295.228
101295.258
101295.293
101295.332
101295.376
101295.425
101295.478
101295.536
101295.598
101295.664
101295.734
101295.809
101295.887
101295.969
101296.055
101296.144
101296.236
101296.332
101296.432
101296.534
101296.639
101296.747
101296.858
101296.971
101297.087
101297.205
101297.325
101297.447
101297.571
101297.697
101297.825
101297.954
101298.085
101298.217
101298.35
101298.484
101298.619
101298.755
101298.892
101299.03
101299.167
101299.306
101299.444
101299.583
101299.722
101299.86
101299.999
101300.137
101300.275
101300.413
101300.55
101300.687
101300.823
101300.958
101301.092
101301.226
101301.358
101301.49
101301.62
101301.75
101301.878
101302.005
101302.131
101302.255
101302.378
101302.5
101302.62
101302.739
101302.856
101302.972
101303.086
101303.199
101303.31
101303.419
101303.527
101303.633
101303.738
101303.841
101303.942
101304.042
101304.14
101304.237
101304.331
101304.425
101304.516
101304.606
101304.695
101304.782
101304.867
101304.951
101305.033
101305.114
101305.194
101305.272
101305.348
101305.423
101305.497
101305.57
101305.641
101305.711
101305.78
101305.847
101305.913
101305.979
101306.043
101306.106
101306.168
101306.228
101306.288
101306.347
101306.405
101306.462
101306.519
101306.574
101306.629
101306.682
101306.735
101306.788
101306.839
101306.89
101306.941
101306.99
101307.039
101307.088
101307.136
101307.183
101307.23
101307.277
101307.323
101307.368
101307.414
101307.458
101307.503
101307.547
101307.59
101307.633
101307.676
101307.719
101307.761
101307.803
101307.845
101307.886
101307.928
101307.968
101308.009
101308.049
101308.089
101308.129
101308.169
101308.208
101308.247
101308.286
101308.325
101308.363
101308.401
101308.439
101308.477
101308.514
101308.551
101308.588
101308.625
101308.661
101308.697
101308.733
101308.768
101308.803
101308.838
101308.872
101308.907
101308.941
101308.974
101309.007
101309.04
101309.073
101309.105
101309.137
101309.168
101309.199
101309.23
101309.26
101309.29
101309.32
101309.349
101309.378
101309.406
101309.434
101309.461
101309.489
101309.515
101309.542
101309.567
101309.593
101309.618
101309.643
101309.667
101309.691
101309.714
101309.737
101309.76
101309.782
101309.804
101309.826
101309.847
101309.868
101309.888
101309.908
101309.928
101309.948
101309.967
101309.986
101310.004
101310.023
101310.041
101310.059
101310.076
101310.094
101310.111
101310.128
101310.145
101310.161
101310.178
101310.194
101310.21
101310.227
101310.243
101310.259
101310.275
101310.29
101310.306
101310.322
101310.338
101310.354
101310.37
101310.386
101310.401
101310.417
101310.434
101310.45
101310.466
101310.482
101310.499
101310.515
101310.532
101310.549
101310.566
101310.583
101310.6
101310.618
101310.635
101310.653
101310.671
101310.689
101310.708
101310.726
101310.745
101310.763
101310.782
101310.801
101310.821
101310.84
101310.86
101310.879
101310.899
101310.919
101310.939
101310.959
101310.98
101311
101311.02
101311.041
101311.061
101311.082
101311.103
101311.123
101311.144
101311.165
101311.185
101311.206
101311.226
101311.247
101311.267
101311.287
101311.308
101311.328
101311.348
101311.368
101311.387
101311.407
101311.426
101311.445
101311.464
101311.483
101311.502
101311.52
101311.538
101311.556
101311.574
101311.592
101311.609
101311.626
101311.643
101311.659
101311.676
101311.692
101311.708
101311.723
101311.739
101311.754
101311.769
101311.783
101311.798
101311.812
101311.826
101311.84
101311.853
101311.867
101311.88
101311.893
101311.905
101311.918
101311.93
101311.943
101311.955
101311.967
101311.979
101311.99
101312.002
101312.013
101312.024
101312.036
101312.047
101312.058
101312.069
101312.079
101312.09
101312.101
101312.111
101312.122
101312.132
101312.143
101312.153
101312.163
101312.174
101312.184
101312.194
101312.204
101312.214
101312.224
101312.234
101312.244
101312.253
101312.263
101312.273
101312.283
101312.292
101312.302
101312.311
101312.321
101312.33
101312.34
101312.349
101312.358
101312.367
101312.377
101312.386
101312.395
101312.404
101312.413
101312.421
101312.43
101312.439
101312.448
101312.456
101312.465
101312.474
101312.482
101312.491
101312.499
101312.508
101312.516
101312.524
101312.533
101312.541
101312.55
101312.558
101312.567
101312.575
101312.583
101312.592
101312.6
101312.609
101312.618
101312.626
101312.635
101312.644
101312.653
101312.662
101312.671
101312.68
101312.689
101312.699
101312.708
101312.718
101312.727
101312.737
101312.747
101312.758
101312.768
101312.779
101312.789
101312.8
101312.812
101312.823
101312.835
101312.847
101312.859
101312.872
101312.885
101312.899
101312.914
101312.929
101312.944
101312.961
101312.978
101312.996
101313.015
101313.036
101313.058
101313.081
101313.106
101313.133
101313.162
101313.193
101313.226
101313.262
101313.302
101313.344
101313.389
101313.438
101313.492
101313.549
101313.611
101313.677
101313.749
101313.826
101313.908
101313.996
101314.09
101314.19
101314.296
101314.407
101314.525
101314.648
101314.777
101314.911
101315.05
101315.192
101315.338
101315.485
101315.635
101315.784
101315.931
101316.076
101316.217
101316.351
101316.477
101316.595
101316.701
101316.794
101316.874
101316.939
101316.99
101317.026
101317.048
101317.059
101317.06
101317.055
101317.056
101317.093
101317.061
101317.508
101317.594
101317.515
101316.994
101316.833
101316.754
101316.788
101316.783
101316.815
101316.8
101316.812
101316.786
101316.764
101316.72
101316.675
101316.621
101316.565
101316.505
101316.443
101316.379
101316.314
101316.247
101316.179
101316.11
101316.039
101315.968
101315.896
101315.824
101315.751
101315.678
101315.606
101315.533
101315.46
101315.388
101315.317
101315.246
101315.176
101315.106
101315.038
101314.97
101314.904
101314.839
101314.775
101314.712
101314.651
101314.59
101314.532
101314.474
101314.418
101314.364
101314.311
101314.259
101314.209
101314.16
101314.112
101314.066
101314.021
101313.978
101313.936
101313.896
101313.857
101313.819
101313.782
101313.747
101313.712
101313.679
101313.648
101313.617
101313.587
101313.559
101313.531
101313.505
101313.479
101313.455
101313.431
101313.409
101313.387
101313.366
101313.345
101313.326
101313.307
101313.289
101313.272
101313.255
101313.239
101313.224
101313.209
101313.195
101313.181
101313.167
101313.155
101313.142
101313.13
101313.119
101313.107
101313.097
101313.086
101313.076
101313.066
101313.057
101313.048
101313.039
101313.03
101313.022
101313.013
101313.005
101312.997
101312.99
101312.982
101312.975
101312.968
101312.961
101312.954
101312.947
101312.941
101312.934
101312.928
101312.921
101312.915
101312.909
101312.903
101312.897
101312.891
101312.886
101312.88
101312.874
101312.868
101312.863
101312.857
101312.852
101312.846
101312.841
101312.836
101312.83
101312.825
101312.82
101312.815
101312.81
101312.804
101312.799
101312.794
101312.789
101312.784
101312.779
101312.774
101312.769
101312.765
101312.76
101312.755
101312.75
101312.745
101312.74
101312.736
101312.731
101312.726
101312.722
101312.717
101312.712
101312.708
101312.703
101312.699
101312.694
101312.69
101312.685
101312.681
101312.676
101312.672
101312.667
101312.663
101312.658
101312.654
101312.65
101312.645
101312.641
101312.637
101312.633
101312.628
101312.624
101312.62
101312.615
101312.611
101312.607
101312.603
101312.598
101312.594
101312.59
101312.586
101312.582
101312.577
101312.573
101312.569
101312.565
101312.561
101312.556
101312.552
101312.548
101312.544
101312.54
101312.536
101312.531
101312.527
101312.523
101312.519
101312.514
101312.51
101312.506
101312.502
101312.497
101312.493
101312.489
101312.485
101312.48
101312.476
101312.472
101312.467
101312.463
101312.459
101312.454
101312.45
101312.445
101312.441
101312.436
101312.432
101312.427
101312.423
101312.418
101312.414
101312.409
101312.405
101312.4
101312.395
101312.391
101312.386
101312.382
101312.377
101312.372
101312.367
101312.363
101312.358
101312.353
101312.348
101312.344
101312.339
101312.334
101312.329
101312.324
101312.319
101312.314
101312.309
101312.304
101312.299
101312.294
101312.289
101312.284
101312.279
101312.274
101312.269
101312.264
101312.259
101312.254
101312.249
101312.243
101312.238
101312.233
101312.228
101312.222
101312.217
101312.212
101312.207
101312.201
101312.196
101312.191
101312.185
101312.18
101312.174
101312.169
101312.164
101312.158
101312.153
101312.147
101312.142
101312.136
101312.131
101312.125
101312.119
101312.114
101312.108
101312.103
101312.097
101312.091
101312.085
101312.08
101312.074
101312.068
101312.062
101312.056
101312.051
101312.045
101312.039
101312.033
101312.027
101312.021
101312.015
101312.009
101312.003
101311.996
101311.99
101311.984
101311.978
101311.972
101311.965
101311.959
101311.953
101311.946
101311.94
101311.933
101311.927
101311.92
101311.913
101311.907
101311.9
101311.893
101311.887
101311.88
101311.873
101311.866
101311.859
101311.852
101311.845
101311.838
101311.831
101311.823
101311.816
101311.809
101311.801
101311.794
101311.787
101311.779
101311.771
101311.764
101311.756
101311.748
101311.74
101311.733
101311.725
101311.717
101311.709
101311.7
101311.692
101311.684
101311.676
101311.667
101311.659
101311.651
101311.642
101311.634
101311.625
101311.616
101311.607
101311.599
101311.59
101311.581
101311.572
101311.563
101311.554
101311.545
101311.535
101311.526
101311.517
101311.507
101311.498
101311.489
101311.479
101311.469
101311.46
101311.45
101311.44
101311.431
101311.421
101311.411
101311.401
101311.391
101311.381
101311.371
101311.361
101311.351
101311.341
101311.331
101311.321
101311.31
101311.3
101311.29
101311.279
101311.269
101311.259
101311.248
101311.238
101311.228
101311.217
101311.207
101311.196
101311.186
101311.175
101311.165
101311.154
101311.144
101311.133
101311.122
101311.112
101311.101
101311.091
101311.08
101311.07
101311.059
101311.049
101311.038
101311.027
101311.017
101311.006
101310.996
101310.985
101310.975
101310.964
101310.954
101310.944
101310.933
101310.923
101310.912
101310.902
101310.892
101310.881
101310.871
101310.861
101310.851
101310.841
101310.83
101310.82
101310.81
101310.8
101310.79
101310.78
101310.77
101310.76
101310.75
101310.74
101310.731
101310.721
101310.711
101310.701
101310.692
101310.682
101310.672
101310.663
101310.653
101310.644
101310.634
101310.625
101310.615
101310.606
101310.597
101310.587
101310.578
101310.569
101310.56
101310.55
101310.541
101310.532
101310.523
101310.514
101310.505
101310.496
101310.487
101310.478
101310.469
101310.46
101310.452
101310.443
101310.434
101310.425
101310.416
101310.408
101310.399
101310.39
101310.381
101310.373
101310.364
101310.355
101310.347
101310.338
101310.329
101310.321
101310.312
101310.304
101310.295
101310.286
101310.278
101310.269
101310.26
101310.252
101310.243
101310.234
101310.226
101310.217
101310.208
101310.198
101310.188
101310.177
101310.165
101310.152
101310.138
101310.123
101310.106
101310.089
101310.07
101310.049
101310.027
101310.003
101309.977
101309.948
101309.917
101309.883
101309.845
101309.803
101309.757
101309.707
101309.65
101309.588
101309.518
101309.439
101309.352
101309.253
101309.143
101309.02
101308.881
101308.727
101308.555
101308.363
101308.151
101307.916
101307.654
101307.363
101307.034
101306.657
101306.212
101305.672
101304.996
101304.13
101303.011
101301.583
101299.828
101297.82
101295.794
101294.195
101293.646
101294.778
101297.94
101302.918
101308.872
101314.602
101319.132
101322.114
101323.764
101324.538
101324.849
101324.957
101324.99
101324.998
101325
101325.001
101325.001
101325.001
101325.001
101325.001
101325.001
101325.001
101325.001
101325.001
101325.001
101325
101325
)
;

boundaryField
{
    closed
    {
        type            zeroGradient;
    }
    open
    {
        type            waveTransmissive;
        gamma           1.25;
        fieldInf        101325;
        lInf            1;
        value           uniform 101325;
    }
    sides
    {
        type            empty;
    }
}


// ************************************************************************* //
