/*--------------------------------*- C++ -*----------------------------------*\
| =========                 |                                                 |
| \\      /  F ield         | OpenFOAM: The Open Source CFD Toolbox           |
|  \\    /   O peration     | Version:  2206                                  |
|   \\  /    A nd           | Website:  www.openfoam.com                      |
|    \\/     M anipulation  |                                                 |
\*---------------------------------------------------------------------------*/
FoamFile
{
    version     2.0;
    format      ascii;
    arch        "LSB;label=32;scalar=64";
    class       surfaceScalarField;
    location    "1.7e-05";
    object      phi;
}
// * * * * * * * * * * * * * * * * * * * * * * * * * * * * * * * * * * * * * //

dimensions      [1 0 -1 0 0 0 0];

oriented        oriented;

internalField   nonuniform List<scalar> 
3182
(
6.03545613e-18
-1.97550905e-18
-2.91168716e-18
-2.31461111e-18
-9.03626308e-21
-4.48408634e-23
-3.13162203e-24
2.18741866e-25
8.83918592e-24
1.95998077e-22
2.21120037e-19
4.69983076e-18
3.73050831e-18
1.42706504e-18
1.14270614e-18
-1.42809993e-18
-5.34194259e-18
-4.62132192e-18
-5.57764885e-18
4.15109941e-18
7.90782523e-20
4.02955342e-21
1.66593204e-18
2.60662071e-18
4.34949743e-18
6.91809199e-18
4.78898953e-18
2.43277786e-18
2.5751195e-19
-9.70785792e-19
-3.94156237e-19
-1.4210954e-18
-5.32082281e-18
-5.77214669e-18
-3.54553094e-18
-5.50705439e-18
-9.2378025e-18
-8.46044808e-18
-7.05458898e-18
-4.23855225e-18
-2.48257499e-18
1.22300693e-18
3.58165662e-18
6.89852957e-18
9.47254813e-18
1.18205244e-17
1.26675789e-17
1.10453365e-17
8.55843649e-18
6.514094e-18
2.71929704e-18
-1.26047761e-18
-4.33108926e-18
-7.03331688e-18
-1.14820021e-17
-1.55882023e-17
-1.88534572e-17
-2.25307933e-17
-2.53765952e-17
-2.77795808e-17
-2.99376891e-17
-3.21587224e-17
-3.39456808e-17
-3.56248353e-17
-3.68640725e-17
-3.70881083e-17
-3.71027898e-17
-3.81499256e-17
-3.90364003e-17
-4.00088746e-17
-4.12429865e-17
-4.14585579e-17
-4.24678615e-17
-4.39782123e-17
-4.39980563e-17
-4.57078215e-17
-4.61964086e-17
-4.66360998e-17
-4.76497366e-17
-5.09803127e-17
-5.24221324e-17
-5.23098145e-17
-5.35662033e-17
-5.5324135e-17
-5.5030099e-17
-5.63054943e-17
-5.93073452e-17
-5.95357595e-17
-6.19257852e-17
-6.00226065e-17
-6.21190622e-17
-6.25278602e-17
-6.46239542e-17
-6.31613835e-17
-6.48498929e-17
-6.55628268e-17
-6.59743276e-17
-6.79648885e-17
-6.53855742e-17
-6.27091714e-17
-6.26146128e-17
-6.39911668e-17
-6.57520555e-17
-6.26052338e-17
-6.43656855e-17
-6.31414185e-17
-6.22332014e-17
-6.11436855e-17
-6.50676393e-17
-6.55907992e-17
-6.28003847e-17
-6.69803379e-17
-6.5920646e-17
-6.75729672e-17
-6.93548824e-17
-6.95923556e-17
-7.18874543e-17
-7.14784259e-17
-7.12056725e-17
-7.02557483e-17
-7.15174519e-17
-7.36804192e-17
-7.29440234e-17
-7.2254279e-17
-7.28607332e-17
-7.44649078e-17
-7.67917981e-17
-8.02334491e-17
-8.02026314e-17
-7.86518561e-17
-8.14842916e-17
-8.08824023e-17
-8.16531523e-17
-8.48745269e-17
-8.56098473e-17
-8.47940158e-17
-8.74097513e-17
-8.72781607e-17
-8.75882929e-17
-8.89793401e-17
-8.71880045e-17
-8.83553258e-17
-9.04090637e-17
-8.99689022e-17
-9.23512119e-17
-8.97376368e-17
-9.03134483e-17
-8.82502074e-17
-8.87171956e-17
-8.98062511e-17
-8.86893739e-17
-8.99150478e-17
-8.6068645e-17
-8.56431786e-17
-8.68011045e-17
-8.35513923e-17
-8.62167577e-17
-8.71436339e-17
-8.58334146e-17
-8.55508975e-17
-8.46833189e-17
-8.47409086e-17
-8.9290279e-17
-8.562833e-17
-8.14771809e-17
-8.42043927e-17
-8.85165349e-17
-8.61239824e-17
-8.85442233e-17
-8.63218522e-17
-8.40287318e-17
-8.30172419e-17
-8.44619927e-17
-8.86675888e-17
-8.61939359e-17
-8.58525674e-17
-8.36305687e-17
-8.29252393e-17
-8.54630513e-17
-8.58330949e-17
-8.90448456e-17
-9.1741515e-17
-9.13691477e-17
-9.32005486e-17
-9.35191861e-17
-9.30883132e-17
-9.48112242e-17
-9.27578016e-17
-9.23873005e-17
-9.09511459e-17
-9.40871388e-17
-9.19077302e-17
-9.4516628e-17
-9.61662049e-17
-9.34745416e-17
-9.43990061e-17
-9.0996675e-17
-9.16997572e-17
-9.23650309e-17
-9.22095681e-17
-9.16701916e-17
-9.42151717e-17
-9.52076829e-17
-9.6131937e-17
-9.71532946e-17
-9.81731868e-17
-1.00747589e-16
-1.01031912e-16
-1.02289055e-16
-1.04350836e-16
-1.04519831e-16
-1.05196176e-16
-1.06757958e-16
-1.065153e-16
-1.0564495e-16
-1.06150969e-16
-1.06797987e-16
-1.06069637e-16
-1.08132448e-16
-1.09657152e-16
-1.09042513e-16
-1.11551048e-16
-1.07092352e-16
-1.07031762e-16
-1.06117852e-16
-1.07967737e-16
-1.09596471e-16
-1.09310464e-16
-1.06670566e-16
-1.06115765e-16
-1.05400159e-16
-1.06025895e-16
-1.06059174e-16
-1.06429109e-16
-1.03100038e-16
-1.04937274e-16
-1.05917885e-16
-1.09044301e-16
-1.0514613e-16
-1.05261247e-16
-1.0432596e-16
-1.06229105e-16
-1.04083896e-16
-1.08085182e-16
-1.08395878e-16
-1.06461447e-16
-1.07527939e-16
-1.05790941e-16
-1.06093997e-16
-1.06075657e-16
-1.02559003e-16
-1.03108405e-16
-1.03879022e-16
-1.02671521e-16
-1.01740873e-16
-1.02223044e-16
-1.0499637e-16
-1.09295157e-16
-1.09202823e-16
-1.12018857e-16
-1.11036518e-16
-1.13850019e-16
-1.12046693e-16
-1.10412253e-16
-1.11664337e-16
-1.14683979e-16
-1.16187803e-16
-1.17358083e-16
-1.1645193e-16
-1.20029587e-16
-1.19294152e-16
-1.19547903e-16
-1.21015885e-16
-1.19985994e-16
-1.23800764e-16
-1.22361605e-16
-1.22720731e-16
-1.26518752e-16
-1.29597146e-16
-1.28891319e-16
-1.29243652e-16
-1.27626875e-16
-1.29025673e-16
-1.29179663e-16
-1.32106908e-16
-1.29873557e-16
-1.28441101e-16
-1.28032901e-16
-1.28803503e-16
-1.27527153e-16
-1.24811802e-16
-1.24080494e-16
-1.26340003e-16
-1.26792163e-16
-1.2777889e-16
-1.26468839e-16
-1.29314002e-16
-1.34267782e-16
-1.31413245e-16
-1.31234592e-16
-1.30289433e-16
-1.29458492e-16
-1.27674197e-16
-1.27946846e-16
-1.26537551e-16
-1.27352223e-16
-1.32084669e-16
-1.33470343e-16
-1.32836438e-16
-1.35086645e-16
-1.35926181e-16
-1.36110965e-16
-1.36074621e-16
-1.36196531e-16
-1.35150001e-16
-1.37271017e-16
-1.37019732e-16
-1.38769853e-16
-1.4077379e-16
-1.3819968e-16
-1.39256625e-16
-1.39105136e-16
-1.35910722e-16
-1.37234741e-16
-1.37868089e-16
-1.3599124e-16
-1.34887504e-16
-1.3333113e-16
-1.34258984e-16
-1.32068257e-16
-1.30554406e-16
-1.30426782e-16
-1.28526573e-16
-1.27332028e-16
-1.26454205e-16
-1.254084e-16
-1.25821895e-16
-1.29802716e-16
-1.27612643e-16
-1.2369444e-16
-1.28360643e-16
-1.2544891e-16
-1.27362037e-16
-1.24309708e-16
-1.27290334e-16
-1.27552701e-16
-1.27956815e-16
-1.28128895e-16
-1.25233381e-16
-1.25049043e-16
-1.2680487e-16
-1.24813692e-16
-1.27853291e-16
-1.23913397e-16
-1.25437106e-16
-1.23410615e-16
-1.23722342e-16
-1.21921026e-16
-1.21351164e-16
-1.20044414e-16
-1.22745982e-16
-1.23193534e-16
-1.19657293e-16
-1.20516338e-16
-1.19833116e-16
-1.19295429e-16
-1.20940596e-16
-1.1977077e-16
-1.20580606e-16
-1.19898384e-16
-1.15869547e-16
-1.17020687e-16
-1.16917532e-16
-1.12641388e-16
-1.12638923e-16
-1.14319095e-16
-1.13076087e-16
-1.10675798e-16
-1.06148361e-16
-1.10575825e-16
-1.09026634e-16
-1.08563214e-16
-1.10064626e-16
-1.1129851e-16
-1.09201231e-16
-1.0865735e-16
-1.07547921e-16
-1.06433535e-16
-1.0881002e-16
-1.09749158e-16
-1.06558502e-16
-1.08622151e-16
-1.05722501e-16
-1.04053416e-16
-1.02419701e-16
-1.09066764e-16
-1.11232517e-16
-1.07194702e-16
-1.03619681e-16
-1.06831004e-16
-1.04533699e-16
-1.07331089e-16
-1.06747086e-16
-1.059338e-16
-1.01414614e-16
-9.71992341e-17
-1.00735399e-16
-9.86753743e-17
-1.00478571e-16
-9.52189193e-17
-8.97271933e-17
-9.32267078e-17
-8.9893855e-17
-9.36364887e-17
-9.30458039e-17
-8.97366617e-17
-8.79483196e-17
-8.92099488e-17
-8.95674005e-17
-8.77286073e-17
-8.77846381e-17
-8.79411825e-17
-8.49751177e-17
-8.55854811e-17
-8.60987573e-17
-8.60310354e-17
-8.42517134e-17
-8.47586135e-17
-8.05319643e-17
-8.33712365e-17
-8.48361928e-17
-8.55772138e-17
-8.33748354e-17
-8.33209965e-17
-8.64355142e-17
-8.5903412e-17
-8.43323565e-17
-8.33006214e-17
-8.3096719e-17
-8.51268269e-17
-8.37525027e-17
-8.26302288e-17
-8.3568147e-17
-8.35342214e-17
-8.51359102e-17
-8.44205276e-17
-8.10627092e-17
-8.60935988e-17
-8.63810396e-17
-8.87491117e-17
-8.58112737e-17
-8.70049284e-17
-8.7331676e-17
-8.55888163e-17
-8.78252434e-17
-8.59158858e-17
-8.39393786e-17
-8.33935837e-17
-8.37226991e-17
-8.52273839e-17
-8.60363377e-17
-8.46082685e-17
-8.11419303e-17
-8.02558914e-17
-8.29674267e-17
-7.84486862e-17
-7.75952455e-17
-7.61670946e-17
-7.81032788e-17
-7.45690335e-17
-7.35063486e-17
-7.25318409e-17
-7.20370879e-17
-7.21189379e-17
-7.49845792e-17
-7.23810937e-17
-7.45838971e-17
-7.35010444e-17
-7.20674632e-17
-7.08643605e-17
-7.27241808e-17
-7.04867569e-17
-6.79078153e-17
-6.77838894e-17
-6.72532736e-17
-6.81702827e-17
-6.81183328e-17
-6.74801185e-17
-6.45900909e-17
-6.74963049e-17
-6.63692308e-17
-6.60121505e-17
-6.79048595e-17
-7.00505186e-17
-6.82183748e-17
-6.95464831e-17
-6.84388422e-17
-6.95665581e-17
-6.80587523e-17
-6.5840206e-17
-6.46507252e-17
-6.29705457e-17
-6.42727292e-17
-6.33436971e-17
-6.18991129e-17
-5.87745611e-17
-6.11899949e-17
-5.63738493e-17
-5.72108414e-17
-5.67607436e-17
-5.49535916e-17
-5.51751717e-17
-5.54190391e-17
-5.4902684e-17
-5.20037737e-17
-5.41168367e-17
-5.34298149e-17
-5.25662972e-17
-5.52473729e-17
-5.42057382e-17
-5.10286952e-17
-4.99635772e-17
-5.1543667e-17
-5.05851732e-17
-5.01078526e-17
-4.71495393e-17
-4.78545968e-17
-4.59597512e-17
-4.32068103e-17
-4.20227614e-17
-4.4670922e-17
-4.4486156e-17
-4.60228157e-17
-4.33651638e-17
-4.27659219e-17
-4.47794289e-17
-4.42803775e-17
-4.06698368e-17
-4.04470988e-17
-3.41609634e-17
-3.56998497e-17
-3.62570254e-17
-3.39119144e-17
-3.28314108e-17
-3.23350027e-17
-3.43008347e-17
-3.51757762e-17
-3.54239039e-17
-3.20921306e-17
-3.51494736e-17
-3.19631802e-17
-3.02283888e-17
-2.93435102e-17
-2.83251428e-17
-2.66693307e-17
-2.68862779e-17
-2.67562617e-17
-2.90497169e-17
-3.07168721e-17
-2.93842721e-17
-3.0756674e-17
-2.99687621e-17
-2.6180836e-17
-2.38765111e-17
-2.54113773e-17
-2.31027336e-17
-1.96484427e-17
-1.87202943e-17
-1.77483469e-17
-1.60464161e-17
-1.0713601e-17
-1.05539398e-17
-1.22325059e-17
-6.81224102e-18
-6.77887288e-18
-7.95144934e-18
-8.77829837e-18
-8.24922008e-18
-4.94368922e-18
-2.64668283e-18
-7.89316469e-19
-8.5038845e-21
-1.9684289e-18
-1.25186895e-18
-6.66809222e-19
-1.43592275e-18
1.92882618e-18
5.18725315e-18
5.57717305e-18
5.95870884e-18
7.02736523e-18
4.79491785e-18
3.32171435e-18
1.45536487e-18
2.75837104e-18
3.30944917e-18
3.84328715e-18
3.90092993e-18
6.45447846e-18
5.83216431e-18
6.55810114e-18
7.38632484e-18
8.05089747e-18
7.72661878e-18
6.22701574e-18
8.14245909e-18
6.6258928e-18
4.72381056e-18
4.90932235e-18
4.44968633e-18
6.72476377e-18
3.8742553e-18
8.20448029e-18
1.01798563e-17
6.9290655e-18
9.75751437e-18
9.98841122e-18
7.56269845e-18
5.98542619e-18
5.91934966e-18
2.99679131e-18
1.14647573e-18
2.97411027e-18
3.10886923e-18
3.60165641e-18
2.93259188e-18
4.64368315e-18
7.93057916e-18
2.87929359e-18
5.0033108e-18
4.0603773e-18
5.63282932e-18
8.89792504e-18
6.64108421e-18
7.03811535e-18
9.88646251e-18
1.11827801e-17
1.06050099e-17
1.01703314e-17
8.85453276e-18
1.0654258e-17
1.22519972e-17
1.08520193e-17
1.11094434e-17
1.04683248e-17
1.24467464e-17
1.03986978e-17
1.34742264e-17
1.42954512e-17
1.55446799e-17
1.48257764e-17
1.43889749e-17
1.59411038e-17
1.42565524e-17
1.15153749e-17
1.34268307e-17
1.44754171e-17
1.17493002e-17
1.36899337e-17
1.66147685e-17
1.62841754e-17
1.87714805e-17
2.08973833e-17
1.90767303e-17
2.084912e-17
2.16785146e-17
2.19398695e-17
2.09213377e-17
2.22306793e-17
2.50393975e-17
2.12693676e-17
2.27643386e-17
2.07589841e-17
2.18159389e-17
2.35886929e-17
2.48027891e-17
2.70515119e-17
2.53547571e-17
2.59606399e-17
2.79469913e-17
3.09087722e-17
3.10760648e-17
3.10185857e-17
3.43545417e-17
3.22658639e-17
3.34428676e-17
3.5328608e-17
3.16649764e-17
3.80620468e-17
3.59999784e-17
3.57081333e-17
3.57789034e-17
3.8086703e-17
3.92819645e-17
3.83235915e-17
3.95152882e-17
3.84478279e-17
4.08210482e-17
4.08120186e-17
4.15924214e-17
4.24682311e-17
4.48963551e-17
4.37232563e-17
4.559986e-17
4.06366019e-17
4.51166639e-17
4.97462298e-17
4.56076379e-17
4.76791209e-17
4.82364475e-17
4.9300903e-17
5.36262244e-17
5.43980722e-17
5.41919023e-17
5.38938803e-17
5.72395249e-17
5.48813681e-17
5.41733959e-17
5.36738843e-17
5.01148088e-17
5.07831603e-17
5.05313075e-17
5.41502471e-17
5.25278327e-17
5.12950249e-17
5.34409047e-17
5.26769889e-17
5.33167849e-17
5.23740599e-17
5.14326318e-17
5.26735491e-17
5.34301171e-17
5.32565162e-17
5.33464531e-17
5.79312171e-17
5.24345492e-17
5.6428955e-17
5.47676321e-17
5.51538191e-17
5.52490031e-17
5.24345094e-17
5.37609022e-17
4.9393228e-17
5.14045195e-17
5.10738983e-17
4.6456103e-17
4.93034519e-17
4.73272479e-17
4.83994955e-17
4.85514536e-17
4.76775693e-17
5.11018524e-17
4.87633771e-17
4.79862695e-17
5.01312141e-17
4.60472092e-17
4.99847768e-17
4.89662888e-17
4.65474117e-17
4.62648434e-17
4.5875721e-17
4.87291986e-17
4.79028532e-17
4.85370565e-17
4.813029e-17
4.79512978e-17
5.00262103e-17
4.73628347e-17
5.18019576e-17
5.10761462e-17
5.25022752e-17
5.29789903e-17
5.15943096e-17
4.80433421e-17
5.0363048e-17
5.4256564e-17
5.42086108e-17
5.61501958e-17
5.24001286e-17
5.61647035e-17
5.53219706e-17
5.73405282e-17
5.48386824e-17
5.39488009e-17
5.77714799e-17
5.48938903e-17
5.63371141e-17
5.5908846e-17
5.64799657e-17
5.72613015e-17
5.66647196e-17
5.83389171e-17
6.07207432e-17
5.42938622e-17
5.78721253e-17
6.02862092e-17
5.90080566e-17
5.95361174e-17
6.05523038e-17
6.04462355e-17
5.67621579e-17
6.04913372e-17
6.16040019e-17
5.74516425e-17
6.09476651e-17
5.68817479e-17
5.90014305e-17
5.70409065e-17
5.84461238e-17
5.67223086e-17
5.62855834e-17
5.49504414e-17
5.54316976e-17
5.76101591e-17
6.06895977e-17
5.70948534e-17
5.88053628e-17
5.73076762e-17
5.88722931e-17
6.25729867e-17
6.20132351e-17
6.02548842e-17
6.04543034e-17
6.00677609e-17
5.93850824e-17
6.38987356e-17
6.15686049e-17
6.06602036e-17
6.02985103e-17
6.16571558e-17
5.95295562e-17
6.11137203e-17
6.23589237e-17
6.10794609e-17
6.3053866e-17
6.39292818e-17
6.43312715e-17
6.61164593e-17
6.46228313e-17
6.37260627e-17
6.15182795e-17
6.43036035e-17
6.48105195e-17
6.76604744e-17
6.85819677e-17
6.86258309e-17
6.45192058e-17
6.42038017e-17
6.20672797e-17
6.18768219e-17
6.41207684e-17
6.22829487e-17
6.57104525e-17
6.46071765e-17
6.22855172e-17
6.29931508e-17
6.36216437e-17
6.46194457e-17
6.4333305e-17
6.55228237e-17
6.42437386e-17
6.33853846e-17
6.53368869e-17
6.56986627e-17
6.82478165e-17
6.58070672e-17
6.46496745e-17
6.22844465e-17
6.31532691e-17
6.61285153e-17
6.87150794e-17
7.17573786e-17
7.31812117e-17
7.35281364e-17
7.182007e-17
6.98451471e-17
7.26880805e-17
6.98813777e-17
7.47917393e-17
7.23285672e-17
7.01478114e-17
7.35861762e-17
7.35815397e-17
7.34133597e-17
7.55838916e-17
7.44744204e-17
7.45990433e-17
7.34223133e-17
7.06126194e-17
6.91556472e-17
7.0366196e-17
6.75882955e-17
6.90163575e-17
6.97680838e-17
7.07636637e-17
7.00959278e-17
6.73850714e-17
6.91662399e-17
6.67813175e-17
6.69995976e-17
6.90581922e-17
6.81445448e-17
6.61324433e-17
6.31453945e-17
6.51698001e-17
5.92753409e-17
6.18065983e-17
6.25268961e-17
6.11868985e-17
5.95293709e-17
5.78612936e-17
5.5703239e-17
5.7721611e-17
5.5577842e-17
5.57722663e-17
5.48751025e-17
5.39093803e-17
5.42072149e-17
5.56302305e-17
5.77373055e-17
5.42707087e-17
5.66871951e-17
5.6992056e-17
5.62873755e-17
5.75086596e-17
5.92020951e-17
5.86371043e-17
6.03687781e-17
6.18199636e-17
6.06158755e-17
6.38536037e-17
6.39311073e-17
6.66049971e-17
6.50789895e-17
6.81749333e-17
6.28753368e-17
6.19934425e-17
6.15997542e-17
6.33038434e-17
5.99322691e-17
6.33010026e-17
6.2105749e-17
6.58410459e-17
6.41441717e-17
6.36880991e-17
6.57462162e-17
6.73244693e-17
6.4472516e-17
6.78782051e-17
6.38117835e-17
6.64402983e-17
6.43203915e-17
6.35497761e-17
6.24128323e-17
6.52950529e-17
6.0667211e-17
6.26899052e-17
6.53369235e-17
6.74426145e-17
6.49336526e-17
7.04527359e-17
6.8307034e-17
6.80596824e-17
6.66516527e-17
6.68915049e-17
6.57152402e-17
6.73552115e-17
6.53318884e-17
6.55875701e-17
6.48964713e-17
6.40773377e-17
6.56677514e-17
6.55967119e-17
6.9516595e-17
6.61860407e-17
6.57745967e-17
6.15563237e-17
6.4413322e-17
6.43483476e-17
6.58300512e-17
6.65601481e-17
6.64397226e-17
6.57122088e-17
6.48303876e-17
6.84825735e-17
6.56140975e-17
6.2960948e-17
6.52897615e-17
6.15272942e-17
6.40876761e-17
6.71932709e-17
6.47292026e-17
6.44666162e-17
6.08212183e-17
6.2346392e-17
6.05426311e-17
5.95379878e-17
5.82032954e-17
5.82306487e-17
6.13091957e-17
5.98815469e-17
5.77760801e-17
5.7784215e-17
5.65473885e-17
5.54152882e-17
5.00185368e-17
5.10828707e-17
5.22706609e-17
5.32891625e-17
5.1532793e-17
4.91379405e-17
4.88840768e-17
4.89837441e-17
4.792945e-17
4.98249455e-17
4.81909145e-17
4.97825447e-17
4.75401737e-17
4.68546617e-17
4.68068503e-17
4.52691425e-17
4.6456718e-17
4.44732745e-17
4.17671407e-17
4.19104964e-17
4.10948306e-17
3.85579964e-17
3.81560606e-17
3.84042685e-17
3.71758134e-17
3.75097666e-17
3.5485817e-17
3.58035526e-17
3.68375517e-17
3.56324068e-17
3.29527054e-17
3.49442169e-17
3.21002163e-17
3.11806148e-17
2.78506943e-17
3.01460884e-17
2.92525114e-17
3.14814838e-17
2.97165248e-17
2.53934584e-17
2.73969987e-17
2.56476951e-17
2.62046315e-17
2.84547987e-17
2.69597703e-17
2.65101311e-17
2.32325579e-17
2.69181729e-17
2.56549755e-17
2.96883054e-17
2.53390661e-17
2.75793484e-17
2.41042109e-17
2.46357737e-17
2.20359708e-17
2.23578806e-17
2.33050101e-17
2.54603276e-17
2.50854832e-17
2.58177555e-17
2.59604045e-17
2.08540903e-17
2.10203109e-17
2.54411398e-17
2.25999705e-17
2.15141259e-17
2.38795647e-17
2.42972229e-17
2.31977471e-17
2.3597274e-17
1.90136218e-17
2.0447126e-17
1.88928135e-17
1.79271246e-17
2.1949258e-17
1.88298173e-17
1.5989354e-17
1.49037405e-17
1.50021332e-17
1.67144645e-17
1.1127275e-17
1.22988969e-17
1.13803785e-17
1.0708119e-17
8.8643695e-18
7.40479412e-18
3.01620695e-18
2.01870876e-18
6.38456495e-19
8.47459389e-19
-1.81502714e-18
-2.5236235e-18
-2.75426867e-18
-5.25802397e-18
-5.52319875e-18
-7.57128774e-18
-7.34226874e-18
-8.57686575e-18
-1.07635871e-17
-1.11474875e-17
-9.84772603e-18
-1.54820636e-17
-1.2158957e-17
-1.48665137e-17
-1.44608447e-17
-1.15363233e-17
-1.21182444e-17
-1.09639578e-17
-1.29580956e-17
-1.08179575e-17
-1.28584673e-17
-1.18715529e-17
-1.22845518e-17
-1.18540298e-17
-1.46248234e-17
-1.48324881e-17
-1.41495266e-17
-1.5881148e-17
-1.49633005e-17
-1.68938942e-17
-1.59757277e-17
-1.88276421e-17
-2.05944405e-17
-2.08946023e-17
-2.23989031e-17
-1.97554184e-17
-1.9992691e-17
-2.30985205e-17
-2.3909194e-17
-2.4739563e-17
-2.26976018e-17
-2.50669065e-17
-2.38224018e-17
-2.59874067e-17
-2.51815824e-17
-2.75210512e-17
-2.53013395e-17
-2.70964749e-17
-2.49496091e-17
-2.67787159e-17
-2.47981678e-17
-2.28274862e-17
-2.37677066e-17
-2.11803424e-17
-1.99732258e-17
-1.97259763e-17
-1.74076001e-17
-1.89430321e-17
-2.15120489e-17
-2.16857114e-17
-2.34098722e-17
-2.2655899e-17
-2.06938104e-17
-2.3169007e-17
-2.3002543e-17
-2.2590191e-17
-2.28985505e-17
-2.48730429e-17
-2.22230246e-17
-2.02502753e-17
-2.37055397e-17
-2.49813296e-17
-2.50478262e-17
-2.52998675e-17
-2.68052801e-17
-2.92030647e-17
-3.33789712e-17
-3.28096695e-17
-3.39976114e-17
-3.54574341e-17
-3.98830089e-17
-3.90725413e-17
-3.82141817e-17
-3.78150619e-17
-3.89682423e-17
-4.34052401e-17
-4.26507742e-17
-4.39841479e-17
-4.58147607e-17
-5.00700961e-17
-4.80150127e-17
-5.16915539e-17
-5.11714649e-17
-5.21763622e-17
-4.99751657e-17
-4.86523952e-17
-4.97516105e-17
-4.71888536e-17
-4.78416447e-17
-4.97632546e-17
-4.84669863e-17
-4.84764365e-17
-4.6779268e-17
-4.94709791e-17
-4.94383074e-17
-4.77533199e-17
-4.87667753e-17
-5.17102695e-17
-5.35175434e-17
-5.41549269e-17
-5.29455034e-17
-5.53112137e-17
-5.51083855e-17
-5.43791734e-17
-5.83356705e-17
-5.71869564e-17
-5.67007355e-17
-5.68487044e-17
-5.95982735e-17
-5.78272282e-17
-6.12812975e-17
-6.12901526e-17
-6.10064114e-17
-6.31739716e-17
-6.58171291e-17
-6.61605449e-17
-6.5123906e-17
-6.47478321e-17
-6.5730026e-17
-6.58070679e-17
-6.85071411e-17
-6.47936724e-17
-6.82740301e-17
-6.71329229e-17
-6.79254175e-17
-7.33577185e-17
-7.11942493e-17
-7.16797101e-17
-7.32183062e-17
-7.20078087e-17
-7.48993992e-17
-7.76932072e-17
-7.69267215e-17
-7.9923325e-17
-8.11513934e-17
-7.97950861e-17
-7.76886317e-17
-7.6772658e-17
-7.47647211e-17
-7.28823821e-17
-7.5985551e-17
-7.83458251e-17
-7.75574937e-17
-7.78587411e-17
-7.92274269e-17
-8.16364069e-17
-7.97681441e-17
-8.04364983e-17
-8.22273523e-17
-7.79514708e-17
-7.98456834e-17
-7.71741086e-17
-7.69071183e-17
-7.77273738e-17
-7.68528707e-17
-7.78118375e-17
-7.86869127e-17
-7.84324483e-17
-7.88907826e-17
-7.54681729e-17
-7.42422834e-17
-7.71642824e-17
-7.51605168e-17
-7.7772533e-17
-7.7313733e-17
-7.78390635e-17
-8.04429008e-17
-7.91316485e-17
-7.61902213e-17
-8.05515845e-17
-7.82478871e-17
-8.19199026e-17
-8.09741389e-17
-7.88203423e-17
-8.19113029e-17
-8.07341588e-17
-8.25780863e-17
-8.17004238e-17
-8.25625117e-17
-8.15150374e-17
-8.28612637e-17
-8.22879381e-17
-8.56799602e-17
-8.265683e-17
-8.27779152e-17
-8.06285327e-17
-7.81399235e-17
-7.85234401e-17
-7.69864406e-17
-7.73784238e-17
-7.7589032e-17
-7.64609816e-17
-7.50409929e-17
-7.56157821e-17
-7.63346628e-17
-7.69224901e-17
-7.63296025e-17
-7.56737048e-17
-7.69685123e-17
-7.9796583e-17
-7.84587899e-17
-7.77808715e-17
-7.77061034e-17
-7.87736239e-17
-8.14458002e-17
-7.87411444e-17
-8.03226888e-17
-7.99866009e-17
-7.74352631e-17
-7.70007665e-17
-7.96823362e-17
-7.85569869e-17
-8.04825948e-17
-8.09540647e-17
-8.08445505e-17
-8.1631598e-17
-8.20305424e-17
-8.14534238e-17
-7.93475681e-17
-8.31877647e-17
-8.19884934e-17
-8.63092591e-17
-8.44777813e-17
-8.27606348e-17
-8.09045978e-17
-8.00411342e-17
-7.78111335e-17
-7.94486332e-17
-7.55557866e-17
-7.7950445e-17
-7.80794259e-17
-7.43594579e-17
-7.14917625e-17
-7.38817457e-17
-7.41702839e-17
-7.13329014e-17
-7.24390769e-17
-7.3086069e-17
-7.53981938e-17
-7.13303292e-17
-7.07724548e-17
-6.64861427e-17
-7.0906489e-17
-6.62574047e-17
-6.93056062e-17
-6.79509109e-17
-6.80030904e-17
-6.82798988e-17
-6.6644838e-17
-6.50496432e-17
-6.8513507e-17
-6.72017968e-17
-6.57289513e-17
-6.85608431e-17
-6.48188851e-17
-6.44401871e-17
-6.53380305e-17
-6.79260362e-17
-6.42143001e-17
-6.50745299e-17
-6.25083588e-17
-6.29434483e-17
-5.96492005e-17
-6.10514181e-17
-6.07034836e-17
-5.96660897e-17
-6.14688741e-17
-6.09988998e-17
-6.28385392e-17
-6.21356558e-17
-6.41329268e-17
-6.0819093e-17
-6.21747631e-17
-6.26906067e-17
-6.30776853e-17
-6.15408485e-17
-6.0109982e-17
-6.08625407e-17
-6.45732492e-17
-6.28963325e-17
-6.18120169e-17
-6.29887362e-17
-6.55685594e-17
-6.46303197e-17
-6.17655157e-17
-5.98850043e-17
-6.24902711e-17
-6.17997813e-17
-6.11618373e-17
-5.98221474e-17
-6.30918528e-17
-5.96099227e-17
-5.92711838e-17
-5.79116774e-17
-5.93002378e-17
-6.15084507e-17
-5.91002317e-17
-6.0733835e-17
-5.83448679e-17
-5.91783235e-17
-5.84786975e-17
-6.19120632e-17
-6.0351149e-17
-5.47841256e-17
-5.81551097e-17
-5.93615346e-17
-6.00153417e-17
-5.74838916e-17
-5.86758952e-17
-5.7339169e-17
-5.35477107e-17
-5.27741262e-17
-5.7058475e-17
-5.45061344e-17
-5.51877701e-17
-5.82222181e-17
-5.7306811e-17
-5.64350943e-17
-5.5586787e-17
-5.37189953e-17
-5.47965576e-17
-5.1172237e-17
-5.3743408e-17
-5.23660476e-17
-5.17151162e-17
-5.12129664e-17
-5.37344742e-17
-5.43162518e-17
-5.26234188e-17
-5.28139904e-17
-5.24485896e-17
-4.89304068e-17
-5.03718649e-17
-5.0985226e-17
-5.1259273e-17
-5.25421149e-17
-4.92981612e-17
-5.31050139e-17
-5.22248596e-17
-5.13444304e-17
-4.8364056e-17
-4.49261778e-17
-4.58104254e-17
-4.90478642e-17
-4.68525143e-17
-4.97103576e-17
-4.99371801e-17
-4.84617459e-17
-5.12882911e-17
-5.20786091e-17
-5.12266251e-17
-5.30320076e-17
-5.39636248e-17
-5.30275596e-17
-5.61733948e-17
-5.56334564e-17
-5.37054841e-17
-5.30357063e-17
-5.36717758e-17
-5.57543046e-17
-5.5286762e-17
-5.28311102e-17
-5.41486367e-17
-5.96525602e-17
-5.79453405e-17
-5.48865541e-17
-5.45079356e-17
-5.27832008e-17
-5.39649144e-17
-5.38416528e-17
-5.29559843e-17
-5.01696856e-17
-5.06364244e-17
-5.21711215e-17
-5.47686075e-17
-5.32157337e-17
-5.41404275e-17
-5.42559e-17
-5.32531342e-17
-5.50239409e-17
-5.81534235e-17
-6.09206803e-17
-5.98966452e-17
-6.10402761e-17
-5.98824417e-17
-5.91466951e-17
-5.75390751e-17
-5.41062726e-17
-5.48170134e-17
-5.29412067e-17
-5.07566803e-17
-4.95361194e-17
-4.70294341e-17
-4.69712723e-17
-4.58313411e-17
-4.78677633e-17
-4.83196671e-17
-5.12827889e-17
-5.03684401e-17
-4.86313363e-17
-4.7356655e-17
-4.61358797e-17
-4.62519835e-17
-4.62553903e-17
-4.21469902e-17
-4.05281414e-17
-3.99554927e-17
-4.08489565e-17
-3.92664164e-17
-3.89804517e-17
-3.56460608e-17
-3.40482557e-17
-3.43078608e-17
-3.4838376e-17
-3.34064323e-17
-3.21415776e-17
-3.03472299e-17
-2.88785805e-17
-3.00809064e-17
-2.91276852e-17
-3.05727821e-17
-2.92737198e-17
-2.41510677e-17
-2.18332563e-17
-1.84580531e-17
-1.80974122e-17
-1.69929784e-17
-1.92551713e-17
-1.8080299e-17
-1.87307781e-17
-2.1519598e-17
-2.00053563e-17
-1.49332814e-17
-1.74949432e-17
-1.65156576e-17
-1.44571091e-17
-1.13081961e-17
-1.45897721e-17
-1.05713115e-17
-1.12526011e-17
-9.82520322e-18
-1.00804321e-17
-1.00188021e-17
-1.30480703e-17
-9.82078768e-18
-8.96921689e-18
-1.05201898e-17
-9.29691523e-18
-9.94328703e-18
-1.26028713e-17
-1.35851235e-17
-9.512217e-18
-9.66789491e-18
-7.35768487e-18
-6.15162715e-18
-7.89135599e-18
-6.30980336e-18
-3.39401617e-18
-8.07580058e-19
8.79660134e-20
-1.71533711e-18
5.60112535e-18
5.9337586e-18
7.05473482e-18
7.63465995e-18
6.97812823e-18
5.45332656e-18
7.01268889e-18
1.08997191e-17
1.34055833e-17
1.7328834e-17
1.43480196e-17
1.62745639e-17
1.78270811e-17
1.89840648e-17
1.97313135e-17
1.78508764e-17
2.4354461e-17
2.39733885e-17
2.86911122e-17
2.61700882e-17
3.46923658e-17
3.36388581e-17
3.02560104e-17
3.73406156e-17
3.69224984e-17
3.92982206e-17
3.78098874e-17
3.67810691e-17
3.92589983e-17
3.89195319e-17
4.75205666e-17
4.83832693e-17
5.25740508e-17
4.88927571e-17
5.23997021e-17
5.74211614e-17
5.78781318e-17
6.5734164e-17
6.93109223e-17
7.65696927e-17
8.0423327e-17
8.35928853e-17
9.07548551e-17
9.36584554e-17
1.01701165e-16
1.10500956e-16
1.21710273e-16
1.32215835e-16
1.43123478e-16
1.51628217e-16
1.59377694e-16
1.71271811e-16
1.81147557e-16
1.94401953e-16
2.10370702e-16
2.22976783e-16
2.4035466e-16
2.57783005e-16
2.75862304e-16
2.99050848e-16
3.18663966e-16
3.44231936e-16
3.72846967e-16
3.99070687e-16
4.30549859e-16
4.61311156e-16
4.95680818e-16
5.33180132e-16
5.70755144e-16
6.17295777e-16
6.62394294e-16
7.17442238e-16
7.69969058e-16
8.27696473e-16
8.89327538e-16
9.59601693e-16
1.02962326e-15
1.10626252e-15
1.18867666e-15
1.27487812e-15
1.37096905e-15
1.4710731e-15
1.58275511e-15
1.70022741e-15
1.82574814e-15
1.96026208e-15
2.1064319e-15
2.26218914e-15
2.43078251e-15
2.61183567e-15
2.80559566e-15
3.01324241e-15
3.23570336e-15
3.4760238e-15
3.73023953e-15
4.00194116e-15
4.29915447e-15
4.61662945e-15
4.95863358e-15
5.31998515e-15
5.70830245e-15
6.12757549e-15
6.5817349e-15
7.06123357e-15
7.58103467e-15
8.13735305e-15
8.73158393e-15
9.36786406e-15
1.00510504e-14
1.07807868e-14
1.15628293e-14
1.24041784e-14
1.33051436e-14
1.42628989e-14
1.52956174e-14
1.64015899e-14
1.75841386e-14
1.88505389e-14
2.02099735e-14
2.1660713e-14
2.32129046e-14
2.48733363e-14
2.66564139e-14
2.85623432e-14
3.0601576e-14
3.27827976e-14
3.51180169e-14
3.76130951e-14
4.02837814e-14
4.31416556e-14
4.61914258e-14
4.9458295e-14
5.29482904e-14
5.66748903e-14
6.06688436e-14
6.49304174e-14
6.94824152e-14
7.43483661e-14
7.95485143e-14
8.5101957e-14
9.10389106e-14
9.73759463e-14
1.04142755e-13
1.11378109e-13
1.19095963e-13
1.27336689e-13
1.36132336e-13
1.45523146e-13
1.55549324e-13
1.66240438e-13
1.77656407e-13
1.89831052e-13
2.02821441e-13
2.16684917e-13
2.31464717e-13
2.47227775e-13
2.64038264e-13
2.81961389e-13
3.01074125e-13
3.21446538e-13
3.43164281e-13
3.66306745e-13
3.90973246e-13
4.17257036e-13
4.45255348e-13
4.75086914e-13
5.06861367e-13
5.40702496e-13
5.76739531e-13
6.15115778e-13
6.55974134e-13
6.99473306e-13
7.45776284e-13
7.95058503e-13
8.47507927e-13
9.03311982e-13
9.62692728e-13
1.0258648e-12
1.0930575e-12
1.16452653e-12
1.24053465e-12
1.32135551e-12
1.40728678e-12
1.49864039e-12
1.59575062e-12
1.69895862e-12
1.80864082e-12
1.92519215e-12
2.04902326e-12
2.18057837e-12
2.32031546e-12
2.46872688e-12
2.62633645e-12
2.79369704e-12
2.97138005e-12
3.16000047e-12
3.36021605e-12
3.57270877e-12
3.79820472e-12
4.03746479e-12
4.29130766e-12
4.56058129e-12
4.8461906e-12
5.14908917e-12
5.47028764e-12
5.81084869e-12
6.17188812e-12
6.55459098e-12
6.96021619e-12
7.39006427e-12
7.84554221e-12
8.32810895e-12
8.83930621e-12
9.38077307e-12
9.95422614e-12
1.05614771e-11
1.12044344e-11
1.18851076e-11
1.26056207e-11
1.33682034e-11
1.41752116e-11
1.50291253e-11
1.59325459e-11
1.68882194e-11
1.78990444e-11
1.89680531e-11
2.00984566e-11
2.12936169e-11
2.25570726e-11
2.38925561e-11
2.53039835e-11
2.67954754e-11
2.83713639e-11
3.00361992e-11
3.17947765e-11
3.3652104e-11
3.56134772e-11
3.76844358e-11
3.98708103e-11
4.21787214e-11
4.46145834e-11
4.71851484e-11
4.98974889e-11
5.27590238e-11
5.57775581e-11
5.89612534e-11
6.23186814e-11
6.58588375e-11
6.9591136e-11
7.35254617e-11
7.76721651e-11
8.20420939e-11
8.66466208e-11
9.14976476e-11
9.66076496e-11
1.01989689e-10
1.07657429e-10
1.13625193e-10
1.19907956e-10
1.26521397e-10
1.33481907e-10
1.40806651e-10
1.48513564e-10
1.56621404e-10
1.65149783e-10
1.74119203e-10
1.83551091e-10
1.93467828e-10
2.03892796e-10
2.14850423e-10
2.26366216e-10
2.38466798e-10
2.51179977e-10
2.64534759e-10
2.7856141e-10
2.93291516e-10
3.08758026e-10
3.24995287e-10
3.42039113e-10
3.59926845e-10
3.78697405e-10
3.98391335e-10
4.1905088e-10
4.40720044e-10
4.63444647e-10
4.87272398e-10
5.12252953e-10
5.38438007e-10
5.65881337e-10
5.9463888e-10
6.24768829e-10
6.5633169e-10
6.89390368e-10
7.24010244e-10
7.60259264e-10
7.98208019e-10
8.37929834e-10
8.79500858e-10
9.23000152e-10
9.68509789e-10
1.01611493e-09
1.06590397e-09
1.11796855e-09
1.17240377e-09
1.22930819e-09
1.28878399e-09
1.35093709e-09
1.4158772e-09
1.483718e-09
1.55457721e-09
1.6285767e-09
1.70584264e-09
1.78650561e-09
1.87070069e-09
1.95856762e-09