/*--------------------------------*- C++ -*----------------------------------*\
| =========                 |                                                 |
| \\      /  F ield         | OpenFOAM: The Open Source CFD Toolbox           |
|  \\    /   O peration     | Version:  2206                                  |
|   \\  /    A nd           | Website:  www.openfoam.com                      |
|    \\/     M anipulation  |                                                 |
\*---------------------------------------------------------------------------*/
FoamFile
{
    version     2.0;
    format      ascii;
    arch        "LSB;label=32;scalar=64";
    class       volVectorField;
    location    "1.7e-05";
    object      U;
}
// * * * * * * * * * * * * * * * * * * * * * * * * * * * * * * * * * * * * * //

dimensions      [0 1 -1 0 0 0 0];

internalField   nonuniform List<vector> 
3183
(
(5.1024361e-13 0 0)
(2.30645618e-13 0 0)
(-3.69722966e-13 0 0)
(-4.5889352e-13 0 0)
(-1.80553103e-13 0 0)
(-1.31267013e-17 0 0)
(-9.89353669e-19 0 0)
(-9.76791185e-23 0 0)
(6.57729527e-20 0 0)
(2.59157587e-18 0 0)
(4.27796982e-14 0 0)
(3.14949936e-13 0 0)
(7.54104838e-13 0 0)
(3.08861478e-13 0 0)
(1.95724708e-13 0 0)
(-3.69529336e-15 0 0)
(-4.21827985e-13 0 0)
(-7.12515318e-13 0 0)
(-1.01916471e-12 0 0)
(-2.75112054e-13 0 0)
(3.60084058e-13 0 0)
(2.21834147e-16 0 0)
(1.62923562e-13 0 0)
(3.9793056e-13 0 0)
(4.82792532e-13 0 0)
(9.9753915e-13 0 0)
(9.33439581e-13 0 0)
(6.29823617e-13 0 0)
(2.07481598e-13 0 0)
(1.0447724e-13 0 0)
(-5.48225152e-14 0 0)
(3.27475553e-14 0 0)
(-5.68058177e-13 0 0)
(-8.27167815e-13 0 0)
(-6.87236941e-13 0 0)
(-7.44386908e-13 0 0)
(-1.17872283e-12 0 0)
(-1.42045537e-12 0 0)
(-1.22324638e-12 0 0)
(-9.74374866e-13 0 0)
(-5.90177786e-13 0 0)
(-2.60830064e-14 0 0)
(6.22399673e-13 0 0)
(5.54303724e-13 0 0)
(1.27207394e-12 0 0)
(1.86321071e-12 0 0)
(1.73081509e-12 0 0)
(1.7821102e-12 0 0)
(1.38523253e-12 0 0)
(1.16291808e-12 0 0)
(6.5790866e-13 0 0)
(3.16295575e-13 0 0)
(-6.22434887e-13 0 0)
(-6.89174298e-13 0 0)
(-1.24194339e-12 0 0)
(-2.02419891e-12 0 0)
(-2.52646157e-12 0 0)
(-3.06453552e-12 0 0)
(-3.67845173e-12 0 0)
(-3.9841407e-12 0 0)
(-4.29729464e-12 0 0)
(-5.00932106e-12 0 0)
(-5.01143981e-12 0 0)
(-5.70335621e-12 0 0)
(-5.27421854e-12 0 0)
(-5.7463123e-12 0 0)
(-5.95189712e-12 0 0)
(-5.5235375e-12 0 0)
(-5.6815692e-12 0 0)
(-6.26363209e-12 0 0)
(-6.33004936e-12 0 0)
(-6.50796593e-12 0 0)
(-5.96851404e-12 0 0)
(-6.60448464e-12 0 0)
(-7.32852465e-12 0 0)
(-6.68020958e-12 0 0)
(-7.30391737e-12 0 0)
(-6.71354964e-12 0 0)
(-7.1031817e-12 0 0)
(-7.43109056e-12 0 0)
(-8.84512115e-12 0 0)
(-7.4756539e-12 0 0)
(-8.00611399e-12 0 0)
(-9.00508746e-12 0 0)
(-8.32324094e-12 0 0)
(-8.06896515e-12 0 0)
(-8.90449333e-12 0 0)
(-9.44065373e-12 0 0)
(-8.62905878e-12 0 0)
(-9.12698051e-12 0 0)
(-9.87487755e-12 0 0)
(-9.89577936e-12 0 0)
(-9.10874682e-12 0 0)
(-9.74620171e-12 0 0)
(-1.04601957e-11 0 0)
(-1.06460405e-11 0 0)
(-1.00745159e-11 0 0)
(-9.75906334e-12 0 0)
(-1.06467951e-11 0 0)
(-9.91364464e-12 0 0)
(-9.63525527e-12 0 0)
(-1.00775036e-11 0 0)
(-1.03851446e-11 0 0)
(-9.7044908e-12 0 0)
(-9.57142756e-12 0 0)
(-9.43260454e-12 0 0)
(-9.50779778e-12 0 0)
(-9.86318864e-12 0 0)
(-1.05785008e-11 0 0)
(-1.04330335e-11 0 0)
(-9.48065729e-12 0 0)
(-9.6661762e-12 0 0)
(-9.45055247e-12 0 0)
(-1.05083263e-11 0 0)
(-1.03858642e-11 0 0)
(-1.11569878e-11 0 0)
(-1.09597767e-11 0 0)
(-1.03938719e-11 0 0)
(-1.1143466e-11 0 0)
(-1.14718641e-11 0 0)
(-1.16234975e-11 0 0)
(-1.08425757e-11 0 0)
(-1.04839809e-11 0 0)
(-1.08005618e-11 0 0)
(-1.10261972e-11 0 0)
(-1.10377177e-11 0 0)
(-1.19957637e-11 0 0)
(-1.23890596e-11 0 0)
(-1.15085824e-11 0 0)
(-1.24091503e-11 0 0)
(-1.20033405e-11 0 0)
(-1.16899902e-11 0 0)
(-1.30151025e-11 0 0)
(-1.4256212e-11 0 0)
(-1.12333482e-11 0 0)
(-1.38333521e-11 0 0)
(-1.37869339e-11 0 0)
(-1.31134421e-11 0 0)
(-1.34670899e-11 0 0)
(-1.32427495e-11 0 0)
(-1.38077056e-11 0 0)
(-1.34917809e-11 0 0)
(-1.42091111e-11 0 0)
(-1.45607083e-11 0 0)
(-1.28384313e-11 0 0)
(-1.44132163e-11 0 0)
(-1.31911068e-11 0 0)
(-1.49585925e-11 0 0)
(-1.37579192e-11 0 0)
(-1.32390329e-11 0 0)
(-1.40697382e-11 0 0)
(-1.43140542e-11 0 0)
(-1.37245929e-11 0 0)
(-1.28989227e-11 0 0)
(-1.39229962e-11 0 0)
(-1.2253494e-11 0 0)
(-1.39649091e-11 0 0)
(-1.38131919e-11 0 0)
(-1.29257828e-11 0 0)
(-1.3135675e-11 0 0)
(-1.34824044e-11 0 0)
(-1.30381264e-11 0 0)
(-1.35199102e-11 0 0)
(-1.31582061e-11 0 0)
(-1.35278971e-11 0 0)
(-1.27797849e-11 0 0)
(-1.30315145e-11 0 0)
(-1.29689391e-11 0 0)
(-1.30311375e-11 0 0)
(-1.45373887e-11 0 0)
(-1.29844937e-11 0 0)
(-1.23069939e-11 0 0)
(-1.30393141e-11 0 0)
(-1.32761587e-11 0 0)
(-1.35801814e-11 0 0)
(-1.30506606e-11 0 0)
(-1.35174303e-11 0 0)
(-1.22559276e-11 0 0)
(-1.27901451e-11 0 0)
(-1.41976525e-11 0 0)
(-1.33235653e-11 0 0)
(-1.38777891e-11 0 0)
(-1.34403745e-11 0 0)
(-1.41724326e-11 0 0)
(-1.43202892e-11 0 0)
(-1.54018228e-11 0 0)
(-1.41645899e-11 0 0)
(-1.4792253e-11 0 0)
(-1.40509831e-11 0 0)
(-1.33724823e-11 0 0)
(-1.42707526e-11 0 0)
(-1.44870768e-11 0 0)
(-1.4426515e-11 0 0)
(-1.48711647e-11 0 0)
(-1.49964148e-11 0 0)
(-1.47158869e-11 0 0)
(-1.38376721e-11 0 0)
(-1.35465883e-11 0 0)
(-1.47224584e-11 0 0)
(-1.4396912e-11 0 0)
(-1.36605911e-11 0 0)
(-1.46474732e-11 0 0)
(-1.38762409e-11 0 0)
(-1.57342188e-11 0 0)
(-1.44560454e-11 0 0)
(-1.4678008e-11 0 0)
(-1.53709935e-11 0 0)
(-1.52929991e-11 0 0)
(-1.69502113e-11 0 0)
(-1.50154994e-11 0 0)
(-1.55810954e-11 0 0)
(-1.66470098e-11 0 0)
(-1.56586128e-11 0 0)
(-1.76275701e-11 0 0)
(-1.56474681e-11 0 0)
(-1.70521109e-11 0 0)
(-1.61964304e-11 0 0)
(-1.56916147e-11 0 0)
(-1.62065973e-11 0 0)
(-1.69736004e-11 0 0)
(-1.69094111e-11 0 0)
(-1.7292295e-11 0 0)
(-1.74026551e-11 0 0)
(-1.68611325e-11 0 0)
(-1.5935334e-11 0 0)
(-1.59722368e-11 0 0)
(-1.64345505e-11 0 0)
(-1.73105523e-11 0 0)
(-1.70861994e-11 0 0)
(-1.64615468e-11 0 0)
(-1.58494579e-11 0 0)
(-1.64605466e-11 0 0)
(-1.64450558e-11 0 0)
(-1.68538812e-11 0 0)
(-1.59466812e-11 0 0)
(-1.52879618e-11 0 0)
(-1.58529638e-11 0 0)
(-1.69371998e-11 0 0)
(-1.6852445e-11 0 0)
(-1.59601455e-11 0 0)
(-1.65804076e-11 0 0)
(-1.6450182e-11 0 0)
(-1.54948182e-11 0 0)
(-1.60972965e-11 0 0)
(-1.6826602e-11 0 0)
(-1.6514238e-11 0 0)
(-1.64637394e-11 0 0)
(-1.56878508e-11 0 0)
(-1.6329834e-11 0 0)
(-1.60986529e-11 0 0)
(-1.66965674e-11 0 0)
(-1.62413485e-11 0 0)
(-1.61359984e-11 0 0)
(-1.5730029e-11 0 0)
(-1.63715665e-11 0 0)
(-1.49645011e-11 0 0)
(-1.62654313e-11 0 0)
(-1.60136979e-11 0 0)
(-1.67350823e-11 0 0)
(-1.7125837e-11 0 0)
(-1.7172916e-11 0 0)
(-1.76059632e-11 0 0)
(-1.71938263e-11 0 0)
(-1.74646009e-11 0 0)
(-1.73534443e-11 0 0)
(-1.77774864e-11 0 0)
(-1.77183086e-11 0 0)
(-1.79758651e-11 0 0)
(-1.75971798e-11 0 0)
(-1.78082965e-11 0 0)
(-1.86657588e-11 0 0)
(-1.87404024e-11 0 0)
(-1.9021546e-11 0 0)
(-1.81604407e-11 0 0)
(-1.91124055e-11 0 0)
(-1.81882186e-11 0 0)
(-1.917595e-11 0 0)
(-1.97861282e-11 0 0)
(-1.9151722e-11 0 0)
(-1.99328067e-11 0 0)
(-1.90367941e-11 0 0)
(-1.97411734e-11 0 0)
(-1.99399444e-11 0 0)
(-1.99508413e-11 0 0)
(-1.97732201e-11 0 0)
(-2.04106563e-11 0 0)
(-1.95513847e-11 0 0)
(-1.92909415e-11 0 0)
(-2.05037304e-11 0 0)
(-1.93407315e-11 0 0)
(-1.91663597e-11 0 0)
(-1.93124479e-11 0 0)
(-1.92288541e-11 0 0)
(-1.93070252e-11 0 0)
(-1.95486512e-11 0 0)
(-1.92457788e-11 0 0)
(-1.89126927e-11 0 0)
(-2.12825808e-11 0 0)
(-2.01887186e-11 0 0)
(-2.03345576e-11 0 0)
(-1.97407403e-11 0 0)
(-2.06517996e-11 0 0)
(-1.92328686e-11 0 0)
(-1.97234318e-11 0 0)
(-1.99933227e-11 0 0)
(-2.0856162e-11 0 0)
(-1.90216725e-11 0 0)
(-1.99232268e-11 0 0)
(-2.13592522e-11 0 0)
(-2.0054373e-11 0 0)
(-2.13562742e-11 0 0)
(-2.11075353e-11 0 0)
(-2.02486504e-11 0 0)
(-2.0778671e-11 0 0)
(-2.07604242e-11 0 0)
(-2.15338316e-11 0 0)
(-2.08501543e-11 0 0)
(-2.21211805e-11 0 0)
(-2.13427243e-11 0 0)
(-2.15335846e-11 0 0)
(-2.16079731e-11 0 0)
(-2.18810608e-11 0 0)
(-2.04786542e-11 0 0)
(-2.03312582e-11 0 0)
(-2.21430049e-11 0 0)
(-2.06289628e-11 0 0)
(-2.14979049e-11 0 0)
(-2.03644511e-11 0 0)
(-2.04619853e-11 0 0)
(-2.05985167e-11 0 0)
(-1.98424294e-11 0 0)
(-2.01180994e-11 0 0)
(-2.03654524e-11 0 0)
(-2.02286276e-11 0 0)
(-1.89976499e-11 0 0)
(-1.92980939e-11 0 0)
(-1.86989976e-11 0 0)
(-2.02431109e-11 0 0)
(-2.00352358e-11 0 0)
(-1.96813996e-11 0 0)
(-1.88023044e-11 0 0)
(-2.02112508e-11 0 0)
(-1.93483595e-11 0 0)
(-1.80102308e-11 0 0)
(-2.00516699e-11 0 0)
(-1.97533591e-11 0 0)
(-2.01598993e-11 0 0)
(-1.90656923e-11 0 0)
(-1.95737472e-11 0 0)
(-1.9656312e-11 0 0)
(-1.90872093e-11 0 0)
(-1.98660559e-11 0 0)
(-1.99767212e-11 0 0)
(-1.91207928e-11 0 0)
(-1.87380193e-11 0 0)
(-1.91314991e-11 0 0)
(-1.95548116e-11 0 0)
(-1.90906911e-11 0 0)
(-1.86491027e-11 0 0)
(-1.78502596e-11 0 0)
(-1.895817e-11 0 0)
(-1.97092352e-11 0 0)
(-1.86822688e-11 0 0)
(-1.81459386e-11 0 0)
(-1.83733362e-11 0 0)
(-1.82430278e-11 0 0)
(-1.83874087e-11 0 0)
(-1.8564344e-11 0 0)
(-1.8709659e-11 0 0)
(-1.88511196e-11 0 0)
(-1.76313536e-11 0 0)
(-1.84699839e-11 0 0)
(-1.80903376e-11 0 0)
(-1.65817474e-11 0 0)
(-1.75965457e-11 0 0)
(-1.81065249e-11 0 0)
(-1.76167282e-11 0 0)
(-1.72837979e-11 0 0)
(-1.64001977e-11 0 0)
(-1.66706265e-11 0 0)
(-1.72914224e-11 0 0)
(-1.67363891e-11 0 0)
(-1.68149384e-11 0 0)
(-1.65592998e-11 0 0)
(-1.71328587e-11 0 0)
(-1.68768086e-11 0 0)
(-1.62983797e-11 0 0)
(-1.74716532e-11 0 0)
(-1.61561215e-11 0 0)
(-1.67848944e-11 0 0)
(-1.6112208e-11 0 0)
(-1.6974552e-11 0 0)
(-1.64115099e-11 0 0)
(-1.59845831e-11 0 0)
(-1.59294541e-11 0 0)
(-1.64348597e-11 0 0)
(-1.69079954e-11 0 0)
(-1.71903909e-11 0 0)
(-1.56873247e-11 0 0)
(-1.57051569e-11 0 0)
(-1.62872065e-11 0 0)
(-1.66418597e-11 0 0)
(-1.65014795e-11 0 0)
(-1.63465473e-11 0 0)
(-1.58683816e-11 0 0)
(-1.52148431e-11 0 0)
(-1.54518262e-11 0 0)
(-1.52439548e-11 0 0)
(-1.51024721e-11 0 0)
(-1.54479203e-11 0 0)
(-1.43762459e-11 0 0)
(-1.39567288e-11 0 0)
(-1.35781643e-11 0 0)
(-1.35426145e-11 0 0)
(-1.52886069e-11 0 0)
(-1.42059679e-11 0 0)
(-1.37272582e-11 0 0)
(-1.29714975e-11 0 0)
(-1.42649827e-11 0 0)
(-1.43827881e-11 0 0)
(-1.33971271e-11 0 0)
(-1.35523842e-11 0 0)
(-1.28105404e-11 0 0)
(-1.29820485e-11 0 0)
(-1.26406606e-11 0 0)
(-1.33462784e-11 0 0)
(-1.31214455e-11 0 0)
(-1.28183298e-11 0 0)
(-1.33312085e-11 0 0)
(-1.20515759e-11 0 0)
(-1.3027268e-11 0 0)
(-1.31897147e-11 0 0)
(-1.29762544e-11 0 0)
(-1.28469448e-11 0 0)
(-1.26964505e-11 0 0)
(-1.34336544e-11 0 0)
(-1.32265593e-11 0 0)
(-1.33023579e-11 0 0)
(-1.2722707e-11 0 0)
(-1.29712971e-11 0 0)
(-1.2819759e-11 0 0)
(-1.32632016e-11 0 0)
(-1.29089584e-11 0 0)
(-1.24744094e-11 0 0)
(-1.31521372e-11 0 0)
(-1.23439578e-11 0 0)
(-1.35412741e-11 0 0)
(-1.32273757e-11 0 0)
(-1.31761099e-11 0 0)
(-1.26639474e-11 0 0)
(-1.36575512e-11 0 0)
(-1.32546077e-11 0 0)
(-1.44329185e-11 0 0)
(-1.3487988e-11 0 0)
(-1.26178719e-11 0 0)
(-1.32501544e-11 0 0)
(-1.32283192e-11 0 0)
(-1.31617226e-11 0 0)
(-1.30918048e-11 0 0)
(-1.20534029e-11 0 0)
(-1.34531353e-11 0 0)
(-1.30489626e-11 0 0)
(-1.29840083e-11 0 0)
(-1.24697256e-11 0 0)
(-1.25766304e-11 0 0)
(-1.25894474e-11 0 0)
(-1.2222962e-11 0 0)
(-1.14597071e-11 0 0)
(-1.14536321e-11 0 0)
(-1.23981512e-11 0 0)
(-1.1308336e-11 0 0)
(-1.09612295e-11 0 0)
(-1.08973683e-11 0 0)
(-1.15059703e-11 0 0)
(-1.07990565e-11 0 0)
(-1.19165595e-11 0 0)
(-1.1074397e-11 0 0)
(-1.19973468e-11 0 0)
(-1.14311414e-11 0 0)
(-1.08270725e-11 0 0)
(-1.07318412e-11 0 0)
(-1.1206269e-11 0 0)
(-1.09742012e-11 0 0)
(-9.61883042e-12 0 0)
(-1.07272982e-11 0 0)
(-1.08008693e-11 0 0)
(-1.04825442e-11 0 0)
(-1.11188086e-11 0 0)
(-9.71206947e-12 0 0)
(-9.69528218e-12 0 0)
(-1.02397542e-11 0 0)
(-1.0009545e-11 0 0)
(-1.09891615e-11 0 0)
(-1.11652691e-11 0 0)
(-1.02028903e-11 0 0)
(-1.04394602e-11 0 0)
(-1.0471262e-11 0 0)
(-1.10639852e-11 0 0)
(-1.05510785e-11 0 0)
(-9.8431479e-12 0 0)
(-1.01892056e-11 0 0)
(-9.71984691e-12 0 0)
(-9.88396119e-12 0 0)
(-9.80292552e-12 0 0)
(-8.88257182e-12 0 0)
(-9.70661002e-12 0 0)
(-9.63633518e-12 0 0)
(-7.91459975e-12 0 0)
(-8.90420604e-12 0 0)
(-8.65247912e-12 0 0)
(-8.96226628e-12 0 0)
(-8.76961622e-12 0 0)
(-8.54319654e-12 0 0)
(-8.30490989e-12 0 0)
(-8.16239386e-12 0 0)
(-8.01402056e-12 0 0)
(-8.66843424e-12 0 0)
(-7.49220284e-12 0 0)
(-8.27424895e-12 0 0)
(-8.60125949e-12 0 0)
(-9.30123511e-12 0 0)
(-7.34691542e-12 0 0)
(-7.14669109e-12 0 0)
(-8.88834075e-12 0 0)
(-7.45759528e-12 0 0)
(-7.25170876e-12 0 0)
(-7.77590188e-12 0 0)
(-6.59908293e-12 0 0)
(-6.54082207e-12 0 0)
(-7.3802738e-12 0 0)
(-6.96658792e-12 0 0)
(-5.841911e-12 0 0)
(-7.21245644e-12 0 0)
(-7.87944899e-12 0 0)
(-6.21433357e-12 0 0)
(-6.76470564e-12 0 0)
(-6.2182877e-12 0 0)
(-6.4889913e-12 0 0)
(-6.14942623e-12 0 0)
(-6.29535584e-12 0 0)
(-5.4261561e-12 0 0)
(-4.95734392e-12 0 0)
(-5.31770335e-12 0 0)
(-5.56327558e-12 0 0)
(-5.07704674e-12 0 0)
(-4.66705161e-12 0 0)
(-5.57809879e-12 0 0)
(-5.48622103e-12 0 0)
(-5.41689657e-12 0 0)
(-5.11685118e-12 0 0)
(-4.44521441e-12 0 0)
(-4.46104591e-12 0 0)
(-5.29198118e-12 0 0)
(-4.28380944e-12 0 0)
(-4.43941e-12 0 0)
(-4.3324962e-12 0 0)
(-3.79081337e-12 0 0)
(-3.57647907e-12 0 0)
(-4.8251457e-12 0 0)
(-4.40169852e-12 0 0)
(-4.39931784e-12 0 0)
(-5.07398666e-12 0 0)
(-4.26055761e-12 0 0)
(-3.81454939e-12 0 0)
(-4.62147458e-12 0 0)
(-3.00385388e-12 0 0)
(-2.57642274e-12 0 0)
(-3.30512097e-12 0 0)
(-2.20578761e-12 0 0)
(-2.79181126e-12 0 0)
(-2.275755e-12 0 0)
(-2.10815689e-12 0 0)
(-1.44389712e-12 0 0)
(-1.65834947e-12 0 0)
(-1.04679694e-12 0 0)
(-1.42015609e-12 0 0)
(-1.60030072e-12 0 0)
(-1.20674297e-12 0 0)
(-5.76610758e-13 0 0)
(-1.03345137e-12 0 0)
(-1.95021017e-13 0 0)
(-5.50707421e-13 0 0)
(9.73595668e-13 0 0)
(-6.46736898e-13 0 0)
(-2.22279336e-13 0 0)
(-1.73207318e-13 0 0)
(4.10677427e-14 0 0)
(1.40430789e-13 0 0)
(9.26564227e-13 0 0)
(4.9974857e-13 0 0)
(1.13057258e-12 0 0)
(6.61891821e-13 0 0)
(4.84748335e-13 0 0)
(1.30132921e-12 0 0)
(-2.7465997e-13 0 0)
(5.44431343e-13 0 0)
(5.79308306e-13 0 0)
(1.09599515e-12 0 0)
(4.11326552e-13 0 0)
(9.34191079e-13 0 0)
(1.08040424e-12 0 0)
(1.10405259e-12 0 0)
(5.22996775e-13 0 0)
(1.3640807e-12 0 0)
(1.75095485e-12 0 0)
(5.11617198e-13 0 0)
(1.90102817e-12 0 0)
(1.17208243e-12 0 0)
(-9.36455374e-14 0 0)
(7.30357349e-13 0 0)
(6.96798199e-13 0 0)
(1.17772903e-12 0 0)
(1.50572145e-12 0 0)
(8.60915002e-13 0 0)
(8.41297068e-13 0 0)
(1.35147212e-12 0 0)
(1.73729756e-12 0 0)
(1.58102435e-12 0 0)
(8.35801486e-13 0 0)
(8.89421204e-13 0 0)
(1.18407845e-12 0 0)
(-5.79869518e-13 0 0)
(9.98627586e-13 0 0)
(4.54800061e-13 0 0)
(6.0568112e-13 0 0)
(2.2560039e-13 0 0)
(5.9188063e-13 0 0)
(6.26266768e-13 0 0)
(1.45680615e-12 0 0)
(1.03993509e-12 0 0)
(4.61540389e-13 0 0)
(3.41407577e-13 0 0)
(1.60994335e-12 0 0)
(9.4201465e-13 0 0)
(1.18384539e-12 0 0)
(1.256537e-12 0 0)
(1.74378558e-12 0 0)
(1.4506895e-12 0 0)
(1.75173492e-12 0 0)
(9.27218171e-13 0 0)
(1.5774037e-12 0 0)
(2.04549144e-12 0 0)
(2.27086027e-12 0 0)
(1.67597964e-12 0 0)
(1.89120687e-12 0 0)
(1.52998912e-12 0 0)
(2.10960305e-12 0 0)
(2.0713258e-12 0 0)
(1.23799036e-12 0 0)
(2.38130807e-12 0 0)
(2.55193068e-12 0 0)
(2.59964471e-12 0 0)
(2.22368567e-12 0 0)
(2.18580542e-12 0 0)
(1.84412103e-12 0 0)
(2.05898586e-12 0 0)
(2.89202811e-12 0 0)
(1.67171708e-12 0 0)
(2.02813482e-12 0 0)
(1.68205438e-12 0 0)
(2.08806306e-12 0 0)
(3.5213988e-12 0 0)
(2.99059497e-12 0 0)
(2.6047501e-12 0 0)
(3.64861602e-12 0 0)
(2.8983409e-12 0 0)
(3.44630052e-12 0 0)
(2.84172321e-12 0 0)
(3.85253723e-12 0 0)
(3.644842e-12 0 0)
(4.15859117e-12 0 0)
(3.0981846e-12 0 0)
(3.07108093e-12 0 0)
(2.65374407e-12 0 0)
(3.5072318e-12 0 0)
(3.7058818e-12 0 0)
(4.58385202e-12 0 0)
(3.78194124e-12 0 0)
(3.94445733e-12 0 0)
(4.22671181e-12 0 0)
(4.01417655e-12 0 0)
(5.23624704e-12 0 0)
(5.11930096e-12 0 0)
(5.26782628e-12 0 0)
(4.85780077e-12 0 0)
(4.93077611e-12 0 0)
(5.24623618e-12 0 0)
(5.52924211e-12 0 0)
(4.85531427e-12 0 0)
(6.14585576e-12 0 0)
(5.83320984e-12 0 0)
(5.69298856e-12 0 0)
(5.17093144e-12 0 0)
(5.40239867e-12 0 0)
(6.58039377e-12 0 0)
(6.55271343e-12 0 0)
(5.62804225e-12 0 0)
(5.36090971e-12 0 0)
(6.44499315e-12 0 0)
(7.027241e-12 0 0)
(6.39469449e-12 0 0)
(6.57672256e-12 0 0)
(7.35894541e-12 0 0)
(5.97260699e-12 0 0)
(7.06185664e-12 0 0)
(6.7946323e-12 0 0)
(7.60950449e-12 0 0)
(7.28463232e-12 0 0)
(6.82146212e-12 0 0)
(7.65017889e-12 0 0)
(7.32892283e-12 0 0)
(7.78323239e-12 0 0)
(8.111297e-12 0 0)
(8.5292156e-12 0 0)
(8.48227915e-12 0 0)
(8.44434838e-12 0 0)
(8.54906867e-12 0 0)
(8.2485696e-12 0 0)
(8.9657108e-12 0 0)
(7.8480403e-12 0 0)
(7.79729076e-12 0 0)
(7.03658924e-12 0 0)
(8.06855375e-12 0 0)
(8.81516314e-12 0 0)
(7.81130268e-12 0 0)
(8.95917547e-12 0 0)
(7.94036667e-12 0 0)
(7.63317096e-12 0 0)
(7.98790064e-12 0 0)
(8.65941927e-12 0 0)
(7.86069531e-12 0 0)
(8.20414548e-12 0 0)
(7.89717893e-12 0 0)
(7.38012033e-12 0 0)
(8.99521208e-12 0 0)
(8.17911988e-12 0 0)
(8.90096795e-12 0 0)
(8.06889229e-12 0 0)
(8.91173296e-12 0 0)
(8.5300246e-12 0 0)
(8.45117619e-12 0 0)
(8.28177413e-12 0 0)
(7.35840565e-12 0 0)
(8.20517564e-12 0 0)
(7.78408002e-12 0 0)
(6.84852539e-12 0 0)
(7.9382319e-12 0 0)
(6.80147542e-12 0 0)
(7.86811547e-12 0 0)
(7.75238743e-12 0 0)
(6.93626091e-12 0 0)
(7.64230409e-12 0 0)
(7.88592518e-12 0 0)
(6.86496417e-12 0 0)
(7.65962765e-12 0 0)
(7.7568727e-12 0 0)
(7.50426913e-12 0 0)
(7.0552302e-12 0 0)
(7.52079273e-12 0 0)
(7.26145809e-12 0 0)
(7.24756121e-12 0 0)
(7.11944153e-12 0 0)
(7.12205493e-12 0 0)
(7.39172139e-12 0 0)
(7.3324744e-12 0 0)
(7.61626743e-12 0 0)
(7.53664364e-12 0 0)
(7.1282706e-12 0 0)
(7.96721626e-12 0 0)
(7.69868568e-12 0 0)
(8.55329474e-12 0 0)
(7.48989281e-12 0 0)
(7.55146469e-12 0 0)
(8.11931177e-12 0 0)
(7.20272626e-12 0 0)
(8.05108891e-12 0 0)
(8.2562318e-12 0 0)
(8.59126089e-12 0 0)
(8.27860802e-12 0 0)
(8.44088372e-12 0 0)
(8.49460588e-12 0 0)
(8.13487233e-12 0 0)
(9.56505374e-12 0 0)
(7.389894e-12 0 0)
(9.03036897e-12 0 0)
(8.59779688e-12 0 0)
(8.68404792e-12 0 0)
(8.80282735e-12 0 0)
(8.48438352e-12 0 0)
(8.48142773e-12 0 0)
(9.05711953e-12 0 0)
(9.34385597e-12 0 0)
(8.35162024e-12 0 0)
(7.95779019e-12 0 0)
(9.24244684e-12 0 0)
(9.46478098e-12 0 0)
(8.7602138e-12 0 0)
(9.0234927e-12 0 0)
(9.46000348e-12 0 0)
(9.08582805e-12 0 0)
(8.71068818e-12 0 0)
(8.35078742e-12 0 0)
(9.90069946e-12 0 0)
(9.25444717e-12 0 0)
(8.7341434e-12 0 0)
(8.90478529e-12 0 0)
(9.41875199e-12 0 0)
(8.91674147e-12 0 0)
(8.6691266e-12 0 0)
(8.8373365e-12 0 0)
(9.02124998e-12 0 0)
(8.24250515e-12 0 0)
(8.44880685e-12 0 0)
(9.36429083e-12 0 0)
(8.33136475e-12 0 0)
(8.68522044e-12 0 0)
(9.48367258e-12 0 0)
(9.17552237e-12 0 0)
(8.92051134e-12 0 0)
(9.17260715e-12 0 0)
(9.43652488e-12 0 0)
(9.58204827e-12 0 0)
(9.04510468e-12 0 0)
(9.4039499e-12 0 0)
(9.16347555e-12 0 0)
(1.00645252e-11 0 0)
(9.28316917e-12 0 0)
(9.1577027e-12 0 0)
(9.31215751e-12 0 0)
(1.00630362e-11 0 0)
(8.90486769e-12 0 0)
(9.48616283e-12 0 0)
(8.91891548e-12 0 0)
(9.79471487e-12 0 0)
(9.68117325e-12 0 0)
(9.43364081e-12 0 0)
(9.57258531e-12 0 0)
(1.00141455e-11 0 0)
(9.93509659e-12 0 0)
(1.04077969e-11 0 0)
(9.41015441e-12 0 0)
(9.18922431e-12 0 0)
(1.01758512e-11 0 0)
(1.00668318e-11 0 0)
(1.05321412e-11 0 0)
(1.04187577e-11 0 0)
(1.0423047e-11 0 0)
(9.95390838e-12 0 0)
(9.97077075e-12 0 0)
(9.37010921e-12 0 0)
(9.25664819e-12 0 0)
(9.72326935e-12 0 0)
(1.0315693e-11 0 0)
(1.02036783e-11 0 0)
(9.95770646e-12 0 0)
(9.03441686e-12 0 0)
(1.02749907e-11 0 0)
(1.03707729e-11 0 0)
(1.00986966e-11 0 0)
(9.85787837e-12 0 0)
(9.47925701e-12 0 0)
(9.88524677e-12 0 0)
(9.8123803e-12 0 0)
(1.11240398e-11 0 0)
(1.00087794e-11 0 0)
(9.97405376e-12 0 0)
(1.0220739e-11 0 0)
(1.022668e-11 0 0)
(9.23287939e-12 0 0)
(1.0426949e-11 0 0)
(1.01927823e-11 0 0)
(1.08813162e-11 0 0)
(1.17212128e-11 0 0)
(1.10922469e-11 0 0)
(1.1052507e-11 0 0)
(1.08346549e-11 0 0)
(1.11090137e-11 0 0)
(1.14218481e-11 0 0)
(1.04667059e-11 0 0)
(1.14438271e-11 0 0)
(1.08608428e-11 0 0)
(1.10351924e-11 0 0)
(1.03645985e-11 0 0)
(1.22232996e-11 0 0)
(1.18453089e-11 0 0)
(1.07756062e-11 0 0)
(1.20724674e-11 0 0)
(1.12239943e-11 0 0)
(1.12360196e-11 0 0)
(9.9738739e-12 0 0)
(1.08223986e-11 0 0)
(1.02015926e-11 0 0)
(1.14172944e-11 0 0)
(1.18785619e-11 0 0)
(9.53627281e-12 0 0)
(1.09354554e-11 0 0)
(1.05601112e-11 0 0)
(1.08235231e-11 0 0)
(1.09886651e-11 0 0)
(1.03027579e-11 0 0)
(1.01997366e-11 0 0)
(9.99080096e-12 0 0)
(1.01737174e-11 0 0)
(1.02800621e-11 0 0)
(1.0395625e-11 0 0)
(9.54533228e-12 0 0)
(9.24326455e-12 0 0)
(8.52569042e-12 0 0)
(9.63549278e-12 0 0)
(9.13973221e-12 0 0)
(8.94277789e-12 0 0)
(8.6161584e-12 0 0)
(8.65841091e-12 0 0)
(8.39105021e-12 0 0)
(9.1034189e-12 0 0)
(8.40932153e-12 0 0)
(9.16436139e-12 0 0)
(8.01515211e-12 0 0)
(8.32315489e-12 0 0)
(9.11791701e-12 0 0)
(8.35077671e-12 0 0)
(8.4972457e-12 0 0)
(8.29600118e-12 0 0)
(9.38337806e-12 0 0)
(8.54032378e-12 0 0)
(8.76275639e-12 0 0)
(9.02310214e-12 0 0)
(9.45701135e-12 0 0)
(9.41046833e-12 0 0)
(8.63023981e-12 0 0)
(1.02124244e-11 0 0)
(9.36885121e-12 0 0)
(9.88080644e-12 0 0)
(9.97186823e-12 0 0)
(1.08467512e-11 0 0)
(9.99072408e-12 0 0)
(9.10322753e-12 0 0)
(9.37098085e-12 0 0)
(1.01931203e-11 0 0)
(9.03983337e-12 0 0)
(8.61513869e-12 0 0)
(1.04958684e-11 0 0)
(1.02715266e-11 0 0)
(1.08284316e-11 0 0)
(9.21423035e-12 0 0)
(1.0198056e-11 0 0)
(1.03328815e-11 0 0)
(1.01023581e-11 0 0)
(1.01106975e-11 0 0)
(1.01300205e-11 0 0)
(1.03604538e-11 0 0)
(9.63138318e-12 0 0)
(9.75815213e-12 0 0)
(9.52009939e-12 0 0)
(9.89566089e-12 0 0)
(1.02382641e-11 0 0)
(9.10230012e-12 0 0)
(9.91174578e-12 0 0)
(9.89363868e-12 0 0)
(9.78431748e-12 0 0)
(1.0320706e-11 0 0)
(1.13591427e-11 0 0)
(1.05212701e-11 0 0)
(1.0893713e-11 0 0)
(1.00372968e-11 0 0)
(1.02313436e-11 0 0)
(9.78011636e-12 0 0)
(9.58928735e-12 0 0)
(1.07600738e-11 0 0)
(1.04131947e-11 0 0)
(9.44501716e-12 0 0)
(1.02642448e-11 0 0)
(1.00410794e-11 0 0)
(1.03779516e-11 0 0)
(1.13759855e-11 0 0)
(9.47975126e-12 0 0)
(1.00091226e-11 0 0)
(9.09667423e-12 0 0)
(9.45752113e-12 0 0)
(1.04988245e-11 0 0)
(1.01609274e-11 0 0)
(1.05772612e-11 0 0)
(1.06885652e-11 0 0)
(1.0161242e-11 0 0)
(1.06048427e-11 0 0)
(9.73804815e-12 0 0)
(9.8152683e-12 0 0)
(1.011072e-11 0 0)
(9.64811785e-12 0 0)
(9.74465353e-12 0 0)
(9.45646341e-12 0 0)
(9.98842909e-12 0 0)
(1.02047107e-11 0 0)
(8.91808902e-12 0 0)
(9.60197893e-12 0 0)
(9.91847737e-12 0 0)
(8.96020377e-12 0 0)
(8.8464818e-12 0 0)
(9.62945588e-12 0 0)
(8.94883843e-12 0 0)
(9.40691673e-12 0 0)
(8.52658338e-12 0 0)
(9.13300109e-12 0 0)
(8.68341565e-12 0 0)
(8.70608945e-12 0 0)
(8.23481469e-12 0 0)
(7.3243919e-12 0 0)
(8.69833589e-12 0 0)
(7.75397155e-12 0 0)
(8.3181669e-12 0 0)
(7.38171663e-12 0 0)
(8.02903514e-12 0 0)
(7.30629001e-12 0 0)
(7.53143889e-12 0 0)
(7.45085846e-12 0 0)
(7.16106918e-12 0 0)
(8.12075803e-12 0 0)
(7.89705434e-12 0 0)
(7.34479947e-12 0 0)
(7.59676728e-12 0 0)
(7.10101737e-12 0 0)
(7.296536e-12 0 0)
(6.71022829e-12 0 0)
(5.913635e-12 0 0)
(6.76785697e-12 0 0)
(5.6782768e-12 0 0)
(6.61163596e-12 0 0)
(6.39327851e-12 0 0)
(5.44409284e-12 0 0)
(5.87591377e-12 0 0)
(6.4227816e-12 0 0)
(5.19434391e-12 0 0)
(5.83137264e-12 0 0)
(5.6223766e-12 0 0)
(5.7823737e-12 0 0)
(5.10605364e-12 0 0)
(5.30458846e-12 0 0)
(5.44802603e-12 0 0)
(4.27021039e-12 0 0)
(3.73086784e-12 0 0)
(4.85756089e-12 0 0)
(4.61267183e-12 0 0)
(4.63371108e-12 0 0)
(4.63414536e-12 0 0)
(4.40102446e-12 0 0)
(3.92694227e-12 0 0)
(4.07543723e-12 0 0)
(4.13419413e-12 0 0)
(4.2789916e-12 0 0)
(4.16320136e-12 0 0)
(4.66104312e-12 0 0)
(3.08564136e-12 0 0)
(4.2075201e-12 0 0)
(4.33371027e-12 0 0)
(3.75854261e-12 0 0)
(4.33574146e-12 0 0)
(3.79200759e-12 0 0)
(4.60085404e-12 0 0)
(3.88921094e-12 0 0)
(3.38246919e-12 0 0)
(2.92009942e-12 0 0)
(4.33817155e-12 0 0)
(3.33668684e-12 0 0)
(3.76706367e-12 0 0)
(3.90897041e-12 0 0)
(3.91638683e-12 0 0)
(3.58620195e-12 0 0)
(3.17373874e-12 0 0)
(3.62100717e-12 0 0)
(3.29650204e-12 0 0)
(3.67005023e-12 0 0)
(3.98426416e-12 0 0)
(3.71387029e-12 0 0)
(3.08710463e-12 0 0)
(3.42740396e-12 0 0)
(3.5433973e-12 0 0)
(3.29438484e-12 0 0)
(3.05341635e-12 0 0)
(2.97235544e-12 0 0)
(2.8141091e-12 0 0)
(2.65564974e-12 0 0)
(2.74701689e-12 0 0)
(2.88407818e-12 0 0)
(2.46642365e-12 0 0)
(2.20483013e-12 0 0)
(1.53032403e-12 0 0)
(1.5429475e-12 0 0)
(1.55885191e-12 0 0)
(1.36189917e-12 0 0)
(2.07731773e-12 0 0)
(1.69382054e-12 0 0)
(5.01585603e-13 0 0)
(5.66430729e-13 0 0)
(6.40410486e-14 0 0)
(-1.51117792e-13 0 0)
(-1.06950461e-13 0 0)
(-1.39506886e-13 0 0)
(-5.02753214e-13 0 0)
(-6.1865528e-13 0 0)
(-2.1212475e-12 0 0)
(-2.158082e-13 0 0)
(-5.98345195e-13 0 0)
(-1.25122642e-12 0 0)
(-2.13143363e-12 0 0)
(-1.43314391e-12 0 0)
(-2.66317397e-12 0 0)
(-1.51258269e-12 0 0)
(-1.64947665e-12 0 0)
(-1.81702072e-12 0 0)
(-2.06423919e-12 0 0)
(-2.33086509e-12 0 0)
(-1.65668262e-12 0 0)
(-2.16926736e-12 0 0)
(-2.0588533e-12 0 0)
(-1.76873001e-12 0 0)
(-1.91669491e-12 0 0)
(-1.77121165e-12 0 0)
(-1.29277996e-12 0 0)
(-2.36954159e-12 0 0)
(-1.49019478e-12 0 0)
(-3.45555563e-12 0 0)
(-2.19316629e-12 0 0)
(-1.55738546e-12 0 0)
(-2.35360956e-12 0 0)
(-2.56186009e-12 0 0)
(-2.59428137e-12 0 0)
(-2.78730033e-12 0 0)
(-3.015918e-12 0 0)
(-3.62344393e-12 0 0)
(-3.31387239e-12 0 0)
(-3.06929346e-12 0 0)
(-2.73601334e-12 0 0)
(-3.02280317e-12 0 0)
(-3.9748937e-12 0 0)
(-3.70625021e-12 0 0)
(-3.28681531e-12 0 0)
(-4.0946526e-12 0 0)
(-3.69894699e-12 0 0)
(-4.68285553e-12 0 0)
(-3.67421895e-12 0 0)
(-3.95593646e-12 0 0)
(-3.91627531e-12 0 0)
(-4.03776421e-12 0 0)
(-4.23770398e-12 0 0)
(-3.39541186e-12 0 0)
(-4.40150369e-12 0 0)
(-3.70600727e-12 0 0)
(-3.56798165e-12 0 0)
(-3.90408914e-12 0 0)
(-3.06749713e-12 0 0)
(-2.61871692e-12 0 0)
(-2.81534308e-12 0 0)
(-2.59852176e-12 0 0)
(-3.63409355e-12 0 0)
(-3.24550648e-12 0 0)
(-3.43964042e-12 0 0)
(-2.97017431e-12 0 0)
(-3.08784224e-12 0 0)
(-3.38228937e-12 0 0)
(-3.64935133e-12 0 0)
(-3.53278931e-12 0 0)
(-3.5747615e-12 0 0)
(-3.87939969e-12 0 0)
(-3.02917188e-12 0 0)
(-3.40310788e-12 0 0)
(-3.09237872e-12 0 0)
(-3.69112715e-12 0 0)
(-3.26889662e-12 0 0)
(-4.67393945e-12 0 0)
(-3.15472227e-12 0 0)
(-3.92115426e-12 0 0)
(-5.51166621e-12 0 0)
(-4.65163938e-12 0 0)
(-5.16736209e-12 0 0)
(-5.22551631e-12 0 0)
(-6.03315017e-12 0 0)
(-5.84506569e-12 0 0)
(-5.87438018e-12 0 0)
(-6.19893027e-12 0 0)
(-5.68414514e-12 0 0)
(-5.80026581e-12 0 0)
(-6.98598324e-12 0 0)
(-7.35129095e-12 0 0)
(-6.848203e-12 0 0)
(-7.06230437e-12 0 0)
(-7.32417642e-12 0 0)
(-7.22161325e-12 0 0)
(-8.64975332e-12 0 0)
(-7.6465603e-12 0 0)
(-7.72246813e-12 0 0)
(-7.56347176e-12 0 0)
(-7.97820371e-12 0 0)
(-7.4605698e-12 0 0)
(-7.21274289e-12 0 0)
(-6.12573234e-12 0 0)
(-7.54384374e-12 0 0)
(-7.40350932e-12 0 0)
(-7.23535874e-12 0 0)
(-6.41329268e-12 0 0)
(-8.10396091e-12 0 0)
(-6.57843947e-12 0 0)
(-8.03952855e-12 0 0)
(-7.54796545e-12 0 0)
(-8.63216971e-12 0 0)
(-8.18602188e-12 0 0)
(-8.54033257e-12 0 0)
(-8.48928212e-12 0 0)
(-7.78322665e-12 0 0)
(-8.61734014e-12 0 0)
(-9.01989513e-12 0 0)
(-8.16515814e-12 0 0)
(-8.84850074e-12 0 0)
(-9.02165417e-12 0 0)
(-8.73841401e-12 0 0)
(-9.0218529e-12 0 0)
(-9.58805509e-12 0 0)
(-9.7377289e-12 0 0)
(-9.40367627e-12 0 0)
(-9.83652566e-12 0 0)
(-9.07037914e-12 0 0)
(-1.00460541e-11 0 0)
(-1.01163807e-11 0 0)
(-1.06218068e-11 0 0)
(-9.75506064e-12 0 0)
(-1.00105071e-11 0 0)
(-1.07093179e-11 0 0)
(-1.07692713e-11 0 0)
(-1.00014178e-11 0 0)
(-1.05160174e-11 0 0)
(-1.0378577e-11 0 0)
(-1.08853712e-11 0 0)
(-1.09897569e-11 0 0)
(-1.13423461e-11 0 0)
(-1.09610501e-11 0 0)
(-1.11893523e-11 0 0)
(-1.17004819e-11 0 0)
(-1.14079159e-11 0 0)
(-1.21762018e-11 0 0)
(-1.21595055e-11 0 0)
(-1.25775575e-11 0 0)
(-1.1581594e-11 0 0)
(-1.27978878e-11 0 0)
(-1.17881409e-11 0 0)
(-1.16546664e-11 0 0)
(-1.13545064e-11 0 0)
(-1.11560523e-11 0 0)
(-1.14358249e-11 0 0)
(-1.27214547e-11 0 0)
(-1.23481241e-11 0 0)
(-1.25665497e-11 0 0)
(-1.15848189e-11 0 0)
(-1.16280248e-11 0 0)
(-1.23229085e-11 0 0)
(-1.28271502e-11 0 0)
(-1.28680258e-11 0 0)
(-1.18451509e-11 0 0)
(-1.2371306e-11 0 0)
(-1.23019529e-11 0 0)
(-1.21411854e-11 0 0)
(-1.13300459e-11 0 0)
(-1.14146505e-11 0 0)
(-1.2119154e-11 0 0)
(-1.2225039e-11 0 0)
(-1.19167108e-11 0 0)
(-1.19291284e-11 0 0)
(-1.15607157e-11 0 0)
(-1.13069513e-11 0 0)
(-1.20989113e-11 0 0)
(-1.16512237e-11 0 0)
(-1.15449098e-11 0 0)
(-1.23471131e-11 0 0)
(-1.23894958e-11 0 0)
(-1.18333356e-11 0 0)
(-1.23121335e-11 0 0)
(-1.17771395e-11 0 0)
(-1.21296897e-11 0 0)
(-1.26958782e-11 0 0)
(-1.20553855e-11 0 0)
(-1.22705017e-11 0 0)
(-1.18265244e-11 0 0)
(-1.25237987e-11 0 0)
(-1.33572838e-11 0 0)
(-1.26990221e-11 0 0)
(-1.28098925e-11 0 0)
(-1.2751172e-11 0 0)
(-1.22863414e-11 0 0)
(-1.28360161e-11 0 0)
(-1.31045629e-11 0 0)
(-1.31621476e-11 0 0)
(-1.23879709e-11 0 0)
(-1.21049886e-11 0 0)
(-1.26628541e-11 0 0)
(-1.19308761e-11 0 0)
(-1.19609938e-11 0 0)
(-1.20466499e-11 0 0)
(-1.14969459e-11 0 0)
(-1.15692342e-11 0 0)
(-1.16809662e-11 0 0)
(-1.14691519e-11 0 0)
(-1.18733481e-11 0 0)
(-1.18638879e-11 0 0)
(-1.20054548e-11 0 0)
(-1.11793052e-11 0 0)
(-1.18466059e-11 0 0)
(-1.22793898e-11 0 0)
(-1.21392023e-11 0 0)
(-1.23141659e-11 0 0)
(-1.13190013e-11 0 0)
(-1.18844194e-11 0 0)
(-1.2329723e-11 0 0)
(-1.17353009e-11 0 0)
(-1.27243118e-11 0 0)
(-1.22320109e-11 0 0)
(-1.17566541e-11 0 0)
(-1.23164443e-11 0 0)
(-1.22333227e-11 0 0)
(-1.23862832e-11 0 0)
(-1.19266433e-11 0 0)
(-1.258458e-11 0 0)
(-1.18723812e-11 0 0)
(-1.25454895e-11 0 0)
(-1.29195624e-11 0 0)
(-1.30298311e-11 0 0)
(-1.22235752e-11 0 0)
(-1.28678599e-11 0 0)
(-1.23746201e-11 0 0)
(-1.25903428e-11 0 0)
(-1.29992079e-11 0 0)
(-1.31468259e-11 0 0)
(-1.2417715e-11 0 0)
(-1.17019704e-11 0 0)
(-1.2870593e-11 0 0)
(-1.25133693e-11 0 0)
(-1.19090741e-11 0 0)
(-1.20270253e-11 0 0)
(-1.15896473e-11 0 0)
(-1.13633809e-11 0 0)
(-1.15094771e-11 0 0)
(-1.16244416e-11 0 0)
(-1.14693256e-11 0 0)
(-1.0542187e-11 0 0)
(-1.17980833e-11 0 0)
(-1.14941882e-11 0 0)
(-1.09118963e-11 0 0)
(-1.15836483e-11 0 0)
(-1.13913776e-11 0 0)
(-1.06704824e-11 0 0)
(-1.10423457e-11 0 0)
(-9.58908164e-12 0 0)
(-1.00949434e-11 0 0)
(-1.05299176e-11 0 0)
(-1.1091386e-11 0 0)
(-1.02357441e-11 0 0)
(-1.01535294e-11 0 0)
(-1.00581416e-11 0 0)