/*--------------------------------*- C++ -*----------------------------------*\
| =========                 |                                                 |
| \\      /  F ield         | OpenFOAM: The Open Source CFD Toolbox           |
|  \\    /   O peration     | Version:  2206                                  |
|   \\  /    A nd           | Website:  www.openfoam.com                      |
|    \\/     M anipulation  |                                                 |
\*---------------------------------------------------------------------------*/
FoamFile
{
    version     2.0;
    format      ascii;
    arch        "LSB;label=32;scalar=64";
    class       surfaceScalarField;
    location    "1.66e-05";
    object      phi;
}
// * * * * * * * * * * * * * * * * * * * * * * * * * * * * * * * * * * * * * //

dimensions      [1 0 -1 0 0 0 0];

oriented        oriented;

internalField   nonuniform List<scalar> 
3182
(
5.89888888e-18
-2.03429314e-18
-2.72200469e-18
-2.26055962e-18
-8.41858329e-21
-4.26471128e-23
-2.98653102e-24
1.65907173e-25
7.70308583e-24
1.55736773e-22
1.92224754e-19
4.53985239e-18
3.70369838e-18
1.26427372e-18
1.19759644e-18
-1.37388703e-18
-5.12980914e-18
-4.673926e-18
-5.36468098e-18
4.18004052e-18
7.68086546e-20
3.45101282e-21
1.55742051e-18
2.5522547e-18
4.26798187e-18
5.8611439e-18
5.65657945e-18
2.59527151e-18
-1.2397339e-19
-6.47204737e-19
-5.02817879e-19
-1.42051776e-18
-5.53903014e-18
-6.20842932e-18
-3.1073878e-18
-5.83173255e-18
-8.47959628e-18
-8.0267777e-18
-7.59688562e-18
-4.72553765e-18
-2.04908105e-18
2.44801015e-19
2.82218046e-18
6.57473441e-18
9.25546613e-18
1.05193753e-17
1.2346388e-17
1.11551009e-17
1.01858504e-17
8.68497095e-18
5.43078564e-18
1.55840867e-18
-3.17883258e-19
-4.10619832e-18
-8.23005075e-18
-1.14669754e-17
-1.56005615e-17
-1.90612911e-17
-2.10376818e-17
-2.38738147e-17
-2.71166319e-17
-2.93358734e-17
-3.09040599e-17
-3.32374619e-17
-3.44776101e-17
-3.49167829e-17
-3.49301666e-17
-3.64183139e-17
-3.7736112e-17
-3.78325267e-17
-3.90719831e-17
-4.01578831e-17
-3.98574547e-17
-4.09315336e-17
-4.2247217e-17
-4.30979394e-17
-4.35892145e-17
-4.44637488e-17
-4.32716677e-17
-4.53212627e-17
-4.49997135e-17
-4.704842e-17
-4.83217771e-17
-5.00848387e-17
-4.97631265e-17
-5.10254377e-17
-5.23386499e-17
-5.42802071e-17
-5.31440355e-17
-5.46992363e-17
-5.76811609e-17
-6.07410543e-17
-6.2967736e-17
-6.04687164e-17
-6.39398483e-17
-6.37867326e-17
-6.42064201e-17
-6.10642927e-17
-6.18362137e-17
-6.25661413e-17
-6.23812553e-17
-6.02131667e-17
-6.40079713e-17
-6.25646795e-17
-6.46114879e-17
-6.12156292e-17
-6.37383964e-17
-6.23993721e-17
-6.09447808e-17
-5.77734677e-17
-5.88923841e-17
-6.3682735e-17
-6.61993863e-17
-6.57554994e-17
-6.96759396e-17
-7.17051597e-17
-7.03371405e-17
-7.3483975e-17
-7.48502181e-17
-7.37849103e-17
-7.13400039e-17
-7.56907715e-17
-7.11933959e-17
-7.20092169e-17
-7.06752656e-17
-7.21347597e-17
-7.29313733e-17
-7.28980447e-17
-7.29771231e-17
-7.70584774e-17
-7.59270813e-17
-7.69130375e-17
-7.78246867e-17
-7.71039043e-17
-7.81178641e-17
-8.12936761e-17
-7.80295841e-17
-7.79272076e-17
-7.84172226e-17
-7.79598342e-17
-7.78621742e-17
-7.910383e-17
-8.33692614e-17
-8.27904125e-17
-8.55158939e-17
-8.64350363e-17
-8.50008347e-17
-8.62083106e-17
-8.45564744e-17
-8.39134255e-17
-8.45307263e-17
-8.60226666e-17
-8.53606624e-17
-8.34770316e-17
-8.46618305e-17
-8.48356119e-17
-8.44553346e-17
-8.35684866e-17
-8.56155813e-17
-8.73947836e-17
-8.64264556e-17
-8.44352665e-17
-8.54030503e-17
-8.34865185e-17
-8.06899609e-17
-8.3938373e-17
-8.33233154e-17
-8.61175707e-17
-8.73097113e-17
-8.68604068e-17
-8.59123687e-17
-8.70270191e-17
-9.0195243e-17
-8.754057e-17
-8.61700617e-17
-8.9513515e-17
-8.53580031e-17
-8.40726062e-17
-8.89606078e-17
-8.55253e-17
-8.7091128e-17
-8.84658704e-17
-8.78624132e-17
-8.58709589e-17
-8.58813686e-17
-8.36847172e-17
-8.34165763e-17
-8.71946807e-17
-8.49146303e-17
-8.51190174e-17
-8.66945561e-17
-8.79519853e-17
-8.84832541e-17
-8.85229789e-17
-9.15982154e-17
-9.2557076e-17
-9.28187835e-17
-9.53202407e-17
-9.37768206e-17
-9.34638502e-17
-9.4983614e-17
-9.40233589e-17
-9.50075452e-17
-9.59677663e-17
-9.49871377e-17
-9.6113376e-17
-9.68230925e-17
-9.91811886e-17
-1.00324244e-16
-9.69703386e-17
-9.96031355e-17
-9.81722894e-17
-9.81194313e-17
-9.77717136e-17
-1.00455761e-16
-9.92256405e-17
-9.80971065e-17
-9.91558711e-17
-1.01247144e-16
-1.0090849e-16
-9.98162546e-17
-1.00427655e-16
-9.76184127e-17
-1.01406868e-16
-1.00483948e-16
-9.89861998e-17
-1.00271253e-16
-9.81976708e-17
-1.00843426e-16
-1.0225433e-16
-1.01561202e-16
-1.02356292e-16
-1.00405853e-16
-9.90775911e-17
-9.96013762e-17
-9.58458229e-17
-9.8839384e-17
-1.00198664e-16
-9.94204453e-17
-1.01333025e-16
-1.04169841e-16
-1.03964229e-16
-1.05598869e-16
-1.06440465e-16
-1.08654491e-16
-1.1032245e-16
-1.11444473e-16
-1.11317516e-16
-1.11621984e-16
-1.09414569e-16
-1.11277416e-16
-1.10114075e-16
-1.10632677e-16
-1.0950268e-16
-1.10317556e-16
-1.10955215e-16
-1.11989468e-16
-1.14728934e-16
-1.14628283e-16
-1.13530113e-16
-1.12468884e-16
-1.15958994e-16
-1.13765909e-16
-1.13894315e-16
-1.15376642e-16
-1.16755694e-16
-1.16481097e-16
-1.19423493e-16
-1.20281259e-16
-1.18339198e-16
-1.19343825e-16
-1.17580879e-16
-1.17221761e-16
-1.17939313e-16
-1.19919786e-16
-1.20273252e-16
-1.2452195e-16
-1.2474045e-16
-1.26184377e-16
-1.25602263e-16
-1.29911143e-16
-1.2804333e-16
-1.29552825e-16
-1.29678328e-16
-1.29089979e-16
-1.30288715e-16
-1.28618718e-16
-1.32166464e-16
-1.31017241e-16
-1.27583354e-16
-1.28228087e-16
-1.29219253e-16
-1.29741243e-16
-1.28685974e-16
-1.28087407e-16
-1.26465733e-16
-1.25688608e-16
-1.25244665e-16
-1.25820721e-16
-1.25335376e-16
-1.2465393e-16
-1.23531802e-16
-1.25421966e-16
-1.27524813e-16
-1.28080745e-16
-1.28930697e-16
-1.30130796e-16
-1.28351014e-16
-1.29054622e-16
-1.29585369e-16
-1.3257525e-16
-1.31041376e-16
-1.32947734e-16
-1.34973123e-16
-1.35253008e-16
-1.33695316e-16
-1.33262812e-16
-1.33279971e-16
-1.33253782e-16
-1.32460469e-16
-1.2820602e-16
-1.3190306e-16
-1.30267594e-16
-1.30252916e-16
-1.32490726e-16
-1.28433027e-16
-1.27431833e-16
-1.25586688e-16
-1.2690002e-16
-1.30085879e-16
-1.28494928e-16
-1.28352875e-16
-1.22825263e-16
-1.23207877e-16
-1.24345982e-16
-1.26925689e-16
-1.27164609e-16
-1.24173447e-16
-1.23592094e-16
-1.24617594e-16
-1.24416584e-16
-1.25517108e-16
-1.25460475e-16
-1.24160816e-16
-1.25454382e-16
-1.27372435e-16
-1.28020441e-16
-1.26269619e-16
-1.27022198e-16
-1.2851911e-16
-1.22856562e-16
-1.24758857e-16
-1.24642382e-16
-1.24088481e-16
-1.25881005e-16
-1.25350191e-16
-1.27515025e-16
-1.25846285e-16
-1.26918824e-16
-1.2563273e-16
-1.23040628e-16
-1.23475614e-16
-1.19716506e-16
-1.22646533e-16
-1.21978872e-16
-1.19796031e-16
-1.17702789e-16
-1.18282523e-16
-1.15493307e-16
-1.16859802e-16
-1.17963859e-16
-1.15674184e-16
-1.11685811e-16
-1.14432222e-16
-1.12761783e-16
-1.14342215e-16
-1.10777543e-16
-1.14060586e-16
-1.14659287e-16
-1.15948427e-16
-1.14267027e-16
-1.13631416e-16
-1.09716431e-16
-1.13102271e-16
-1.08723775e-16
-1.1161052e-16
-1.12763874e-16
-1.13173002e-16
-1.14121966e-16
-1.11613958e-16
-1.10188941e-16
-1.1050094e-16
-1.05300196e-16
-1.04063554e-16
-1.01866702e-16
-9.78588304e-17
-9.85275541e-17
-1.00017047e-16
-1.00182335e-16
-1.03652523e-16
-9.91533351e-17
-1.00158181e-16
-9.9525176e-17
-9.90946222e-17
-9.95212282e-17
-9.67622582e-17
-9.9359517e-17
-9.86208889e-17
-9.51470512e-17
-9.33490667e-17
-9.12942814e-17
-9.15838877e-17
-8.98465103e-17
-9.04195296e-17
-9.15685815e-17
-8.98902909e-17
-9.14735812e-17
-9.29037115e-17
-9.11764959e-17
-9.11348573e-17
-8.96915457e-17
-9.17362583e-17
-8.86253274e-17
-8.94728938e-17
-8.98879952e-17
-8.79669074e-17
-8.78008481e-17
-8.84509291e-17
-8.16726499e-17
-8.29925368e-17
-8.29348007e-17
-8.55893143e-17
-8.48680912e-17
-8.84980423e-17
-9.006922e-17
-8.95058068e-17
-8.97501783e-17
-8.88783863e-17
-8.87666645e-17
-8.70832797e-17
-8.5643892e-17
-8.82991029e-17
-8.54846407e-17
-8.37770218e-17
-8.1270044e-17
-8.05439624e-17
-8.06666903e-17
-8.25121904e-17
-8.31739361e-17
-8.35835954e-17
-8.37434683e-17
-8.12904952e-17
-8.17266822e-17
-8.35035281e-17
-8.60059419e-17
-8.43129043e-17
-8.54709812e-17
-8.52578633e-17
-8.75321829e-17
-8.90438843e-17
-8.83385697e-17
-8.63964541e-17
-8.30474567e-17
-8.2262611e-17
-7.93885243e-17
-7.84722383e-17
-7.91829314e-17
-7.39863941e-17
-7.61874543e-17
-7.27382351e-17
-7.1744306e-17
-7.09832168e-17
-7.05859006e-17
-6.88276807e-17
-7.1747056e-17
-7.06286842e-17
-7.07693389e-17
-6.79449989e-17
-6.626449e-17
-6.31387893e-17
-6.339724e-17
-6.31801064e-17
-6.40283897e-17
-6.5727338e-17
-6.15391273e-17
-6.25228385e-17
-6.23162178e-17
-6.02391101e-17
-6.25886441e-17
-6.222967e-17
-6.07869323e-17
-6.1996473e-17
-6.06527935e-17
-6.09147395e-17
-6.26739761e-17
-6.08764402e-17
-5.92119855e-17
-5.66574462e-17
-6.06805306e-17
-5.87398165e-17
-5.95216765e-17
-5.72733882e-17
-5.53511605e-17
-5.62304887e-17
-5.81392606e-17
-5.69135328e-17
-5.55830867e-17
-5.7609722e-17
-5.67073121e-17
-5.60488419e-17
-5.79030569e-17
-5.84238582e-17
-5.88308323e-17
-5.87384457e-17
-5.57404007e-17
-5.45250922e-17
-5.38681245e-17
-5.30494705e-17
-4.98302979e-17
-5.05972861e-17
-4.87833977e-17
-5.11373783e-17
-4.78156584e-17
-4.87834428e-17
-4.62267565e-17
-4.54172149e-17
-4.6371639e-17
-4.39774357e-17
-4.0950081e-17
-4.34975587e-17
-4.43336355e-17
-4.60229732e-17
-4.25359572e-17
-4.30526405e-17
-4.45635997e-17
-4.15473144e-17
-4.29397377e-17
-4.09233205e-17
-4.24237849e-17
-3.74953522e-17
-3.53644959e-17
-3.42697391e-17
-3.34729319e-17
-3.41579454e-17
-3.34108231e-17
-3.59585043e-17
-3.15745761e-17
-3.33593945e-17
-3.03059953e-17
-3.3936471e-17
-3.42918762e-17
-3.05155439e-17
-2.92636571e-17
-2.997181e-17
-2.64603997e-17
-2.32802537e-17
-2.31510803e-17
-2.0423676e-17
-2.04593406e-17
-2.41156898e-17
-2.23615813e-17
-2.13132236e-17
-2.26573168e-17
-1.85154935e-17
-1.65660235e-17
-1.7735795e-17
-1.43216113e-17
-1.1647314e-17
-8.60622369e-18
-9.04793628e-18
-8.74008755e-18
-8.99101088e-18
-6.95081574e-18
-6.80555994e-18
-6.24947007e-18
-7.77419114e-18
-5.03565652e-18
-9.82470512e-18
-1.18558878e-17
-7.81693964e-18
-9.5042022e-18
-8.86100242e-18
-1.09436988e-17
-1.4260854e-17
-9.66568034e-18
-8.60712221e-18
-3.29914579e-18
-3.64230495e-18
-5.02686652e-18
-4.60012182e-18
-1.82115789e-18
-2.56086806e-18
-2.1181412e-18
-4.94721266e-19
-2.76575247e-18
1.57286893e-18
3.74064578e-18
7.62561688e-18
8.46712413e-18
6.01780633e-18
4.92960722e-18
7.63100329e-18
1.00536184e-17
6.02791292e-18
5.8711855e-18
6.09914141e-18
4.78184789e-18
4.5248442e-18
4.51529551e-18
5.87594412e-18
4.25465591e-18
6.97371493e-18
6.20069188e-18
6.71531263e-18
5.34770159e-18
4.7568845e-18
3.20698609e-18
8.36285096e-19
6.26518726e-18
8.09087677e-18
4.71346745e-18
2.50857494e-18
2.84778714e-18
2.71311406e-18
1.5523421e-18
-9.9566868e-19
2.42059551e-18
2.53310223e-18
2.56229069e-18
1.18868907e-18
5.68537597e-18
5.64991667e-18
7.22540822e-18
6.51435103e-18
8.9057183e-18
1.03964996e-17
7.86362911e-18
7.43893095e-18
1.05296832e-17
1.25321971e-17
1.4518449e-17
1.39193401e-17
1.24483447e-17
1.2867312e-17
1.19180842e-17
1.24511655e-17
1.21980265e-17
9.74157398e-18
1.26816649e-17
1.5878637e-17
1.47049195e-17
1.59612184e-17
1.58339823e-17
1.55454551e-17
1.45139187e-17
1.27482627e-17
1.20747881e-17
1.09960379e-17
1.33440611e-17
1.81035162e-17
1.97592041e-17
2.0503362e-17
2.07546473e-17
1.7200206e-17
1.89463562e-17
2.19742574e-17
2.39888967e-17
2.47657221e-17
2.42354386e-17
2.5388617e-17
2.65701754e-17
2.28242416e-17
2.45901481e-17
2.18275636e-17
2.35293433e-17
2.45499943e-17
2.50979159e-17
2.50765072e-17
2.60037046e-17
2.98752072e-17
2.75322548e-17
2.73610732e-17
2.73974866e-17
2.88478201e-17
2.80596309e-17
2.96432144e-17
3.37686019e-17
3.33466475e-17
3.64409118e-17
3.62691657e-17
3.56939002e-17
3.7914981e-17
3.80519836e-17
3.74166675e-17
4.00222606e-17
3.94360434e-17
4.02193406e-17
4.46638019e-17
4.6793083e-17
4.9373026e-17
4.99388138e-17
4.8907532e-17
4.92493541e-17
5.10708348e-17
4.94322363e-17
5.04307637e-17
4.99918845e-17
5.08799418e-17
5.33810319e-17
5.40231206e-17
5.31794138e-17
5.23297834e-17
5.32506761e-17
5.47616241e-17
5.62673086e-17
5.78619721e-17
5.70967658e-17
5.84178453e-17
5.9434653e-17
6.12565586e-17
5.8362594e-17
5.94075016e-17
5.75137e-17
5.73395855e-17
5.78970653e-17
5.65071751e-17
5.78937133e-17
5.8527246e-17
5.57382947e-17
6.02586701e-17
5.96451765e-17
5.72072221e-17
5.70872506e-17
5.89524439e-17
5.84021597e-17
5.78445441e-17
5.83520551e-17
5.65709515e-17
5.51536546e-17
5.17860466e-17
5.27668396e-17
5.20598109e-17
4.95667934e-17
4.81914979e-17
4.95046151e-17
4.84091302e-17
4.77946485e-17
4.72658452e-17
4.67913371e-17
4.84877156e-17
4.95068957e-17
5.14302718e-17
5.06552232e-17
5.14817206e-17
5.21045e-17
5.1588342e-17
5.20047642e-17
4.94261528e-17
4.86241505e-17
4.62959482e-17
4.80396512e-17
4.72437459e-17
4.8145272e-17
4.8739885e-17
4.81610406e-17
4.96783273e-17
5.14834254e-17
5.28311201e-17
5.53599271e-17
5.43311385e-17
5.43041147e-17
5.65307198e-17
5.66173383e-17
6.04947604e-17
5.90718231e-17
5.95334143e-17
6.13793911e-17
6.17523551e-17
5.92068526e-17
5.80293112e-17
6.08044211e-17
5.77146031e-17
5.48406834e-17
5.57079899e-17
5.81688679e-17
5.63486173e-17
6.17688303e-17
6.51615265e-17
6.33955229e-17
6.25642809e-17
6.38791882e-17
6.40763399e-17
6.11768215e-17
6.13447868e-17
5.79236403e-17
5.69827979e-17
5.74156943e-17
5.62691094e-17
5.70710161e-17
5.72363832e-17
5.67936292e-17
5.89057777e-17
6.01798157e-17
6.48956297e-17
6.15039033e-17
6.44830731e-17
6.33233442e-17
5.71144653e-17
6.06926137e-17
5.86276444e-17
6.00776622e-17
6.01626922e-17
6.08495933e-17
5.77321743e-17
5.93649724e-17
5.70644445e-17
5.68821575e-17
5.53004532e-17
5.50376808e-17
5.93283402e-17
6.05528032e-17
6.40924289e-17
6.05100949e-17
6.18547749e-17
6.11749293e-17
6.06803457e-17
6.1816316e-17
6.2521388e-17
6.40570194e-17
6.36334039e-17
6.68937279e-17
6.66563064e-17
6.62036101e-17
7.06336859e-17
6.85850934e-17
6.9713566e-17
7.2021044e-17
7.17231492e-17
7.18263398e-17
7.1151119e-17
6.86126022e-17
7.16498084e-17
7.25383199e-17
7.35336489e-17
6.88079921e-17
7.07199199e-17
6.99821985e-17
7.32157708e-17
7.28363272e-17
6.87878786e-17
6.93092848e-17
6.91603435e-17
6.92501437e-17
6.83674794e-17
6.56918493e-17
7.03323209e-17
7.11656546e-17
7.01245646e-17
6.98607175e-17
6.97089361e-17
6.8299781e-17
7.06575306e-17
7.2684524e-17
7.1355069e-17
6.98419841e-17
6.57332808e-17
6.80448847e-17
7.10417105e-17
6.83156769e-17
6.79509044e-17
6.496883e-17
6.61266619e-17
6.39125191e-17
6.64730145e-17
6.63570413e-17
6.78665071e-17
6.9478446e-17
6.81984184e-17
6.96602318e-17
6.89046763e-17
6.83078375e-17
6.60261971e-17
6.79456141e-17
6.97056232e-17
6.63182147e-17
6.71605197e-17
6.5390175e-17
6.80541078e-17
6.47350556e-17
6.53785918e-17
6.46136866e-17
6.12816535e-17
6.10514762e-17
6.17903733e-17
5.95189829e-17
5.86507298e-17
6.13449243e-17
6.17636627e-17
5.7326662e-17
5.9780406e-17
6.01869392e-17
5.73143314e-17
6.07892369e-17
5.93455868e-17
5.96327379e-17
6.09694441e-17
6.24610047e-17
6.11974185e-17
5.99917943e-17
6.00966371e-17
5.80714986e-17
5.7824833e-17
5.83139748e-17
5.76887668e-17
5.74425136e-17
6.03354465e-17
5.7138071e-17
5.91038294e-17
6.07607686e-17
6.11803046e-17
5.95344434e-17
5.83749126e-17
6.03479578e-17
5.98155398e-17
6.09588591e-17
5.91114171e-17
6.02006708e-17
6.22655879e-17
5.97748658e-17
5.85684631e-17
6.04002999e-17
6.01606566e-17
5.76392909e-17
5.42453609e-17
5.77204198e-17
5.37267613e-17
5.85318822e-17
5.99829287e-17
5.98735571e-17
6.15825812e-17
6.34727681e-17
6.36851098e-17
6.75578063e-17
6.57719658e-17
6.3375602e-17
6.58739735e-17
6.56897627e-17
6.44948937e-17
6.83596309e-17
6.57427666e-17
6.48963916e-17
6.81936402e-17
6.56046574e-17
6.4016273e-17
6.8794279e-17
7.12499344e-17
7.36141076e-17
7.27508145e-17
7.13382102e-17
7.04002475e-17
7.07208743e-17
6.98184679e-17
7.14323628e-17
7.02502753e-17
6.86539138e-17
7.1554471e-17
6.76941596e-17
6.71741619e-17
6.77825768e-17
6.87007896e-17
6.58272449e-17
6.56429907e-17
6.33560138e-17
6.02323802e-17
6.07247446e-17
6.22897775e-17
6.13624607e-17
6.06114969e-17
6.06727595e-17
6.02730249e-17
5.54257365e-17
5.69983552e-17
6.01554163e-17
5.9389542e-17
5.96119284e-17
5.67450924e-17
5.93851094e-17
5.79339217e-17
5.97793691e-17
6.06425982e-17
6.22076044e-17
6.32940162e-17
6.09671318e-17
5.87580141e-17
5.89421941e-17
6.06435692e-17
5.77025078e-17
5.65574148e-17
5.44321063e-17
5.59653169e-17
5.86071315e-17
5.61231623e-17
5.61471763e-17
5.26836429e-17
5.53886013e-17
5.26848993e-17
5.42955034e-17
5.16689468e-17
5.45385957e-17
5.27405142e-17
5.02325184e-17
4.82188082e-17
5.02672852e-17
4.93540536e-17
5.14787409e-17
4.98273092e-17
4.78359626e-17
4.71706434e-17
4.4724525e-17
4.26138152e-17
4.30543624e-17
4.27940923e-17
4.42511942e-17
4.18524025e-17
4.39624467e-17
4.48280759e-17
4.24096714e-17
3.82552952e-17
3.83762205e-17
3.55167071e-17
3.415496e-17
3.36476642e-17
3.61810274e-17
3.15865338e-17
3.21242673e-17
3.09418594e-17
3.34664808e-17
3.44215475e-17
3.29824215e-17
3.1711766e-17
2.86822522e-17
2.93317008e-17
2.62322424e-17
2.8271784e-17
2.88876858e-17
3.09930001e-17
3.09819393e-17
2.77328158e-17
3.02009767e-17
2.90650677e-17
2.64907354e-17
2.88180065e-17
2.7337948e-17
2.76204454e-17
2.64138638e-17
2.15718346e-17
2.19648675e-17
1.9994842e-17
2.04931268e-17
2.32705761e-17
2.03052285e-17
2.13426566e-17
2.16187591e-17
2.15858863e-17
2.23913993e-17
2.22893027e-17
2.23079937e-17
2.25133651e-17
2.5505105e-17
2.21246761e-17
2.11181605e-17
1.99269769e-17
2.24511931e-17
2.33287858e-17
2.21237961e-17
2.09555338e-17
2.03867149e-17
2.04767323e-17
1.98838428e-17
1.68420099e-17
1.72697478e-17
1.96896325e-17
1.68862317e-17
1.71752847e-17
1.72386089e-17
1.86540503e-17
1.46450484e-17
1.16589655e-17
1.0895564e-17
1.29506775e-17
9.46875304e-18
6.59161852e-18
3.59816757e-18
5.92333095e-18
7.55198116e-19
5.54186265e-18
5.00081663e-18
5.03435641e-18
1.43344923e-19
1.76777627e-18
-2.20470109e-18
-2.08111077e-18
-3.40129329e-18
-5.31813084e-18
-5.6559502e-18
-6.40652585e-18
-3.04940498e-18
-5.08885943e-18
-7.89890155e-18
-7.04369328e-18
-5.70012756e-18
-7.97590801e-18
-8.71860628e-18
-7.0641377e-18
-8.62661658e-18
-9.13848367e-18
-7.93707637e-18
-1.04359373e-17
-1.16737972e-17
-1.62426011e-17
-1.4582143e-17
-1.53466488e-17
-1.38426819e-17
-1.26095345e-17
-1.26412592e-17
-1.70236898e-17
-1.63394794e-17
-1.84263679e-17
-1.86877421e-17
-1.68457356e-17
-1.78149111e-17
-1.82129902e-17
-2.15716141e-17
-2.06944886e-17
-2.34669208e-17
-2.11491187e-17
-2.15607936e-17
-2.02306416e-17
-1.87716658e-17
-2.1905123e-17
-2.26914753e-17
-2.34132316e-17
-2.53340241e-17
-2.66165884e-17
-3.06452716e-17
-2.65920069e-17
-2.60833756e-17
-2.75725588e-17
-2.31100268e-17
-1.97895788e-17
-2.32151983e-17
-2.25440694e-17
-2.05302135e-17
-1.94110374e-17
-2.17531673e-17
-2.38264121e-17
-2.2870323e-17
-2.25641333e-17
-2.29603201e-17
-2.29423735e-17
-2.26095409e-17
-2.28126276e-17
-2.68884954e-17
-2.76078107e-17
-2.56720719e-17
-2.5748403e-17
-2.49093293e-17
-2.32577678e-17
-2.32838131e-17
-2.63831125e-17
-2.73805135e-17
-2.61152666e-17
-2.91968348e-17
-3.0656283e-17
-2.84662407e-17
-3.29324422e-17
-3.39809827e-17
-3.10238611e-17
-3.21522688e-17
-3.50004033e-17
-3.39628688e-17
-3.7191438e-17
-3.67037212e-17
-4.4259233e-17
-4.57455274e-17
-4.46072924e-17
-4.51650854e-17
-4.81105998e-17
-4.75356509e-17
-4.64771332e-17
-4.5125261e-17
-4.8499688e-17
-4.59797304e-17
-4.62058894e-17
-4.27784329e-17
-4.64044704e-17
-4.85289735e-17
-5.01377667e-17
-5.1285187e-17
-4.93638936e-17
-5.11066272e-17
-5.59867511e-17
-5.69871247e-17
-5.88647378e-17
-5.93084594e-17
-5.84372601e-17
-5.72498376e-17
-5.48449824e-17
-6.19005231e-17
-6.00395076e-17
-5.68575796e-17
-5.86261476e-17
-5.85832171e-17
-5.97404583e-17
-5.94707806e-17
-5.94232982e-17
-5.95437502e-17
-6.31767287e-17
-6.55474852e-17
-6.43926419e-17
-6.45670169e-17
-6.73935299e-17
-6.84644026e-17
-6.94116725e-17
-6.94621619e-17
-7.01972874e-17
-6.76470204e-17
-6.95795668e-17
-6.84951891e-17
-6.94161059e-17
-6.94229004e-17
-6.91282881e-17
-6.95921697e-17
-6.92884933e-17
-7.39427322e-17
-7.49205155e-17
-7.39672365e-17
-7.30114959e-17
-7.62586437e-17
-7.55370317e-17
-7.6185889e-17
-7.92199944e-17
-7.82842647e-17
-7.82493232e-17
-7.42379845e-17
-7.98055019e-17
-8.04232946e-17
-7.77272537e-17
-8.00655419e-17
-7.79216348e-17
-8.05639468e-17
-7.85556214e-17
-7.89032237e-17
-7.69122632e-17
-7.93242633e-17
-7.93330631e-17
-7.82854316e-17
-7.82339714e-17
-7.75035638e-17
-7.83523223e-17
-8.15743819e-17
-8.03759854e-17
-8.00797736e-17
-8.08319256e-17
-8.09944021e-17
-7.93934774e-17
-8.07686354e-17
-7.88362151e-17
-7.55396651e-17
-7.69241113e-17
-7.75949928e-17
-7.45337723e-17
-7.50655643e-17
-7.58804787e-17
-7.8914532e-17
-7.81381401e-17
-8.04036302e-17
-8.16868757e-17
-7.92226246e-17
-8.06061815e-17
-7.93040523e-17
-8.08776878e-17
-8.18188762e-17
-8.28784638e-17
-8.33177974e-17
-8.48600605e-17
-8.43964857e-17
-8.43390777e-17
-8.48727442e-17
-8.13461599e-17
-7.90764928e-17
-7.99824938e-17
-7.8692407e-17
-8.09554067e-17
-7.9208651e-17
-7.95786266e-17
-8.00407577e-17
-7.84423063e-17
-7.73011467e-17
-7.97774442e-17
-8.24531448e-17
-8.17255704e-17
-8.30502899e-17
-7.88892627e-17
-8.14992518e-17
-8.20212788e-17
-7.7524736e-17
-7.88793662e-17
-8.25207677e-17
-7.94135688e-17
-8.00703435e-17
-8.19936317e-17
-7.98837739e-17
-8.09745716e-17
-8.08889779e-17
-8.18080899e-17
-7.88592901e-17
-7.54218511e-17
-7.78580021e-17
-7.73296231e-17
-7.81784033e-17
-7.65668384e-17
-7.95587471e-17
-7.9272881e-17
-7.78955403e-17
-7.87111702e-17
-7.97582312e-17
-7.78263064e-17
-7.59787608e-17
-7.73658816e-17
-7.82303752e-17
-7.9415955e-17
-7.55488284e-17
-7.91388523e-17
-7.64249361e-17
-7.84242829e-17
-7.43548059e-17
-7.70406969e-17
-7.96736932e-17
-7.42413782e-17
-7.48653613e-17
-7.23630718e-17
-7.28009269e-17
-7.70854085e-17
-7.30078637e-17
-7.06194243e-17
-7.16616908e-17
-7.09200489e-17
-7.13281824e-17
-6.9270724e-17
-6.7873714e-17
-6.98147471e-17
-6.64838014e-17
-6.47543789e-17
-6.46763589e-17
-6.478929e-17
-6.67368727e-17
-6.72200371e-17
-6.66085753e-17
-6.460152e-17
-6.61816088e-17
-6.36103319e-17
-6.22212235e-17
-6.02680108e-17
-6.12356044e-17
-6.21043577e-17
-5.8893215e-17
-5.73255977e-17
-5.49437012e-17
-5.82850166e-17
-5.728928e-17
-5.91054032e-17
-5.51561877e-17
-5.71894965e-17
-5.85062669e-17
-6.04168247e-17
-6.23518835e-17
-6.20299435e-17
-6.25706156e-17
-6.31592788e-17
-5.98110545e-17
-6.03796044e-17
-6.12000464e-17
-6.53866546e-17
-6.33150794e-17
-6.5903774e-17
-6.87697414e-17
-6.78557003e-17
-6.6703875e-17
-6.57126944e-17
-6.55448901e-17
-6.44586228e-17
-6.3679163e-17
-6.3289349e-17
-6.34188709e-17
-6.50413323e-17
-6.51901432e-17
-6.13144807e-17
-5.95642687e-17
-6.30619646e-17
-6.55861721e-17
-6.47724393e-17
-6.10587946e-17
-6.22570002e-17
-6.14139667e-17
-6.08546206e-17
-5.70580864e-17
-5.7081432e-17
-5.66086254e-17
-5.41758179e-17
-5.72571717e-17
-5.60350681e-17
-5.52292681e-17
-5.86596006e-17
-5.56214079e-17
-5.50251041e-17
-5.97031337e-17
-6.07062644e-17
-6.15363064e-17
-5.86497955e-17
-5.84210262e-17
-5.92716485e-17
-5.8135304e-17
-5.72706726e-17
-5.7175124e-17
-5.63816473e-17
-5.84300077e-17
-5.38181025e-17
-5.5913586e-17
-5.51517457e-17
-5.46829593e-17
-5.56893292e-17
-5.64818132e-17
-5.81800453e-17
-5.31791519e-17
-5.44948957e-17
-5.65059153e-17
-5.60188756e-17
-5.65591553e-17
-5.71441413e-17
-5.86436971e-17
-5.87485041e-17
-5.54234801e-17
-5.62611426e-17
-5.55175351e-17
-5.75003417e-17
-5.58560658e-17
-5.49193468e-17
-5.44564243e-17
-5.20533561e-17
-5.16235072e-17
-5.38630764e-17
-5.40361925e-17
-5.5031687e-17
-5.5757522e-17
-5.46282521e-17
-5.31240223e-17
-5.22081018e-17
-5.17534332e-17
-5.29075188e-17
-5.41832137e-17
-5.7833371e-17
-5.52019358e-17
-5.75567891e-17
-5.77743667e-17
-5.3610645e-17
-5.60581222e-17
-5.76016288e-17
-6.20017852e-17
-6.36610854e-17
-6.42175653e-17
-6.35386386e-17
-6.74036032e-17
-6.12549628e-17
-6.47107805e-17
-5.83938091e-17
-5.89640875e-17
-5.59937149e-17
-5.74577904e-17
-5.82299803e-17
-5.67096361e-17
-5.97347983e-17
-6.1790493e-17
-6.25065006e-17
-5.9046987e-17
-5.84580795e-17
-5.94019753e-17
-6.20601914e-17
-5.94293711e-17
-5.64604544e-17
-5.57290948e-17
-5.79363573e-17
-5.81305907e-17
-5.67987412e-17
-5.4409922e-17
-5.81243515e-17
-5.84701754e-17
-5.59177313e-17
-5.6282157e-17
-5.11678692e-17
-5.16954948e-17
-5.22774668e-17
-5.36590702e-17
-5.07972737e-17
-5.07449549e-17
-4.92810469e-17
-4.61117631e-17
-4.77899968e-17
-4.41854978e-17
-4.15371204e-17
-4.343883e-17
-4.12001561e-17
-4.04674298e-17
-3.70786902e-17
-3.68047122e-17
-3.52769014e-17
-3.36003075e-17
-3.25053468e-17
-3.68938099e-17
-3.38831567e-17
-3.41781858e-17
-3.23107949e-17
-3.08417219e-17
-2.83113809e-17
-2.9564465e-17
-2.92793289e-17
-2.76666132e-17
-2.59336988e-17
-2.54670948e-17
-2.75095254e-17
-2.16552163e-17
-2.05122169e-17
-1.73459451e-17
-1.59041822e-17
-1.66868743e-17
-1.42896869e-17
-1.43050587e-17
-1.46346841e-17
-1.41481467e-17
-1.49487037e-17
-9.01084822e-18
-1.29393355e-17
-1.26669702e-17
-1.23367287e-17
-9.54206333e-18
-1.20759185e-17
-1.0367693e-17
-1.19535984e-17
-1.35476828e-17
-9.95806062e-18
-1.06489415e-17
-1.08327754e-17
-9.15222327e-18
-9.78968932e-18
-1.05937413e-17
-9.86342765e-18
-7.56523319e-18
-8.17702665e-18
-5.9121712e-18
-6.46906061e-18
-1.28093028e-18
-3.15460926e-18
7.90209871e-20
7.20685731e-19
-2.41587872e-19
1.87349166e-18
-1.41788386e-18
-3.44611145e-18
-2.03841684e-18
-1.61404704e-18
-2.59188627e-18
-3.93378189e-18
1.41934349e-18
-2.76617078e-20
4.90205818e-18
1.121918e-18
1.3854028e-18
3.53832521e-18
2.59763771e-18
7.83677783e-18
6.28799403e-18
8.08053968e-18
7.89888094e-18
1.30667876e-17
1.04267258e-17
1.2823806e-17
1.51212044e-17
1.54138877e-17
1.86251718e-17
1.53066792e-17
1.23901431e-17
1.72594924e-17
1.5423807e-17
1.60490862e-17
1.68026661e-17
2.18445214e-17
2.18420613e-17
2.24776613e-17
2.08795703e-17
2.25808536e-17
2.56750356e-17
2.90455605e-17
2.4379113e-17
2.85157233e-17
2.82862663e-17
3.03480546e-17
3.18938697e-17
3.09111275e-17
3.46905238e-17
3.69513782e-17
3.62182425e-17
4.17567147e-17
3.98829633e-17
4.68813531e-17
4.84808523e-17
5.14421689e-17
5.34798271e-17
5.82025523e-17
6.04108967e-17
6.44148591e-17
6.91189655e-17
7.1775993e-17
7.80778574e-17
8.61539117e-17
8.72101803e-17
9.58020181e-17
1.00554857e-16
1.05365894e-16
1.1591949e-16
1.23321691e-16
1.32271724e-16
1.38689124e-16
1.51011125e-16
1.61914679e-16
1.75076985e-16
1.86788712e-16
2.02429964e-16
2.14911915e-16
2.29714914e-16
2.50053301e-16
2.68054101e-16
2.88372721e-16
3.13673765e-16
3.3817985e-16
3.59642075e-16
3.85948953e-16
4.14606335e-16
4.49834236e-16
4.81436553e-16
5.20510548e-16
5.54743263e-16
6.00093511e-16
6.43551218e-16
6.87434158e-16
7.372124e-16
7.95443623e-16
8.52969924e-16
9.19192684e-16
9.88457332e-16
1.06298264e-15
1.14211306e-15
1.23068477e-15
1.3229104e-15
1.42095953e-15
1.52445566e-15
1.64483986e-15
1.76258133e-15
1.89486333e-15
2.03646868e-15
2.18644072e-15
2.35008263e-15
2.52517846e-15
2.71315178e-15
2.91690747e-15
3.13249257e-15
3.36641395e-15
3.61773648e-15
3.88864835e-15
4.17927093e-15
4.4846252e-15
4.82023429e-15
5.17403706e-15
5.56106195e-15
5.97506362e-15
6.4160688e-15
6.88842466e-15
7.39693654e-15
7.94319311e-15
8.53029515e-15
9.15257767e-15
9.82288128e-15
1.05430187e-14
1.13187004e-14
1.21480546e-14
1.30374064e-14
1.3990934e-14
1.50080073e-14
1.6100498e-14
1.72743291e-14
1.85262268e-14
1.98725301e-14
2.13115397e-14
2.2852412e-14
2.45043834e-14
2.62723316e-14
2.81662503e-14
3.01963786e-14
3.23634472e-14
3.46883073e-14
3.71786199e-14
3.98418332e-14
4.26861072e-14
4.57342401e-14
4.89915975e-14
5.24755195e-14
5.61978669e-14
6.01852485e-14
6.44479997e-14
6.90074212e-14
7.38819813e-14
7.90921099e-14
8.4665939e-14
9.06177372e-14
9.69813645e-14
1.03784568e-13
1.11054822e-13
1.1881952e-13
1.27114113e-13
1.35971771e-13
1.45433417e-13
1.55537847e-13
1.66328398e-13
1.77849696e-13
1.90145327e-13
2.03274633e-13
2.17286229e-13
2.32237323e-13
2.4819205e-13
2.65215035e-13
2.83377408e-13
3.02754567e-13
3.23421536e-13
3.4546363e-13
3.68965587e-13
3.94026071e-13
4.2074244e-13
4.49221832e-13
4.79576234e-13
5.11927859e-13
5.4640241e-13
5.8313679e-13
6.22271828e-13
6.6396366e-13
7.08369739e-13
7.55667842e-13
8.06029683e-13
8.59657906e-13
9.16751456e-13
9.77524739e-13
1.04221945e-12
1.11107193e-12
1.18433683e-12
1.2622985e-12
1.34524022e-12
1.43346828e-12
1.52731673e-12
1.62712049e-12
1.73325432e-12
1.84610076e-12
1.96607025e-12
2.09360268e-12
2.22915261e-12
2.37321442e-12
2.52628925e-12
2.68893215e-12
2.86171414e-12
3.04525779e-12
3.2401908e-12
3.44720488e-12
3.66702149e-12
3.90040161e-12
4.1481516e-12
4.4111231e-12
4.69021597e-12
4.98638693e-12
5.30063098e-12
5.63401827e-12
5.98766714e-12
6.36276578e-12
6.76055374e-12
7.18235452e-12
7.62956871e-12
8.10365835e-12
8.60617647e-12
9.13876171e-12
9.70313396e-12
1.03011149e-11
1.09346307e-11
1.16056994e-11
1.23164549e-11
1.30691521e-11
1.38661534e-11
1.47099528e-11
1.56031912e-11
1.65486317e-11
1.75492013e-11
1.86079666e-11
1.97281614e-11
2.09132017e-11
2.21666602e-11
2.34923219e-11
2.48941557e-11
2.63763261e-11
2.79432367e-11
2.95994997e-11
3.13499836e-11
3.31997848e-11
3.51542752e-11
3.72190939e-11
3.94001767e-11
4.17037416e-11
4.41363322e-11
4.67048236e-11
4.94164274e-11
5.22787218e-11
5.52996493e-11
5.84875629e-11
6.18512191e-11
6.53998037e-11
6.91429513e-11
7.30907683e-11
7.72538656e-11
8.16433378e-11
8.62708455e-11
9.1148597e-11
9.62893752e-11
1.01706588e-10
1.07414271e-10
1.13427131e-10
1.19760561e-10
1.26430673e-10
1.33454338e-10
1.40849217e-10
1.4863377e-10
1.56827329e-10
1.65450106e-10
1.74523235e-10
1.84068811e-10
1.94109939e-10
2.04670762e-10
2.15776508e-10
2.27453528e-10
2.39729356e-10
2.52632739e-10
2.66193697e-10
2.80443567e-10
2.95415054e-10
3.11142287e-10
3.27660867e-10
3.45007943e-10
3.63222237e-10
3.82344136e-10
4.02415733e-10
4.23480911e-10
4.4558538e-10
4.68776773e-10
4.93104691e-10
5.18620807e-10
5.45378888e-10
5.73434931e-10
6.02847197e-10
6.33676309e-10
6.65985316e-10
6.9983981e-10
7.35307979e-10
7.72460715e-10
8.11371692e-10
8.52117469e-10
8.94777574e-10
9.39434615e-10
9.86174369e-10
1.03508587e-09