/*--------------------------------*- C++ -*----------------------------------*\
| =========                 |                                                 |
| \\      /  F ield         | OpenFOAM: The Open Source CFD Toolbox           |
|  \\    /   O peration     | Version:  2206                                  |
|   \\  /    A nd           | Website:  www.openfoam.com                      |
|    \\/     M anipulation  |                                                 |
\*---------------------------------------------------------------------------*/
FoamFile
{
    version     2.0;
    format      ascii;
    arch        "LSB;label=32;scalar=64";
    class       volScalarField;
    location    "1.66e-05";
    object      PVsourcePV;
}
// * * * * * * * * * * * * * * * * * * * * * * * * * * * * * * * * * * * * * //

dimensions      [1 -3 -1 0 0 0 0];

internalField   nonuniform List<scalar> 
3183
(
0
0
0
0
0
0
0
0
0
0
0
0
0
0
0
0
0
0
0
0
0
0
0
0
0
0
0
0
0
0
0
0
0
0
0
0
0
0
0
0
0
0
0
0
0
0
0
0
0
0
0
0
0
0
0
0
0
0
0
0
0
0
0
0
0
0
0
0
0
0
0
0
0
0
0
0
0
0
0
0
0
0
0
0
0
0
0
0
0
0
0
0
0
0
0
0
0
0
0
0
0
0
0
0
0
0
0
0
0
0
0
0
0
0
0
0
0
0
0
0
0
0
0
0
0
0
0
0
0
0
0
0
0
0
0
0
0
0
0
0
0
0
0
0
0
0
0
0
0
0
0
0
0
0
0
0
0
0
0
0
0
0
0
0
0
0
0
0
0
0
0
0
0
0
0
0
0
0
0
0
0
0
0
0
0
0
0
0
0
0
0
0
0
0
0
0
0
0
0
0
0
0
0
0
0
0
0
0
0
0
0
0
0
0
0
0
0
0
0
0
0
0
0
0
0
0
0
0
0
0
0
0
0
0
0
0
0
0
0
0
0
0
0
0
0
0
0
0
0
0
0
0
0
0
0
0
0
0
0
0
0
0
0
0
0
0
0
0
0
0
0
0
0
0
0
0
0
0
0
0
0
0
0
0
0
0
0
0
0
0
0
0
0
0
0
0
0
0
0
0
0
0
0
0
0
0
0
0
0
0
0
0
0
0
0
0
0
0
0
0
0
0
0
0
0
0
0
0
0
0
0
0
0
0
0
0
0
0
0
0
0
0
0
0
0
0
0
0
0
0
0
0
0
0
0
0
0
0
0
0
0
0
0
0
0
0
0
0
0
0
0
0
0
0
0
0
0
0
0
0
0
0
0
0
0
0
0
0
0
0
0
0
0
0
0
0
0
0
0
0
0
0
0
0
0
0
0
0
0
0
0
0
0
0
0
0
0
0
0
0
0
0
0
0
0
0
0
0
0
0
0
0
0
0
0
0
0
0
0
0
0
0
0
0
0
0
0
0
0
0
0
0
0
0
0
0
0
0
0
0
0
0
0
0
0
0
0
0
0
0
0
0
0
0
0
0
0
0
0
0
0
0
0
0
0
0
0
0
0
0
0
0
0
0
0
0
0
0
0
0
0
0
0
0
0
0
0
0
0
0
0
0
0
0
0
0
0
0
0
0
0
0
0
0
0
0
0
0
0
0
0
0
0
0
0
0
0
0
0
0
0
0
0
0
0
0
0
0
0
0
0
0
0
0
0
0
0
0
0
0
0
0
0
0
0
0
0
0
0
0
0
0
0
0
0
0
0
0
0
0
0
0
0
0
0
0
0
0
0
0
0
0
0
0
0
0
0
0
0
0
0
0
0
0
0
0
0
0
0
0
0
0
0
0
0
0
0
0
0
0
0
0
0
0
0
0
0
0
0
0
0
0
0
0
0
0
0
0
0
0
0
0
0
0
0
0
0
0
0
0
0
0
0
0
0
0
0
0
0
0
0
0
0
0
0
0
0
0
0
0
0
0
0
0
0
0
0
0
0
0
0
0
0
0
0
0
0
0
0
0
0
0
0
0
0
0
0
0
0
0
0
0
0
0
0
0
0
0
0
0
0
0
0
0
0
0
0
0
0
0
0
0
0
0
0
0
0
0
0
0
0
0
0
0
0
0
0
0
0
0
0
0
0
0
0
0
0
0
0
0
0
0
0
0
0
0
0
0
0
0
0
0
0
0
0
0
0
0
0
0
0
0
0
0
0
0
0
0
0
0
0
0
0
0
0
0
0
0
0
0
0
0
0
0
0
0
0
0
0
0
0
0
0
0
0
0
0
0
0
0
0
0
0
0
0
0
0
0
0
0
0
0
0
0
0
0
0
0
0
0
0
0
0
0
0
0
0
0
0
0
0
0
0
0
0
0
0
0
0
0
0
0
0
0
0
0
0
0
0
0
0
0
0
0
0
0
0
0
0
0
0
0
0
0
0
0
0
0
0
0
0
0
0
0
0
0
0
0
0
0
0
0
0
0
0
0
0
0
0
0
0
0
0
0
0
0
0
0
0
0
0
0
0
0
0
0
0
0
0
0
0
0
0
0
0
0
0
0
0
0
0
0
0
0
0
0
0
0
0
0
0
0
0
0
0
0
0
0
0
0
0
0
0
0
0
0
0
0
0
0
0
0
0
0
0
0
0
0
0
0
0
0
0
0
0
0
0
0
0
0
0
0
0
0
0
0
0
0
0
0
0
0
0
0
0
0
0
0
0
0
0
0
0
0
0
0
0
0
0
0
0
0
0
0
0
0
0
0
0
0
0
0
0
0
0
0
0
0
0
0
0
0
0
0
0
0
0
0
0
0
0
0
0
0
0
0
0
0
0
0
0
0
0
0
0
0
0
0
0
0
0
0
0
0
0
0
0
0
0
0
0
0
0
0
0
0
0
0
0
0
0
0
0
0
0
0
0
0
0
0
0
0
0
0
0
0
0
0
0
0
0
0
0
0
0
0
0
0
0
0
0
0
0
0
0
0
0
0
0
0
0
0
0
0
0
0
0
0
0
0
0
0
0
0
0
0
0
0
0
0
0
0
0
0
0
0
0
0
0
0
0
0
0
0
0
0
0
0
0
0
0
0
0
0
0
0
0
0
0
0
0
0
0
0
0
0
0
0
0
0
0
0
0
0
0
0
0
0
0
0
0
0
0
0
0
0
0
0
0
0
0
0
0
0
0
0
0
0
0
0
0
0
0
0
0
0
0
0
0
0
0
0
0
0
0
0
0
0
0
0
0
0
0
0
0
0
0
0
0
0
0
0
0
0
0
0
0
0
0
0
0
0
0
0
0
0
0
0
0
0
0
0
0
0
0
0
0
0
0
0
0
0
0
0
0
0
0
0
0
0
0
0
0
0
0
0
0
0
0
0
0
0
0
0
0
0
0
0
0
0
0
0
0
0
0
0
0
0
0
0
0
0
0
0
0
0
0
0
0
0
0
0
0
0
0
0
0
0
0
0
0
0
0
0
0
0
0
0
0
0
0
0
0
0
0
0
0
0
0
0
0
0
0
0
0
0
0
0
0
0
0
0
0
0
0
0
0
0
0
0
0
0
0
0
0
0
0
0
0
0
0
0
0
0
0
0
0
0
0
0
0
0
0
0
0
0
0
0
0
0
0
0
0
0
0
0
0
0
0
0
0
0
0
0
0
0
0
0
0
0
0
0
0
0
0
0
0
0
0
0
0
0
0
0
0
0
0
0
0
0
0
0
0
0
0
0
0
0
0
0
0
0
0
0
0
0
0
0
0
0
0
0
0
0
0
0
0
0
0
0
0
0
0
0
0
0
0
0
0
0
0
0
0
0
0
0
0
0
0
0
0
0
0
0
0
0
0
0
0
0
0
0
0
0
0
0
0
0
0
0
0
0
0
0
0
0
0
0
0
0
0
0
0
0
0
0
0
0
0
0
0
0
0
0
0
0
0
0
0
0
0
0
0
0
0
0
0
0
0
0
0
0
0
0
0
0
0
0
0
0
0
0
0
0
0
0
0
0
0
0
0
0
0
0
0
0
0
0
0
0
0
0
0
0
0
0
0
0
0
0
0
0
0
0
0
0
0
0
0
0
0
0
0
0
0
0
0
0
0
0
0
0
0
0
0
0
0
0
0
0
0
0
0
0
0
0
0
0
0
0
0
0
0
0
0
0
0
0
0
0
0
0
0
0
0
0
0
0
0
0
0
0
0
0
0
0
0
0
0
0
0
0
0
0
0
0
0
0
0
0
0
0
0
0
0
0
0
0
0
0
0
0
0
0
0
0
0
0
0
0
0
0
0
0
0
0
0
0
0
0
0
0
0
0
0
0
0
0
0
0
0
0
0
0
0
0
0
0
0
0
0
0
0
0
0
0
0
0
0
0
0
0
0
0
0
0
0
0
0
0
0
0
0
0
0
0
0
0
0
0
0
0
0
0
0
0
0
0
0
0
0
0
0
0
0
0
0
0
0
0
0
0
0
0
0
0
0
0
0
0
0
0
0
0
0
0
0
0
0
0
0
0
0
0
0
0
0
0
0
0
0
0
0
0
0
0
0
0
0
0
0
0
0
0
0
0
0
0
0
0
0
0
0
0
0
0
0
0
0
0
0
0
0
0
0
0
0
0
0
0
0
0
0
0
0
0
0
0
0
0
0
0
0
0
0
0
0
0
0
0
0
0
0
0
0
0
0
0
0
0
0
0
0
0
0
0
0
0
0
0
0
0
0
0
0
0
0
0
0
0
0
0
0
0
0
0
0
0
0
0
0
0
0
0
0
0
0
0
0
0
0
0
0
0
0
0
0
0
0
0
0
0
0
0
0
0
0
0
0
0
0
0
0
0
0
0
0
0
0
0
0
0
0
0
0
0
0
0
0
0
0
0
0
0
0
0
0
0
0
0
0
0
0
0
0
0
0
0
0
0
0
0
0
0
0
0
0
0
0
0
0
0
0
0
0
0
0
0
0
0
0
0
0
0
0
0
0
0
0
0
0
0
0
0
0
0
0
0
0
0
0
0
0
0
0
0
0
0
0
0
0
0
0
0
0
0
0
0
0
0
0
0
0
0
0
0
0
0
0
0
0
0
0
0
0
0
0
0
0
0
0
0
0
0
0
0
0
0
0
0
0
0
0
0
0
0
0
0
0
0
0
0
0
0
0
0
0
0
0
0
0
0
0
0
0
0
0
0
0
0
0
0
0
0
0
0
0
0
0
0
0
0
0
0
0
0
0
0
0
0
0
0
0
0
0
0
0
0
0
0
0
0
0
0
0
0
0
0
0
0
0
0
0
0
0
0
0
0
0
0
0
0
0
0
0
0
0
0
0
0
0
0
0
0
0
0
0
0
0
0
0
0
0
0
0
0
0
0
0
0
0
0
0
0
0
0
0
0
0
0
0
0
0
0
0
0
0
0
0
0
0
0
0
0
0
0
0
0
0
0
0
0
0
0
0
0
0
0
0
0
0
0
0
0
0
0
0
0
0
0
0
0
0
0
0
0
0
0
0
0
0
0
0
0
0
0
0
0
0
0
0
0
0
0
0
0
0
0
0
0
0
0
0
0
0
0
0
0
0
0
0
0
0
0
0
0
0
0
0
0
0
0
0
0
0
0
0
0
0
0
0
0
0
0
0
0
0
0
0
0
0
0
0
0
0
0
0
0
0
0
0
0
0
0
0
0
0
0
0
0
0
0
0
0
0
0
0
0
0
0
0
0
0
0
0
0
0
0
0
0
0
0
0
0
0
0
0
0
0
0
0
0
0
0
0
0
0
0
0
0
0
0
0
0
0
0
0
0
0
0
0
2.14174422e-299
1.01476209e-299
1.15833843e-296
5.54982852e-297
6.20517878e-294
3.00596991e-294
3.29246803e-291
1.61242962e-291
1.73035051e-288
8.56581383e-289
9.00716281e-286
4.50651913e-286
4.64385722e-283
2.34803067e-283
2.3713817e-280
1.21158892e-280
1.19936124e-277
6.19106422e-278
6.00783501e-275
3.1331187e-275
2.98056269e-272
1.57025926e-272
1.4644783e-269
7.7914414e-270
7.12629e-267
3.83009534e-267
3.43424017e-264
1.86433525e-264
1.63898319e-261
8.98865358e-262
7.74612179e-259
4.28940649e-259
3.62533986e-256
2.02684407e-256
1.68017906e-253
9.48315857e-254
7.7106671e-251
4.39322427e-251
3.50383965e-248
2.01510991e-248
1.57651439e-245
9.1513589e-246
7.02324601e-243
4.11461827e-243
3.09776175e-240
1.83153574e-240
1.35273114e-237
8.07099403e-238
5.84804373e-235
3.52084939e-235
2.50280404e-232
1.52040319e-232
1.06032933e-229
6.49893493e-230
4.44664124e-227
2.74965342e-227
1.84577846e-224
1.15145078e-224
7.58334949e-222
4.77224552e-222
3.08356759e-219
1.95743566e-219
1.24088829e-216
7.94540142e-217
4.94166861e-214
3.19141362e-214
1.94737746e-211
1.26842109e-211
7.59337869e-209
4.98804124e-209
2.92954451e-206
1.94068398e-206
1.11819066e-203
7.46979437e-204
4.22232625e-201
2.8442067e-201
1.57716138e-198
1.07122517e-198
5.82714636e-196
3.99056747e-196
2.12939844e-193
1.47024154e-193
7.6956198e-191
5.35682422e-191
2.75029353e-188
1.92998499e-188
9.71907586e-186
6.87527425e-186
3.39579637e-183
2.42145239e-183
1.17297246e-180
8.43083101e-181
4.00516778e-178
2.90155314e-178
1.35174862e-175
9.86988025e-176
4.50886686e-173
3.317938e-173
1.48623449e-170
1.102178e-170
4.84067692e-168
3.61753316e-168
1.55765834e-165
1.17300252e-165
4.95144785e-163
3.75713981e-163
1.55464281e-160
1.18858991e-160
4.82069695e-158
3.71334357e-158
1.47608035e-155
1.1455038e-155
4.46240484e-153
3.48870136e-153
1.33174833e-150
1.04882258e-150
3.92285684e-148
3.1120301e-148
1.14035504e-145
9.11211002e-146
3.27086396e-143
2.63241646e-143
9.25537801e-141
7.50196183e-141
2.58319132e-138
2.10863182e-138
7.10997284e-136
5.84453705e-136
1.92949252e-133
1.59711917e-133
5.16170649e-131
4.30202738e-131
1.36089951e-128
1.14199625e-128
3.5354515e-126
2.98686002e-126
9.04792753e-124
7.69524683e-124
2.28051875e-121
1.95245975e-121
5.65963847e-119
4.87734094e-119
1.38260932e-116
1.19925152e-116
3.32388489e-114
2.901636e-114
7.86144788e-112
6.90644877e-112
1.82867941e-109
1.6166411e-109
4.18228041e-107
3.72032405e-107
9.4012274e-105
8.41416153e-105
2.07634679e-102
1.86961069e-102
4.50401171e-100
4.07982353e-100
9.59214038e-98
8.74002614e-98
2.00480057e-95
1.83733204e-95
4.11036312e-93
3.78860202e-93
8.26315786e-91
7.65930422e-91
1.62802551e-88
1.51743518e-88
3.14200004e-86
2.94456407e-86
5.93674826e-84
5.59356247e-84
1.09759524e-81
1.03959733e-81
1.98438262e-79
1.88924502e-79
3.50606688e-77
3.3548919e-77
6.04965344e-75
5.81752582e-75
1.01868644e-72
9.84351159e-73
1.67268004e-70
1.62395495e-70
2.67600153e-68
2.61003011e-68
4.16748041e-66
4.08292978e-66
6.31187097e-64
6.21051336e-64
9.287342e-62
9.17586246e-62
1.3261395e-59
1.31526963e-59
1.83538491e-57
1.8266335e-57
2.45887393e-55
2.45411221e-55
3.18418866e-53
3.1525948e-53
3.97986301e-51
3.9823256e-51
4.79186559e-49
4.7891343e-49
5.54875553e-47
5.53030107e-47
6.16598128e-45
6.12206625e-45
6.56025163e-43
6.48784953e-43
6.66543314e-41
6.5675902e-41
6.44866616e-39
6.30261822e-39
5.92167312e-37
5.91598413e-37
5.14024108e-35
5.12926173e-35
4.20234789e-33
4.19088419e-33
3.21902145e-31
3.20790186e-31
2.2971808e-29
2.28416317e-29
1.51696328e-27
1.50270493e-27
9.19488824e-26
9.07079024e-26
5.06548467e-24
4.99219044e-24
2.50528146e-22
2.47589218e-22
1.09518389e-20
1.09475597e-20
4.14569856e-19
4.13946454e-19
1.32241735e-17
1.31845956e-17
3.4147982e-16
3.412612e-16
8.22756164e-15
8.32543276e-15
1.29677759e-10
1.30411941e-10
0.00320181218
0.0143301092
0.485960439
0.598737004
0.70088542
0.640935534
0.24713536
0.204659014
0.0423303737
0.0351581015
0.00953617462
0.00861634418
0.00200122126
0.00187614112
0.00037719487
0.000367094873
6.56399336e-05
6.55090657e-05
1.11836691e-05
1.11924867e-05
2.24281017e-06
2.24456391e-06
8.85001497e-07
8.84967357e-07
6.92739479e-07
6.92824348e-07
6.67433711e-07
6.674469e-07
6.64294212e-07
6.64296183e-07
6.63926814e-07
6.63927849e-07
6.63886126e-07
6.63887385e-07
6.63881e-07
6.63883413e-07
6.63880666e-07
6.6388128e-07
6.63881728e-07
6.63879808e-07
6.63882242e-07
6.63880533e-07
6.63881946e-07
6.63880968e-07
6.63882033e-07
6.63881093e-07
6.63882201e-07
6.63881459e-07
6.63882425e-07
6.63881678e-07
6.63882542e-07
6.63882026e-07
6.63882063e-07
6.63882042e-07
6.63882243e-07
6.63881721e-07
6.63881239e-07
6.63883299e-07
6.63881081e-07
6.63882067e-07
6.63881484e-07
6.63881994e-07
6.63881214e-07
6.63881211e-07
6.63881171e-07
6.63881191e-07
6.63881621e-07
6.63881875e-07
6.63880774e-07
6.63882649e-07
6.6388028e-07
6.63881751e-07
6.63880995e-07
6.63882139e-07
6.63880446e-07
6.6388253e-07
6.6388116e-07
6.63882646e-07
6.63880915e-07
6.63882354e-07
6.63881239e-07
6.63881569e-07
6.63881649e-07
6.63881474e-07
6.63881876e-07
6.63880953e-07
6.63882096e-07
6.63881277e-07
6.63881977e-07
6.63879697e-07
6.63883519e-07
6.6388058e-07
6.63882433e-07
6.63881327e-07
6.63883293e-07
6.63881016e-07
6.63882287e-07
6.63881601e-07
6.63882243e-07
6.63881855e-07
6.63882161e-07
6.6388148e-07
6.63882027e-07
6.6388133e-07
6.63882041e-07
6.63882253e-07
6.63881482e-07
6.6388109e-07
6.63882034e-07
6.63881626e-07
6.6388147e-07
6.63882012e-07
6.63881036e-07
6.63881501e-07
6.63881426e-07
6.63881977e-07
6.63880348e-07
6.63882345e-07
6.63880928e-07
6.63883409e-07
6.63880412e-07
6.63882745e-07
6.63880549e-07
6.63881836e-07
6.63882063e-07
6.6388178e-07
6.63881546e-07
6.63882983e-07
6.63881261e-07
6.63882819e-07
6.63882272e-07
6.63881757e-07
6.63883047e-07
6.6388265e-07
6.63882002e-07
6.63883223e-07
6.63881692e-07
6.63882488e-07
6.63882045e-07
6.63881701e-07
6.63881749e-07
6.63882131e-07
6.63880575e-07
6.63882448e-07
6.63880329e-07
6.6388218e-07
6.63880442e-07
6.63882211e-07
6.63881721e-07
6.63880871e-07
6.63882813e-07
6.63880582e-07
6.63883064e-07
6.63881151e-07
6.638825e-07
6.63882209e-07
6.63882015e-07
6.63881446e-07
6.63882045e-07
6.63880995e-07
6.63883573e-07
6.63880682e-07
6.63883866e-07
6.63881206e-07
6.63883733e-07
6.63881267e-07
6.63882395e-07
6.63882015e-07
6.63881674e-07
6.63881186e-07
6.63881957e-07
6.63881143e-07
6.63881668e-07
6.63882405e-07
6.63880514e-07
6.63882601e-07
6.63882695e-07
6.63891434e-07
6.63891895e-07
6.64132606e-07
6.64131547e-07
6.63891762e-07
6.63891667e-07
6.63883363e-07
6.63881962e-07
6.63881578e-07
6.63882044e-07
6.63882039e-07
6.63882293e-07
6.63881484e-07
6.6388286e-07
6.63880721e-07
6.63882737e-07
6.63881698e-07
6.63882765e-07
6.63881408e-07
6.63882225e-07
6.63881526e-07
6.63882715e-07
6.63881292e-07
6.63883323e-07
6.63880862e-07
6.63883328e-07
6.63881275e-07
6.63882584e-07
6.63881768e-07
6.63881914e-07
6.63882041e-07
6.63882784e-07
6.63882337e-07
6.63882461e-07
6.63882454e-07
6.63882395e-07
6.6388194e-07
6.63882652e-07
6.63882525e-07
6.63882133e-07
6.63881854e-07
6.63882032e-07
6.63882662e-07
6.63881944e-07
6.63881707e-07
6.63882203e-07
6.63882553e-07
6.63882392e-07
6.63881698e-07
6.63884196e-07
6.63880956e-07
6.6388267e-07
6.63882762e-07
6.63881656e-07
6.63882947e-07
6.6388214e-07
6.63882622e-07
6.63882243e-07
6.63883207e-07
6.63882435e-07
6.63882685e-07
6.63882506e-07
6.63882841e-07
6.63882943e-07
6.63883607e-07
6.63881254e-07
6.63884173e-07
6.63880766e-07
6.63883397e-07
6.63880875e-07
6.63883172e-07
6.63881965e-07
6.63881151e-07
6.63883271e-07
6.6388167e-07
6.63882344e-07
6.63882365e-07
6.63882892e-07
6.63882258e-07
6.63881611e-07
6.63883042e-07
6.63881976e-07
6.63883376e-07
6.63883088e-07
6.63882454e-07
6.63882814e-07
6.63881714e-07
6.63882569e-07
6.63881302e-07
6.63882791e-07
6.6388183e-07
6.6388252e-07
6.63881328e-07
6.63883269e-07
6.63881017e-07
6.63882949e-07
6.63882713e-07
6.63882454e-07
6.63882954e-07
6.63882196e-07
6.63882505e-07
6.63882196e-07
6.63881786e-07
6.63882921e-07
6.63881795e-07
6.63882393e-07
6.63881896e-07
6.63882372e-07
6.63882339e-07
6.63882347e-07
6.63882281e-07
6.63882407e-07
6.63882969e-07
6.63882653e-07
6.63882514e-07
6.63883371e-07
6.63881479e-07
6.63882308e-07
6.63882337e-07
6.6388232e-07
6.63882887e-07
6.63883802e-07
6.63882875e-07
6.63882912e-07
6.6388309e-07
6.63882881e-07
6.6388278e-07
6.63882659e-07
6.63883042e-07
6.63882382e-07
6.63882201e-07
6.63881693e-07
6.63883444e-07
6.63881011e-07
6.63883787e-07
6.63881396e-07
6.63883428e-07
6.63882677e-07
6.63882386e-07
6.6388329e-07
6.63882137e-07
6.63883567e-07
6.63881245e-07
6.63883694e-07
6.63880549e-07
6.63884141e-07
6.6388114e-07
6.63884028e-07
6.63882271e-07
6.63882359e-07
6.63882659e-07
6.63883119e-07
6.63882736e-07
6.63882873e-07
6.63882395e-07
6.63883022e-07
6.63882391e-07
6.63882375e-07
6.63882932e-07
6.63882861e-07
6.63883317e-07
6.63882161e-07
6.63882958e-07
6.63882993e-07
6.6388342e-07
6.63883224e-07
6.63883237e-07
6.63883595e-07
6.63882752e-07
6.63882095e-07
6.63883403e-07
6.63882557e-07
6.63882257e-07
6.63883427e-07
6.6388255e-07
6.63882634e-07
6.63882694e-07
6.63882301e-07
6.63882498e-07
6.63883213e-07
6.63881949e-07
6.63883453e-07
6.63882439e-07
6.63882476e-07
6.638829e-07
6.63882983e-07
6.63882845e-07
6.63882894e-07
6.63882534e-07
6.63883235e-07
6.63882089e-07
6.63883954e-07
6.63882799e-07
6.63883477e-07
6.63882895e-07
6.63883182e-07
6.63882868e-07
6.63884354e-07
6.63882206e-07
6.63883333e-07
6.63882798e-07
6.63883477e-07
6.63883361e-07
6.63882776e-07
6.63882988e-07
6.63883232e-07
6.63882959e-07
6.63883389e-07
6.63882991e-07
6.63882495e-07
6.63883545e-07
6.6388152e-07
6.63883788e-07
6.63881808e-07
6.63883095e-07
6.63882597e-07
6.63882827e-07
6.63883048e-07
6.63883349e-07
6.63883071e-07
6.63883517e-07
6.63882955e-07
6.63883354e-07
6.63882867e-07
6.6388301e-07
6.6388232e-07
6.63883706e-07
6.63881243e-07
6.63884616e-07
6.63881224e-07
6.63884426e-07
6.63882581e-07
6.63882629e-07
6.63883469e-07
6.63883183e-07
6.63883214e-07
6.6388304e-07
6.63882704e-07
6.6388275e-07
6.63883639e-07
6.63883005e-07
6.638831e-07
6.63883779e-07
6.63883498e-07
6.63883681e-07
6.63882462e-07
6.63884866e-07
6.63882377e-07
6.63884195e-07
6.63882667e-07
6.63884225e-07
6.63882864e-07
6.6388376e-07
6.63883006e-07
6.63883788e-07
6.63883969e-07
6.63883148e-07
6.63884435e-07
6.63882664e-07
6.63884244e-07
6.63882792e-07
6.63884076e-07
6.63883602e-07
6.63883045e-07
6.63883796e-07
6.63882937e-07
6.63884003e-07
6.63883044e-07
6.63883473e-07
6.6388329e-07
6.63883561e-07
6.63883297e-07
6.63883747e-07
6.63883439e-07
6.63883462e-07
6.63883396e-07
6.63883024e-07
6.63882905e-07
6.63883859e-07
6.63883117e-07
6.63883005e-07
6.63883353e-07
6.63883852e-07
6.63883404e-07
6.63883112e-07
6.63882727e-07
6.63884281e-07
6.63882316e-07
6.63885095e-07
6.63883519e-07
6.6388423e-07
6.63882838e-07
6.63884679e-07
6.63882608e-07
6.63883404e-07
6.63882599e-07
6.63882928e-07
6.63882988e-07
6.63883653e-07
6.63883265e-07
6.63884228e-07
6.63883216e-07
6.63882895e-07
6.63883091e-07
6.63883783e-07
6.63882918e-07
6.63883868e-07
6.63882845e-07
6.63883399e-07
6.63883014e-07
6.6388258e-07
6.63883342e-07
6.63882867e-07
6.63883692e-07
6.63883101e-07
6.63885307e-07
6.63882234e-07
6.63884868e-07
6.63881572e-07
6.63884934e-07
6.63882416e-07
6.63883604e-07
6.63883217e-07
6.63883373e-07
6.63883552e-07
6.63883613e-07
6.63883796e-07
6.63883562e-07
6.63882596e-07
6.63884492e-07
6.63883122e-07
6.63883432e-07
6.63883586e-07
6.63883883e-07
6.63883316e-07
6.63883664e-07
6.63883476e-07
6.6388381e-07
6.63883421e-07
6.63883665e-07
6.6388384e-07
6.6388354e-07
6.63883485e-07
6.63883869e-07
6.63883712e-07
6.63883794e-07
6.63883632e-07
6.63883808e-07
6.63883681e-07
6.63883791e-07
6.63883831e-07
6.63883894e-07
6.63883884e-07
6.63883924e-07
6.63884054e-07
6.63884065e-07
6.63884037e-07
6.63884156e-07
6.63884229e-07
6.63884222e-07
6.63884311e-07
6.63884396e-07
6.63884524e-07
6.63884571e-07
6.63884666e-07
6.63884795e-07
6.63884877e-07
6.63885021e-07
6.63885201e-07
6.63885387e-07
6.63885549e-07
6.63885819e-07
6.63886075e-07
6.63886369e-07
6.63886688e-07
6.63886988e-07
6.63887273e-07
6.63887534e-07
6.63887715e-07
6.6388782e-07
6.63887872e-07
6.63887904e-07
6.63887958e-07
6.63887937e-07
6.63887958e-07
6.63887958e-07
6.6388795e-07
6.63887961e-07
6.6388796e-07
6.63887945e-07
6.63887971e-07
6.63887942e-07
6.6388795e-07
6.63887947e-07
6.63887949e-07
6.63887947e-07
6.63887947e-07
6.63887954e-07
6.63887944e-07
6.63887938e-07
6.63887973e-07
)
;

boundaryField
{
    closed
    {
        type            calculated;
        value           uniform 0;
    }
    open
    {
        type            calculated;
        value           uniform 0;
    }
    sides
    {
        type            empty;
    }
}


// ************************************************************************* //
