/*--------------------------------*- C++ -*----------------------------------*\
| =========                 |                                                 |
| \\      /  F ield         | OpenFOAM: The Open Source CFD Toolbox           |
|  \\    /   O peration     | Version:  2206                                  |
|   \\  /    A nd           | Website:  www.openfoam.com                      |
|    \\/     M anipulation  |                                                 |
\*---------------------------------------------------------------------------*/
FoamFile
{
    version     2.0;
    format      ascii;
    arch        "LSB;label=32;scalar=64";
    class       volScalarField;
    location    "3.8e-06";
    object      p;
}
// * * * * * * * * * * * * * * * * * * * * * * * * * * * * * * * * * * * * * //

dimensions      [1 -1 -2 0 0 0 0];

internalField   nonuniform List<scalar> 
3183
(
101325
101325
101325
101325
101325
101325
101325
101325
101325
101325
101325
101325
101325
101325
101325
101325
101325
101325
101325
101325
101325
101325
101325
101325
101325
101325
101325
101325
101325
101325
101325
101325
101325
101325
101325
101325
101325
101325
101325
101325
101325
101325
101325
101325
101325
101325
101325
101325
101325
101325
101325
101325
101325
101325
101325
101325
101325
101325
101325
101325
101325
101325
101325
101325
101325
101325
101325
101325
101325
101325
101325
101325
101325
101325
101325
101325
101325
101325
101325
101325
101325
101325
101325
101325
101325
101325
101325
101325
101325
101325
101325
101325
101325
101325
101325
101325
101325
101325
101325
101325
101325
101325
101325
101325
101325
101325
101325
101325
101325
101325
101325
101325
101325
101325
101325
101325
101325
101325
101325
101325
101325
101325
101325
101325
101325
101325
101325
101325
101325
101325
101325
101325
101325
101325
101325
101325
101325
101325
101325
101325
101325
101325
101325
101325
101325
101325
101325
101325
101325
101325
101325
101325
101325
101325
101325
101325
101325
101325
101325
101325
101325
101325
101325
101325
101325
101325
101325
101325
101325
101325
101325
101325
101325
101325
101325
101325
101325
101325
101325
101325
101325
101325
101325
101325
101325
101325
101325
101325
101325
101325
101325
101325
101325
101325
101325
101325
101325
101325
101325
101325
101325
101325
101325
101325
101325
101325
101325
101325
101325
101325
101325
101325
101325
101325
101325
101325
101325
101325
101325
101325
101325
101325
101325
101325
101325
101325
101325
101325
101325
101325
101325
101325
101325
101325
101325
101325
101325
101325
101325
101325
101325
101325
101325
101325
101325
101325
101325
101325
101325
101325
101325
101325
101325
101325
101325
101325
101325
101325
101325
101325
101325
101325
101325
101325
101325
101325
101325
101325
101325
101325
101325
101325
101325
101325
101325
101325
101325
101325
101325
101325
101325
101325
101325
101325
101325
101325
101325
101325
101325
101325
101325
101325
101325
101325
101325
101325
101325
101325
101325
101325
101325
101325
101325
101325
101325
101325
101325
101325
101325
101325
101325
101325
101325
101325
101325
101325
101325
101325
101325
101325
101325
101325
101325
101325
101325
101325
101325
101325
101325
101325
101325
101325
101325
101325
101325
101325
101325
101325
101325
101325
101325
101325
101325
101325
101325
101325
101325
101325
101325
101325
101325
101325
101325
101325
101325
101325
101325
101325
101325
101325
101325
101325
101325
101325
101325
101325
101325
101325
101325
101325
101325
101325
101325
101325
101325
101325
101325
101325
101325
101325
101325
101325
101325
101325
101325
101325
101325
101325
101325
101325
101325
101325
101325
101325
101325
101325
101325
101325
101325
101325
101325
101325
101325
101325
101325
101325
101325
101325
101325
101325
101325
101325
101325
101325
101325
101325
101325
101325
101325
101325
101325
101325
101325
101325
101325
101325
101325
101325
101325
101325
101325
101325
101325
101325
101325
101325
101325
101325
101325
101325
101325
101325
101325
101325
101325
101325
101325
101325
101325
101325
101325
101325
101325
101325
101325
101325
101325
101325
101325
101325
101325
101325
101325
101325
101325
101325
101325
101325
101325
101325
101325
101325
101325
101325
101325
101325
101325
101325
101325
101325
101325
101325
101325
101325
101325
101325
101325
101325
101325
101325
101325
101325
101325
101325
101325
101325
101325
101325
101325
101325
101325
101325
101325
101325
101325
101325
101325
101325
101325
101325
101325
101325
101325
101325
101325
101325
101325
101325
101325
101325
101325
101325
101325
101325
101325
101325
101325
101325
101325
101325
101325
101325
101325
101325
101325
101325
101325
101325
101325
101325
101325
101325
101325
101325
101325
101325
101325
101325
101325
101325
101325
101325
101325
101325
101325
101325
101325
101325
101325
101325
101325
101325
101325
101325
101325
101325
101325
101325
101325
101325
101325
101325
101325
101325
101325
101325
101325
101325
101325
101325
101325
101325
101325
101325
101325
101325
101325
101325
101325
101325
101325
101325
101325
101325
101325
101325
101325
101325
101325
101325
101325
101325
101325
101325
101325
101325
101325
101325
101325
101325
101325
101325
101325
101325
101325
101325
101325
101325
101325
101325
101325
101325
101325
101325
101325
101325
101325
101325
101325
101325
101325
101325
101325
101325
101325
101325
101325
101325
101325
101325
101325
101325
101325
101325
101325
101325
101325
101325
101325
101325
101325
101325
101325
101325
101325
101325
101325
101325
101325
101325
101325
101325
101325
101325
101325
101325
101325
101325
101325
101325
101325
101325
101325
101325
101325
101325
101325
101325
101325
101325
101325
101325
101325
101325
101325
101325
101325
101325
101325
101325
101325
101325
101325
101325
101325
101325
101325
101325
101325
101325
101325
101325
101325
101325
101325
101325
101325
101325
101325
101325
101325
101325
101325
101325
101325
101325
101325
101325
101325
101325
101325
101325
101325
101325
101325
101325
101325
101325
101325
101325
101325
101325
101325
101325
101325
101325
101325
101325
101325
101325
101325
101325
101325
101325
101325
101325
101325
101325
101325
101325
101325
101325
101325
101325
101325
101325
101325
101325
101325
101325
101325
101325
101325
101325
101325
101325
101325
101325
101325
101325
101325
101325
101325
101325
101325
101325
101325
101325
101325
101325
101325
101325
101325
101325
101325
101325
101325
101325
101325
101325
101325
101325
101325
101325
101325
101325
101325
101325
101325
101325
101325
101325
101325
101325
101325
101325
101325
101325
101325
101325
101325
101325
101325
101325
101325
101325
101325
101325
101325
101325
101325
101325
101325
101325
101325
101325
101325
101325
101325
101325
101325
101325
101325
101325
101325
101325
101325
101325
101325
101325
101325
101325
101325
101325
101325
101325
101325
101325
101325
101325
101325
101325
101325
101325
101325
101325
101325
101325
101325
101325
101325
101325
101325
101325
101325
101325
101325
101325
101325
101325
101325
101325
101325
101325
101325
101325
101325
101325
101325
101325
101325
101325
101325
101325
101325
101325
101325
101325
101325
101325
101325
101325
101325
101325
101325
101325
101325
101325
101325
101325
101325
101325
101325
101325
101325
101325
101325
101325
101325
101325
101325
101325
101325
101325
101325
101325
101325
101325
101325
101325
101325
101325
101325
101325
101325
101325
101325
101325
101325
101325
101325
101325
101325
101325
101325
101325
101325
101325
101325
101325
101325
101325
101325
101325
101325
101325
101325
101325
101325
101325
101325
101325
101325
101325
101325
101325
101325
101325
101325
101325
101325
101325
101325
101325
101325
101325
101325
101325
101325
101325
101325
101325
101325
101325
101325
101325
101325
101325
101325
101325
101325
101325
101325
101325
101325
101325
101325
101325
101325
101325
101325
101325
101325
101325
101325
101325
101325
101325
101325
101325
101325
101325
101325
101325
101325
101325
101325
101325
101325
101325
101325
101325
101325
101325
101325
101325
101325
101325
101325
101325
101325
101325
101325
101325
101325
101325
101325
101325
101325
101325
101325
101325
101325
101325
101325
101325
101325
101325
101325
101325
101325
101325
101325
101325
101325
101325
101325
101325
101325
101325
101325
101325
101325
101325
101325
101325
101325
101325
101325
101325
101325
101325
101325
101325
101325
101325
101325
101325
101325
101325
101325
101325
101325
101325
101325
101325
101325
101325
101325
101325
101325
101325
101325
101325
101325
101325
101325
101325
101325
101325
101325
101325
101325
101325
101325
101325
101325
101325
101325
101325
101325
101325
101325
101325
101325
101325
101325
101325
101325
101325
101325
101325
101325
101325
101325
101325
101325
101325
101325
101325
101325
101325
101325
101325
101325
101325
101325
101325
101325
101325
101325
101325
101325
101325
101325
101325
101325
101325
101325
101325
101325
101325
101325
101325
101325
101325
101325
101325
101325
101325
101325
101325
101325
101325
101325
101325
101325
101325
101325
101325
101325
101325
101325
101325
101325
101325
101325
101325
101325
101325
101325
101325
101325
101325
101325
101325
101325
101325
101325
101325
101325
101325
101325
101325
101325
101325
101325
101325
101325
101325
101325
101325
101325
101325
101325
101325
101325
101325
101325
101325
101325
101325
101325
101325
101325
101325
101325
101325
101325
101325
101325
101325
101325
101325
101325
101325
101325
101325
101325
101325
101325
101325
101325
101325
101325
101325
101325
101325
101325
101325
101325
101325
101325
101325
101325
101325
101325
101325
101325
101325
101325
101325
101325
101325
101325
101325
101325
101325
101325
101325
101325
101325
101325
101325
101325
101325
101325
101325
101325
101325
101325
101325
101325
101325
101325
101325
101325
101325
101325
101325
101325
101325
101325
101325
101325
101325
101325
101325
101325
101325
101325
101325
101325
101325
101325
101325
101325
101325
101325
101325
101325
101325
101325
101325
101325
101325
101325
101325
101325
101325
101325
101325
101325
101325
101325
101325
101325
101325
101325
101325
101325
101325
101325
101325
101325
101325
101325
101325
101325
101325
101325
101325
101325
101325
101325
101325
101325
101325
101325
101325
101325
101325
101325
101325
101325
101325
101325
101325
101325
101325
101325
101325
101325
101325
101325
101325
101325
101325
101325
101325
101325
101325
101325
101325
101325
101325
101325
101325
101325
101325
101325
101325
101325
101325
101325
101325
101325
101325
101325
101325
101325
101325
101325
101325
101325
101325
101325
101325
101325
101325
101325
101325
101325
101325
101325
101325
101325
101325
101325
101325
101325
101325
101325
101325
101325
101325
101325
101325
101325
101325
101325
101325
101325
101325
101325
101325
101325
101325
101325
101325
101325
101325
101325
101325
101325
101325
101325
101325
101325
101325
101325
101325
101325
101325
101325
101325
101325
101325
101325
101325
101325
101325
101325
101325
101325
101325
101325
101325
101325
101325
101325
101325
101325
101325
101325
101325
101325
101325
101325
101325
101325
101325
101325
101325
101325
101325
101325
101325
101325
101325
101325
101325
101325
101325
101325
101325
101325
101325
101325
101325
101325
101325
101325
101325
101325
101325
101325
101325
101325
101325
101325
101325
101325
101325
101325
101325
101325
101325
101325
101325
101325
101325
101325
101325
101325
101325
101325
101325
101325
101325
101325
101325
101325
101325
101325
101325
101325
101325
101325
101325
101325
101325
101325
101325
101325
101325
101325
101325
101325
101325
101325
101325
101325
101325
101325
101325
101325
101325
101325
101325
101325
101325
101325
101325
101325
101325
101325
101325
101325
101325
101325
101325
101325
101325
101325
101325
101325
101325
101325
101325
101325
101325
101325
101325
101325
101325
101325
101325
101325
101325
101325
101325
101325
101325
101325
101325
101325
101325
101325
101325
101325
101325
101325
101325
101325
101325
101325
101325
101325
101325
101325
101325
101325
101325
101325
101325
101325
101325
101325
101325
101325
101325
101325
101325
101325
101325
101325
101325
101325
101325
101325
101325
101325
101325
101325
101325
101325
101325
101325
101325
101325
101325
101325
101325
101325
101325
101325
101325
101325
101325
101325
101325
101325
101325
101325
101325
101325
101325
101325
101325
101325
101325
101325
101325
101325
101325
101325
101325
101325
101325
101325
101325
101325
101325
101325
101325
101325
101325
101325
101325
101325
101325
101325
101325
101325
101325
101325
101325
101325
101325
101325
101325
101325
101325
101325
101325
101325
101325
101325
101325
101325
101325
101325
101325
101325
101325
101325
101325
101325
101325
101325
101325
101325
101325
101325
101325
101325
101325
101325
101325
101325
101325
101325
101325
101325
101325
101325
101325
101325
101325
101325
101325
101325
101325
101325
101325
101325
101325
101325
101325
101325
101325
101325
101325
101325
101325
101325
101325
101325
101325
101325
101325
101325
101325
101325
101325
101325
101325
101325
101325
101325
101325
101325
101325
101325
101325
101325
101325
101325
101325
101325
101325
101325
101325
101325
101325
101325
101325
101325
101325
101325
101325
101325
101325
101325
101325
101325
101325
101325
101325
101325
101325
101325
101325
101325
101325
101325
101325
101325
101325
101325
101325
101325
101325
101325
101325
101325
101325
101325
101325
101325
101325
101325
101325
101325
101325
101325
101325
101325
101325
101325
101325
101325
101325
101325
101325
101325
101325
101325
101325
101325
101325
101325
101325
101325
101325
101325
101325
101325
101325
101325
101325
101325
101325
101325
101325
101325
101325
101325
101325
101325
101325
101325
101325
101325
101325
101325
101325
101325
101325
101325
101325
101325
101325
101325
101325
101325
101325
101325
101325
101325
101325
101325
101325
101325
101325
101325
101325
101325
101325
101325
101325
101325
101325
101325
101325
101325
101325
101325
101325
101325
101325
101325
101325
101325
101325
101325
101325
101325
101325
101325
101325
101325
101325
101325
101325
101325
101325
101325
101325
101325
101325
101325
101325
101325
101325
101325
101325
101325
101325
101325
101325
101325
101325
101325
101325
101325
101325
101325
101325
101325
101325
101325
101325
101325
101325
101325
101325
101325
101325
101325
101325
101325
101325
101325
101325
101325
101325
101325
101325
101325
101325
101325
101325
101325
101325
101325
101325
101325
101325
101325
101325
101325
101325
101325
101325
101325
101325
101325
101325
101325
101325
101325
101325
101325
101325
101325
101325
101325
101325
101325
101325
101325
101325
101325
101325
101325
101325
101325
101325
101325
101325
101325
101325
101325
101325
101325
101325
101325
101325
101325
101325
101325
101325
101325
101325
101325
101325
101325
101325
101325
101325
101325
101325
101325
101325
101325
101325
101325
101325
101325
101325
101325
101325
101325
101325
101325
101325
101325
101325
101325
101325
101325
101325
101325
101325
101325
101325
101325
101325
101325
101325
101325
101325
101325
101325
101325
101325
101325
101325
101325
101325
101325
101325
101325
101325
101325
101325
101325
101325
101325
101325
101325
101325
101325
101325
101325
101325
101325
101325
101325
101325
101325
101325
101325
101325
101325
101325
101325
101325
101325
101325
101325
101325
101325
101325
101325
101325
101325
101325
101325
101325
101325
101325
101325
101325
101325
101325
101325
101325
101325
101325
101325
101325
101325
101325
101325
101325
101325
101325
101325
101325
101325
101325
101325
101325
101325
101325
101325
101325
101325
101325
101325
101325
101325
101325
101325
101325
101325
101325
101325
101325
101325
101325
101325
101325
101325
101325
101325
101325
101325
101325
101325
101325
101325
101325
101325
101325
101325
101325
101325
101325
101325
101325
101325
101325
101325
101325
101325
101325
101325
101325
101325
101325
101325
101325
101325
101325
101325
101325
101325
101325
101325
101325
101325
101325
101325
101325
101325
101325
101325
101325
101325
101325
101325
101325
101325
101325
101325
101325
101325
101325
101325
101325
101325
101325
101325
101325
101325
101325
101325
101325
101325
101325
101325
101325
101325
101325
101325
101325
101325
101325
101325
101325
101325
101325
101325
101325
101325
101325
101325
101325
101325
101325
101325
101325
101325
101325
101325
101325
101325
101325
101325
101325
101325
101325
101325
101325
101325
101325
101325
101325
101325
101325
101325
101325
101325
101325
101325
101325
101325
101325
101325
101325
101325
101325
101325
101325
101325
101325
101325
101325
101325
101325
101325
101325
101325
101325
101325
101325
101325
101325
101325
101325
101325
101325
101325
101325
101325
101325
101325
101325
101325
101325
101325
101325
101325
101325
101325
101325
101325
101325
101325
101325
101325
101325
101325
101325
101325
101325
101325
101325
101325
101325
101325
101325
101325
101325
101325
101325
101325
101325
101325
101325
101325
101325
101325
101325
101325
101325
101325
101325
101325
101325
101325
101325
101325
101325
101325
101325
101325
101325
101325
101325
101325
101325
101325
101325
101325
101325
101325
101325
101325
101325
101325
101325
101325
101325
101325
101325
101325
101325
101325
101325
101325
101324.999
101324.999
101324.999
101324.999
101324.999
101324.999
101324.999
101324.999
101324.999
101324.999
101324.999
101324.998
101324.998
101324.998
101324.998
101324.998
101324.998
101324.997
101324.997
101324.997
101324.996
101324.996
101324.996
101324.995
101324.995
101324.994
101324.994
101324.993
101324.992
101324.992
101324.991
101324.99
101324.989
101324.988
101324.987
101324.986
101324.985
101324.983
101324.982
101324.98
101324.978
101324.976
101324.974
101324.972
101324.969
101324.966
101324.963
101324.96
101324.956
101324.953
101324.948
101324.944
101324.939
101324.934
101324.928
101324.922
101324.915
101324.908
101324.9
101324.891
101324.882
101324.872
101324.861
101324.85
101324.837
101324.824
101324.809
101324.794
101324.777
101324.759
101324.74
101324.719
101324.696
101324.672
101324.646
101324.619
101324.589
101324.557
101324.522
101324.486
101324.446
101324.404
101324.359
101324.311
101324.26
101324.205
101324.146
101324.084
101324.017
101323.946
101323.87
101323.79
101323.704
101323.613
101323.516
101323.413
101323.303
101323.187
101323.064
101322.933
101322.795
101322.649
101322.494
101322.331
101322.158
101321.976
101321.783
101321.58
101321.367
101321.141
101320.905
101320.656
101320.394
101320.12
101319.832
101319.53
101319.213
101318.882
101318.536
101318.174
101317.797
101317.403
101316.992
101316.565
101316.12
101315.657
101315.177
101314.679
101314.162
101313.627
101313.074
101312.502
101311.911
101311.302
101310.675
101310.029
101309.365
101308.684
101307.985
101307.269
101306.536
101305.788
101305.024
101304.246
101303.454
101302.649
101301.832
101301.005
101300.168
101299.322
101298.469
101297.61
101296.747
101295.882
101295.015
101294.149
101293.286
101292.426
101291.573
101290.728
101289.892
101289.069
101288.26
101287.467
101286.693
101285.938
101285.207
101284.499
101283.818
101283.165
101282.543
101281.953
101281.396
101280.875
101280.392
101279.947
101279.541
101279.177
101278.855
101278.576
101278.34
101278.149
101278.003
101277.901
101277.844
101277.832
101277.864
101277.94
101278.058
101278.219
101278.42
101278.662
101278.941
101279.257
101279.608
101279.992
101280.407
101280.851
101281.322
101281.818
101282.336
101282.875
101283.431
101284.004
101284.59
101285.187
101285.793
101286.407
101287.026
101287.649
101288.273
101288.898
101289.522
101290.143
101290.761
101291.374
101291.982
101292.584
101293.179
101293.767
101294.348
101294.921
101295.487
101296.044
101296.594
101297.136
101297.67
101298.196
101298.714
101299.225
101299.728
101300.222
101300.708
101301.185
101301.653
101302.111
101302.558
101302.994
101303.416
101303.825
101304.218
101304.594
101304.953
101305.291
101305.607
101305.899
101306.166
101306.406
101306.616
101306.795
101306.941
101307.053
101307.128
101307.165
101307.163
101307.121
101307.036
101306.907
101306.733
101306.512
101306.242
101305.919
101305.539
101305.097
101304.588
101304.001
101303.325
101302.547
101301.648
101300.607
101299.394
101297.977
101296.316
101294.361
101292.056
101289.329
101286.089
101282.269
101278.252
101273.571
101273.396
101274.615
101278.264
101281.619
101284.792
101287.376
101289.674
101291.652
101293.395
101294.924
101296.27
101297.456
101298.5
101299.42
101300.231
101300.946
101301.578
101302.135
101302.629
101303.066
101303.454
101303.8
101304.108
101304.384
101304.632
101304.855
101305.056
101305.238
101305.402
101305.551
101305.687
101305.81
101305.921
101306.021
101306.111
101306.191
101306.261
101306.322
101306.375
101306.418
101306.453
101306.48
101306.497
101306.507
101306.508
101306.5
101306.485
101306.461
101306.429
101306.389
101306.341
101306.286
101306.223
101306.152
101306.075
101305.99
101305.899
101305.801
101305.697
101305.586
101305.47
101305.348
101305.22
101305.087
101304.949
101304.806
101304.659
101304.507
101304.351
101304.191
101304.028
101303.86
101303.69
101303.516
101303.339
101303.159
101302.976
101302.791
101302.603
101302.413
101302.221
101302.026
101301.829
101301.63
101301.429
101301.226
101301.022
101300.815
101300.607
101300.397
101300.184
101299.971
101299.755
101299.537
101299.318
101299.096
101298.873
101298.648
101298.42
101298.191
101297.959
101297.725
101297.489
101297.251
101297.01
101296.766
101296.52
101296.271
101296.019
101295.765
101295.508
101295.248
101294.985
101294.719
101294.449
101294.177
101293.902
101293.623
101293.341
101293.056
101292.768
101292.476
101292.182
101291.884
101291.583
101291.279
101290.972
101290.662
101290.349
101290.034
101289.716
101289.395
101289.072
101288.747
101288.419
101288.09
101287.759
101287.427
101287.093
101286.758
101286.423
101286.087
101285.75
101285.414
101285.077
101284.741
101284.406
101284.072
101283.739
101283.408
101283.079
101282.752
101282.428
101282.107
101281.79
101281.476
101281.166
101280.86
101280.559
101280.263
101279.973
101279.688
101279.409
101279.137
101278.871
101278.613
101278.362
101278.118
101277.883
101277.656
101277.438
101277.228
101277.028
101276.837
101276.657
101276.486
101276.325
101276.175
101276.036
101275.908
101275.79
101275.684
101275.59
101275.506
101275.435
101275.375
101275.327
101275.291
101275.268
101275.256
101275.257
101275.27
101275.296
101275.333
101275.383
101275.446
101275.521
101275.608
101275.708
101275.819
101275.943
101276.079
101276.227
101276.387
101276.558
101276.741
101276.936
101277.142
101277.359
101277.587
101277.826
101278.075
101278.335
101278.604
101278.884
101279.174
101279.473
101279.781
101280.098
101280.425
101280.759
101281.102
101281.453
101281.811
101282.177
101282.551
101282.931
101283.317
101283.71
101284.109
101284.514
101284.924
101285.34
101285.76
101286.185
101286.614
101287.048
101287.485
101287.925
101288.369
101288.816
101289.265
101289.717
101290.171
101290.627
101291.084
101291.542
101292.002
101292.463
101292.924
101293.385
101293.847
101294.308
101294.769
101295.229
101295.689
101296.147
101296.605
101297.061
101297.515
101297.968
101298.418
101298.866
101299.312
101299.756
101300.197
101300.635
101301.07
101301.502
101301.93
101302.356
101302.777
101303.196
101303.61
101304.021
101304.427
101304.83
101305.228
101305.622
101306.012
101306.398
101306.779
101307.155
101307.527
101307.894
101308.257
101308.615
101308.968
101309.316
101309.66
101309.998
101310.332
101310.661
101310.984
101311.303
101311.617
101311.926
101312.23
101312.529
101312.823
101313.112
101313.396
101313.676
101313.95
101314.219
101314.484
101314.744
101314.999
101315.249
101315.495
101315.735
101315.971
101316.203
101316.43
101316.652
101316.87
101317.083
101317.292
101317.497
101317.697
101317.893
101318.084
101318.272
101318.456
101318.635
101318.81
101318.982
101319.149
101319.313
101319.473
101319.629
101319.782
101319.931
101320.076
101320.218
101320.356
101320.491
101320.623
101320.751
101320.877
101320.999
101321.118
101321.234
101321.347
101321.457
101321.564
101321.669
101321.77
101321.869
101321.966
101322.059
101322.151
101322.239
101322.326
101322.41
101322.491
101322.571
101322.648
101322.723
101322.796
101322.867
101322.936
101323.002
101323.067
101323.13
101323.192
101323.251
101323.309
101323.365
101323.419
101323.471
101323.523
101323.572
101323.62
101323.667
101323.712
101323.756
101323.798
101323.839
101323.879
101323.918
101323.955
101323.991
101324.026
101324.06
101324.093
101324.125
101324.156
101324.186
101324.214
101324.242
101324.269
101324.295
101324.321
101324.345
101324.369
101324.391
101324.413
101324.435
101324.455
101324.475
101324.494
101324.513
101324.531
101324.548
101324.565
101324.581
101324.597
101324.612
101324.626
101324.64
101324.654
101324.667
101324.679
101324.692
101324.703
101324.715
101324.726
101324.736
101324.746
101324.756
101324.765
101324.774
101324.783
101324.792
101324.8
101324.807
101324.815
101324.822
101324.829
101324.836
101324.842
101324.849
101324.855
101324.86
101324.866
101324.871
101324.876
101324.881
101324.886
101324.891
101324.895
101324.899
101324.904
101324.907
101324.911
101324.915
101324.918
101324.922
101324.925
101324.928
101324.931
101324.934
101324.937
101324.939
101324.942
101324.944
101324.946
101324.949
101324.951
101324.953
101324.955
101324.957
101324.959
101324.96
101324.962
101324.964
101324.965
101324.967
101324.968
101324.969
101324.971
101324.972
101324.973
101324.974
101324.975
101324.977
101324.978
101324.979
101324.979
101324.98
101324.981
101324.982
101324.983
101324.984
101324.984
101324.985
101324.986
101324.986
101324.987
101324.988
101324.988
101324.989
101324.989
101324.99
101324.99
101324.991
101324.991
101324.991
101324.992
101324.992
101324.993
101324.993
101324.993
101324.994
101324.994
101324.994
101324.995
101324.995
101324.996
101324.996
101324.996
101324.997
101324.997
101324.997
101324.998
101324.998
101324.998
101324.999
101324.999
101324.999
101324.999
101324.999
101325
101325
101325
101325
101325
101325
101325
101325
101325
101325
101325
101325
101325
101325
101325
101325
101325
101325
101325
101325
101325
101325
101325
101325
101325
101325
101325
101325
101325
101325
101325
101325
101325
101325
101325
101325
101325
101325
101325
101325
101325
101325
101325
101325
101325
101325
101325
101325
101325
101325
101325
101325
101325
101325
101325
)
;

boundaryField
{
    closed
    {
        type            zeroGradient;
    }
    open
    {
        type            waveTransmissive;
        gamma           1.25;
        fieldInf        101325;
        lInf            1;
        value           uniform 101325;
    }
    sides
    {
        type            empty;
    }
}


// ************************************************************************* //
