/*--------------------------------*- C++ -*----------------------------------*\
| =========                 |                                                 |
| \\      /  F ield         | OpenFOAM: The Open Source CFD Toolbox           |
|  \\    /   O peration     | Version:  2206                                  |
|   \\  /    A nd           | Website:  www.openfoam.com                      |
|    \\/     M anipulation  |                                                 |
\*---------------------------------------------------------------------------*/
FoamFile
{
    version     2.0;
    format      ascii;
    arch        "LSB;label=32;scalar=64";
    class       volVectorField;
    location    "3.8e-06";
    object      U;
}
// * * * * * * * * * * * * * * * * * * * * * * * * * * * * * * * * * * * * * //

dimensions      [0 1 -1 0 0 0 0];

internalField   nonuniform List<vector> 
3183
(
(7.53453785e-14 0 0)
(-5.40536442e-15 0 0)
(-4.17147419e-14 0 0)
(-3.79090887e-14 0 0)
(-3.98900174e-14 0 0)
(-6.34851405e-19 0 0)
(-5.00920498e-20 0 0)
(-1.24637203e-24 0 0)
(4.05887139e-25 0 0)
(1.17952626e-23 0 0)
(3.56938902e-19 0 0)
(4.53316687e-18 0 0)
(1.64097145e-13 0 0)
(6.6412024e-14 0 0)
(-1.22295406e-13 0 0)
(-1.36036635e-13 0 0)
(1.39268909e-13 0 0)
(-1.22254999e-14 0 0)
(-4.06953088e-13 0 0)
(2.25299824e-14 0 0)
(2.70356678e-13 0 0)
(1.86767391e-17 0 0)
(1.96168552e-18 0 0)
(6.88016958e-19 0 0)
(1.18253366e-17 0 0)
(1.28547545e-13 0 0)
(4.31368302e-13 0 0)
(8.80844578e-14 0 0)
(-2.99368056e-13 0 0)
(-2.25172822e-13 0 0)
(-2.44652145e-13 0 0)
(5.80956908e-14 0 0)
(6.98287177e-14 0 0)
(-1.19451877e-13 0 0)
(-9.56313888e-19 0 0)
(9.15206541e-14 0 0)
(-9.63540115e-14 0 0)
(-1.01367839e-13 0 0)
(8.2821378e-14 0 0)
(-8.74736913e-14 0 0)
(-3.54604042e-13 0 0)
(-3.03928261e-13 0 0)
(8.70602237e-14 0 0)
(4.59363642e-14 0 0)
(1.77015747e-13 0 0)
(1.5271122e-13 0 0)
(2.31768349e-13 0 0)
(7.49011e-14 0 0)
(-3.90883144e-14 0 0)
(-2.06974639e-14 0 0)
(-2.2334517e-14 0 0)
(-2.27752845e-14 0 0)
(-1.20439308e-13 0 0)
(-1.78547916e-13 0 0)
(-1.18064015e-15 0 0)
(-1.68072555e-13 0 0)
(2.91524099e-14 0 0)
(3.11553793e-14 0 0)
(9.82322084e-14 0 0)
(1.03280344e-13 0 0)
(-1.44376322e-13 0 0)
(-7.63493319e-14 0 0)
(-3.65365044e-16 0 0)
(6.35246404e-16 0 0)
(1.34950804e-13 0 0)
(2.34160482e-13 0 0)
(3.46149742e-13 0 0)
(4.67747636e-13 0 0)
(7.06500619e-13 0 0)
(4.10959096e-13 0 0)
(5.98776185e-13 0 0)
(6.39987702e-13 0 0)
(4.07974878e-13 0 0)
(9.0633604e-13 0 0)
(5.19248139e-13 0 0)
(4.06441276e-13 0 0)
(4.14938768e-13 0 0)
(1.02591943e-12 0 0)
(8.35342198e-13 0 0)
(1.04650338e-12 0 0)
(9.94363962e-13 0 0)
(1.0645905e-12 0 0)
(1.05928474e-12 0 0)
(1.72414402e-13 0 0)
(4.01674352e-13 0 0)
(4.58412763e-13 0 0)
(1.66454452e-13 0 0)
(4.31744528e-14 0 0)
(3.85652635e-13 0 0)
(2.4462704e-13 0 0)
(7.70466218e-13 0 0)
(4.95959166e-13 0 0)
(4.51498692e-13 0 0)
(3.26601842e-13 0 0)
(8.26556543e-13 0 0)
(1.12801954e-12 0 0)
(-3.5752088e-13 0 0)
(1.05317188e-12 0 0)
(7.18567762e-13 0 0)
(-4.98215033e-14 0 0)
(7.84188248e-13 0 0)
(2.54370454e-13 0 0)
(5.86129198e-13 0 0)
(9.67046947e-13 0 0)
(2.90405616e-13 0 0)
(1.26648267e-12 0 0)
(4.10962008e-13 0 0)
(7.16188542e-13 0 0)
(6.03147557e-13 0 0)
(7.84651884e-13 0 0)
(2.91811976e-13 0 0)
(1.57823637e-12 0 0)
(2.84667318e-13 0 0)
(-1.55120619e-13 0 0)
(5.35497869e-13 0 0)
(-3.80646902e-14 0 0)
(1.57205446e-13 0 0)
(-7.85084194e-14 0 0)
(5.35128479e-13 0 0)
(-1.11366055e-12 0 0)
(-1.59619376e-13 0 0)
(-6.98675076e-13 0 0)
(-3.32450133e-13 0 0)
(-8.21923677e-14 0 0)
(-3.49717646e-15 0 0)
(-1.26722817e-12 0 0)
(1.25039598e-12 0 0)
(-4.00627854e-14 0 0)
(6.08165827e-14 0 0)
(-4.07856405e-13 0 0)
(1.03569672e-12 0 0)
(3.54989843e-13 0 0)
(5.06104967e-13 0 0)
(1.73748111e-12 0 0)
(5.47446761e-13 0 0)
(1.3200009e-12 0 0)
(1.44618389e-12 0 0)
(8.15874042e-13 0 0)
(1.06862919e-12 0 0)
(1.32268238e-12 0 0)
(1.20741177e-12 0 0)
(8.68915723e-13 0 0)
(1.60291658e-12 0 0)
(2.3318312e-13 0 0)
(7.95051571e-13 0 0)
(9.09724572e-13 0 0)
(8.81543077e-13 0 0)
(7.65056735e-13 0 0)
(7.94185859e-13 0 0)
(1.02082612e-12 0 0)
(1.29943012e-12 0 0)
(1.19307193e-12 0 0)
(9.12392481e-13 0 0)
(1.77757632e-12 0 0)
(2.32554862e-12 0 0)
(1.38941103e-12 0 0)
(1.72423968e-12 0 0)
(2.03963428e-12 0 0)
(1.50856884e-12 0 0)
(1.28508028e-12 0 0)
(6.86645872e-13 0 0)
(2.20904944e-12 0 0)
(8.33210108e-13 0 0)
(7.93379418e-13 0 0)
(1.12183235e-12 0 0)
(1.87996758e-12 0 0)
(2.64903153e-13 0 0)
(1.1264145e-12 0 0)
(1.31729383e-12 0 0)
(1.27615978e-12 0 0)
(3.49294005e-13 0 0)
(1.38404371e-12 0 0)
(9.22638277e-13 0 0)
(3.21023627e-13 0 0)
(9.91127967e-13 0 0)
(7.56273629e-13 0 0)
(6.82559335e-13 0 0)
(-1.70756147e-13 0 0)
(-4.38605939e-13 0 0)
(4.28032924e-13 0 0)
(5.1845877e-13 0 0)
(-6.00392858e-13 0 0)
(1.08564936e-12 0 0)
(7.27223989e-13 0 0)
(3.74937266e-13 0 0)
(1.12618303e-13 0 0)
(9.43194753e-13 0 0)
(1.86602213e-13 0 0)
(2.08791075e-13 0 0)
(5.93160772e-13 0 0)
(6.26768162e-13 0 0)
(1.26508987e-12 0 0)
(-3.72337029e-13 0 0)
(5.25495536e-13 0 0)
(5.16234173e-13 0 0)
(3.07829971e-13 0 0)
(2.33689797e-13 0 0)
(-3.46514577e-13 0 0)
(3.42935025e-13 0 0)
(6.29149085e-13 0 0)
(-4.05147891e-13 0 0)
(-8.02014258e-13 0 0)
(4.62839019e-13 0 0)
(-1.96798834e-14 0 0)
(-4.31993509e-13 0 0)
(-8.32301122e-14 0 0)
(-1.27707251e-12 0 0)
(1.04328234e-13 0 0)
(-3.43700275e-14 0 0)
(-3.74904245e-14 0 0)
(-2.70131588e-13 0 0)
(-4.76509733e-13 0 0)
(-1.58544449e-13 0 0)
(-4.77296707e-13 0 0)
(-4.99304729e-14 0 0)
(3.31845984e-13 0 0)
(2.15563329e-13 0 0)
(-5.79313183e-13 0 0)
(8.21332759e-13 0 0)
(2.32941295e-13 0 0)
(-1.23936152e-12 0 0)
(-2.67654331e-13 0 0)
(3.16568241e-13 0 0)
(1.98977238e-13 0 0)
(-9.40913054e-14 0 0)
(-1.30720109e-12 0 0)
(5.95764732e-14 0 0)
(-4.50892436e-13 0 0)
(-8.36265249e-13 0 0)
(-7.49250085e-13 0 0)
(-1.26671524e-12 0 0)
(-7.76834778e-13 0 0)
(-1.89772589e-12 0 0)
(-9.1265847e-13 0 0)
(-1.62824509e-12 0 0)
(-1.26841244e-12 0 0)
(-1.6746338e-12 0 0)
(-1.21259615e-12 0 0)
(-1.87247129e-12 0 0)
(-1.41913428e-12 0 0)
(-2.30330632e-12 0 0)
(-2.06560433e-12 0 0)
(-1.53641629e-12 0 0)
(-1.54641762e-12 0 0)
(-2.2097821e-12 0 0)
(-2.94016092e-12 0 0)
(-2.19517644e-12 0 0)
(-3.00186386e-12 0 0)
(-1.7841558e-12 0 0)
(-2.43761497e-12 0 0)
(-1.97570878e-12 0 0)
(-3.04374928e-12 0 0)
(-2.23202434e-12 0 0)
(-2.48595549e-12 0 0)
(-1.64926016e-12 0 0)
(-3.00360088e-12 0 0)
(-2.86519258e-12 0 0)
(-2.61613976e-12 0 0)
(-2.6323413e-12 0 0)
(-4.16382767e-12 0 0)
(-2.90366255e-12 0 0)
(-3.52610559e-12 0 0)
(-3.31976835e-12 0 0)
(-2.73830038e-12 0 0)
(-3.36906628e-12 0 0)
(-3.38251578e-12 0 0)
(-2.72021402e-12 0 0)
(-2.59013072e-12 0 0)
(-2.39229281e-12 0 0)
(-2.74922765e-12 0 0)
(-2.93169246e-12 0 0)
(-3.41064696e-12 0 0)
(-3.15475578e-12 0 0)
(-2.79190343e-12 0 0)
(-3.88741863e-12 0 0)
(-3.52929798e-12 0 0)
(-3.79601775e-12 0 0)
(-3.78419571e-12 0 0)
(-4.29282084e-12 0 0)
(-3.08966783e-12 0 0)
(-3.44162534e-12 0 0)
(-3.85535429e-12 0 0)
(-3.68101364e-12 0 0)
(-3.25911869e-12 0 0)
(-2.77032911e-12 0 0)
(-3.95209305e-12 0 0)
(-3.49933074e-12 0 0)
(-4.08279046e-12 0 0)
(-3.81630983e-12 0 0)
(-3.92357114e-12 0 0)
(-3.50661156e-12 0 0)
(-3.95149114e-12 0 0)
(-3.07433205e-12 0 0)
(-3.1430862e-12 0 0)
(-4.32791346e-12 0 0)
(-3.33622276e-12 0 0)
(-3.41399443e-12 0 0)
(-3.49601631e-12 0 0)
(-3.3355206e-12 0 0)
(-4.1026303e-12 0 0)
(-3.07720396e-12 0 0)
(-3.89138535e-12 0 0)
(-4.50570139e-12 0 0)
(-4.40498389e-12 0 0)
(-5.80493251e-12 0 0)
(-5.33216532e-12 0 0)
(-4.22659661e-12 0 0)
(-4.40274481e-12 0 0)
(-4.97817418e-12 0 0)
(-4.68315855e-12 0 0)
(-5.89291795e-12 0 0)
(-5.3457316e-12 0 0)
(-4.74667031e-12 0 0)
(-6.04088236e-12 0 0)
(-5.12130356e-12 0 0)
(-6.16237657e-12 0 0)
(-7.65853387e-12 0 0)
(-7.16461421e-12 0 0)
(-6.74044232e-12 0 0)
(-7.24306267e-12 0 0)
(-6.90459241e-12 0 0)
(-7.88564167e-12 0 0)
(-7.40836991e-12 0 0)
(-6.47971585e-12 0 0)
(-7.01844532e-12 0 0)
(-6.36733305e-12 0 0)
(-6.40418337e-12 0 0)
(-7.26083352e-12 0 0)
(-6.40935997e-12 0 0)
(-6.36313753e-12 0 0)
(-6.19197793e-12 0 0)
(-6.94419281e-12 0 0)
(-6.66571102e-12 0 0)
(-6.94411774e-12 0 0)
(-5.44802185e-12 0 0)
(-6.37663392e-12 0 0)
(-4.88220757e-12 0 0)
(-6.50250748e-12 0 0)
(-5.97468977e-12 0 0)
(-6.14163705e-12 0 0)
(-6.21829352e-12 0 0)
(-6.18143896e-12 0 0)
(-5.83872804e-12 0 0)
(-5.19027977e-12 0 0)
(-5.31318126e-12 0 0)
(-5.43237276e-12 0 0)
(-6.70564916e-12 0 0)
(-4.89566458e-12 0 0)
(-6.78104466e-12 0 0)
(-6.41906437e-12 0 0)
(-6.30202124e-12 0 0)
(-5.22917876e-12 0 0)
(-7.19082369e-12 0 0)
(-6.11257597e-12 0 0)
(-4.77348744e-12 0 0)
(-4.7467133e-12 0 0)
(-6.06339523e-12 0 0)
(-5.39517006e-12 0 0)
(-5.54560638e-12 0 0)
(-4.46394013e-12 0 0)
(-4.52937121e-12 0 0)
(-4.71761376e-12 0 0)
(-4.98852957e-12 0 0)
(-4.26697509e-12 0 0)
(-4.20778235e-12 0 0)
(-5.42923259e-12 0 0)
(-3.85225004e-12 0 0)
(-5.03843424e-12 0 0)
(-3.87086057e-12 0 0)
(-4.68951799e-12 0 0)
(-4.28130764e-12 0 0)
(-3.64917373e-12 0 0)
(-4.39204808e-12 0 0)
(-4.82675734e-12 0 0)
(-4.44879661e-12 0 0)
(-4.47037435e-12 0 0)
(-3.93472758e-12 0 0)
(-4.168251e-12 0 0)
(-3.86048617e-12 0 0)
(-5.11748052e-12 0 0)
(-4.00462816e-12 0 0)
(-3.06124163e-12 0 0)
(-3.72605317e-12 0 0)
(-3.78069492e-12 0 0)
(-2.81147612e-12 0 0)
(-3.06817877e-12 0 0)
(-3.50821532e-12 0 0)
(-2.69504872e-12 0 0)
(-3.23586254e-12 0 0)
(-2.76933018e-12 0 0)
(-3.52343823e-12 0 0)
(-3.15461047e-12 0 0)
(-2.55988496e-12 0 0)
(-3.04329426e-12 0 0)
(-2.44584753e-12 0 0)
(-2.62897124e-12 0 0)
(-3.54399424e-12 0 0)
(-2.71736505e-12 0 0)
(-2.75557811e-12 0 0)
(-2.06736209e-12 0 0)
(-1.67258712e-12 0 0)
(-1.98963702e-12 0 0)
(-1.42061481e-12 0 0)
(-2.16761565e-12 0 0)
(-1.74489796e-12 0 0)
(-2.08767164e-12 0 0)
(-6.40448348e-13 0 0)
(-2.14961223e-12 0 0)
(-1.86208765e-12 0 0)
(-1.61577438e-12 0 0)
(-1.56016291e-12 0 0)
(-1.00738232e-12 0 0)
(-8.6542709e-13 0 0)
(-1.96921125e-12 0 0)
(-1.74209036e-12 0 0)
(-1.64009198e-12 0 0)
(-1.5790684e-12 0 0)
(-1.55868925e-12 0 0)
(-1.06718863e-12 0 0)
(-1.62158463e-12 0 0)
(-1.93506698e-12 0 0)
(-1.28328069e-12 0 0)
(-1.27941015e-12 0 0)
(-1.56421329e-12 0 0)
(-1.88832843e-12 0 0)
(-1.19676708e-12 0 0)
(-7.60817983e-13 0 0)
(-5.82160545e-13 0 0)
(-1.21073141e-12 0 0)
(9.68027517e-14 0 0)
(1.77358465e-13 0 0)
(-1.81191571e-12 0 0)
(-8.12078133e-13 0 0)
(-4.28727627e-13 0 0)
(-4.86957228e-13 0 0)
(-7.61636745e-13 0 0)
(-6.84623968e-13 0 0)
(5.57979613e-13 0 0)
(-3.34193766e-13 0 0)
(2.70824116e-13 0 0)
(5.52254442e-13 0 0)
(-8.18066634e-13 0 0)
(-5.2261463e-13 0 0)
(-1.42825253e-13 0 0)
(1.23272876e-13 0 0)
(1.04004591e-12 0 0)
(7.99180046e-14 0 0)
(9.07973747e-13 0 0)
(1.17745254e-13 0 0)
(-1.58477501e-13 0 0)
(-1.37838432e-13 0 0)
(2.52753276e-13 0 0)
(4.96941275e-13 0 0)
(-1.56439392e-13 0 0)
(3.27507142e-13 0 0)
(4.81742172e-13 0 0)
(8.13742331e-13 0 0)
(9.70729223e-13 0 0)
(9.71756707e-13 0 0)
(1.58885294e-13 0 0)
(3.85765817e-13 0 0)
(-1.31090093e-13 0 0)
(6.833626e-14 0 0)
(5.46839351e-13 0 0)
(-5.50790656e-13 0 0)
(-1.12883165e-14 0 0)
(-1.47754327e-14 0 0)
(5.36558333e-13 0 0)
(3.01740105e-13 0 0)
(8.00678427e-14 0 0)
(2.03200892e-13 0 0)
(9.20988457e-13 0 0)
(2.33183558e-13 0 0)
(8.28541383e-15 0 0)
(-1.90751612e-13 0 0)
(-2.72730727e-13 0 0)
(-1.21082606e-13 0 0)
(-7.80635335e-13 0 0)
(-1.1229877e-13 0 0)
(-6.15544758e-13 0 0)
(-5.9058385e-13 0 0)
(-3.14265266e-13 0 0)
(-3.99948863e-13 0 0)
(-2.38802247e-13 0 0)
(2.94821223e-13 0 0)
(1.13969794e-13 0 0)
(7.09180792e-13 0 0)
(-5.52654169e-14 0 0)
(1.96062831e-13 0 0)
(-1.51036818e-13 0 0)
(-2.46847962e-13 0 0)
(7.6603356e-14 0 0)
(1.03152299e-13 0 0)
(5.23371023e-13 0 0)
(1.58089945e-13 0 0)
(-7.2419593e-13 0 0)
(-1.17722359e-14 0 0)
(4.31561873e-13 0 0)
(-5.96974861e-13 0 0)
(-8.05235039e-13 0 0)
(-6.79413974e-13 0 0)
(-3.51003128e-13 0 0)
(-3.23641989e-13 0 0)
(2.22422184e-13 0 0)
(7.75914491e-14 0 0)
(-6.13816576e-13 0 0)
(-2.43118094e-14 0 0)
(3.6585471e-14 0 0)
(9.27344097e-15 0 0)
(-9.48896005e-13 0 0)
(1.9836232e-13 0 0)
(-6.27765961e-13 0 0)
(-2.03867201e-13 0 0)
(5.3348467e-13 0 0)
(-1.17162933e-12 0 0)
(2.26017727e-14 0 0)
(-1.03438462e-12 0 0)
(-3.00628509e-13 0 0)
(7.71602201e-14 0 0)
(6.50911018e-13 0 0)
(7.70102639e-13 0 0)
(2.74765353e-13 0 0)
(2.94289167e-13 0 0)
(1.68191068e-13 0 0)
(1.06087222e-12 0 0)
(2.86834057e-13 0 0)
(1.21421361e-13 0 0)
(3.23845814e-13 0 0)
(5.0733919e-13 0 0)
(1.62119198e-13 0 0)
(-8.99030203e-13 0 0)
(-2.72632101e-14 0 0)
(-1.66001287e-13 0 0)
(-7.669058e-13 0 0)
(2.95053299e-13 0 0)
(-2.5675965e-13 0 0)
(-7.72036198e-13 0 0)
(-3.63987939e-13 0 0)
(-2.72742884e-14 0 0)
(-3.23937459e-14 0 0)
(-9.04031595e-13 0 0)
(-1.70349366e-13 0 0)
(4.64123936e-13 0 0)
(-2.00927362e-13 0 0)
(5.64956302e-13 0 0)
(3.39916869e-13 0 0)
(-3.79839058e-13 0 0)
(-2.5142757e-13 0 0)
(-6.9019431e-15 0 0)
(-1.98417875e-13 0 0)
(-2.73242018e-13 0 0)
(-6.32567551e-13 0 0)
(-7.53438241e-13 0 0)
(-9.62047633e-14 0 0)
(-5.0810893e-13 0 0)
(7.44199475e-13 0 0)
(1.22187472e-12 0 0)
(2.46588901e-13 0 0)
(5.35281538e-13 0 0)
(-1.19729393e-13 0 0)
(6.32501703e-13 0 0)
(-1.26524373e-13 0 0)
(9.54028707e-14 0 0)
(2.9387844e-13 0 0)
(1.26296243e-12 0 0)
(-2.71745731e-13 0 0)
(7.13816045e-13 0 0)
(1.58966533e-14 0 0)
(-2.07180735e-13 0 0)
(7.85751341e-14 0 0)
(-1.56243701e-13 0 0)
(6.44294561e-13 0 0)
(-1.00626416e-13 0 0)
(1.3547851e-12 0 0)
(1.22895036e-12 0 0)
(6.92281584e-13 0 0)
(-9.60669621e-16 0 0)
(2.10005087e-13 0 0)
(5.85184211e-13 0 0)
(1.08321786e-12 0 0)
(4.30095137e-13 0 0)
(1.40371992e-12 0 0)
(1.2800595e-12 0 0)
(1.32915396e-12 0 0)
(1.55982035e-12 0 0)
(1.83855657e-12 0 0)
(2.19924113e-12 0 0)
(1.53342642e-12 0 0)
(1.00155911e-12 0 0)
(2.9343744e-12 0 0)
(1.64251569e-12 0 0)
(2.40147043e-12 0 0)
(2.21418339e-12 0 0)
(1.93072269e-12 0 0)
(2.05462895e-12 0 0)
(1.19837468e-12 0 0)
(1.54565158e-12 0 0)
(8.22959015e-13 0 0)
(1.04581497e-12 0 0)
(1.37463546e-12 0 0)
(1.63440522e-12 0 0)
(1.18237735e-12 0 0)
(2.20644051e-12 0 0)
(2.80635948e-13 0 0)
(9.40668514e-13 0 0)
(1.22295913e-12 0 0)
(1.3167982e-12 0 0)
(1.65464894e-12 0 0)
(1.78657407e-12 0 0)
(1.89146258e-12 0 0)
(8.89471827e-13 0 0)
(1.59965633e-12 0 0)
(1.85741039e-12 0 0)
(9.99005974e-13 0 0)
(2.12690509e-12 0 0)
(1.36198855e-12 0 0)
(1.45837129e-12 0 0)
(5.36502189e-13 0 0)
(1.86831615e-12 0 0)
(1.45837651e-12 0 0)
(1.36601023e-12 0 0)
(2.66890258e-12 0 0)
(1.40359245e-12 0 0)
(1.54831191e-12 0 0)
(1.69363718e-12 0 0)
(1.01864694e-12 0 0)
(7.04186147e-13 0 0)
(1.26149296e-12 0 0)
(7.28462032e-13 0 0)
(6.84589199e-13 0 0)
(6.2807837e-13 0 0)
(7.34743046e-13 0 0)
(1.17213245e-12 0 0)
(1.15555972e-12 0 0)
(7.98657219e-13 0 0)
(7.65503858e-13 0 0)
(7.97944366e-13 0 0)
(1.50722371e-12 0 0)
(6.77316001e-13 0 0)
(7.45491784e-13 0 0)
(4.90535693e-13 0 0)
(1.07848521e-12 0 0)
(9.71491946e-13 0 0)
(4.41009268e-13 0 0)
(1.12654246e-12 0 0)
(5.08393434e-13 0 0)
(1.3393364e-12 0 0)
(8.49771597e-13 0 0)
(1.65411172e-12 0 0)
(2.15223836e-12 0 0)
(1.73917773e-12 0 0)
(4.80215444e-13 0 0)
(2.00930221e-12 0 0)
(1.48494598e-12 0 0)
(5.34966472e-13 0 0)
(1.4985098e-12 0 0)
(9.92721839e-13 0 0)
(9.27748337e-13 0 0)
(-1.36354951e-13 0 0)
(3.71697311e-13 0 0)
(2.9460908e-13 0 0)
(6.99670682e-13 0 0)
(3.86923451e-13 0 0)
(-3.88168699e-13 0 0)
(-1.27933835e-13 0 0)
(4.17499057e-13 0 0)
(1.11385978e-13 0 0)
(4.63302905e-13 0 0)
(2.55318731e-13 0 0)
(-2.88764903e-14 0 0)
(-1.03061981e-13 0 0)
(1.87265461e-13 0 0)
(7.7367424e-13 0 0)
(1.21867579e-12 0 0)
(5.36443899e-13 0 0)
(7.54061403e-14 0 0)
(7.3667263e-13 0 0)
(-9.80878144e-14 0 0)
(1.39624474e-12 0 0)
(7.28137927e-13 0 0)
(1.02339713e-12 0 0)
(7.11369628e-13 0 0)
(7.38765499e-13 0 0)
(1.56873041e-12 0 0)
(2.12529569e-12 0 0)
(1.4783656e-12 0 0)
(2.01026089e-12 0 0)
(1.77760228e-12 0 0)
(2.07694526e-12 0 0)
(1.91104608e-12 0 0)
(1.43838442e-12 0 0)
(1.68619731e-12 0 0)
(1.65530337e-12 0 0)
(1.87367817e-12 0 0)
(1.2457118e-12 0 0)
(1.72168432e-12 0 0)
(1.91930547e-12 0 0)
(9.76721117e-13 0 0)
(8.72717241e-13 0 0)
(2.48323026e-12 0 0)
(1.85835391e-12 0 0)
(2.53328236e-12 0 0)
(1.62502467e-12 0 0)
(2.43652383e-12 0 0)
(2.21165098e-12 0 0)
(2.58361232e-12 0 0)
(3.23859294e-12 0 0)
(2.91790038e-12 0 0)
(2.67587396e-12 0 0)
(2.99806402e-12 0 0)
(2.3146854e-12 0 0)
(3.04817544e-12 0 0)
(2.70674406e-12 0 0)
(3.77923666e-12 0 0)
(2.06381906e-12 0 0)
(2.93196274e-12 0 0)
(3.075297e-12 0 0)
(2.76856924e-12 0 0)
(2.62457901e-12 0 0)
(2.61464141e-12 0 0)
(2.45887378e-12 0 0)
(3.33784273e-12 0 0)
(3.96414362e-12 0 0)
(2.4934186e-12 0 0)
(2.30277166e-12 0 0)
(2.70363876e-12 0 0)
(1.97916049e-12 0 0)
(2.48670697e-12 0 0)
(2.12878519e-12 0 0)
(2.71770713e-12 0 0)
(2.01107239e-12 0 0)
(2.22118282e-12 0 0)
(1.36203717e-12 0 0)
(2.39959888e-12 0 0)
(1.73790195e-12 0 0)
(2.18168849e-12 0 0)
(1.56950083e-12 0 0)
(1.42698832e-12 0 0)
(1.31881155e-12 0 0)
(1.40394356e-12 0 0)
(1.65961897e-13 0 0)
(6.85005587e-13 0 0)
(1.45948109e-12 0 0)
(5.68891895e-14 0 0)
(1.69805031e-12 0 0)
(1.1188907e-12 0 0)
(1.56127435e-12 0 0)
(3.21071345e-13 0 0)
(1.21689496e-12 0 0)
(1.08758806e-12 0 0)
(-2.3455391e-13 0 0)
(1.17808039e-12 0 0)
(9.81416607e-13 0 0)
(5.22862124e-13 0 0)
(1.53648994e-12 0 0)
(7.50655471e-13 0 0)
(1.85469611e-12 0 0)
(4.4883324e-13 0 0)
(6.92647507e-13 0 0)
(1.21998757e-12 0 0)
(6.08640312e-14 0 0)
(1.14957305e-12 0 0)
(9.83158999e-13 0 0)
(1.11920672e-12 0 0)
(1.50205865e-12 0 0)
(4.42893472e-13 0 0)
(1.28793687e-12 0 0)
(-1.90702108e-15 0 0)
(1.10052542e-12 0 0)
(1.06589953e-12 0 0)
(1.58027181e-12 0 0)
(1.11498743e-12 0 0)
(1.00507154e-12 0 0)
(1.83851957e-12 0 0)
(1.23491553e-12 0 0)
(1.88987925e-12 0 0)
(3.27679212e-13 0 0)
(7.07829462e-13 0 0)
(1.4413227e-13 0 0)
(1.44500957e-12 0 0)
(1.56082443e-12 0 0)
(6.70695886e-13 0 0)
(1.96658658e-12 0 0)
(1.08689705e-12 0 0)
(1.79643178e-12 0 0)
(4.69136821e-13 0 0)
(1.27328335e-12 0 0)
(2.30767083e-12 0 0)
(1.55281269e-12 0 0)
(1.45060013e-12 0 0)
(1.61101245e-12 0 0)
(1.48947088e-12 0 0)
(1.98898541e-12 0 0)
(1.94276746e-12 0 0)
(3.94130775e-13 0 0)
(1.59492627e-12 0 0)
(7.92645061e-13 0 0)
(2.0335799e-12 0 0)
(1.25118268e-12 0 0)
(2.09339976e-12 0 0)
(3.72794255e-16 0 0)
(1.24509859e-12 0 0)
(6.38673738e-13 0 0)
(5.35514748e-13 0 0)
(5.14100905e-13 0 0)
(5.09735729e-13 0 0)
(4.31132711e-13 0 0)
(1.90533929e-13 0 0)
(7.80597162e-13 0 0)
(1.04870549e-12 0 0)
(2.23685118e-13 0 0)
(8.92128425e-13 0 0)
(2.45693329e-13 0 0)
(1.02911015e-13 0 0)
(-7.54580928e-13 0 0)
(5.0378104e-13 0 0)
(5.17431322e-13 0 0)
(-6.09997002e-14 0 0)
(-6.03492309e-13 0 0)
(-4.99458204e-13 0 0)
(4.45965192e-13 0 0)
(1.5141243e-13 0 0)
(-5.28017394e-13 0 0)
(4.88905671e-13 0 0)
(-5.0530311e-13 0 0)
(3.01835231e-13 0 0)
(-1.55729206e-13 0 0)
(-7.1655855e-13 0 0)
(-9.43128965e-13 0 0)
(-5.90269991e-13 0 0)
(-1.16177691e-12 0 0)
(-7.99542335e-13 0 0)
(-2.16933357e-12 0 0)
(-7.78873774e-14 0 0)
(-3.79126731e-13 0 0)
(-2.68060807e-13 0 0)
(-5.22199654e-13 0 0)
(6.37629183e-16 0 0)
(8.01627535e-13 0 0)
(4.5002514e-13 0 0)
(-7.13635707e-13 0 0)
(-9.52912485e-13 0 0)
(-2.52016258e-13 0 0)
(-2.71899994e-14 0 0)
(-7.39756213e-13 0 0)
(-7.03662645e-13 0 0)
(1.86724017e-13 0 0)
(-3.95269268e-13 0 0)
(1.77978467e-13 0 0)
(1.54668758e-13 0 0)
(7.11963821e-13 0 0)
(-3.95525656e-13 0 0)
(-3.72469314e-13 0 0)
(-4.48354211e-13 0 0)
(4.77358658e-13 0 0)
(-1.47619982e-12 0 0)
(-1.20356149e-12 0 0)
(-6.24337535e-14 0 0)
(-6.18417367e-13 0 0)
(-3.5487203e-13 0 0)
(-3.09012769e-13 0 0)
(-6.05201782e-13 0 0)
(-8.19328359e-13 0 0)
(-4.25949251e-13 0 0)
(-1.36810383e-13 0 0)
(3.30380519e-14 0 0)
(-9.86759337e-14 0 0)
(-4.30540539e-13 0 0)
(-4.36027776e-13 0 0)
(-8.87363505e-13 0 0)
(-9.26827287e-14 0 0)
(-4.22404041e-13 0 0)
(6.8028644e-14 0 0)
(9.45468246e-13 0 0)
(5.32426256e-13 0 0)
(5.61745108e-13 0 0)
(4.76462122e-13 0 0)
(4.4455638e-15 0 0)
(4.68375654e-13 0 0)
(1.27404272e-12 0 0)
(1.74904598e-13 0 0)
(-7.21021367e-13 0 0)
(-4.99296803e-13 0 0)
(5.38685457e-14 0 0)
(2.76100498e-13 0 0)
(-1.24300478e-13 0 0)
(3.1051589e-13 0 0)
(-2.03242151e-13 0 0)
(-1.11162221e-13 0 0)
(4.52563071e-13 0 0)
(-9.28777301e-15 0 0)
(2.32732441e-13 0 0)
(2.27705784e-13 0 0)
(9.63041941e-13 0 0)
(4.74514534e-13 0 0)
(1.25423942e-12 0 0)
(1.57571605e-12 0 0)
(8.85753021e-13 0 0)
(5.08948254e-13 0 0)
(4.94361972e-13 0 0)
(1.39253845e-12 0 0)
(1.37198052e-12 0 0)
(1.68602468e-12 0 0)
(8.3209915e-13 0 0)
(9.36634407e-13 0 0)
(6.06983212e-13 0 0)
(1.94534426e-13 0 0)
(1.11773304e-12 0 0)
(4.65263602e-13 0 0)
(1.56448218e-12 0 0)
(3.70918871e-13 0 0)
(8.82352652e-13 0 0)
(1.53908357e-12 0 0)
(9.97262219e-13 0 0)
(7.85450868e-13 0 0)
(4.40254069e-13 0 0)
(8.64849129e-13 0 0)
(7.44826102e-13 0 0)
(1.55412134e-12 0 0)
(1.17688912e-12 0 0)
(1.23636669e-12 0 0)
(2.0597173e-12 0 0)
(1.99425821e-12 0 0)
(1.14396428e-12 0 0)
(1.61354845e-12 0 0)
(1.63469175e-12 0 0)
(1.68381354e-12 0 0)
(9.65232972e-13 0 0)
(1.68891851e-12 0 0)
(1.13887453e-12 0 0)
(1.075114e-12 0 0)
(1.44922144e-12 0 0)
(1.46725078e-12 0 0)
(1.43135954e-12 0 0)
(1.89154093e-12 0 0)
(1.82318614e-12 0 0)
(1.31897713e-12 0 0)
(2.26598521e-12 0 0)
(1.7451219e-12 0 0)
(1.20612465e-12 0 0)
(1.83158381e-12 0 0)
(2.38933457e-12 0 0)
(2.60132828e-12 0 0)
(1.14943273e-12 0 0)
(2.06398944e-12 0 0)
(9.58334809e-13 0 0)
(2.29552465e-12 0 0)
(2.49582141e-12 0 0)
(1.98452838e-12 0 0)
(2.16999669e-12 0 0)
(2.10551185e-12 0 0)
(2.42346889e-12 0 0)
(1.62181999e-12 0 0)
(1.81432375e-12 0 0)
(2.17685381e-12 0 0)
(1.72643467e-12 0 0)
(2.99688259e-12 0 0)
(2.50246601e-12 0 0)
(2.58003291e-12 0 0)
(1.40806913e-12 0 0)
(2.96439442e-12 0 0)
(3.13161397e-12 0 0)
(2.90496201e-12 0 0)
(2.47704943e-12 0 0)
(1.56530687e-12 0 0)
(2.72272591e-12 0 0)
(3.43739821e-12 0 0)
(3.55167545e-12 0 0)
(2.47083704e-12 0 0)
(3.36924747e-12 0 0)
(3.59494958e-12 0 0)
(4.91854737e-12 0 0)
(3.32299665e-12 0 0)
(3.68520466e-12 0 0)
(2.85052906e-12 0 0)
(4.77470387e-12 0 0)
(3.10151613e-12 0 0)
(4.16556129e-12 0 0)
(2.99765343e-12 0 0)
(3.56016715e-12 0 0)
(2.70139388e-12 0 0)
(3.06964518e-12 0 0)
(3.80102006e-12 0 0)
(3.53336598e-12 0 0)
(3.28941876e-12 0 0)
(2.83097107e-12 0 0)
(3.48355707e-12 0 0)
(4.06172165e-12 0 0)
(2.84985129e-12 0 0)
(3.04148089e-12 0 0)
(3.55473591e-12 0 0)
(3.47491064e-12 0 0)
(4.27439238e-12 0 0)
(2.73222984e-12 0 0)
(3.40937837e-12 0 0)
(2.76735503e-12 0 0)
(3.87109878e-12 0 0)
(3.52547032e-12 0 0)
(3.56438637e-12 0 0)
(3.72508847e-12 0 0)
(3.59659515e-12 0 0)
(3.53681015e-12 0 0)
(4.28686953e-12 0 0)
(3.18518324e-12 0 0)
(3.81353986e-12 0 0)
(4.56208286e-12 0 0)
(4.42343805e-12 0 0)
(4.3000738e-12 0 0)
(4.6042005e-12 0 0)
(3.9445197e-12 0 0)
(4.572714e-12 0 0)
(3.96111709e-12 0 0)
(4.47424596e-12 0 0)
(3.92342117e-12 0 0)
(3.74848596e-12 0 0)
(3.86857305e-12 0 0)
(4.10993981e-12 0 0)
(3.57439589e-12 0 0)
(4.00893613e-12 0 0)
(4.20771452e-12 0 0)
(3.6424772e-12 0 0)
(2.71644396e-12 0 0)
(3.0878167e-12 0 0)
(3.46605618e-12 0 0)
(3.75499063e-12 0 0)
(3.11674153e-12 0 0)
(2.94050423e-12 0 0)
(2.24856106e-12 0 0)
(2.97428564e-12 0 0)
(2.64075237e-12 0 0)
(2.47082729e-12 0 0)
(2.23017161e-12 0 0)
(2.89221106e-12 0 0)
(2.01342204e-12 0 0)
(2.56276768e-12 0 0)
(1.99209833e-12 0 0)
(2.54712615e-12 0 0)
(2.62529719e-12 0 0)
(2.0911961e-12 0 0)
(2.03346331e-12 0 0)
(1.78695496e-12 0 0)
(1.53718831e-12 0 0)
(1.39683963e-12 0 0)
(1.73949577e-12 0 0)
(1.94417651e-12 0 0)
(2.88668139e-12 0 0)
(1.75106598e-12 0 0)
(1.64423041e-12 0 0)
(1.74402573e-12 0 0)
(1.67886645e-12 0 0)
(1.96245111e-12 0 0)
(2.689066e-12 0 0)
(1.41835645e-12 0 0)
(2.40001785e-12 0 0)
(6.69342725e-13 0 0)
(5.37061187e-13 0 0)
(1.26364836e-12 0 0)
(2.22056121e-12 0 0)
(1.57353181e-12 0 0)
(2.53319906e-12 0 0)
(1.25097889e-12 0 0)
(1.38106518e-12 0 0)
(1.53573504e-12 0 0)
(1.76837339e-12 0 0)
(1.22738065e-12 0 0)
(1.51286169e-12 0 0)
(2.31853201e-12 0 0)
(1.29938672e-12 0 0)
(2.03067918e-12 0 0)
(1.43529604e-12 0 0)
(2.44338631e-12 0 0)
(2.05818816e-12 0 0)
(1.54068343e-12 0 0)
(2.49568739e-12 0 0)
(3.12406446e-12 0 0)
(2.36390366e-12 0 0)
(1.98929148e-12 0 0)
(2.64331637e-12 0 0)
(2.32581186e-12 0 0)
(8.10708744e-13 0 0)
(1.91173901e-12 0 0)
(2.29589082e-12 0 0)
(1.38339266e-12 0 0)
(1.11532769e-12 0 0)
(2.40159854e-12 0 0)
(2.30494642e-12 0 0)
(1.66781897e-12 0 0)
(1.70742237e-12 0 0)
(1.43044826e-12 0 0)
(8.03143662e-13 0 0)
(1.01358425e-12 0 0)
(1.37011299e-12 0 0)
(9.85298187e-13 0 0)
(8.35569732e-13 0 0)
(-4.87650233e-14 0 0)
(4.74421014e-13 0 0)
(1.1329673e-13 0 0)
(-4.52880943e-14 0 0)
(-1.22335774e-13 0 0)
(2.20298643e-13 0 0)
(2.09420989e-16 0 0)
(-6.83610877e-13 0 0)
(1.15716875e-13 0 0)
(-1.80876706e-12 0 0)
(-1.30263209e-12 0 0)
(-1.7559128e-12 0 0)
(-1.04285056e-12 0 0)
(-1.56204911e-12 0 0)
(-1.15382763e-12 0 0)
(-1.17552219e-12 0 0)
(-2.05109492e-12 0 0)
(-1.52744947e-12 0 0)
(-2.32096623e-12 0 0)
(-2.47276766e-12 0 0)
(-2.89898378e-12 0 0)
(-2.58936525e-12 0 0)
(-2.26722116e-12 0 0)
(-1.60906465e-12 0 0)
(-2.23873132e-12 0 0)
(-2.77570511e-12 0 0)
(-2.5334952e-12 0 0)
(-2.40450127e-12 0 0)
(-2.89428249e-12 0 0)
(-1.41719929e-12 0 0)
(-2.00821747e-12 0 0)
(-2.40914438e-12 0 0)
(-1.77547013e-12 0 0)
(-1.85056205e-12 0 0)
(-1.68551794e-12 0 0)
(-1.99355885e-12 0 0)
(-1.74457908e-12 0 0)
(-1.64276468e-12 0 0)
(-2.13519684e-12 0 0)
(-1.15947894e-12 0 0)
(-1.70724423e-12 0 0)
(-1.40510692e-12 0 0)
(-1.71510467e-12 0 0)
(-1.35926075e-12 0 0)
(-1.20416027e-12 0 0)
(-1.82834566e-12 0 0)
(-2.46742921e-12 0 0)
(-2.47509252e-12 0 0)
(-9.75727182e-13 0 0)
(-2.34627622e-12 0 0)
(-1.28142736e-12 0 0)
(-1.05182534e-12 0 0)
(-3.04029203e-12 0 0)
(-1.60230063e-12 0 0)
(-1.01721365e-12 0 0)
(-1.53074508e-12 0 0)
(-7.56851693e-13 0 0)
(-7.00537168e-13 0 0)
(-1.51281282e-12 0 0)
(-8.28861874e-13 0 0)
(-1.22087628e-12 0 0)
(-5.93768828e-14 0 0)
(-4.84090785e-13 0 0)
(-9.49172001e-13 0 0)
(-3.84271495e-14 0 0)
(-1.76058121e-12 0 0)
(-1.11902719e-12 0 0)
(-1.1276084e-12 0 0)
(-9.52926324e-13 0 0)
(-1.19548515e-12 0 0)
(-1.84671427e-12 0 0)
(-5.22353423e-13 0 0)
(-8.62085818e-13 0 0)
(-4.82668998e-14 0 0)
(-1.80903541e-12 0 0)
(-5.60831318e-13 0 0)
(-5.0216625e-13 0 0)
(-8.36219143e-13 0 0)
(-4.93459062e-13 0 0)
(-8.19724737e-13 0 0)
(-6.95012965e-13 0 0)
(-6.95152713e-13 0 0)
(-1.76290167e-12 0 0)
(-2.32707079e-12 0 0)
(-1.04645177e-12 0 0)
(-1.28488639e-12 0 0)
(-2.6007124e-12 0 0)
(-2.25152003e-12 0 0)
(-2.45147899e-12 0 0)
(-2.54888612e-12 0 0)
(-2.62068996e-12 0 0)
(-3.00584279e-12 0 0)
(-2.08811063e-12 0 0)
(-3.49554727e-12 0 0)
(-3.47035736e-12 0 0)
(-3.4209888e-12 0 0)
(-2.79779342e-12 0 0)
(-1.79350999e-12 0 0)
(-3.0927388e-12 0 0)
(-1.8851926e-12 0 0)
(-1.64965858e-12 0 0)
(-3.50449378e-12 0 0)
(-3.7506772e-12 0 0)
(-3.47985988e-12 0 0)
(-3.09522434e-12 0 0)
(-4.55794134e-12 0 0)
(-3.45205035e-12 0 0)
(-3.87812578e-12 0 0)
(-4.99926057e-12 0 0)
(-5.00821362e-12 0 0)
(-4.73759692e-12 0 0)
(-4.56627148e-12 0 0)
(-4.42619159e-12 0 0)
(-4.33415723e-12 0 0)
(-4.36018734e-12 0 0)
(-3.81252279e-12 0 0)
(-4.49879309e-12 0 0)
(-4.93261574e-12 0 0)
(-4.09388271e-12 0 0)
(-4.16549122e-12 0 0)
(-3.69396533e-12 0 0)
(-4.75018507e-12 0 0)
(-4.30152797e-12 0 0)
(-5.80669864e-12 0 0)
(-5.11828436e-12 0 0)
(-3.59141178e-12 0 0)
(-4.29036118e-12 0 0)
(-4.37713345e-12 0 0)
(-4.37735598e-12 0 0)
(-4.26480708e-12 0 0)
(-2.77155346e-12 0 0)
(-3.4410884e-12 0 0)
(-4.48922128e-12 0 0)
(-3.60813961e-12 0 0)
(-4.1976072e-12 0 0)
(-3.22909071e-12 0 0)
(-4.93069919e-12 0 0)
(-3.57484714e-12 0 0)
(-3.45552872e-12 0 0)
(-2.91062213e-12 0 0)
(-4.44033954e-12 0 0)
(-4.2551562e-12 0 0)
(-3.2676333e-12 0 0)
(-2.95478962e-12 0 0)
(-3.63342528e-12 0 0)
(-3.58517938e-12 0 0)
(-3.06311823e-12 0 0)
(-3.29798476e-12 0 0)
(-3.65486609e-12 0 0)
(-3.84218749e-12 0 0)
(-2.94998739e-12 0 0)
(-3.16224965e-12 0 0)
(-3.14931161e-12 0 0)
(-4.22443888e-12 0 0)
(-2.6911673e-12 0 0)
(-3.29913434e-12 0 0)
(-1.35044311e-12 0 0)
(-2.572113e-12 0 0)
(-2.18219362e-12 0 0)
(-2.45426891e-12 0 0)
(-2.19869948e-12 0 0)
(-2.054483e-12 0 0)
(-1.39385443e-12 0 0)
(-1.94408498e-12 0 0)
(-1.05855177e-12 0 0)
(-2.90037461e-12 0 0)
(-1.98943502e-12 0 0)
(-1.8581449e-12 0 0)
(-2.48791308e-12 0 0)
(-2.13428599e-12 0 0)
(-2.50825443e-12 0 0)
(-2.94930025e-12 0 0)
(-1.57881382e-12 0 0)
(-3.3404806e-12 0 0)
(-1.94884854e-12 0 0)
(-1.72869014e-12 0 0)
(-2.04359036e-12 0 0)
(-3.10298735e-12 0 0)
(-1.45406584e-12 0 0)
(-1.7747244e-12 0 0)
(-2.06647537e-12 0 0)
(-2.5151805e-12 0 0)
(-2.08153618e-12 0 0)
(-2.04049222e-12 0 0)
(-1.50956303e-12 0 0)
(-1.10592823e-12 0 0)
(-1.51479418e-12 0 0)
(-1.74502966e-12 0 0)
(-1.01647905e-12 0 0)
(-1.29578678e-12 0 0)
(-1.4892042e-12 0 0)
(-1.33967848e-12 0 0)
(-1.11762845e-12 0 0)
(-6.20411693e-13 0 0)
(-1.3605665e-12 0 0)
(-1.05408465e-12 0 0)
(-9.51463259e-13 0 0)
(-1.4928013e-12 0 0)
(-1.04561299e-12 0 0)
(-1.61828705e-12 0 0)
(-1.65908504e-12 0 0)
(-5.91541537e-13 0 0)
(-1.25465005e-12 0 0)
(-1.38407279e-12 0 0)
(-9.57480107e-13 0 0)
(-4.82783798e-13 0 0)
(-8.88047181e-13 0 0)
(-8.32524682e-13 0 0)
(-1.5135553e-12 0 0)
(-2.76290504e-13 0 0)
(-1.24994575e-12 0 0)
(-1.2230327e-12 0 0)
(1.76606755e-13 0 0)
(-1.49143337e-12 0 0)
(-1.05262514e-12 0 0)
(-9.24723928e-13 0 0)
(-4.41965942e-13 0 0)
(-3.00339334e-13 0 0)
(-1.43681682e-12 0 0)
(-9.86136272e-13 0 0)
(-4.87189667e-13 0 0)
(-5.23156154e-13 0 0)
(-4.94860556e-13 0 0)
(-6.29883748e-13 0 0)
(-7.58469232e-13 0 0)
(-1.22631531e-12 0 0)
(-1.40418141e-12 0 0)
(-8.89744455e-13 0 0)
(-5.14358194e-13 0 0)
(-6.14203006e-13 0 0)
(-2.38380149e-13 0 0)
(3.42095148e-13 0 0)
(-3.45245746e-13 0 0)
(5.41965747e-14 0 0)
(-2.76265766e-13 0 0)
(2.31434574e-13 0 0)
(-3.33824861e-13 0 0)
(-1.06127691e-12 0 0)
(-3.88437805e-13 0 0)
(-1.33474155e-13 0 0)
(4.88016128e-13 0 0)
(5.56295792e-13 0 0)
(9.99714185e-13 0 0)
(1.08063259e-12 0 0)
(1.47782275e-13 0 0)
(6.44213144e-13 0 0)
(6.55586312e-14 0 0)
(4.90155322e-13 0 0)
(8.4878071e-13 0 0)
(6.03602344e-13 0 0)
(-2.32773298e-13 0 0)
(2.39543002e-13 0 0)
(1.96007804e-13 0 0)
(8.04799461e-13 0 0)
(4.90451422e-13 0 0)
(-1.60779654e-13 0 0)
(9.07459551e-13 0 0)
(3.37244745e-13 0 0)
(8.22163182e-13 0 0)
(3.39470012e-13 0 0)
(1.70137979e-13 0 0)
(2.20519924e-13 0 0)
(7.84833034e-13 0 0)
(-1.31127705e-13 0 0)
(8.70275194e-13 0 0)
(4.96113658e-14 0 0)
(7.18155294e-13 0 0)