/*--------------------------------*- C++ -*----------------------------------*\
| =========                 |                                                 |
| \\      /  F ield         | OpenFOAM: The Open Source CFD Toolbox           |
|  \\    /   O peration     | Version:  2206                                  |
|   \\  /    A nd           | Website:  www.openfoam.com                      |
|    \\/     M anipulation  |                                                 |
\*---------------------------------------------------------------------------*/
FoamFile
{
    version     2.0;
    format      ascii;
    arch        "LSB;label=32;scalar=64";
    class       surfaceScalarField;
    location    "1e-06";
    object      phi;
}
// * * * * * * * * * * * * * * * * * * * * * * * * * * * * * * * * * * * * * //

dimensions      [1 0 -1 0 0 0 0];

oriented        oriented;

internalField   nonuniform List<scalar> 
3182
(
9.48648552e-20
-8.13123546e-20
6.77542749e-20
-1.49067501e-19
-1.5878519e-24
-1.42370204e-25
-1.0173049e-26
-4.14143055e-32
7.36091788e-31
6.42515305e-26
8.91334131e-25
1.03773346e-23
4.2008113e-19
-1.08416548e-19
-3.794182e-19
-2.28166776e-24
3.25214079e-19
-3.79454459e-19
-3.794446e-19
4.87814551e-19
1.00556908e-23
2.06088235e-24
1.56506849e-25
6.30030834e-25
8.28654107e-24
5.01342506e-23
9.75304284e-19
-8.1296825e-19
-2.71007495e-19
2.70812583e-19
-7.04341046e-19
7.04422559e-19
1.99189123e-23
-5.41830684e-19
2.70982204e-19
2.70897753e-19
-2.71008089e-19
-2.70932159e-19
2.70955147e-19
-8.53681555e-23
-1.08412686e-19
-7.58044469e-19
1.19170015e-18
-2.1570282e-19
5.41789343e-19
-5.53419881e-23
-1.08224117e-19
-3.4690864e-22
-4.33455383e-19
-2.40765894e-22
-3.26514454e-19
-1.29867902e-18
-2.16599027e-19
1.08249765e-18
4.33873333e-19
3.00286109e-22
2.17378283e-19
6.50119006e-19
2.17327834e-19
8.18103927e-22
-2.16940472e-19
-4.35871467e-19
-6.50072842e-19
-6.51636308e-19
-8.63592794e-19
2.17187544e-19
8.68160007e-19
8.67147122e-19
4.35583709e-19
4.31573874e-19
4.32867968e-19
-4.31693088e-19
-4.38887286e-19
-8.75316537e-19
-1.30267502e-18
-1.29933869e-18
3.72035507e-21
8.80224552e-19
2.18607763e-18
2.63486279e-18
3.05520614e-18
4.36657287e-18
4.36168752e-18
1.78734162e-18
3.4710856e-18
4.34769937e-18
2.58051822e-18
1.734706e-18
1.7215833e-18
1.72352234e-18
9.5539543e-19
-7.68302865e-19
1.02323562e-18
-1.9066095e-20
-1.04594476e-18
-1.91510706e-18
-1.54464858e-18
4.76311408e-20
5.25257295e-18
7.04249494e-18
3.64838802e-18
3.76832869e-18
3.42201793e-18
1.34903426e-18
1.44898392e-18
-1.81952432e-19
-4.00970222e-19
1.62738569e-18
2.53057652e-19
2.08586597e-18
3.47494762e-18
2.1978653e-18
2.9598417e-18
1.06750488e-18
-3.94403125e-19
-1.4143626e-19
5.33472062e-20
1.91667418e-18
-1.77378347e-18
-1.38696752e-18
-1.87213831e-18
-2.65171281e-19
-1.8163656e-18
3.68998641e-19
-2.39140377e-18
-3.94101669e-18
-4.0822386e-18
-5.23605776e-18
-3.52841661e-18
-3.27871912e-18
-3.48957527e-18
-3.64073977e-18
-5.39437628e-18
-5.06851642e-18
-3.67291263e-18
-4.89417761e-18
-4.70870591e-18
-3.23962439e-18
-1.61619025e-18
-1.52169094e-18
1.57656738e-18
1.30758309e-18
8.22293325e-21
-1.49406792e-18
-1.82032092e-18
-1.80300045e-18
-1.53724607e-18
-3.82184253e-19
-4.47126735e-20
3.69731077e-19
-1.48143765e-18
1.88926254e-18
1.89528919e-18
-9.79592646e-19
-1.31390356e-18
2.12587611e-18
3.32860459e-18
3.00412551e-18
4.76583977e-18
2.95920116e-18
4.69627707e-18
1.13052036e-18
1.35148196e-18
1.46902581e-18
-2.58638285e-19
-1.34272052e-18
2.52941501e-19
-3.05227757e-18
-1.71458913e-18
-2.89097325e-19
-5.89284535e-18
-4.2659484e-18
-2.64185094e-18
-5.97675225e-19
-1.80721272e-18
-2.39481472e-18
-4.06133115e-18
-1.90549602e-18
-1.30667097e-19
-1.81658933e-18
1.95997805e-18
1.98135624e-18
-1.66790443e-18
-1.99563681e-18
-5.24263087e-18
-5.2801028e-18
-6.69400305e-18
-4.87666603e-18
-4.31892916e-18
-2.47412846e-18
-4.71703993e-18
-3.36822276e-18
-3.77310085e-18
-7.06289599e-18
-7.30943405e-18
-5.67095514e-18
-6.73794651e-18
-5.0822294e-18
-5.20294546e-18
-1.93592458e-18
-5.27558817e-18
-2.84873015e-18
-3.23024218e-18
-3.56675869e-18
-3.3892862e-18
-1.92226307e-18
-5.31278173e-20
1.45075429e-18
1.71662935e-18
1.48919399e-18
3.15764133e-18
3.70333232e-18
5.24469973e-18
3.75554642e-18
8.59670224e-18
4.88567135e-18
5.3316487e-18
5.05102103e-18
3.3520841e-18
5.29558812e-18
3.18638528e-18
6.82746e-18
5.59401775e-18
6.9519168e-18
5.36872799e-18
5.51718715e-18
5.70412585e-18
2.32177784e-18
2.2248559e-18
-2.24144277e-19
1.92529462e-19
3.21364271e-18
3.24127965e-18
4.75295177e-18
1.98699356e-18
2.26473649e-19
4.19830317e-19
2.21650035e-18
6.29071914e-18
6.49132612e-18
5.92337653e-18
6.06815368e-18
5.45867231e-18
5.22743047e-18
3.16150426e-18
3.6492227e-18
3.20611339e-18
3.08457853e-18
4.7240007e-18
3.013591e-18
3.31360127e-18
3.16975495e-18
2.8143778e-18
3.32881977e-18
3.35501405e-18
1.90810638e-18
3.65818519e-18
3.36211815e-18
6.89694675e-18
4.73896234e-18
4.48530951e-18
3.09258665e-18
1.50811917e-18
1.76753176e-18
4.34423119e-19
-3.18538567e-18
-2.67383455e-18
-1.13320674e-18
-2.96925732e-18
-3.11011694e-18
-1.75191301e-18
8.10020952e-20
2.97196755e-19
1.28389269e-19
3.18243472e-19
-1.63782087e-18
-3.46846671e-19
-3.92628331e-18
-3.72899924e-18
-5.53811542e-18
-5.25409134e-18
-1.93420401e-18
-3.42388212e-19
3.32558784e-18
1.03128208e-18
-2.0787991e-19
-3.83183107e-18
-3.39590281e-18
-3.28719623e-18
-4.93904857e-18
-6.89000987e-18
-9.26379646e-18
-9.12082321e-18
-8.98551976e-18
-1.06028903e-17
-8.74280585e-18
-9.35822681e-18
-7.87689297e-18
-6.86911002e-18
-5.61079355e-18
-5.55680674e-18
-3.26268383e-18
-5.59821594e-18
-7.30373734e-18
-4.04751657e-18
-3.99215357e-18
-5.74200294e-18
-4.18380082e-18
-7.15282461e-19
-5.85098982e-18
-5.6028547e-18
-5.34028577e-18
-9.25504836e-18
-7.15462747e-18
-7.75843701e-18
-7.49756061e-18
-1.21147317e-17
-1.05283061e-17
-1.25220282e-17
-1.05001228e-17
-1.14386817e-17
-1.49938845e-17
-1.29588463e-17
-7.89483124e-18
-8.98493836e-18
-5.64745099e-18
-2.13197384e-18
-3.50587885e-18
-6.71942149e-18
-3.19321384e-18
-2.29036474e-18
-3.5190898e-18
-3.61759689e-18
-1.45862461e-18
-1.68397176e-18
-3.57551884e-18
-5.16843933e-18
-1.61085036e-18
-3.74206392e-18
-4.09388396e-18
-7.71320576e-18
-5.40855366e-18
-8.19328106e-18
-4.01800177e-18
-4.14190542e-18
-4.25958818e-18
-2.71845186e-18
-7.19852797e-18
-3.35841147e-18
-4.12496193e-18
-5.21411609e-18
-4.85098742e-18
-5.25986144e-18
-3.82971816e-18
-4.03057829e-18
-3.67704881e-18
-3.57090865e-18
-2.52517517e-18
-2.25550732e-18
-7.17828309e-19
3.54175491e-19
3.81706888e-19
5.16067959e-19
6.8497876e-19
-6.17598457e-19
-1.76623344e-18
-4.39863052e-19
1.17850322e-19
1.48490174e-18
1.55521812e-18
5.5069093e-18
5.3611434e-18
5.10205821e-18
5.07382592e-18
3.0151076e-18
3.65094994e-18
1.68841935e-18
-2.36732731e-20
-3.50302789e-18
-1.50708799e-18
-1.55747905e-18
3.49675011e-18
-1.50383365e-20
-1.85524572e-18
-2.25068796e-18
-4.94087945e-18
-1.23587879e-18
-3.5418319e-18
-4.04530398e-18
-3.71336761e-18
-3.7783624e-18
1.39302711e-18
3.29955483e-18
1.80639931e-18
3.34850024e-20
-3.66700982e-18
-1.67302864e-18
-4.15961968e-18
-4.7816326e-18
-4.5045053e-18
-4.3011018e-18
-3.41693145e-18
-4.52729881e-18
-6.18054607e-18
-3.21404156e-18
-3.69029568e-18
-5.20190342e-18
-3.23610104e-18
-6.95465353e-20
-1.52840222e-19
-1.36606008e-19
-1.67045509e-18
-2.1923405e-19
-1.43058299e-19
1.12774519e-20
1.73617068e-18
3.23599242e-18
8.7467056e-19
3.13364377e-18
1.4351697e-18
-1.57713476e-18
-1.61478043e-18
-1.95593118e-19
1.61222315e-18
-1.25553809e-18
-1.2195454e-18
7.67053446e-20
4.70808617e-18
1.24217484e-18
3.0652032e-18
3.2708728e-18
1.79906294e-18
1.78322696e-18
4.82010912e-18
1.67660668e-18
3.25494485e-18
2.91380236e-18
2.92828815e-18
4.80013451e-18
6.64555244e-18
4.96986627e-18
3.35113177e-18
-8.4474189e-19
-1.01755431e-18
9.19405933e-19
-2.22910663e-18
-2.68517623e-18
-4.71798746e-18
-6.64469067e-18
-3.8182665e-18
-1.76852943e-18
-1.79128092e-18
3.77327828e-19
3.55211111e-19
-2.92134116e-18
-1.41318972e-18
-3.41697448e-18
-6.46745168e-18
-4.85003107e-18
-3.31060022e-18
-5.39729154e-18
-1.03299528e-18
-6.50033136e-19
2.22039743e-19
1.98390334e-19
3.14008029e-19
3.66358672e-19
1.98429536e-18
1.82539777e-18
3.33958639e-18
3.32146355e-18
3.24651304e-18
5.13323673e-19
3.42926585e-18
1.2291346e-19
1.83947288e-18
1.95040422e-18
3.96447154e-18
5.41220956e-18
4.05910256e-18
5.29806676e-18
5.22779856e-18
3.42062763e-18
5.01770061e-18
4.66445011e-18
4.47715999e-18
3.19508506e-18
4.09079432e-19
3.93966667e-19
-1.28983677e-18
2.06986894e-18
-1.71944127e-18
-1.53408923e-18
-1.93940484e-18
-4.02190374e-18
-5.35445512e-18
-3.92758306e-18
-4.3462881e-18
-2.65486546e-18
3.57934989e-19
6.75669907e-19
2.33983958e-18
-7.58436067e-19
-2.5952942e-19
-1.98282381e-18
-3.67311591e-18
-6.71231297e-18
-6.80443336e-18
-8.48861069e-18
-7.07861357e-18
-2.0056094e-18
-5.03707862e-18
-4.83753446e-18
-3.36772241e-18
-1.98596696e-18
-3.71816049e-18
-3.89046204e-18
-3.68297954e-20
2.43643629e-19
-1.09668303e-18
-1.6973755e-18
1.43656876e-18
3.36631518e-19
-9.21826395e-19
6.22836455e-19
2.29347132e-18
2.00154531e-19
5.09047426e-18
4.98350573e-18
1.55682349e-18
3.04403527e-18
2.94007912e-18
3.22718136e-18
3.25027695e-18
6.70441991e-18
6.61921973e-18
3.57245939e-18
1.97189065e-18
1.90703959e-18
5.73191306e-18
4.36040724e-19
2.07155078e-19
1.63041913e-18
-3.33096059e-18
-3.59776847e-18
-3.34739162e-18
-3.23275797e-18
-3.20064389e-18
-4.9138874e-18
-6.78880296e-18
-6.50715709e-18
-3.93456309e-18
-5.54970727e-18
-3.61912123e-18
-6.80013928e-22
1.51325031e-18
-1.82672486e-18
-3.40173132e-18
-5.31928609e-18
-7.51576613e-18
-7.24267198e-18
-7.19201047e-18
-3.84216184e-18
-3.74414604e-18
-4.99534978e-18
-3.02348083e-18
-1.6992894e-18
-1.52322089e-18
-4.21744497e-19
3.5284175e-19
2.10122983e-19
3.43348868e-18
3.50880948e-18
1.93718966e-20
1.72934117e-18
1.4046062e-18
1.8594382e-18
2.24090115e-18
2.06235695e-18
5.56604968e-18
5.29819684e-18
8.63223515e-18
7.03847866e-18
3.97356891e-18
1.93494406e-18
2.38256354e-18
3.85590032e-18
7.03533495e-18
5.22060573e-18
6.78959001e-18
5.38856223e-18
5.20701939e-18
5.68973571e-18
4.03989842e-18
2.35352989e-18
3.30978624e-18
6.55711324e-18
6.81373268e-18
7.8337561e-18
3.43749706e-18
6.82836065e-18
8.41878875e-18
5.31913385e-18
5.30283792e-18
5.55524711e-18
5.86459883e-18
7.21707964e-18
4.23284758e-18
2.24867225e-18
-1.33206493e-18
2.58467401e-18
-1.29620359e-18
3.76231447e-18
3.4460838e-18
3.34732091e-18
1.73539614e-18
3.27888896e-18
1.70586408e-19
5.66309157e-19
3.28727138e-19
-3.08627332e-18
-3.38197526e-18
-3.60381804e-18
-6.95913856e-18
-6.61725782e-18
-8.70843242e-18
-5.61439518e-18
-4.05797606e-18
-4.23241706e-18
-6.71232368e-18
-3.35554917e-18
-1.89226133e-18
-1.83720312e-19
1.73265701e-18
-3.03783819e-19
-5.31938379e-19
-1.16791168e-19
-2.0063662e-18
-5.18818949e-20
-3.57683355e-18
-1.96648834e-18
-3.37527265e-18
-2.57483404e-18
-3.18614444e-18
-3.11858745e-18
-4.97270602e-18
-3.75485031e-18
-1.86339383e-18
1.4700829e-18
9.3786241e-19
1.49146312e-18
1.80007865e-18
1.35096369e-18
3.58122028e-19
-1.06499703e-18
5.62498583e-19
2.04753833e-18
-2.77439083e-20
1.38409335e-19
1.14233682e-18
1.04633797e-18
9.9332876e-19
7.661518e-19
-1.99585534e-18
-1.90703989e-19
-4.32758907e-19
-1.37674475e-19
-1.84693143e-18
-1.80867356e-18
-2.01377059e-18
2.24026744e-19
3.42346252e-18
1.51663326e-18
-1.76635515e-18
-1.48448241e-18
-6.49033438e-18
-4.94493053e-18
-3.99062473e-18
-3.29585876e-18
-2.03550277e-18
-1.85316495e-18
3.18472581e-18
3.79243131e-18
4.91576936e-18
3.02582503e-18
3.4742098e-18
4.90514837e-18
3.30968975e-18
1.48180795e-18
1.02830853e-18
4.79947765e-18
1.49936142e-18
-1.26912672e-20
3.7162624e-18
2.25235934e-18
2.27870813e-18
3.58947314e-18
1.81056102e-18
-1.7295894e-18
9.19351641e-20
2.48371294e-18
5.98521342e-18
5.87202694e-18
5.67611092e-18
4.51373828e-18
5.75873521e-18
7.27886395e-18
7.2749094e-18
3.68352096e-18
3.98965293e-18
5.52714409e-18
7.42397041e-18
5.58362574e-18
8.90063912e-18
5.49604542e-18
4.85948818e-18
4.67714042e-18
8.03277895e-18
5.36641593e-18
4.99270802e-18
5.0900767e-18
2.92961386e-18
3.17690296e-18
2.02295351e-18
-1.15352815e-18
-3.02526646e-18
-3.13051506e-18
-1.50246885e-18
-3.04647125e-18
-9.21454493e-20
4.8309399e-19
3.71028448e-18
8.62325206e-19
7.0210585e-19
3.58760115e-18
3.01147966e-19
1.15324286e-19
2.48867656e-19
2.0078814e-18
1.60205901e-19
3.72467714e-19
1.17280165e-19
1.0297324e-20
-3.65720601e-18
1.46288447e-18
-1.83104031e-18
1.47962939e-18
2.77250366e-18
1.58708364e-18
-2.69609586e-19
1.68486595e-18
4.88894303e-18
4.96605652e-18
3.53314394e-18
3.26227542e-18
2.91340038e-18
1.40046832e-18
1.53443871e-18
1.39415102e-18
4.88434811e-18
3.35166385e-18
3.44950069e-18
4.8424745e-19
-1.12423616e-19
1.94639214e-18
3.46463685e-18
2.48412938e-18
1.76554366e-18
1.58576576e-19
-1.32698639e-18
-7.8065483e-20
-1.58338415e-18
2.79828006e-20
-1.40264187e-18
-1.16180242e-18
-1.4885672e-18
-1.26606091e-18
-1.30110705e-19
2.74890436e-19
-3.64443257e-19
-5.27213943e-19
-3.31728719e-18
2.96578328e-18
1.7164448e-18
1.96936149e-18
4.92565986e-18
4.82897612e-19
5.5818336e-18
-2.93824931e-18
6.72065186e-20
3.58413408e-18
3.58053287e-18
2.01331851e-18
4.06707313e-18
1.9099127e-18
3.70625644e-18
-2.99256821e-19
1.88345015e-18
-3.0224788e-19
2.53946416e-19
1.74869753e-18
1.70695234e-18
1.35196133e-18
1.81310085e-18
5.47762234e-18
1.84864775e-18
5.36339334e-18
5.69531061e-18
1.5217352e-18
5.28058052e-18
-2.7039262e-20
4.85141434e-18
7.04539205e-18
6.75069149e-18
4.80994483e-18
3.33665538e-18
-1.81070006e-18
-3.3184797e-18
2.23291992e-19
-1.86763184e-18
-3.11532367e-18
-5.15515889e-18
-3.6823997e-18
-5.05198758e-18
-7.21928112e-18
-7.33673589e-18
-8.76284036e-18
-8.90615378e-18
-1.1093571e-17
-9.52231305e-18
-7.34289082e-18
-7.40950923e-18
-7.46500607e-18
-5.62871134e-18
-8.4813699e-18
-7.00231785e-18
-5.48815082e-18
-7.38922551e-18
-5.94988607e-18
-5.75041315e-18
-3.59553826e-18
-2.03769886e-18
-3.89601453e-18
-3.81818177e-18
-1.58266914e-18
-3.00859549e-18
-1.80424567e-18
-1.89566195e-18
-3.33159257e-18
-1.72346006e-18
-6.79853186e-18
-8.06069308e-18
-6.79801928e-18
-3.1786891e-18
-1.646387e-18
-3.62351826e-18
-4.02649687e-18
-6.92317225e-19
-1.96540065e-19
1.00011534e-18
-4.81939226e-19
1.67685697e-19
-4.64305141e-19
1.42125537e-18
9.34803035e-19
1.09412554e-18
1.55364309e-18
1.51234679e-18
2.11473873e-19
-1.68878685e-18
-1.78025539e-18
5.00900769e-19
4.09516209e-19
4.89274436e-18
1.57872302e-18
9.90226786e-19
2.73770909e-18
3.16431221e-18
4.96076011e-18
2.10497691e-18
5.35385177e-18
4.34299315e-18
9.08331371e-19
2.91072276e-18
4.06792435e-18
4.0623602e-18
3.24344861e-18
1.38507128e-18
-4.07871915e-19
3.1685324e-18
1.44997875e-18
2.09711151e-18
1.1467342e-19
1.42245562e-19
5.27099506e-19
2.4074529e-18
2.24997145e-18
2.18479161e-18
5.78480007e-19
4.5697152e-20
-3.00923516e-18
-2.99964726e-18
-5.089497e-18
-2.98671849e-18
-1.52045964e-18
-2.86441548e-18
-3.02355529e-18
5.80547201e-19
3.31073429e-18
1.30062565e-18
2.20402996e-19
-2.02518816e-18
1.1894577e-18
1.51851425e-18
3.23412979e-18
3.48766228e-18
5.40915065e-18
4.84636539e-18
5.06800407e-18
3.15699542e-18
1.70154509e-18
1.76689602e-18
3.79639923e-18
7.33578663e-20
1.83612766e-18
2.04021267e-18
1.4028563e-18
2.16019956e-19
1.51593777e-18
1.27200736e-18
1.5704127e-18
1.43851942e-19
-1.96204907e-18
-1.84132749e-18
-1.81310402e-18
-1.53763613e-18
-3.624627e-18
-5.26556671e-18
-1.35311257e-19
4.20346505e-19
-1.48642839e-18
-2.48721912e-19
-2.53915474e-18
-5.25563037e-18
-7.13592246e-18
-5.48905681e-18
-5.19335599e-18
-3.39849445e-18
-5.02527646e-18
-5.03538927e-18
-5.27717283e-18
-5.46979186e-18
-3.47930351e-18
-5.52387004e-18
-3.78358449e-18
-3.35902951e-18
-3.48105402e-18
-3.6390428e-18
-5.37011044e-18
-2.04723331e-18
1.01471635e-19
1.86713328e-18
1.65680885e-18
5.40765696e-18
5.3212339e-18
5.42056109e-18
3.25495835e-18
5.43537524e-18
5.06627717e-18
3.58131841e-18
3.76078025e-18
1.82774351e-18
3.82527261e-18
4.03796266e-18
4.15894017e-18
3.91312315e-18
2.69857694e-18
2.19745691e-18
6.73361421e-19
7.25843882e-19
2.45265448e-18
2.24215029e-18
3.92440213e-18
5.71924815e-18
3.44351325e-18
3.88722608e-19
5.4314407e-18
7.04605113e-18
7.26497447e-18
9.36986874e-18
7.81275663e-18
1.10297246e-17
1.10601567e-17
9.22674384e-18
1.05236332e-17
1.23012948e-17
9.30339626e-18
9.6720685e-18
6.33777997e-18
7.61821236e-18
1.24466135e-17
1.16849082e-17
9.3699019e-18
1.42014887e-17
1.45361512e-17
1.2680636e-17
1.25812387e-17
1.24374511e-17
8.7218249e-18
1.00841967e-17
6.76414837e-18
8.00363905e-18
4.79478164e-18
6.75257969e-18
6.39367842e-18
5.59068742e-18
4.99860856e-18
3.6830408e-18
3.88224536e-18
9.42572197e-19
4.01151179e-18
5.4736769e-18
4.52071194e-18
6.4300006e-18
7.82793156e-18
5.60374331e-18
5.89472304e-18
4.4878765e-18
3.50096929e-18
2.02221839e-18
1.87779607e-18
8.69973504e-21
-4.26555804e-19
7.29383672e-19
-5.83399549e-18
-6.37762522e-18
-8.70517941e-18
-9.29115856e-18
-1.11440202e-17
-1.05674966e-17
-1.02176894e-17
-1.196926e-17
-1.4304147e-17
-1.09101965e-17
-1.08967597e-17
-5.18945414e-18
-6.74005961e-18
-6.51009308e-18
-5.23221439e-18
-7.15928101e-18
-8.69207683e-18
-8.97958248e-18
-9.15761854e-18
-5.86693204e-18
-7.56368343e-18
-9.57135736e-18
-7.78261886e-18
-8.99666317e-18
-1.03781567e-17
-9.03842686e-18
-7.03951646e-18
-5.27146396e-18
-3.50175617e-18
-1.79410774e-19
3.3195668e-18
5.3247791e-18
5.37203112e-18
8.63962291e-18
8.48331376e-18
8.55448477e-18
7.09566967e-18
6.89735561e-18
8.37868471e-18
8.76283597e-18
6.5962653e-18
7.16682912e-18
8.76241351e-18
7.1529164e-18
7.37358367e-18
9.35113763e-18
7.92598594e-18
9.84694997e-18
1.16316698e-17
1.00749853e-17
7.86446429e-18
6.82630027e-18
4.86423963e-18
7.78235232e-18
5.98342791e-18
9.19413318e-18
7.71761083e-18
5.87947965e-18
4.87092565e-18
4.69196962e-18
4.10727433e-18
4.22556948e-18
2.37038278e-18
3.13733694e-18
-3.64485325e-19
-4.71047012e-19
-3.88884283e-18
-2.77384422e-18
-2.59478519e-18
-1.91931837e-18
-2.23251334e-18
-2.25877145e-18
-5.30588715e-18
-3.65301221e-18
-6.90117473e-18
-4.65000928e-18
-6.73785163e-18
-3.40269448e-18
-1.83192731e-18
1.05847579e-19
-3.14101297e-18
-1.83497384e-18
-6.65060692e-19
-5.76764443e-20
1.88768731e-18
2.28430887e-18
1.44942905e-18
-1.06986909e-19
-1.83004843e-18
-1.97607399e-18
-1.8704776e-18
-3.37092049e-19
-3.70079779e-18
-2.08306268e-18
-4.02316764e-18
-3.84808952e-18
-6.03728774e-18
-4.07337557e-18
-6.80441686e-18
-3.76682402e-18
-6.90074306e-18
-5.65867842e-18
-5.82355981e-18
-3.63318423e-18
-6.92525332e-18
-4.4052412e-19
-1.90043167e-18
-2.15694125e-18
-2.30449432e-18
5.63107132e-21
-1.47386278e-18
-1.97743815e-18
-3.73403819e-19
9.7088572e-19
-7.85341027e-19
-1.73643436e-18
-1.86440655e-19
3.16139193e-18
1.86309846e-18
3.45361359e-18
2.71933668e-18
1.58004747e-18
-2.88456935e-19
-1.09511154e-20
1.37808849e-19
-8.30173393e-19
-2.75545741e-18
7.75298241e-19
2.4710897e-18
4.16838059e-18
7.39775251e-18
4.45194961e-18
7.54936875e-18
7.95138697e-18
7.75199709e-18
7.54280334e-18
5.57393766e-18
3.35619307e-18
5.15398987e-18
4.67431954e-18
3.15747091e-18
1.62880303e-18
-1.57937072e-18
-3.53364225e-18
9.43653951e-19
-1.31467208e-18
-3.179996e-18
-1.83452797e-18
-5.36740706e-18
-3.5459877e-18
-7.08669483e-18
-2.44821572e-18
-7.45536274e-18
-8.45958317e-18
-5.23428955e-18
-4.22640006e-18
-7.40373184e-18
-1.0545492e-17
-1.05327635e-17
-8.9568257e-18
-1.05147803e-17
-6.99082552e-18
-5.45856512e-18
-9.73623717e-18
-7.88905211e-18
-9.84686407e-18
-7.02981078e-18
-6.8728435e-18
-9.94206329e-18
-8.21380082e-18
-5.00913379e-18
-3.43466273e-18
-5.12822884e-19
-2.2829823e-18
-4.03311637e-18
-4.20305707e-18
-4.54436946e-18
-2.82166922e-18
-4.14454139e-18
-5.73199962e-18
-6.31864674e-18
-4.73342125e-18
-7.82394612e-18
-6.07426917e-18
-9.63010097e-18
-8.08203222e-18
-4.66581744e-18
-7.64510909e-18
-4.35367043e-18
-4.17164551e-18
-3.79348224e-18
-5.25368051e-18
-3.683586e-18
-4.22242597e-18
-4.03268543e-18
-3.8514769e-18
-6.19982739e-19
-3.8538728e-18
-2.17074206e-18
-3.43205533e-18
-3.26548256e-18
-1.32743358e-18
-4.53103748e-18
-2.9843943e-18
-4.56267088e-18
-4.85748374e-18
-1.72997458e-18
-2.0319106e-18
1.47788826e-19
-2.25856641e-19
1.66354485e-18
1.67466747e-18
3.82461427e-18
2.55341406e-18
2.28129801e-18
2.40680089e-18
2.4449325e-18
4.01625495e-18
7.63845126e-18
5.73086503e-18
7.04181301e-18
4.72815554e-18
4.44124165e-18
5.20118749e-18
3.7570239e-18
3.57798213e-18
-7.10276427e-20
1.30184484e-18
3.30411623e-18
1.68125431e-18
3.48186863e-18
5.17182406e-18
4.26632058e-18
3.62168439e-18
3.24261105e-18
5.21507105e-18
4.93953101e-18
1.43869566e-18
1.13085047e-19
1.74248374e-18
-1.15062118e-18
7.74329121e-19
1.5970638e-18
-1.84618135e-18
-3.75767543e-18
-6.80495125e-18
-6.92092068e-18
-5.37599099e-18
-9.81068013e-18
-9.94883894e-18
-1.0157015e-17
-5.10232666e-18
-8.76558686e-18
-8.61669795e-18
-6.74376479e-18
-8.8536869e-18
-8.6085589e-18
-7.06291318e-18
-3.83825453e-18
-3.46779201e-18
-3.76007777e-18
-7.12621932e-18
-8.98636062e-18
-6.14389845e-18
-4.27424291e-18
-5.84816025e-18
-6.10280283e-18
-6.26476322e-18
-4.91292155e-18
-3.91126629e-18
-6.38978027e-18
-6.78075085e-18
-4.34844727e-18
-1.91343274e-18
-5.25194814e-18
-7.98445896e-18
-8.02766672e-18
-8.22482907e-18
-6.26717469e-18
-6.80965191e-18
-6.52048944e-18
-3.32830583e-18
-2.08134454e-18
-1.39041621e-18
5.22543509e-19
1.94136272e-18
7.06126691e-20
2.56633035e-19
-1.84930817e-18
-3.62334313e-21
-8.73361341e-20
1.56098726e-19
2.2282133e-18
2.16255436e-18
3.77695532e-18
5.17098973e-18
5.07363444e-18
6.38087609e-18
3.04344406e-18
4.90631412e-18
3.6184907e-18
2.1718301e-18
2.04761596e-18
1.70820587e-18
2.30664328e-18
5.40233413e-18
4.96229451e-18
5.44131749e-18
5.06988346e-18
5.2283401e-18
5.6386338e-18
3.20505723e-18
4.74580268e-18
5.71467119e-18
4.7235485e-18
5.41910524e-18
3.36135564e-18
3.20966667e-18
5.53946509e-18
6.95401464e-18
6.86964394e-18
7.3643361e-18
5.50916836e-18
7.1067897e-18
7.27508981e-18
3.87115326e-18
3.65565421e-18
2.38407719e-18
5.53993785e-18
6.20182421e-18
4.71789038e-18
4.33343515e-18
2.82853553e-18
5.59574967e-18
3.55042329e-18
5.01436044e-18
5.08312825e-18
1.01763707e-17
5.31342135e-18
6.08194266e-18
7.92164969e-18
4.7982682e-18
4.67152879e-18
4.58658142e-18
1.7176331e-18
3.3103349e-18
5.19610529e-18
5.01031757e-18
1.39103096e-18
-7.41263176e-20
1.6368648e-18
1.87840285e-18
2.10939475e-18
2.04034755e-18
-8.94887526e-19
-2.51832995e-18
-1.36611084e-18
-1.17331349e-18
-1.4340983e-18
-1.51508318e-18
-1.44684466e-18
-4.88794158e-18
-4.44809999e-18
-6.11071607e-18
-2.72475494e-18
-9.73729418e-19
-1.52936331e-18
2.22545752e-18
-1.78368217e-18
-3.02419452e-20
-1.85431377e-18
1.6691739e-18
-1.68508743e-18
-2.29449167e-18
-5.50107266e-18
-3.55219167e-18
-3.63280785e-19
-3.9381145e-19
-4.09358651e-19
-2.66969194e-19
1.2580538e-18
-6.63567462e-19
-1.97030949e-19
5.96713222e-20
1.83208905e-20
-1.57108254e-18
-4.26842865e-18
-6.23974978e-18
-2.81330734e-18
-1.09525753e-18
-1.96685894e-18
-1.71040913e-18
-3.28400959e-18
-1.92808611e-18
-1.91076387e-18
-3.39507097e-19
2.68157578e-18
1.55772664e-18
-5.0047624e-19
3.36442102e-19
-4.87519668e-18
-4.03039135e-19
2.96689603e-19
2.57488307e-21
-1.60283035e-18
5.68079653e-19
-1.31599864e-18
2.10355142e-18
1.35443609e-18
2.27440347e-19
1.62172684e-18
3.25217456e-19
-2.01890669e-18
9.08044858e-20
-2.13808109e-21
2.94331216e-18
9.29187282e-19
-3.65207787e-19
-4.96830177e-19
-2.5055629e-18
-2.02583833e-18
-8.29506e-19
-1.97667228e-18
-3.23032376e-18
-2.74596912e-18
-1.44477949e-18
4.63060206e-19
4.28894498e-19
1.83132793e-18
3.15388092e-18
-3.76111961e-19
-2.43503182e-19
1.21430527e-18
-4.14775903e-19
-1.74716029e-18
-1.17177908e-18
7.01832662e-20
-3.66786624e-18
-3.78758081e-18
-1.14586845e-18
-5.7363098e-18
-2.43086144e-18
-8.07278379e-19
-1.98206439e-18
1.74890315e-18
1.75975897e-18
3.60590333e-18
4.07711625e-19
-9.93582636e-19
2.4913218e-19
-1.3748417e-18
-1.49734609e-18
-4.96148595e-18
-3.20529142e-18
-1.56171414e-18
-3.60536291e-18
-2.22263242e-18
-3.32452258e-18
-2.12303572e-18
-3.58778237e-18
-5.84603062e-18
-7.01057445e-18
-5.22005096e-18
-2.22410974e-18
-2.27127776e-18
-2.27193997e-18
-2.2222831e-18
-5.5569279e-18
-5.66381738e-18
-7.58322932e-18
-9.62177392e-18
-7.67841269e-18
-7.46437101e-18
-8.78594351e-18
-8.91746724e-18
-1.05428952e-17
-9.06429165e-18
-7.27815829e-18
-5.49624436e-18
-5.8171859e-18
-3.43164246e-18
-3.54908591e-18
-1.99398829e-18
-3.45769504e-18
-1.93949327e-18
-3.45993573e-18
-3.89740218e-18
-2.15382542e-18
-2.00229416e-18
-1.92854531e-18
-1.68208105e-18
-3.29606352e-18
-1.40525089e-18
-5.22662532e-18
-3.38424291e-18
1.38771099e-18
-7.50764788e-20
2.45362755e-19
-1.5452063e-18
3.16357087e-18
1.61875233e-18
-1.51093614e-18
-1.37703697e-18
-1.29849678e-18
-3.25413939e-18
-1.23415721e-18
6.06291165e-19
3.75030541e-19
3.81810625e-19
2.3039575e-18
3.69160204e-18
5.20514552e-18
5.14379156e-18
3.27918799e-18
1.7723171e-18
3.23665446e-18
1.27214962e-18
3.5133165e-18
3.27533443e-18
1.56416648e-18
3.40272331e-18
4.92510929e-18
1.82455795e-18
1.39606351e-18
3.47986077e-18
3.73730662e-18
1.56634624e-18
4.96861112e-18
3.12189906e-18
2.23724603e-18
3.91941793e-18
4.40417023e-18
3.9020992e-18
2.34701552e-18
5.36771378e-19
3.9884132e-20
-2.1449127e-19
-1.61135334e-18
-1.69048355e-18
-1.49573028e-18
-1.78010843e-18
-1.63111238e-18
-1.81197617e-18
1.45055503e-18
3.38986391e-18
4.83559991e-18
3.04767135e-18
5.11695657e-18
5.45646337e-18
4.64933443e-18
-8.50266227e-20
2.08984441e-18
5.92437429e-18
4.09519267e-18
2.3062598e-18
2.10805865e-18
-1.74273426e-18
2.21695533e-18
9.46314146e-19
-3.90989594e-19
-1.90686187e-18
-5.1767335e-19
-6.63583895e-19
9.36928934e-19
2.60814274e-18
5.09401022e-18
1.64295236e-18
1.48859711e-18
4.3085502e-19
1.77610361e-19
-3.81232048e-18
-3.23178451e-18
-2.90443483e-18
-3.05273387e-18
-3.38450411e-18
-4.96582174e-18
-6.50173781e-18
-5.04995164e-18
-3.24419324e-18
-1.51665033e-18
-3.85341924e-18
-3.54412279e-18
-1.80020694e-18
-3.64080516e-18
-5.76745146e-18
-7.31538726e-18
-5.68361514e-18
-5.76223305e-18
-5.26105068e-18
-9.17166345e-18
-7.44574934e-18
-4.00550407e-18
-5.82110318e-18
-5.00195574e-18
-7.1903725e-18
-5.09495782e-18
-6.83903686e-18
-2.19653288e-18
-3.83882899e-18
-2.19603204e-18
-3.32143257e-19
-3.51869417e-18
-3.75471631e-18
-3.79383692e-18
-2.72720535e-19
-1.9180331e-18
-3.53712781e-18
-3.47253624e-18
6.66118719e-19
-3.55998815e-18
1.54034061e-19
-3.1634324e-18
-2.18391464e-18
-2.65820504e-19
1.20466387e-18
-5.02068698e-19
4.44874004e-20
-1.63005011e-18
-1.82108011e-18
-5.06512366e-18
-2.34694827e-18
-8.63733418e-19
-8.69983369e-19
6.29303894e-19
-1.24459134e-18
-2.07106144e-18
-1.87692416e-18
-2.03841945e-18
-1.84143657e-18
-1.887536e-18
1.46043845e-19
1.91189439e-18
-1.52708847e-18
-1.11278237e-19
1.81368284e-19
-2.8802061e-18
-1.14332514e-18
-1.56781872e-18
-1.21968954e-18
4.03681302e-19
-1.40220109e-18
3.0407802e-19
-1.64721984e-18
-1.59758717e-18
-2.15140913e-18
-5.18817035e-18
-3.3359009e-18
-1.43797853e-18
-3.55916122e-18
-4.93476371e-18
-3.71142467e-18
-2.09740942e-18
-1.40751098e-18
-2.94143149e-18
-1.84836835e-20
1.34181045e-18
-7.7507339e-20
3.56311714e-18
3.54576094e-18
1.78151578e-18
3.71702809e-18
1.66733718e-18
5.13801232e-18
3.29842928e-18
2.14565357e-18
3.43572352e-18
7.30166366e-18
5.29524709e-18
4.78542706e-18
5.49458824e-18
5.32360326e-18
8.57794651e-18
9.11691634e-18
5.94924103e-18
7.66549909e-18
9.54590579e-18
8.76719178e-18
1.06123537e-17
1.05279904e-17
1.19766665e-17
1.01127798e-17
7.10219197e-18
5.53185929e-18
4.29297743e-18
3.52325192e-18
3.08813115e-18
3.36803292e-18
5.22551961e-18
3.72741199e-18
2.18977435e-18
1.80153113e-18
3.49895422e-18
1.74561606e-18
-2.11752876e-18
2.24693143e-19
1.91882692e-18
1.77045924e-18
3.0668667e-18
-2.56857478e-19
-6.0233507e-19
-7.77462077e-19
-1.71560721e-18
-2.53697507e-18
-3.86558224e-18
-8.70225304e-18
-7.5159325e-18
-9.3791172e-18
-8.81111217e-18
-1.07136755e-17
-7.14397407e-18
-6.568981e-18
-5.24442395e-18
-4.20241681e-18
-7.90487835e-18
-3.02276206e-18
-3.37471239e-18
-5.16197645e-18
-3.19730631e-18
-1.43731237e-18
4.1387807e-19
-3.01732587e-18
2.79904169e-20
8.64772749e-20
5.78387089e-19
4.08469998e-18
5.49724823e-18
5.0208349e-18
5.20039838e-18
5.39889768e-18
3.56811022e-18
2.9424448e-18
5.03269402e-18
4.29344227e-18
2.53454555e-18
4.45136139e-18
2.74522852e-18
5.04547137e-18
2.96940645e-18
1.12396229e-18
-6.13234432e-19
-3.58975141e-19
-7.41154261e-19
-4.01566809e-18
-2.52425514e-18
-7.33511412e-18
-5.36426622e-18
-8.39327131e-18
-7.20569729e-18
-6.94773183e-18
-5.55488962e-18
-5.16306395e-18
-4.92236937e-18
-5.02220049e-18
-5.31896886e-18
-3.67664005e-18
-2.10902991e-18
-3.47646181e-18
-2.09873147e-18
-2.74738273e-18
-2.64545599e-18
3.01326351e-19
2.28731567e-18
7.59874045e-19
1.37924345e-19
7.73871834e-19
2.09140222e-18
3.99918853e-18
3.82857241e-18
3.3845837e-18
1.92470423e-18
1.73486162e-18
5.01702563e-18
5.02360428e-18
3.6890216e-18
4.95693927e-18
3.69503837e-18
3.70011097e-18
8.60924181e-18
2.97812903e-18
3.02656606e-18
-1.82709683e-18
-7.97937927e-19
-2.64604246e-18
-4.72067907e-19
3.45626766e-18
3.7382083e-18
4.27183828e-18
4.11192707e-18
4.01575137e-18
5.13025516e-19
7.50199778e-19
-2.58466103e-18
-5.76077661e-19
-6.09770971e-19
-9.73803436e-19
-7.05760386e-19
-5.32718973e-19
-7.09137735e-19
-2.61077399e-18
-1.41917946e-18
-1.83736389e-18
-1.82499439e-18
2.89640924e-18
4.74469481e-18
1.40406103e-18
3.25766152e-18
4.75263391e-18
6.48852657e-18
8.18961721e-18
6.43418188e-18
7.33217984e-18
7.06267216e-18
5.10046331e-18
3.82140551e-18
5.39038037e-18
5.35443205e-18
6.36875699e-18
3.67162197e-18
1.99771961e-18
7.98401341e-19
-4.7767982e-19
2.83965187e-18
2.49658228e-18
1.44001932e-18
-8.73970154e-19
-1.13178371e-18
1.52647747e-18
-3.69271332e-19
1.37900881e-18
-4.71740429e-19
6.06826152e-18
4.90932286e-18
4.85983826e-18
5.06397331e-18
5.29075027e-18
7.02047335e-18
4.85697359e-18
3.62345446e-18
3.80562298e-18
2.44221106e-18
9.94740237e-19
4.36363296e-18
2.77910645e-18
2.66062942e-18
4.49957254e-18
5.91512475e-18
5.27079326e-18
5.55974599e-18
2.08149313e-18
4.03497806e-18
9.25115826e-18
9.1655292e-18
8.06563495e-18
9.02679365e-18
7.16899576e-18