/*--------------------------------*- C++ -*----------------------------------*\
| =========                 |                                                 |
| \\      /  F ield         | OpenFOAM: The Open Source CFD Toolbox           |
|  \\    /   O peration     | Version:  2206                                  |
|   \\  /    A nd           | Website:  www.openfoam.com                      |
|    \\/     M anipulation  |                                                 |
\*---------------------------------------------------------------------------*/
FoamFile
{
    version     2.0;
    format      ascii;
    arch        "LSB;label=32;scalar=64";
    class       volVectorField;
    location    "1e-06";
    object      U;
}
// * * * * * * * * * * * * * * * * * * * * * * * * * * * * * * * * * * * * * //

dimensions      [0 1 -1 0 0 0 0];

internalField   nonuniform List<vector> 
3183
(
(6.84971452e-15 0 0)
(-1.80190393e-15 0 0)
(3.79216483e-15 0 0)
(-9.97607275e-15 0 0)
(-1.04974937e-14 0 0)
(-4.16005875e-20 0 0)
(-3.21421664e-21 0 0)
(-2.3470039e-26 0 0)
(9.869106e-27 0 0)
(2.11642334e-25 0 0)
(1.92921668e-20 0 0)
(2.49300869e-19 0 0)
(3.15583624e-14 0 0)
(1.99245333e-14 0 0)
(-2.44601886e-14 0 0)
(-3.30923057e-14 0 0)
(3.09521607e-14 0 0)
(-8.1429016e-15 0 0)
(-6.85455784e-14 0 0)
(9.0153993e-15 0 0)
(3.79489294e-14 0 0)
(5.99126132e-19 0 0)
(4.94391588e-20 0 0)
(9.6962991e-24 0 0)
(1.89165837e-19 0 0)
(2.30837295e-18 0 0)
(7.72723643e-14 0 0)
(-2.48411158e-19 0 0)
(-8.55580308e-14 0 0)
(3.75042419e-14 0 0)
(-7.89409807e-14 0 0)
(1.66132765e-14 0 0)
(6.99249454e-14 0 0)
(-4.59824489e-14 0 0)
(5.88607759e-19 0 0)
(5.09128548e-14 0 0)
(-5.35788934e-14 0 0)
(-5.63771666e-14 0 0)
(5.93149004e-14 0 0)
(-2.61779585e-18 0 0)
(-6.5690171e-14 0 0)
(-8.29315517e-14 0 0)
(8.72584177e-14 0 0)
(7.65627235e-14 0 0)
(8.05411341e-14 0 0)
(-1.20410264e-18 0 0)
(-1.78050983e-14 0 0)
(-6.05695312e-17 0 0)
(-7.89474736e-14 0 0)
(-9.18167598e-18 0 0)
(-2.19820255e-14 0 0)
(-1.1495952e-13 0 0)
(-9.67209113e-14 0 0)
(1.01751134e-13 0 0)
(1.33901766e-13 0 0)
(-8.43483783e-14 0 0)
(2.96974023e-14 0 0)
(1.24805747e-13 0 0)
(9.84694014e-14 0 0)
(1.60228102e-16 0 0)
(-3.6239309e-14 0 0)
(-7.68324377e-14 0 0)
(-8.04224337e-14 0 0)
(-1.69663914e-13 0 0)
(-1.33229445e-13 0 0)
(4.66125091e-14 0 0)
(9.86735368e-14 0 0)
(2.0755e-13 0 0)
(1.09110818e-13 0 0)
(5.81791339e-14 0 0)
(1.7989435e-13 0 0)
(-6.22069265e-14 0 0)
(-4.28397478e-16 0 0)
(-2.52750292e-15 0 0)
(-2.21835006e-13 0 0)
(-3.87016249e-13 0 0)
(-8.23829209e-14 0 0)
(2.03096615e-15 0 0)
(2.73857318e-13 0 0)
(3.83469672e-13 0 0)
(5.05467224e-13 0 0)
(7.36436518e-13 0 0)
(5.57079653e-13 0 0)
(3.57224834e-13 0 0)
(1.33677268e-13 0 0)
(7.68999641e-13 0 0)
(5.37301303e-13 0 0)
(1.62060399e-14 0 0)
(4.44982791e-13 0 0)
(2.56544045e-15 0 0)
(1.65434825e-14 0 0)
(1.84507892e-13 0 0)
(2.28627658e-14 0 0)
(-1.81185989e-13 0 0)
(1.75378116e-13 0 0)
(-2.5321284e-13 0 0)
(-5.96956816e-13 0 0)
(1.73437058e-13 0 0)
(5.26899426e-13 0 0)
(5.51926707e-13 0 0)
(7.65042873e-13 0 0)
(8.73851151e-13 0 0)
(3.49101229e-13 0 0)
(4.57934812e-13 0 0)
(-2.22447259e-13 0 0)
(4.99294768e-13 0 0)
(-2.66924891e-15 0 0)
(2.00493668e-13 0 0)
(-2.22841592e-13 0 0)
(9.94797806e-14 0 0)
(8.82461416e-13 0 0)
(8.80651576e-13 0 0)
(7.79712401e-14 0 0)
(-2.98525138e-14 0 0)
(1.93700737e-13 0 0)
(-9.80298217e-14 0 0)
(-2.02494602e-13 0 0)
(5.25566149e-13 0 0)
(-2.84939157e-15 0 0)
(-5.37099973e-13 0 0)
(-3.38192784e-13 0 0)
(-1.51178638e-14 0 0)
(-5.14293681e-14 0 0)
(1.60856516e-14 0 0)
(-2.92582826e-13 0 0)
(-4.24815004e-13 0 0)
(-1.11958742e-13 0 0)
(-1.55530631e-12 0 0)
(-3.36395156e-13 0 0)
(-9.01513044e-13 0 0)
(1.88692731e-13 0 0)
(-8.25650209e-13 0 0)
(-7.01718573e-13 0 0)
(-1.22103836e-12 0 0)
(-6.41941838e-13 0 0)
(-3.580978e-13 0 0)
(-8.55922266e-13 0 0)
(-5.52379116e-13 0 0)
(-3.51132028e-13 0 0)
(-4.56743415e-14 0 0)
(-2.30175714e-13 0 0)
(-3.73521046e-14 0 0)
(5.51647037e-13 0 0)
(-6.02585354e-13 0 0)
(5.35751978e-14 0 0)
(-7.86772957e-14 0 0)
(-2.79216102e-13 0 0)
(-2.87224929e-13 0 0)
(-3.55898731e-13 0 0)
(-4.30571509e-14 0 0)
(-1.21523735e-13 0 0)
(4.94969951e-13 0 0)
(1.17565679e-13 0 0)
(-2.04725054e-13 0 0)
(1.01991025e-13 0 0)
(-2.76420015e-13 0 0)
(4.35229456e-13 0 0)
(1.06316968e-12 0 0)
(3.76352084e-13 0 0)
(4.9524506e-13 0 0)
(2.70017618e-13 0 0)
(5.22066542e-13 0 0)
(3.05345722e-13 0 0)
(-3.26081724e-14 0 0)
(2.09154838e-13 0 0)
(2.72551317e-13 0 0)
(-1.09020695e-12 0 0)
(7.64795472e-15 0 0)
(3.12037026e-13 0 0)
(-3.41208898e-13 0 0)
(-9.70421735e-13 0 0)
(-4.81673662e-13 0 0)
(-7.06588276e-13 0 0)
(-1.77247568e-13 0 0)
(2.188418e-13 0 0)
(-8.60848047e-13 0 0)
(-2.95723765e-13 0 0)
(-2.90442597e-13 0 0)
(-3.71759349e-14 0 0)
(-3.39392995e-13 0 0)
(-2.39790997e-14 0 0)
(3.86469251e-13 0 0)
(-2.60667398e-13 0 0)
(2.77371704e-13 0 0)
(-4.25541844e-13 0 0)
(-8.95150525e-13 0 0)
(-8.81131923e-13 0 0)
(-6.69792792e-13 0 0)
(-1.39718256e-12 0 0)
(-4.81423596e-13 0 0)
(2.18701082e-13 0 0)
(-8.27157008e-13 0 0)
(-9.43337068e-13 0 0)
(-4.13321239e-13 0 0)
(-1.20771291e-12 0 0)
(-1.11869586e-12 0 0)
(-8.68917318e-13 0 0)
(-1.07631996e-12 0 0)
(-5.59319506e-13 0 0)
(-6.54495118e-13 0 0)
(-6.28933526e-13 0 0)
(-1.17788391e-12 0 0)
(4.92514279e-14 0 0)
(-1.256133e-13 0 0)
(-1.10732385e-12 0 0)
(-3.20185638e-13 0 0)
(-3.58678418e-13 0 0)
(3.27423693e-13 0 0)
(1.39523037e-13 0 0)
(1.21464264e-13 0 0)
(1.97650649e-13 0 0)
(9.585881e-13 0 0)
(1.21987324e-13 0 0)
(1.47580937e-12 0 0)
(4.37886584e-13 0 0)
(1.21552523e-12 0 0)
(6.5370489e-13 0 0)
(6.51481271e-13 0 0)
(8.86962338e-13 0 0)
(4.30285212e-13 0 0)
(2.50394385e-13 0 0)
(9.72373391e-13 0 0)
(1.22695941e-12 0 0)
(1.28247109e-12 0 0)
(4.13872636e-13 0 0)
(1.00264153e-13 0 0)
(1.00094413e-12 0 0)
(1.21408147e-12 0 0)
(-7.14936808e-14 0 0)
(-6.94301891e-15 0 0)
(4.99746665e-13 0 0)
(1.21000815e-13 0 0)
(4.97727949e-13 0 0)
(6.83013217e-13 0 0)
(5.6518283e-13 0 0)
(-2.20041074e-13 0 0)
(7.74753419e-14 0 0)
(9.10711401e-13 0 0)
(4.14584339e-13 0 0)
(1.15597672e-12 0 0)
(7.92063334e-13 0 0)
(7.81227652e-13 0 0)
(9.91992477e-13 0 0)
(4.40931652e-13 0 0)
(5.85867492e-13 0 0)
(8.66815247e-13 0 0)
(-8.92543151e-14 0 0)
(5.03050599e-13 0 0)
(6.21615653e-13 0 0)
(5.13945944e-13 0 0)
(5.96730354e-13 0 0)
(5.97672262e-13 0 0)
(2.67527651e-13 0 0)
(5.56905416e-13 0 0)
(6.63162323e-13 0 0)
(3.50664809e-13 0 0)
(5.60864801e-13 0 0)
(4.40114903e-13 0 0)
(1.39380001e-12 0 0)
(6.63856852e-13 0 0)
(5.6409683e-13 0 0)
(1.10554064e-12 0 0)
(3.0499226e-14 0 0)
(-1.04783167e-14 0 0)
(3.29053926e-13 0 0)
(-5.06819932e-13 0 0)
(-3.08405937e-13 0 0)
(-4.41578702e-13 0 0)
(-6.5681371e-17 0 0)
(-8.03034672e-13 0 0)
(2.41765136e-13 0 0)
(-2.92776435e-13 0 0)
(-1.99423248e-13 0 0)
(-2.88777804e-14 0 0)
(6.08774672e-13 0 0)
(-8.5010571e-14 0 0)
(-5.28037278e-13 0 0)
(-3.57667274e-13 0 0)
(-6.95951828e-13 0 0)
(-6.91472805e-13 0 0)
(-6.85449943e-13 0 0)
(-5.94010475e-13 0 0)
(-1.55429223e-13 0 0)
(3.36821448e-13 0 0)
(2.4356763e-15 0 0)
(6.99621179e-13 0 0)
(-4.84429835e-13 0 0)
(-1.68936729e-13 0 0)
(-1.14247767e-12 0 0)
(-4.79802977e-14 0 0)
(-9.70294628e-13 0 0)
(-1.36145387e-12 0 0)
(-9.55898293e-13 0 0)
(-1.98761046e-12 0 0)
(-1.29575654e-12 0 0)
(-1.3416517e-12 0 0)
(-1.5238769e-12 0 0)
(-9.14987401e-13 0 0)
(-1.52794173e-12 0 0)
(-1.56869702e-12 0 0)
(7.49501614e-14 0 0)
(-8.81807729e-13 0 0)
(-3.76307568e-13 0 0)
(-1.31537904e-12 0 0)
(-1.23701923e-12 0 0)
(-7.62930269e-13 0 0)
(-6.43771372e-13 0 0)
(-5.9604707e-13 0 0)
(-3.22335074e-13 0 0)
(-7.25583452e-13 0 0)
(-4.81265286e-13 0 0)
(-9.32409571e-13 0 0)
(-1.07451508e-12 0 0)
(-1.34311356e-12 0 0)
(-1.04391918e-12 0 0)
(-1.66238345e-12 0 0)
(-1.88466664e-12 0 0)
(-1.28270021e-12 0 0)
(-1.15599498e-12 0 0)
(-2.43951264e-12 0 0)
(-1.7093954e-12 0 0)
(-2.32434653e-12 0 0)
(-2.59598325e-12 0 0)
(-1.19724653e-12 0 0)
(-1.63399352e-12 0 0)
(-8.20547581e-13 0 0)
(-1.23407196e-12 0 0)
(-3.36204745e-13 0 0)
(-4.25022423e-13 0 0)
(-5.80504742e-13 0 0)
(-3.8810696e-13 0 0)
(-3.39311788e-13 0 0)
(-6.73287256e-13 0 0)
(-2.79047923e-13 0 0)
(3.97254578e-15 0 0)
(-6.49432626e-13 0 0)
(-5.65612652e-13 0 0)
(-6.71190875e-13 0 0)
(-3.56937751e-13 0 0)
(-6.92056662e-13 0 0)
(-1.09101001e-12 0 0)
(-9.2333818e-13 0 0)
(-1.15611672e-12 0 0)
(-1.27287483e-12 0 0)
(1.18546771e-13 0 0)
(-7.559494e-13 0 0)
(-1.0357992e-12 0 0)
(-4.39123588e-13 0 0)
(-1.30259899e-12 0 0)
(-5.72610756e-13 0 0)
(-2.27423373e-13 0 0)
(-1.1046241e-12 0 0)
(-6.4280502e-13 0 0)
(-6.68989303e-13 0 0)
(-6.31313702e-13 0 0)
(-6.97319034e-13 0 0)
(-4.03833144e-13 0 0)
(-6.62169556e-13 0 0)
(-1.55421825e-13 0 0)
(-5.90238834e-13 0 0)
(8.15380961e-14 0 0)
(-4.35756152e-13 0 0)
(8.47397005e-14 0 0)
(3.65197319e-13 0 0)
(-8.66866969e-14 0 0)
(-6.21590383e-13 0 0)
(-3.01571908e-13 0 0)
(7.44540287e-13 0 0)
(-1.53305113e-13 0 0)
(7.78532395e-13 0 0)
(6.28245776e-13 0 0)
(7.17358395e-13 0 0)
(9.35814122e-13 0 0)
(4.38354193e-13 0 0)
(5.4688344e-13 0 0)
(6.12443484e-13 0 0)
(2.99091408e-13 0 0)
(6.78641504e-14 0 0)
(1.78190004e-13 0 0)
(-1.01597425e-12 0 0)
(1.90750184e-13 0 0)
(3.68228802e-14 0 0)
(2.79232211e-13 0 0)
(-5.71891247e-13 0 0)
(-3.82891721e-13 0 0)
(-6.64439963e-13 0 0)
(-1.03623411e-12 0 0)
(-4.45696655e-14 0 0)
(-3.52958459e-13 0 0)
(-6.77926004e-13 0 0)
(-1.51916206e-13 0 0)
(-3.76990799e-13 0 0)
(1.20558523e-14 0 0)
(8.7094612e-13 0 0)
(5.17958555e-14 0 0)
(-5.88111847e-13 0 0)
(-3.66665271e-13 0 0)
(-5.08507293e-13 0 0)
(-3.33243441e-13 0 0)
(-5.66183585e-13 0 0)
(-5.51398757e-13 0 0)
(-8.02669195e-13 0 0)
(-6.3755129e-13 0 0)
(-1.03437518e-12 0 0)
(-8.60374309e-13 0 0)
(1.55653986e-13 0 0)
(-5.79244542e-13 0 0)
(-9.52748459e-13 0 0)
(-2.49569863e-13 0 0)
(-9.42535213e-14 0 0)
(-1.38035792e-14 0 0)
(-1.64356252e-14 0 0)
(-6.23138081e-13 0 0)
(4.91697317e-14 0 0)
(4.70715577e-13 0 0)
(-1.92759067e-13 0 0)
(5.26488226e-13 0 0)
(1.01035222e-13 0 0)
(3.9026821e-13 0 0)
(1.06500235e-12 0 0)
(-2.2099238e-13 0 0)
(-6.25830175e-13 0 0)
(-2.75971601e-13 0 0)
(5.67020952e-13 0 0)
(3.47065427e-14 0 0)
(-2.19633539e-13 0 0)
(8.2134166e-15 0 0)
(2.46776738e-13 0 0)
(6.22472025e-13 0 0)
(2.24582548e-13 0 0)
(8.70593703e-13 0 0)
(5.73859909e-13 0 0)
(1.04502439e-14 0 0)
(1.17376822e-12 0 0)
(2.77568126e-13 0 0)
(-2.71909432e-13 0 0)
(8.53406844e-13 0 0)
(2.9890787e-13 0 0)
(7.94226984e-16 0 0)
(9.13060118e-13 0 0)
(8.88628496e-13 0 0)
(9.30704979e-13 0 0)
(-2.01615116e-13 0 0)
(1.22887476e-13 0 0)
(3.50049789e-14 0 0)
(1.90592784e-13 0 0)
(-4.43050993e-13 0 0)
(-8.61905499e-14 0 0)
(-1.12552179e-12 0 0)
(-7.15803227e-13 0 0)
(-9.06896957e-13 0 0)
(-5.20066773e-14 0 0)
(2.23322908e-14 0 0)
(8.65908107e-14 0 0)
(-2.21525954e-13 0 0)
(-2.38358509e-13 0 0)
(-1.01150554e-13 0 0)
(-5.73104712e-13 0 0)
(-1.19886896e-12 0 0)
(-3.90784424e-13 0 0)
(-5.59841365e-13 0 0)
(-7.54231141e-13 0 0)
(-4.60128436e-13 0 0)
(-2.89257062e-16 0 0)
(3.79236442e-14 0 0)
(2.30691177e-13 0 0)
(1.63704178e-13 0 0)
(-1.07023888e-14 0 0)
(1.26769006e-13 0 0)
(8.10253635e-13 0 0)
(4.84487356e-13 0 0)
(5.14008208e-13 0 0)
(1.05427337e-13 0 0)
(5.59367962e-13 0 0)
(5.85676717e-13 0 0)
(-2.53165925e-13 0 0)
(-1.86511397e-13 0 0)
(6.44363569e-13 0 0)
(1.24907766e-12 0 0)
(1.13336062e-13 0 0)
(7.13757574e-13 0 0)
(9.45955423e-13 0 0)
(6.26136894e-13 0 0)
(6.42369946e-13 0 0)
(8.93745527e-13 0 0)
(5.91018652e-13 0 0)
(2.37352877e-13 0 0)
(6.6051923e-13 0 0)
(-1.87580025e-13 0 0)
(-5.53425449e-14 0 0)
(-2.24992139e-13 0 0)
(2.84247019e-13 0 0)
(-2.18997251e-13 0 0)
(-6.36093819e-13 0 0)
(-7.11091251e-14 0 0)
(-1.030324e-12 0 0)
(-6.45149601e-13 0 0)
(-4.78760976e-13 0 0)
(-4.43161816e-13 0 0)
(-1.74488292e-13 0 0)
(8.96243551e-14 0 0)
(-3.25743372e-13 0 0)
(-1.98449455e-13 0 0)
(3.23442552e-13 0 0)
(-9.94521038e-14 0 0)
(-1.0013247e-13 0 0)
(-1.17163847e-12 0 0)
(-1.27306417e-12 0 0)
(-8.9107359e-13 0 0)
(-1.0461435e-12 0 0)
(-1.40857568e-12 0 0)
(-6.38936663e-13 0 0)
(-9.45164839e-13 0 0)
(-7.91716241e-14 0 0)
(-2.85683096e-13 0 0)
(-8.8411805e-13 0 0)
(-9.71059374e-13 0 0)
(-5.67527012e-14 0 0)
(-2.60110701e-13 0 0)
(6.18870208e-13 0 0)
(-3.15958397e-13 0 0)
(2.59706419e-13 0 0)
(-1.97196501e-13 0 0)
(-2.15472376e-13 0 0)
(3.67222213e-13 0 0)
(1.17967147e-13 0 0)
(-2.42729246e-13 0 0)
(9.42799131e-13 0 0)
(6.41456771e-13 0 0)
(5.36513084e-13 0 0)
(2.73548776e-13 0 0)
(5.8110465e-13 0 0)
(3.2099707e-13 0 0)
(7.45897435e-13 0 0)
(9.65532759e-13 0 0)
(1.47515805e-12 0 0)
(1.38155896e-13 0 0)
(3.52056219e-13 0 0)
(3.63341992e-13 0 0)
(6.82705404e-13 0 0)
(8.21482727e-14 0 0)
(6.1593528e-14 0 0)
(5.82299979e-13 0 0)
(-6.36102299e-13 0 0)
(-2.17677984e-14 0 0)
(-8.51381353e-14 0 0)
(-8.06543139e-13 0 0)
(-5.9807523e-13 0 0)
(-6.06862419e-13 0 0)
(-6.48899976e-13 0 0)
(-1.47372323e-12 0 0)
(-6.71330439e-13 0 0)
(-1.00862134e-12 0 0)
(-3.67103558e-13 0 0)
(-5.88110269e-13 0 0)
(2.27822103e-13 0 0)
(-4.19940461e-14 0 0)
(-5.55873789e-13 0 0)
(-3.47928353e-13 0 0)
(-7.31670385e-13 0 0)
(-1.62830899e-12 0 0)
(-1.5306255e-12 0 0)
(-6.87703636e-13 0 0)
(-4.08038428e-13 0 0)
(-3.26848646e-13 0 0)
(-6.16275723e-13 0 0)
(-1.00055339e-13 0 0)
(4.33298334e-14 0 0)
(-6.56531779e-13 0 0)
(3.73646636e-13 0 0)
(2.81847973e-13 0 0)
(8.33700694e-14 0 0)
(6.26544775e-13 0 0)
(2.63527525e-13 0 0)
(8.35828082e-14 0 0)
(2.69969913e-13 0 0)
(3.37516192e-14 0 0)
(3.08266091e-13 0 0)
(3.83737233e-13 0 0)
(3.85795321e-13 0 0)
(9.58765178e-13 0 0)
(7.10435729e-13 0 0)
(1.52990409e-12 0 0)
(4.4261513e-13 0 0)
(3.33995396e-13 0 0)
(9.81554022e-13 0 0)
(6.14905966e-13 0 0)
(8.14323625e-13 0 0)
(3.60644485e-13 0 0)
(1.46558162e-12 0 0)
(4.73806323e-13 0 0)
(6.38909466e-13 0 0)
(9.29387175e-13 0 0)
(1.0071903e-12 0 0)
(1.42431697e-13 0 0)
(9.43196761e-13 0 0)
(8.73141075e-13 0 0)
(6.63190434e-13 0 0)
(3.05619394e-13 0 0)
(1.10492508e-12 0 0)
(4.1341819e-13 0 0)
(1.51934609e-12 0 0)
(9.02313626e-13 0 0)
(1.32584602e-12 0 0)
(6.99425685e-13 0 0)
(3.5411966e-13 0 0)
(1.2957132e-12 0 0)
(7.7274867e-13 0 0)
(1.72287198e-13 0 0)
(8.71681937e-13 0 0)
(-3.13944755e-13 0 0)
(2.48551435e-13 0 0)
(6.57826655e-13 0 0)
(-1.93803411e-13 0 0)
(3.83693123e-13 0 0)
(4.66085448e-13 0 0)
(4.15830566e-13 0 0)
(-4.15030832e-15 0 0)
(4.00074349e-13 0 0)
(-1.97571272e-14 0 0)
(-2.5757361e-13 0 0)
(-4.6132074e-13 0 0)
(-7.58974744e-13 0 0)
(-8.73276035e-13 0 0)
(-9.76381732e-13 0 0)
(-4.48060764e-13 0 0)
(-1.27187767e-12 0 0)
(-1.2349294e-12 0 0)
(-2.17440247e-13 0 0)
(-9.27961597e-13 0 0)
(-1.25929362e-12 0 0)
(1.92465002e-14 0 0)
(4.44287185e-13 0 0)
(-2.20483766e-13 0 0)
(-9.63713777e-14 0 0)
(1.06278742e-14 0 0)
(-3.41690296e-13 0 0)
(-3.86667614e-14 0 0)
(-6.94089987e-14 0 0)
(-3.10048129e-13 0 0)
(-3.09151297e-13 0 0)
(-1.05224775e-13 0 0)
(-8.22272478e-13 0 0)
(-2.49174287e-13 0 0)
(-1.12755509e-12 0 0)
(-6.71558786e-14 0 0)
(-8.89672087e-13 0 0)
(-1.54698182e-13 0 0)
(-2.83914998e-13 0 0)
(2.72117151e-13 0 0)
(5.00885901e-13 0 0)
(-2.01571558e-13 0 0)
(5.64127211e-13 0 0)
(-3.55258147e-14 0 0)
(-1.79750498e-13 0 0)
(3.7383059e-13 0 0)
(6.18880814e-13 0 0)
(-2.65395668e-13 0 0)
(-2.57629914e-13 0 0)
(5.52683001e-13 0 0)
(-5.83104582e-14 0 0)
(-9.44484213e-14 0 0)
(1.65903858e-13 0 0)
(-1.12080423e-13 0 0)
(-2.50255712e-13 0 0)
(4.46866201e-13 0 0)
(-6.26841208e-13 0 0)
(3.17764044e-13 0 0)
(-3.23725562e-13 0 0)
(-3.57596928e-13 0 0)
(-3.66391344e-13 0 0)
(4.21476513e-13 0 0)
(2.50614586e-13 0 0)
(-2.9216809e-13 0 0)
(-3.01072896e-13 0 0)
(-7.39639449e-14 0 0)
(-8.36897238e-13 0 0)
(-4.36754968e-13 0 0)
(-6.14678939e-13 0 0)
(-3.35037288e-13 0 0)
(-8.81989285e-13 0 0)
(1.81846452e-13 0 0)
(9.62658579e-13 0 0)
(3.52150778e-13 0 0)
(6.05936369e-13 0 0)
(6.20274242e-13 0 0)
(3.09200063e-13 0 0)
(6.28743587e-13 0 0)
(8.04153205e-13 0 0)
(-5.71218615e-13 0 0)
(7.83176542e-13 0 0)
(6.14953292e-13 0 0)
(2.5545263e-14 0 0)
(2.83324123e-13 0 0)
(4.44511351e-13 0 0)
(6.23793772e-13 0 0)
(6.86282649e-13 0 0)
(8.37171341e-14 0 0)
(-2.99983555e-13 0 0)
(3.78073804e-14 0 0)
(2.9393843e-14 0 0)
(7.65503473e-13 0 0)
(1.02138432e-12 0 0)
(1.31566991e-12 0 0)
(1.87592587e-13 0 0)
(8.33421026e-13 0 0)
(1.24806058e-12 0 0)
(7.54076044e-13 0 0)
(1.24165308e-12 0 0)
(1.66064869e-13 0 0)
(4.10114339e-13 0 0)
(1.03461328e-12 0 0)
(1.29261549e-12 0 0)
(1.29959584e-12 0 0)
(1.02326109e-12 0 0)
(5.60903932e-13 0 0)
(4.16781635e-13 0 0)
(1.38492091e-12 0 0)
(4.5689867e-13 0 0)
(8.07141535e-13 0 0)
(1.01776144e-12 0 0)
(5.91917205e-13 0 0)
(8.26962573e-13 0 0)
(1.34429239e-13 0 0)
(4.32232453e-15 0 0)
(-2.40683774e-13 0 0)
(-5.72083832e-13 0 0)
(-2.68373391e-13 0 0)
(-5.20710325e-13 0 0)
(-4.92298904e-15 0 0)
(-2.24730044e-13 0 0)
(3.88884408e-13 0 0)
(3.69128965e-13 0 0)
(9.07091441e-14 0 0)
(6.67253605e-13 0 0)
(-1.23715459e-13 0 0)
(1.82517917e-13 0 0)
(4.08459429e-13 0 0)
(9.21781057e-14 0 0)
(-2.78340119e-14 0 0)
(1.25862405e-13 0 0)
(2.58609648e-13 0 0)
(-5.10249869e-13 0 0)
(-5.55508415e-14 0 0)
(-7.74293939e-14 0 0)
(-3.28255828e-13 0 0)
(2.75841315e-13 0 0)
(2.25732906e-13 0 0)
(2.80310798e-14 0 0)
(2.98789808e-13 0 0)
(2.11312254e-13 0 0)
(3.66116659e-13 0 0)
(1.09473572e-12 0 0)
(4.95319123e-13 0 0)
(1.05896913e-12 0 0)
(1.03177938e-13 0 0)
(2.16303516e-13 0 0)
(2.57778399e-13 0 0)
(-2.3962898e-13 0 0)
(1.11027155e-12 0 0)
(4.75032495e-14 0 0)
(8.58786933e-13 0 0)
(-4.94100167e-13 0 0)
(3.21288621e-13 0 0)
(3.31906873e-13 0 0)
(3.16467047e-13 0 0)
(3.93991296e-13 0 0)
(4.41392295e-13 0 0)
(7.66141619e-13 0 0)
(-4.18808462e-13 0 0)
(-1.11024732e-13 0 0)
(-5.06170287e-13 0 0)
(-2.9859803e-13 0 0)
(5.04777097e-14 0 0)
(1.84063771e-14 0 0)
(-2.23403846e-13 0 0)
(-3.87370078e-14 0 0)
(-5.16543511e-13 0 0)
(4.64579274e-13 0 0)
(1.17495927e-13 0 0)
(-4.21353015e-13 0 0)
(-2.79798241e-13 0 0)
(-5.35267185e-14 0 0)
(5.45602111e-13 0 0)
(7.88203307e-14 0 0)
(5.26260637e-14 0 0)
(6.14462884e-13 0 0)
(9.85981521e-13 0 0)
(3.67459799e-14 0 0)
(-2.87769926e-13 0 0)
(4.27085409e-13 0 0)
(5.88785013e-13 0 0)
(9.18004178e-14 0 0)
(7.23129897e-13 0 0)
(3.32918664e-13 0 0)
(3.33791212e-13 0 0)
(-2.25321703e-13 0 0)
(-3.17243389e-15 0 0)
(3.90495338e-13 0 0)
(1.5683779e-13 0 0)
(-1.32301011e-13 0 0)
(5.03584469e-13 0 0)
(-2.44702394e-13 0 0)
(2.75168096e-13 0 0)
(3.93829321e-13 0 0)
(8.53911068e-13 0 0)
(1.04857736e-12 0 0)
(6.34230215e-13 0 0)
(3.80226804e-13 0 0)
(6.50186498e-13 0 0)
(3.25538012e-13 0 0)
(5.46606741e-13 0 0)
(9.81412012e-13 0 0)
(1.20358003e-12 0 0)
(6.86178917e-13 0 0)
(2.63760246e-13 0 0)
(3.08616779e-13 0 0)
(-7.84687312e-14 0 0)
(-5.20329415e-13 0 0)
(2.03894767e-13 0 0)
(-7.86667156e-13 0 0)
(-8.96024487e-14 0 0)
(-9.66078995e-13 0 0)
(-6.18934446e-13 0 0)
(-9.52220293e-13 0 0)
(-1.30169796e-12 0 0)
(-1.29304333e-12 0 0)
(-1.31589816e-12 0 0)
(-1.87261529e-12 0 0)
(-2.00174211e-12 0 0)
(-7.80222739e-13 0 0)
(-1.58474501e-12 0 0)
(-1.06756983e-12 0 0)
(-7.35607297e-13 0 0)
(-1.5417315e-12 0 0)
(-7.42199268e-13 0 0)
(-6.69296516e-13 0 0)
(-1.30169145e-12 0 0)
(-7.20942193e-13 0 0)
(-7.99803975e-13 0 0)
(-9.2754534e-13 0 0)
(-6.64540937e-13 0 0)
(-3.85593133e-13 0 0)
(-3.23513385e-13 0 0)
(-1.78882395e-13 0 0)
(-7.70777514e-13 0 0)
(-1.16354985e-13 0 0)
(-3.11457717e-14 0 0)
(-8.54691409e-13 0 0)
(-3.47637033e-13 0 0)
(-9.09230589e-13 0 0)
(-1.17146816e-12 0 0)
(-9.39771188e-13 0 0)
(-5.87762773e-13 0 0)
(-5.64109184e-13 0 0)
(-3.82052608e-13 0 0)
(-3.69092184e-13 0 0)
(-4.80314081e-13 0 0)
(-2.15431205e-14 0 0)
(1.66641307e-13 0 0)
(4.41737975e-13 0 0)
(-2.84981091e-13 0 0)
(-2.98561016e-13 0 0)
(2.47808833e-13 0 0)
(-8.36665641e-14 0 0)
(2.38643965e-13 0 0)
(2.1545583e-13 0 0)
(2.35462158e-14 0 0)
(2.83086695e-13 0 0)
(-2.3278556e-13 0 0)
(-7.94084365e-14 0 0)
(-2.52490308e-13 0 0)
(-1.77766543e-13 0 0)
(8.56726382e-13 0 0)
(1.21071112e-12 0 0)
(2.09926401e-13 0 0)
(-3.36644775e-13 0 0)
(2.32133834e-13 0 0)
(6.63707275e-13 0 0)
(1.14406674e-12 0 0)
(4.1935282e-13 0 0)
(7.20697644e-13 0 0)
(-1.70837305e-13 0 0)
(4.6964472e-13 0 0)
(8.09787905e-13 0 0)
(9.34841897e-13 0 0)
(6.64264489e-13 0 0)
(4.7144289e-14 0 0)
(-2.61804581e-14 0 0)
(4.9244787e-13 0 0)
(3.74065906e-13 0 0)
(5.1997517e-13 0 0)
(5.69656843e-14 0 0)
(2.58060667e-13 0 0)
(-1.60971361e-13 0 0)
(3.38002854e-13 0 0)
(4.56461799e-13 0 0)
(6.32267639e-13 0 0)
(-2.04948373e-13 0 0)
(7.0609174e-14 0 0)
(-5.30234565e-13 0 0)
(-5.80846811e-13 0 0)
(-5.66146334e-13 0 0)
(-6.48016081e-13 0 0)
(-5.09403841e-13 0 0)
(8.11650516e-15 0 0)
(-1.11530417e-12 0 0)
(3.58097394e-13 0 0)
(3.39798582e-13 0 0)
(8.3338855e-13 0 0)
(-5.62928738e-13 0 0)
(-1.59040561e-14 0 0)
(-3.36115334e-13 0 0)
(4.78933722e-13 0 0)
(7.65765098e-14 0 0)
(1.39816885e-12 0 0)
(-1.01840604e-13 0 0)
(1.1411586e-12 0 0)
(6.06411916e-13 0 0)
(6.45892161e-13 0 0)
(2.57314253e-13 0 0)
(3.85807939e-13 0 0)
(6.12192783e-13 0 0)
(-2.46044257e-13 0 0)
(3.02959688e-13 0 0)
(1.05915709e-13 0 0)
(6.04732894e-13 0 0)
(2.24099967e-13 0 0)
(-2.06041279e-13 0 0)
(-3.28050414e-13 0 0)
(2.24232947e-13 0 0)
(5.87348419e-13 0 0)
(-3.06672505e-13 0 0)
(-3.78664135e-13 0 0)
(-3.71782086e-15 0 0)
(-1.59896423e-14 0 0)
(-6.02202667e-13 0 0)
(-9.70594677e-13 0 0)
(-3.31515761e-13 0 0)
(5.96152166e-13 0 0)
(-2.23515115e-13 0 0)
(-3.21186484e-13 0 0)
(-1.42254466e-13 0 0)
(-1.00809491e-13 0 0)
(-1.53828798e-12 0 0)
(-6.81355819e-13 0 0)
(-7.00960831e-13 0 0)
(-6.08105068e-13 0 0)
(-8.95884293e-13 0 0)
(-3.57334091e-13 0 0)
(-6.34809272e-13 0 0)
(-9.68857639e-13 0 0)
(-9.13514793e-13 0 0)
(-6.91035515e-13 0 0)
(-2.13745735e-13 0 0)
(-5.35934685e-13 0 0)
(-3.28303678e-13 0 0)
(-9.1450305e-13 0 0)
(-9.21728984e-13 0 0)
(-6.86507963e-13 0 0)
(2.08889919e-13 0 0)
(1.17025048e-13 0 0)
(2.49535046e-13 0 0)
(9.44177866e-13 0 0)
(7.16023499e-13 0 0)
(3.83460681e-13 0 0)
(8.82943145e-13 0 0)
(6.35578902e-13 0 0)
(9.57109612e-13 0 0)
(3.68357353e-13 0 0)
(6.42785844e-13 0 0)
(6.63526943e-13 0 0)
(7.94179762e-14 0 0)
(1.21478132e-12 0 0)
(4.92567037e-13 0 0)
(6.34394244e-13 0 0)
(5.17118775e-13 0 0)
(9.48272741e-13 0 0)
(-1.43825911e-13 0 0)
(-7.74068865e-13 0 0)
(4.10615422e-13 0 0)
(6.31062422e-13 0 0)
(7.24225461e-13 0 0)
(1.24256972e-12 0 0)
(1.65733461e-13 0 0)
(2.41619669e-13 0 0)
(4.18382251e-13 0 0)
(1.04092523e-12 0 0)
(1.23261192e-12 0 0)
(1.39426417e-12 0 0)
(1.08890279e-12 0 0)
(1.69447964e-12 0 0)
(2.15583457e-12 0 0)
(1.24557415e-12 0 0)
(1.26039519e-12 0 0)
(1.36088241e-12 0 0)
(1.93609847e-12 0 0)
(1.33156645e-12 0 0)
(1.4594319e-12 0 0)
(8.57521822e-13 0 0)
(1.94254905e-12 0 0)
(1.66170676e-12 0 0)
(1.50004892e-12 0 0)
(1.97299303e-12 0 0)
(2.4999356e-12 0 0)
(1.77631986e-12 0 0)
(2.5402593e-12 0 0)
(1.66495665e-12 0 0)
(1.13061162e-12 0 0)
(1.52443803e-12 0 0)
(1.75195524e-12 0 0)
(9.71673264e-13 0 0)
(1.1058842e-12 0 0)
(9.77272619e-13 0 0)
(8.75257176e-13 0 0)
(9.42772231e-13 0 0)
(6.78566494e-13 0 0)
(9.23587179e-13 0 0)
(4.35053746e-13 0 0)
(6.93177864e-13 0 0)
(4.22621884e-13 0 0)
(6.93604735e-13 0 0)
(3.93158009e-13 0 0)
(1.09355289e-12 0 0)
(1.14152667e-12 0 0)
(1.04002735e-12 0 0)
(7.14999516e-13 0 0)
(1.37255833e-12 0 0)
(1.09535317e-13 0 0)
(3.36664811e-13 0 0)
(4.10762663e-13 0 0)
(-4.82953864e-14 0 0)
(-2.3682738e-13 0 0)
(-1.1029062e-13 0 0)
(-2.21672237e-13 0 0)
(-1.01555233e-12 0 0)
(-1.01715078e-12 0 0)
(-1.33571342e-12 0 0)
(-1.92850806e-12 0 0)
(-1.19796955e-12 0 0)
(-2.03079254e-12 0 0)
(-1.39589998e-12 0 0)
(-1.87905038e-12 0 0)
(-1.74443095e-12 0 0)
(-1.59318922e-12 0 0)
(-1.91041829e-12 0 0)
(-9.59804691e-13 0 0)
(-6.41319058e-13 0 0)
(-8.86423296e-13 0 0)
(-7.22459927e-13 0 0)
(-1.81408664e-12 0 0)
(-1.64899138e-12 0 0)
(-1.28913429e-12 0 0)
(-5.59281898e-13 0 0)
(-9.67409593e-13 0 0)
(-1.70023638e-12 0 0)
(-1.12381127e-12 0 0)
(-1.37962173e-12 0 0)
(-9.87347977e-13 0 0)
(-1.64328387e-12 0 0)
(-1.01310272e-12 0 0)
(-9.73110775e-13 0 0)
(-6.38428628e-13 0 0)
(-3.36915963e-13 0 0)
(4.87752705e-14 0 0)
(3.20829484e-13 0 0)
(1.29183069e-12 0 0)
(1.46786371e-12 0 0)
(1.04389259e-12 0 0)
(1.47227171e-12 0 0)
(7.11333032e-13 0 0)
(1.27571536e-12 0 0)
(6.49798048e-13 0 0)
(1.52745342e-12 0 0)
(1.26300786e-12 0 0)
(1.04218186e-12 0 0)
(1.19857586e-12 0 0)
(1.29931028e-12 0 0)
(7.52806318e-13 0 0)
(8.06472579e-13 0 0)
(1.66932926e-12 0 0)
(1.47987305e-12 0 0)
(1.99735675e-12 0 0)
(1.22339938e-12 0 0)
(1.65399965e-12 0 0)
(1.66768585e-12 0 0)
(7.30935365e-13 0 0)
(1.3071694e-12 0 0)
(5.48482458e-13 0 0)
(1.06540568e-12 0 0)
(1.44047158e-12 0 0)
(1.01951766e-12 0 0)
(1.04837779e-12 0 0)
(6.33714775e-13 0 0)
(6.88922438e-13 0 0)
(1.03521141e-12 0 0)
(4.46065442e-13 0 0)
(3.67457479e-13 0 0)
(2.42617843e-13 0 0)
(-1.26369884e-13 0 0)
(-9.25078108e-13 0 0)
(4.40691163e-13 0 0)
(-7.73175271e-13 0 0)
(-3.82145581e-13 0 0)
(-2.96562964e-13 0 0)
(-2.35444163e-13 0 0)
(-1.14947987e-12 0 0)
(-9.37258985e-14 0 0)
(-6.90758293e-13 0 0)
(-8.66030028e-13 0 0)
(-9.3523295e-13 0 0)
(-3.84736546e-13 0 0)
(-5.79636134e-13 0 0)
(-4.56685858e-14 0 0)
(-5.31113408e-13 0 0)
(-8.93653565e-14 0 0)
(-2.69197531e-13 0 0)
(-9.79973551e-14 0 0)
(-2.43999644e-13 0 0)
(6.59965039e-13 0 0)
(8.3585175e-13 0 0)
(1.57973824e-13 0 0)
(-7.51385745e-13 0 0)
(1.678626e-13 0 0)
(-6.1562121e-13 0 0)
(2.53811796e-13 0 0)
(-9.58442445e-14 0 0)
(-1.40763024e-13 0 0)
(-6.48578339e-13 0 0)
(-1.24609393e-12 0 0)
(-7.15792393e-13 0 0)
(-5.34323589e-13 0 0)
(-1.51474602e-12 0 0)
(-7.07243495e-13 0 0)
(1.39870906e-13 0 0)
(-1.44552385e-12 0 0)
(-1.05533752e-12 0 0)
(-4.66538916e-13 0 0)
(-8.72280077e-13 0 0)
(-6.5880625e-13 0 0)
(1.59629225e-13 0 0)
(-8.26234918e-13 0 0)
(-4.64625184e-13 0 0)
(-1.86656019e-14 0 0)
(-2.98604445e-13 0 0)
(7.95784176e-15 0 0)
(-1.42252019e-13 0 0)
(6.6050638e-15 0 0)
(-1.65640885e-13 0 0)
(-3.73225952e-14 0 0)
(-3.05106006e-13 0 0)
(3.21446231e-13 0 0)
(2.02350183e-13 0 0)
(1.31843984e-13 0 0)
(7.67900257e-13 0 0)
(5.16905108e-13 0 0)
(2.96389179e-13 0 0)
(1.40940652e-14 0 0)
(-1.12002644e-14 0 0)
(-4.41935886e-13 0 0)
(1.17155325e-14 0 0)
(1.39307968e-13 0 0)
(2.49431806e-13 0 0)
(2.60751194e-13 0 0)
(1.01124938e-12 0 0)
(1.05569771e-12 0 0)
(7.4120665e-13 0 0)
(1.35252445e-12 0 0)
(1.14790248e-12 0 0)
(1.08712892e-12 0 0)
(1.05038002e-12 0 0)
(6.30464106e-13 0 0)
(6.1336567e-13 0 0)
(6.11415256e-13 0 0)
(5.95594841e-13 0 0)
(5.66244749e-13 0 0)
(-5.81320444e-13 0 0)
(-3.40118839e-13 0 0)
(-2.20702187e-13 0 0)
(3.83954066e-13 0 0)
(-2.84086595e-13 0 0)
(-8.80857853e-13 0 0)
(-6.34303215e-13 0 0)
(-6.50026243e-13 0 0)
(-9.91416284e-13 0 0)
(-6.05333749e-13 0 0)
(-2.53444706e-13 0 0)
(-1.29422059e-12 0 0)
(-1.23240762e-12 0 0)
(-9.41697386e-13 0 0)
(-2.44733873e-13 0 0)
(-1.55056559e-12 0 0)
(-2.15957019e-12 0 0)
(-8.24822507e-13 0 0)
(-1.01749708e-12 0 0)
(-7.46638704e-13 0 0)
(-9.69530607e-13 0 0)
(-1.06165043e-12 0 0)
(-1.67092522e-12 0 0)
(-1.44363009e-12 0 0)
(-1.07916759e-12 0 0)
(-1.53830875e-12 0 0)
(-9.67266959e-13 0 0)
(-1.26162425e-12 0 0)
(-5.86915392e-13 0 0)
(-6.66210172e-13 0 0)
(-6.0435465e-13 0 0)
(-3.50086677e-13 0 0)
(-4.38104886e-13 0 0)
(-6.80686745e-13 0 0)
(-2.99105661e-13 0 0)
(-7.28833395e-13 0 0)
(-4.79618378e-13 0 0)
(-4.20462244e-13 0 0)
(-8.1361651e-13 0 0)
(-1.34587009e-12 0 0)
(-8.05361432e-13 0 0)
(-1.12739234e-12 0 0)
(-1.48200453e-12 0 0)
(-1.03557929e-12 0 0)
(-5.44604597e-13 0 0)
(-1.37892473e-12 0 0)
(-7.62806375e-13 0 0)
(-1.63182597e-12 0 0)
(9.44576841e-14 0 0)
(-9.06110875e-13 0 0)
(-6.58472977e-13 0 0)
(-6.54159256e-13 0 0)
(-4.32716535e-13 0 0)
(-4.47722873e-13 0 0)
(-6.09109497e-13 0 0)
(-4.3856833e-13 0 0)
(-9.09423304e-13 0 0)
(4.16705637e-13 0 0)
(-8.60793948e-13 0 0)
(-2.74617757e-13 0 0)
(-8.45539054e-13 0 0)
(8.15609812e-14 0 0)
(-6.18658571e-13 0 0)
(-7.9813932e-13 0 0)
(-5.95295018e-13 0 0)
(-1.37622981e-13 0 0)
(-2.95896969e-13 0 0)
(-3.01081252e-14 0 0)
(2.8190325e-13 0 0)
(3.92759012e-13 0 0)
(4.81679748e-13 0 0)
(2.44659746e-13 0 0)
(6.55843611e-13 0 0)
(1.09862018e-13 0 0)
(4.24203055e-13 0 0)
(4.31279907e-13 0 0)
(1.00974454e-12 0 0)
(1.31167469e-12 0 0)
(1.03736892e-12 0 0)
(9.58695571e-13 0 0)
(2.71997127e-13 0 0)
(8.45602441e-13 0 0)
(9.51893579e-13 0 0)
(6.3568507e-13 0 0)
(3.27819554e-13 0 0)
(-3.18384418e-13 0 0)
(5.80894736e-13 0 0)
(2.94789437e-13 0 0)
(-2.02029665e-13 0 0)
(1.20421568e-12 0 0)
(6.79214045e-13 0 0)
(5.02107034e-13 0 0)
(7.83742526e-13 0 0)
(6.28720504e-13 0 0)
(9.42815556e-14 0 0)
(6.03607495e-13 0 0)
(2.8294336e-13 0 0)
(3.44171868e-13 0 0)
(2.80320907e-13 0 0)
(-1.95244477e-13 0 0)
(1.10915781e-13 0 0)
(-7.07523267e-15 0 0)
(-4.45341939e-13 0 0)
(-8.8336334e-13 0 0)
(-1.22547359e-12 0 0)
(-1.02698046e-12 0 0)
(-1.21474149e-12 0 0)
(-1.49471132e-12 0 0)
(-1.00270856e-12 0 0)
(-1.83404803e-12 0 0)
(-6.55731357e-13 0 0)
(-1.84366659e-12 0 0)
(-4.31070768e-13 0 0)
(-1.5635543e-12 0 0)
(-1.33057484e-12 0 0)
(-1.17183179e-12 0 0)
(-2.22119665e-13 0 0)
(-5.50868467e-13 0 0)
(-9.81460861e-13 0 0)
(-4.32672107e-13 0 0)
(-1.24195598e-12 0 0)
(-1.35754846e-12 0 0)
(-1.01451611e-12 0 0)
(-2.46488992e-13 0 0)
(-7.0299121e-13 0 0)
(-1.15555118e-12 0 0)
(-7.66316416e-13 0 0)
(-6.63804423e-13 0 0)
(-8.74770956e-13 0 0)
(-1.37324899e-12 0 0)
(-3.0914175e-14 0 0)
(-9.96443819e-13 0 0)
(-5.99850299e-13 0 0)
(-6.80711202e-13 0 0)
(-8.37918331e-13 0 0)
(-1.57110523e-12 0 0)
(-1.63303232e-12 0 0)
(-9.63390856e-13 0 0)
(-9.3785051e-13 0 0)
(-6.33739285e-13 0 0)
(-3.12372295e-13 0 0)
(2.27123877e-13 0 0)
(-2.27775721e-13 0 0)
(-1.5528593e-13 0 0)
(-5.37827764e-14 0 0)
(-2.09037996e-13 0 0)
(2.66550999e-13 0 0)
(-3.11090837e-13 0 0)
(1.76432106e-14 0 0)
(-2.4366756e-14 0 0)
(4.13165697e-13 0 0)
(3.34500896e-13 0 0)
(9.34855762e-14 0 0)
(1.20048383e-12 0 0)
(6.61134176e-13 0 0)
(6.56438561e-13 0 0)
(2.72358085e-13 0 0)
(3.11176924e-13 0 0)
(1.74504773e-12 0 0)
(9.77649064e-14 0 0)
(7.88887243e-14 0 0)
(5.44924983e-13 0 0)
(4.49741548e-13 0 0)
(3.80831346e-13 0 0)
(6.48383567e-13 0 0)
(9.29682224e-13 0 0)
(6.79931965e-13 0 0)
(1.24033637e-12 0 0)
(6.57268635e-13 0 0)
(4.10864161e-13 0 0)
(5.45235652e-13 0 0)
(9.17158784e-13 0 0)
(9.86498733e-13 0 0)
(1.10035033e-12 0 0)
(2.62164655e-13 0 0)
(4.77175948e-13 0 0)
(6.52851561e-13 0 0)
(1.03866263e-12 0 0)
(9.41243554e-13 0 0)
(1.00957675e-12 0 0)
(1.26084197e-12 0 0)
(7.41716517e-13 0 0)