/*--------------------------------*- C++ -*----------------------------------*\
| =========                 |                                                 |
| \\      /  F ield         | OpenFOAM: The Open Source CFD Toolbox           |
|  \\    /   O peration     | Version:  2206                                  |
|   \\  /    A nd           | Website:  www.openfoam.com                      |
|    \\/     M anipulation  |                                                 |
\*---------------------------------------------------------------------------*/
FoamFile
{
    version     2.0;
    format      ascii;
    arch        "LSB;label=32;scalar=64";
    class       surfaceScalarField;
    location    "1.26e-05";
    object      phi;
}
// * * * * * * * * * * * * * * * * * * * * * * * * * * * * * * * * * * * * * //

dimensions      [1 0 -1 0 0 0 0];

oriented        oriented;

internalField   nonuniform List<scalar> 
3182
(
4.49739142e-18
-2.64162248e-18
-8.21216948e-19
-1.72187643e-18
-3.68263191e-21
-2.3906339e-23
-1.72245108e-24
1.54127995e-29
2.04218557e-24
3.99739334e-23
3.76039977e-21
2.83253016e-18
3.5288261e-18
-5.40583454e-19
1.75593264e-18
-8.32189519e-19
-2.86822022e-18
-5.18954198e-18
-3.3251515e-18
4.44529741e-18
5.35422008e-20
7.11172879e-22
4.69327724e-19
2.00960313e-18
3.43436103e-18
1.94895347e-18
4.20238647e-18
2.907412e-18
2.13043769e-18
8.15718991e-19
-1.91787256e-18
-3.91611618e-18
-5.48853493e-18
-8.07808266e-18
-4.28864285e-18
-3.55057639e-18
-3.26589621e-18
-1.83675889e-18
-1.09483797e-18
-1.90194566e-18
-3.46382516e-18
-3.79039906e-18
-2.9303866e-18
-5.61250262e-19
1.77875314e-20
1.51555857e-18
2.70348261e-18
2.81110095e-18
3.57682117e-18
4.24018644e-18
6.30072952e-18
7.41094371e-18
9.55266566e-18
1.15022984e-17
1.38919799e-17
1.34738386e-17
1.38943098e-17
1.28161908e-17
1.21612334e-17
1.04189695e-17
8.47446431e-18
6.93021309e-18
5.37718049e-18
3.67217901e-18
1.13763796e-18
4.33769845e-20
-2.13976611e-18
-4.30352526e-18
-5.60458564e-18
-6.09489663e-18
-7.36659471e-18
-8.09922073e-18
-1.03291385e-17
-1.08944993e-17
-1.3498097e-17
-1.43705948e-17
-1.53369269e-17
-1.61609978e-17
-1.91242456e-17
-1.98842576e-17
-2.25355943e-17
-2.31232846e-17
-2.46429253e-17
-2.65165747e-17
-2.51965402e-17
-2.66470022e-17
-2.89099031e-17
-2.98347178e-17
-3.21155677e-17
-3.26305643e-17
-3.21936362e-17
-3.40867166e-17
-3.58786821e-17
-3.33788053e-17
-3.51118208e-17
-3.59768887e-17
-3.65844043e-17
-3.45651108e-17
-3.55223885e-17
-3.53343709e-17
-3.63659698e-17
-3.8754956e-17
-3.60585236e-17
-3.48469138e-17
-3.58488373e-17
-3.81509041e-17
-3.83534091e-17
-3.93907276e-17
-3.61696655e-17
-3.66592071e-17
-4.01480029e-17
-3.93635247e-17
-3.89603207e-17
-3.88612083e-17
-3.72645983e-17
-3.93684141e-17
-3.83417391e-17
-3.67309181e-17
-3.94215625e-17
-3.71042411e-17
-3.92356371e-17
-3.72068187e-17
-3.98218998e-17
-4.14386154e-17
-3.72020919e-17
-3.72952083e-17
-3.84055408e-17
-3.75098705e-17
-3.96911647e-17
-3.91987076e-17
-3.94379878e-17
-3.9115714e-17
-4.01429165e-17
-4.39713641e-17
-4.48714246e-17
-4.52363092e-17
-4.40478453e-17
-4.62773562e-17
-4.16388036e-17
-4.56994102e-17
-4.53350221e-17
-4.95525129e-17
-5.02627522e-17
-5.05154659e-17
-4.86418154e-17
-5.12501949e-17
-5.08134946e-17
-5.26728772e-17
-5.09064426e-17
-5.15938928e-17
-5.10955414e-17
-5.21473096e-17
-4.96863581e-17
-5.26974451e-17
-5.16204261e-17
-5.15859692e-17
-4.91017972e-17
-5.02103069e-17
-5.22188057e-17
-5.42866033e-17
-5.49528153e-17
-5.28933848e-17
-5.39916898e-17
-5.574169e-17
-5.60575244e-17
-5.75098035e-17
-5.82255531e-17
-5.88254836e-17
-5.67944524e-17
-5.77144343e-17
-6.24218626e-17
-6.3585907e-17
-6.45647747e-17
-6.08299153e-17
-5.95988451e-17
-6.15839591e-17
-6.17207051e-17
-6.26278118e-17
-6.1254173e-17
-6.3820174e-17
-6.65236062e-17
-6.61966054e-17
-7.00891415e-17
-6.70480153e-17
-6.59236595e-17
-6.99839882e-17
-6.99099701e-17
-7.2478506e-17
-7.11038965e-17
-7.38369119e-17
-7.40409377e-17
-7.14694305e-17
-6.91461487e-17
-7.14843777e-17
-7.35809489e-17
-7.44817095e-17
-7.44359962e-17
-7.33499008e-17
-7.50341911e-17
-7.54335883e-17
-7.84369621e-17
-7.83255123e-17
-7.78411936e-17
-7.955263e-17
-7.93562935e-17
-7.53357331e-17
-7.59106342e-17
-7.61876767e-17
-7.68368889e-17
-7.76137206e-17
-7.48787445e-17
-7.3045492e-17
-7.67846811e-17
-7.91756531e-17
-7.87152709e-17
-7.89677789e-17
-7.76571616e-17
-7.59275416e-17
-7.57479344e-17
-7.84251901e-17
-7.35936698e-17
-7.57515678e-17
-7.7817197e-17
-7.82367662e-17
-8.13078777e-17
-7.77822627e-17
-7.95642843e-17
-8.11545268e-17
-7.95854521e-17
-8.22722874e-17
-7.79543289e-17
-8.10345208e-17
-8.22874944e-17
-8.20681927e-17
-8.60946348e-17
-8.64906412e-17
-8.75446902e-17
-8.85688075e-17
-8.6067217e-17
-8.34115766e-17
-8.14380466e-17
-7.95064966e-17
-7.91049676e-17
-8.14269867e-17
-8.31087036e-17
-8.33950871e-17
-8.21626048e-17
-8.21125311e-17
-8.54674396e-17
-8.5902248e-17
-8.28676999e-17
-8.49730109e-17
-8.69020971e-17
-8.33091468e-17
-8.09133044e-17
-8.57806302e-17
-8.38315657e-17
-8.26847522e-17
-8.46472863e-17
-8.35069492e-17
-8.30456434e-17
-8.42831144e-17
-8.43837157e-17
-8.00574796e-17
-8.26764453e-17
-8.59876153e-17
-8.94076558e-17
-8.72747284e-17
-9.02701853e-17
-8.57210489e-17
-8.55689188e-17
-8.50379121e-17
-8.58775168e-17
-8.54928496e-17
-8.44343461e-17
-8.57192764e-17
-8.76772784e-17
-9.13627161e-17
-9.37801504e-17
-9.45439993e-17
-9.38976934e-17
-9.70862661e-17
-9.56857538e-17
-9.55872557e-17
-9.49650273e-17
-9.40470221e-17
-9.81238819e-17
-1.02175109e-16
-1.03433849e-16
-1.05709557e-16
-1.05156003e-16
-1.07676744e-16
-1.06244798e-16
-1.06901717e-16
-1.06831268e-16
-1.04021188e-16
-1.02823857e-16
-1.0218573e-16
-1.06320316e-16
-1.03624446e-16
-1.05672064e-16
-1.07600929e-16
-1.06180528e-16
-1.02499449e-16
-1.01831967e-16
-1.03494338e-16
-1.04627159e-16
-1.0507336e-16
-1.05502985e-16
-1.08865459e-16
-1.08552224e-16
-1.10244604e-16
-1.12987903e-16
-1.12639573e-16
-1.116253e-16
-1.12869872e-16
-1.16019609e-16
-1.14518451e-16
-1.11036768e-16
-1.1144838e-16
-1.12685473e-16
-1.10834316e-16
-1.15418772e-16
-1.12130697e-16
-1.13252854e-16
-1.12116898e-16
-1.09425905e-16
-1.06693427e-16
-1.071598e-16
-1.08219146e-16
-1.06848555e-16
-1.0652267e-16
-1.05166004e-16
-1.04914091e-16
-1.02038312e-16
-1.05670457e-16
-1.04556325e-16
-1.07459099e-16
-1.11393393e-16
-1.11810572e-16
-1.08910473e-16
-1.08072308e-16
-1.06208969e-16
-1.02010918e-16
-1.01112361e-16
-1.01382212e-16
-1.02430027e-16
-9.95725292e-17
-9.87108542e-17
-9.97908784e-17
-9.91347087e-17
-1.032407e-16
-1.02076067e-16
-1.0388144e-16
-1.04533001e-16
-1.05818151e-16
-1.04134686e-16
-1.03324246e-16
-1.04001517e-16
-1.02572941e-16
-1.01676234e-16
-1.02375885e-16
-1.04249181e-16
-1.05218845e-16
-1.04061634e-16
-1.03815937e-16
-1.03106249e-16
-1.0317738e-16
-1.01710491e-16
-1.05680448e-16
-1.07905071e-16
-1.023904e-16
-1.07847307e-16
-1.0149702e-16
-1.04654759e-16
-1.05471787e-16
-1.0556809e-16
-1.0797399e-16
-1.04330174e-16
-1.04720718e-16
-1.08192369e-16
-1.06937508e-16
-1.06337544e-16
-1.04033459e-16
-1.07655739e-16
-1.08076605e-16
-1.06405981e-16
-1.06142013e-16
-1.02575532e-16
-1.03518539e-16
-1.01101371e-16
-1.02905138e-16
-1.02876194e-16
-9.94260258e-17
-1.00455257e-16
-9.78489079e-17
-9.78069437e-17
-9.71135022e-17
-9.57190888e-17
-9.33837351e-17
-9.58032531e-17
-9.15871678e-17
-8.99868441e-17
-8.74017976e-17
-9.08776076e-17
-8.69118399e-17
-8.6069642e-17
-8.54823652e-17
-8.27628339e-17
-8.00875746e-17
-8.11284349e-17
-7.99204411e-17
-7.72366304e-17
-8.02803243e-17
-7.9361926e-17
-7.8643053e-17
-7.8450181e-17
-7.57953248e-17
-7.45813011e-17
-7.28292441e-17
-7.40434971e-17
-6.85950098e-17
-7.280034e-17
-7.27725086e-17
-6.97631221e-17
-6.85807033e-17
-6.9710168e-17
-6.82330296e-17
-6.69592735e-17
-7.13152487e-17
-6.82862338e-17
-6.65470704e-17
-6.62340457e-17
-6.38198241e-17
-6.54990401e-17
-6.58895264e-17
-6.61249669e-17
-6.56515551e-17
-6.44933502e-17
-6.43327586e-17
-6.27075674e-17
-6.13277818e-17
-6.39067099e-17
-6.41119336e-17
-6.37499147e-17
-6.51275352e-17
-6.76926533e-17
-6.76242874e-17
-6.93379679e-17
-6.50598896e-17
-6.16296208e-17
-6.27129434e-17
-6.19541661e-17
-6.01260531e-17
-6.08740131e-17
-6.14890866e-17
-6.10997574e-17
-6.2699675e-17
-6.31686337e-17
-6.12690157e-17
-5.95950173e-17
-5.75721766e-17
-5.59041278e-17
-5.83426001e-17
-5.7619474e-17
-5.62838352e-17
-5.3675033e-17
-5.00269043e-17
-4.91853605e-17
-5.12360959e-17
-4.98361707e-17
-5.33628261e-17
-5.13913277e-17
-5.12226189e-17
-5.25583128e-17
-5.13215297e-17
-5.18613013e-17
-5.5354932e-17
-5.20512513e-17
-5.3932536e-17
-5.27952038e-17
-5.28170937e-17
-5.35825391e-17
-5.19349437e-17
-4.92463565e-17
-5.03725133e-17
-5.30842633e-17
-5.2619353e-17
-5.25274907e-17
-5.40703703e-17
-5.46836684e-17
-5.69129786e-17
-5.57590091e-17
-5.43771489e-17
-5.50898696e-17
-5.81076496e-17
-5.44931201e-17
-5.13395781e-17
-5.28784524e-17
-4.96549342e-17
-4.91104533e-17
-4.61178179e-17
-4.46243041e-17
-4.41735412e-17
-4.36299852e-17
-4.32164137e-17
-4.0622323e-17
-4.018148e-17
-3.61456962e-17
-3.45578453e-17
-3.12272849e-17
-2.92338003e-17
-2.82657809e-17
-3.0374804e-17
-2.95785036e-17
-2.95553005e-17
-2.94896063e-17
-2.47530076e-17
-2.62705532e-17
-2.62434387e-17
-2.59101106e-17
-2.59171415e-17
-2.62324013e-17
-2.57964389e-17
-2.73384021e-17
-2.54430161e-17
-2.73625256e-17
-2.36827163e-17
-2.63807628e-17
-2.66154467e-17
-2.72787245e-17
-2.86143376e-17
-2.36641892e-17
-2.28308545e-17
-2.03481039e-17
-1.93447437e-17
-1.97291339e-17
-1.98832391e-17
-1.91432178e-17
-1.82943896e-17
-1.93163918e-17
-1.74454707e-17
-1.67395324e-17
-1.5745371e-17
-1.51543129e-17
-1.21891548e-17
-1.06108234e-17
-1.37019657e-17
-1.39849521e-17
-1.67605704e-17
-1.40418759e-17
-1.13412234e-17
-1.17082275e-17
-1.01445778e-17
-8.66359027e-18
-7.31164268e-18
-8.47017188e-18
-6.7016044e-18
-8.180065e-18
-9.92618671e-18
-8.77867944e-18
-1.04674528e-17
-7.14465212e-18
-6.06738509e-18
-9.34114481e-18
-8.40840712e-18
-7.32564996e-18
-4.44083794e-18
-5.330049e-18
-5.58096537e-18
-5.98928109e-18
-4.70058926e-18
-7.05276107e-18
-5.38068993e-18
-6.12926165e-18
-6.68760582e-18
-5.25116904e-18
-4.39675159e-18
-2.92060213e-18
-2.98463997e-18
-1.38586384e-18
1.37763457e-18
-1.50080223e-18
-4.4906662e-18
-1.25635675e-18
-2.71719737e-18
9.62304397e-19
1.56109339e-18
3.1696844e-18
5.09807978e-18
6.11692269e-18
4.57255475e-18
4.26819595e-18
3.30024375e-18
2.22974992e-18
2.53303573e-18
8.21382328e-18
1.11968623e-17
1.30386561e-17
9.45708167e-18
8.54913753e-18
8.78422633e-18
1.04839803e-17
1.17732317e-17
9.10245455e-18
1.0220721e-17
1.44452909e-17
1.39727179e-17
1.48659649e-17
1.6770906e-17
1.78456721e-17
1.59316291e-17
1.54394825e-17
1.69800139e-17
1.77546788e-17
1.92325251e-17
2.01286652e-17
1.65345857e-17
1.83623449e-17
1.96393398e-17
1.89102227e-17
1.39291845e-17
1.40638898e-17
1.50960624e-17
1.79201469e-17
1.97790004e-17
1.9183462e-17
1.70018109e-17
1.49985592e-17
1.26885409e-17
1.60843594e-17
1.19068089e-17
1.63725979e-17
1.36927594e-17
1.38816606e-17
1.44631829e-17
1.57772882e-17
1.828667e-17
1.39646774e-17
1.42199427e-17
1.66021574e-17
1.33120105e-17
1.19688375e-17
1.38220779e-17
1.48328244e-17
1.58689501e-17
1.20020658e-17
1.21268901e-17
1.59368632e-17
1.47010187e-17
1.6605285e-17
1.46489205e-17
1.79651121e-17
1.51589609e-17
1.78355005e-17
1.56826566e-17
1.36507097e-17
1.49230288e-17
1.47665301e-17
1.5832155e-17
1.84218343e-17
1.81228322e-17
1.8002375e-17
1.8612247e-17
2.32183117e-17
2.10515977e-17
2.78262717e-17
2.49687112e-17
2.62012831e-17
2.78351037e-17
2.72406465e-17
2.98637965e-17
3.01512455e-17
3.01427121e-17
2.86516345e-17
2.87272962e-17
3.2491907e-17
3.45935841e-17
3.11818303e-17
3.4972499e-17
3.16546799e-17
3.30341804e-17
3.21285863e-17
3.14259733e-17
3.05136354e-17
2.89124354e-17
3.1392347e-17
3.25643715e-17
3.56499335e-17
4.26110632e-17
4.21212715e-17
4.05094343e-17
3.77074918e-17
4.35620799e-17
4.31430086e-17
4.33035068e-17
4.68967535e-17
4.58718398e-17
4.80079119e-17
4.7255056e-17
4.62574538e-17
4.73387225e-17
4.71081011e-17
4.84121519e-17
4.9969936e-17
5.22746345e-17
5.12676809e-17
5.42295825e-17
5.15033216e-17
5.3114731e-17
5.26663276e-17
5.33015453e-17
5.48097109e-17
5.81438451e-17
5.93589859e-17
5.73473826e-17
5.68163936e-17
5.43006622e-17
5.35518195e-17
5.300672e-17
5.33201096e-17
5.24421334e-17
5.34375066e-17
5.18950113e-17
5.49703397e-17
5.43356684e-17
5.36137392e-17
5.65387347e-17
5.7531357e-17
5.75196933e-17
6.11639827e-17
5.74859229e-17
6.00834854e-17
6.0183825e-17
6.07421958e-17
5.99056975e-17
5.69129203e-17
5.94921742e-17
5.95704087e-17
5.90443799e-17
5.69752138e-17
5.77271389e-17
5.52508634e-17
5.65055681e-17
5.68319172e-17
6.01176545e-17
5.9048098e-17
6.0574617e-17
5.8847355e-17
5.7319115e-17
5.84539393e-17
5.99206093e-17
6.01083076e-17
6.03922875e-17
6.071573e-17
6.03410687e-17
6.31303129e-17
6.13306676e-17
5.63877661e-17
5.67583926e-17
5.986752e-17
5.98836223e-17
5.89738604e-17
6.0647451e-17
5.64551752e-17
5.65475868e-17
5.91921222e-17
5.88820117e-17
5.76233556e-17
5.62705135e-17
5.5293007e-17
5.56799351e-17
5.80509269e-17
5.47304284e-17
5.64511249e-17
5.99046826e-17
5.80534559e-17
5.94713837e-17
6.22029338e-17
5.7928727e-17
6.31236615e-17
6.00790874e-17
6.53971908e-17
5.9939703e-17
6.18044578e-17
6.23752375e-17
6.42302523e-17
6.26141173e-17
6.14868791e-17
6.12368101e-17
6.32878198e-17
6.20472102e-17
6.09307265e-17
5.86139373e-17
5.97296985e-17
6.1245115e-17
6.46044682e-17
6.26120881e-17
5.86970037e-17
5.93971261e-17
5.95120583e-17
5.93513129e-17
6.13039863e-17
6.19047036e-17
6.35370541e-17
6.06451329e-17
6.25079807e-17
6.32587514e-17
6.18064082e-17
6.21507382e-17
6.2483148e-17
6.22518574e-17
6.47561477e-17
6.42533916e-17
6.27819927e-17
6.28103499e-17
6.04239405e-17
5.90525398e-17
5.77646769e-17
5.67076648e-17
5.80122445e-17
5.62119378e-17
5.54482977e-17
5.34172701e-17
5.26434465e-17
5.52533287e-17
5.54959285e-17
5.64624584e-17
5.53371313e-17
5.57829786e-17
5.58318582e-17
5.43346222e-17
5.22972017e-17
5.50835632e-17
5.35088965e-17
5.29929744e-17
5.63958218e-17
5.63390949e-17
5.67280458e-17
5.95357093e-17
5.77750602e-17
5.75543737e-17
5.55453885e-17
5.7768113e-17
5.54233398e-17
5.59747908e-17
6.03635853e-17
6.08282037e-17
5.83156062e-17
5.90361855e-17
6.00522952e-17
6.21259756e-17
6.22603872e-17
6.29969967e-17
6.05351187e-17
6.30642713e-17
6.17435248e-17
5.71046998e-17
5.90294829e-17
5.8714833e-17
5.60931947e-17
5.937317e-17
5.91238386e-17
6.0127905e-17
6.11909999e-17
6.15837316e-17
5.98335816e-17
6.04070663e-17
6.27012471e-17
6.46311555e-17
6.42667186e-17
6.34156573e-17
6.59657742e-17
6.48556272e-17
6.14574896e-17
6.07822549e-17
6.06047588e-17
6.33790514e-17
6.08331029e-17
5.88669429e-17
6.01332492e-17
6.00771e-17
6.22330957e-17
6.00601395e-17
5.82708825e-17
5.91677725e-17
6.01918728e-17
5.9554846e-17
5.66153784e-17
5.58524686e-17
5.61234227e-17
5.53988681e-17
5.55244902e-17
5.77380764e-17
5.77429952e-17
5.61036827e-17
5.72258005e-17
5.61648266e-17
5.71802484e-17
5.86238265e-17
5.43176069e-17
5.84622255e-17
5.58897869e-17
5.97726736e-17
6.07933749e-17
5.79747686e-17
5.91897026e-17
5.77006133e-17
5.61202512e-17
5.64085658e-17
5.6249337e-17
5.45020545e-17
5.65894834e-17
5.58337237e-17
5.47909989e-17
5.6596916e-17
5.727575e-17
6.19544911e-17
5.88830647e-17
6.01786205e-17
5.89674375e-17
5.83481007e-17
5.97027972e-17
5.74517678e-17
5.55502226e-17
5.55820617e-17
5.44666759e-17
5.32007763e-17
5.29741034e-17
4.92435934e-17
4.93755024e-17
5.12139315e-17
4.96256989e-17
4.89182228e-17
5.50661516e-17
5.26334013e-17
5.2595973e-17
5.2100668e-17
5.05884334e-17
5.30673794e-17
5.19986943e-17
5.09102335e-17
5.14760531e-17
4.71969429e-17
4.99122977e-17
5.19819407e-17
5.27283131e-17
5.3790816e-17
5.41097812e-17
5.11431164e-17
4.89270487e-17
4.72391708e-17
4.90281015e-17
5.5150016e-17
5.29888057e-17
5.37969729e-17
5.51615598e-17
5.53679968e-17
5.79212648e-17
5.48773507e-17
5.5178517e-17
5.25722266e-17
5.50251201e-17
5.47361899e-17
5.43974843e-17
5.41738081e-17
5.43576688e-17
5.30426275e-17
5.48710517e-17
5.07433676e-17
5.34555274e-17
5.19649009e-17
5.0576353e-17
5.36576482e-17
5.23938247e-17
5.39146224e-17
5.15448862e-17
5.22539512e-17
5.42043366e-17
5.14684179e-17
5.38270719e-17
5.35325074e-17
5.03314727e-17
4.99140023e-17
4.85269641e-17
4.8909588e-17
4.74312034e-17
4.76857555e-17
4.92410215e-17
5.10998349e-17
5.05594286e-17
5.06911913e-17
4.98683791e-17
4.653109e-17
4.75847977e-17
4.78707124e-17
4.74527193e-17
4.82064802e-17
4.75621752e-17
4.81608701e-17
4.92161063e-17
4.79367873e-17
4.53005354e-17
5.1129037e-17
5.00541823e-17
5.22111721e-17
5.10903087e-17
4.76368129e-17
4.86567329e-17
4.57477958e-17
4.9135746e-17
4.46082777e-17
4.4861527e-17
4.45219824e-17
4.21776544e-17
4.21845498e-17
4.43761414e-17
3.97449145e-17
4.07413025e-17
3.82664256e-17
3.82486552e-17
3.98443329e-17
3.77016782e-17
3.84249696e-17
3.77508763e-17
3.85582615e-17
3.48814302e-17
3.28826008e-17
3.32478575e-17
2.92746994e-17
2.70756403e-17
2.57482071e-17
2.76008677e-17
2.65120153e-17
2.7365822e-17
2.42153412e-17
2.77601976e-17
2.51800388e-17
2.43285279e-17
2.32362572e-17
2.26338485e-17
2.2623005e-17
2.4815541e-17
2.55643555e-17
2.5385722e-17
2.83730336e-17
2.67034631e-17
2.7134578e-17
2.45357226e-17
2.48784651e-17
2.07991053e-17
2.02461884e-17
2.25245655e-17
2.3581725e-17
2.13717298e-17
2.0779068e-17
2.19210748e-17
1.98687602e-17
1.92981763e-17
1.62697798e-17
1.73240296e-17
1.66827948e-17
1.92163515e-17
2.05327293e-17
2.41125096e-17
2.28529434e-17
2.26501329e-17
2.27052019e-17
2.17680196e-17
2.37521011e-17
2.50181461e-17
2.41973162e-17
2.57452529e-17
2.52683453e-17
2.67135109e-17
2.59841158e-17
2.53026677e-17
2.20400916e-17
2.1355886e-17
2.23482223e-17
2.0910237e-17
2.18071562e-17
1.82954318e-17
1.64556327e-17
1.72067108e-17
1.84982827e-17
1.46178128e-17
1.58747372e-17
1.16945713e-17
8.21546016e-18
9.22077937e-18
7.30262116e-18
6.09420637e-18
2.75547269e-18
4.8242669e-18
2.25000025e-18
5.53502305e-19
-1.49521962e-18
-1.40387284e-18
-3.99495525e-18
-5.02732189e-18
-6.21255938e-18
-5.27492402e-18
-5.26936131e-18
-5.37373357e-18
-6.13627568e-18
-6.59587203e-18
-7.09737832e-18
-8.59095566e-18
-1.13216874e-17
-8.26690983e-18
-1.0736918e-17
-1.23347469e-17
-1.26306451e-17
-1.03157436e-17
-1.45198443e-17
-1.52833817e-17
-1.95866482e-17
-1.95166847e-17
-2.19154217e-17
-2.11444222e-17
-1.7171791e-17
-1.89995173e-17
-1.9930131e-17
-2.04394899e-17
-1.84355405e-17
-2.27508872e-17
-2.09134154e-17
-2.15744623e-17
-2.361833e-17
-2.14317968e-17
-1.92773759e-17
-2.08652889e-17
-2.24847709e-17
-2.33410416e-17
-2.05259663e-17
-2.01634565e-17
-2.17150756e-17
-1.98786714e-17
-2.08717854e-17
-2.22587721e-17
-1.9984245e-17
-2.00452245e-17
-1.96582571e-17
-2.06596004e-17
-2.00322245e-17
-2.04962117e-17
-1.91622314e-17
-1.97724741e-17
-2.17747852e-17
-2.1253048e-17
-2.2140696e-17
-2.34493498e-17
-2.35094886e-17
-2.23993618e-17
-2.45654514e-17
-2.24867466e-17
-2.3156011e-17
-2.1745879e-17
-2.23590078e-17
-2.3163789e-17
-2.22712513e-17
-2.23188966e-17
-2.33384528e-17
-2.06965737e-17
-2.29881048e-17
-2.57496658e-17
-2.33901823e-17
-2.43613093e-17
-2.52039876e-17
-2.70636174e-17
-2.7480554e-17
-2.9041758e-17
-2.61909462e-17
-2.75805732e-17
-2.84222224e-17
-2.64988223e-17
-2.2699178e-17
-2.61552849e-17
-2.82693192e-17
-2.87816595e-17
-3.54540136e-17
-3.70871154e-17
-4.04103535e-17
-4.02185133e-17
-4.2034596e-17
-4.20486834e-17
-4.32084039e-17
-4.03921048e-17
-3.81877006e-17
-3.91031523e-17
-4.34997225e-17
-4.31804419e-17
-4.60594512e-17
-4.92688493e-17
-4.81313041e-17
-5.10703754e-17
-5.42082708e-17
-5.7112029e-17
-5.59820637e-17
-5.96984353e-17
-6.3364781e-17
-6.3367623e-17
-6.22625233e-17
-5.96862046e-17
-5.94221654e-17
-5.94612264e-17
-5.91960252e-17
-6.09318407e-17
-6.39671153e-17
-6.14525408e-17
-6.23591461e-17
-6.00711689e-17
-5.97404393e-17
-6.20745458e-17
-6.47737345e-17
-6.48311825e-17
-5.95099231e-17
-6.08740908e-17
-5.86812047e-17
-5.84031061e-17
-6.02409807e-17
-5.69658358e-17
-5.7550278e-17
-5.84053634e-17
-5.569954e-17
-5.63065133e-17
-5.53917926e-17
-5.57859707e-17
-5.40672371e-17
-5.26299539e-17
-5.35335822e-17
-5.29774655e-17
-5.39778595e-17
-5.60082836e-17
-5.4729713e-17
-5.75027017e-17
-5.82109637e-17
-5.83993532e-17
-5.50996433e-17
-5.52032744e-17
-5.5547964e-17
-5.60443034e-17
-5.65024795e-17
-5.41743342e-17
-5.35176333e-17
-5.04664506e-17
-5.10433021e-17
-5.07308325e-17
-5.14897089e-17
-5.028672e-17
-5.08334352e-17
-4.85951051e-17
-4.9625934e-17
-4.90380952e-17
-4.80132945e-17
-5.15320518e-17
-4.93446778e-17
-5.02206728e-17
-5.05300349e-17
-5.18641174e-17
-4.76225372e-17
-4.95084204e-17
-4.5775389e-17
-4.67910887e-17
-4.60574785e-17
-4.65441437e-17
-4.8820307e-17
-4.84603705e-17
-4.89135799e-17
-4.66989843e-17
-4.53855453e-17
-4.89121522e-17
-4.8013761e-17
-4.89107374e-17
-4.98044499e-17
-4.86163167e-17
-4.94340405e-17
-4.98009269e-17
-5.05781e-17
-4.93533154e-17
-4.95446636e-17
-5.0344548e-17
-4.82399067e-17
-4.59840445e-17
-4.85457605e-17
-4.86307467e-17
-5.3848608e-17
-5.39121007e-17
-5.24542069e-17
-5.12748469e-17
-4.96806688e-17
-4.86621474e-17
-4.85235089e-17
-4.86919542e-17
-4.90869456e-17
-4.88186264e-17
-4.64339714e-17
-4.84575584e-17
-5.05223052e-17
-4.92453532e-17
-4.98746199e-17
-4.90877538e-17
-4.45312784e-17
-4.9033705e-17
-4.82492123e-17
-4.93723856e-17
-5.03045721e-17
-4.88951747e-17
-5.04987348e-17
-4.95612013e-17
-4.76884564e-17
-4.73956271e-17
-4.81625784e-17
-4.99533712e-17
-5.13408554e-17
-5.45147596e-17
-5.39805463e-17
-5.33443052e-17
-5.62380922e-17
-5.3471227e-17
-5.58272524e-17
-5.45228982e-17
-5.54573636e-17
-5.57335141e-17
-5.29642989e-17
-5.88192471e-17
-5.91631936e-17
-6.03746923e-17
-6.04609499e-17
-6.37071515e-17
-6.60614457e-17
-6.5508186e-17
-6.59506974e-17
-6.53897315e-17
-6.63415736e-17
-6.80738353e-17
-6.43959647e-17
-6.59874599e-17
-6.42497814e-17
-6.45487747e-17
-6.83159264e-17
-6.86328017e-17
-7.07288803e-17
-7.43384371e-17
-7.18600293e-17
-7.01529503e-17
-7.17570975e-17
-7.14938553e-17
-7.3024525e-17
-7.07691548e-17
-7.12436036e-17
-7.56833868e-17
-7.30042066e-17
-7.21524187e-17
-7.27245923e-17
-7.42043625e-17
-7.39469876e-17
-7.25777418e-17
-7.24598392e-17
-7.41291228e-17
-7.64503539e-17
-7.2617782e-17
-7.39125482e-17
-7.4949368e-17
-7.45548841e-17
-7.57280318e-17
-7.51156953e-17
-7.68360914e-17
-7.53973937e-17
-7.7445832e-17
-7.73471578e-17
-7.73491523e-17
-7.61213748e-17
-7.54654855e-17
-7.5604992e-17
-7.75327388e-17
-7.54180902e-17
-7.53199025e-17
-7.55873828e-17
-7.61604879e-17
-7.87030864e-17
-7.77428087e-17
-7.90495513e-17
-7.85809471e-17
-7.89475683e-17
-7.8230182e-17
-7.841135e-17
-7.58666654e-17
-7.87104594e-17
-7.40955307e-17
-7.60284424e-17
-7.55953833e-17
-7.50295818e-17
-7.442112e-17
-7.71803087e-17
-7.39009192e-17
-7.5181644e-17
-7.23012237e-17
-7.43015121e-17
-7.27587974e-17
-7.30808374e-17
-7.10473987e-17
-7.11494987e-17
-6.90266682e-17
-6.72923788e-17
-6.8767963e-17
-6.73850971e-17
-6.6860209e-17
-6.4071124e-17
-6.37351447e-17
-6.33615044e-17
-6.41040518e-17
-6.47075336e-17
-6.27814778e-17
-5.99863736e-17
-6.37024444e-17
-6.49866982e-17
-6.41381937e-17
-6.60407068e-17
-6.65097266e-17
-6.86970506e-17
-6.76067539e-17
-6.33635611e-17
-5.93636081e-17
-6.19961199e-17
-5.79747052e-17
-5.84777826e-17
-5.868119e-17
-5.88709917e-17
-5.87759907e-17
-6.06001581e-17
-6.06838121e-17
-5.75394008e-17
-5.90369836e-17
-5.73671863e-17
-5.68324449e-17
-5.69229276e-17
-5.4995088e-17
-5.22373766e-17
-5.38723585e-17
-5.7221415e-17
-5.14901887e-17
-5.34993071e-17
-5.28814359e-17
-5.30932216e-17
-5.0487752e-17
-5.32584395e-17
-5.2978537e-17
-5.04494092e-17
-5.28131794e-17
-5.03087417e-17
-5.12244829e-17
-5.29782525e-17
-5.11003248e-17
-5.20593777e-17
-5.23442295e-17
-5.07798324e-17
-5.44104142e-17
-5.38494698e-17
-5.49095222e-17
-5.45312834e-17
-5.40032717e-17
-5.12715079e-17
-5.08977757e-17
-4.8956511e-17
-4.44463037e-17
-4.3687717e-17
-4.17775753e-17
-4.23138893e-17
-4.37560318e-17
-4.328003e-17
-4.45296464e-17
-3.98060065e-17
-4.02442499e-17
-3.87778625e-17
-3.66787168e-17
-3.97399689e-17
-4.0059207e-17
-4.32273905e-17
-4.23048279e-17
-4.45610944e-17
-4.17414703e-17
-4.18985682e-17
-4.34353174e-17
-4.84805108e-17
-4.99099907e-17
-5.05275446e-17
-4.95544616e-17
-4.76611149e-17
-4.93006191e-17
-5.04531985e-17
-4.90207745e-17
-4.90113588e-17
-4.97232885e-17
-4.85224758e-17
-4.77739549e-17
-4.77870299e-17
-4.95058109e-17
-4.73860202e-17
-4.67241828e-17
-4.48603936e-17
-4.56296546e-17
-4.807606e-17
-4.21022867e-17
-4.53701089e-17
-4.81985865e-17
-4.80527993e-17
-4.61372269e-17
-4.5605686e-17
-4.31241791e-17
-4.59199411e-17
-4.54401873e-17
-4.33433885e-17
-4.47261382e-17
-4.31741721e-17
-4.52545115e-17
-4.28877009e-17
-4.47746733e-17
-4.55065664e-17
-4.64227074e-17
-4.32726531e-17
-4.6191782e-17
-4.58195192e-17
-5.00070599e-17
-5.10355214e-17
-4.98495592e-17
-4.66577704e-17
-4.56369818e-17
-4.30518535e-17
-3.99551287e-17
-4.08356508e-17
-3.98797166e-17
-3.84477448e-17
-4.06922591e-17
-3.95280956e-17
-3.65616697e-17
-3.51254344e-17
-3.29952848e-17
-3.41567668e-17
-3.02318864e-17
-3.16474323e-17
-3.10485212e-17
-3.28315369e-17
-3.01790714e-17
-2.81077823e-17
-2.63976483e-17
-3.0866861e-17
-2.9338983e-17
-2.80445338e-17
-2.57325408e-17
-2.88808621e-17
-2.55207895e-17
-2.7728752e-17
-2.94756943e-17
-2.82951559e-17
-2.85330385e-17
-2.53731838e-17
-2.63329554e-17
-2.81092959e-17
-2.87870365e-17
-2.98881112e-17
-2.7243822e-17
-2.63120738e-17
-2.67488333e-17
-2.61741149e-17
-2.39447019e-17
-2.25611493e-17
-2.03543212e-17
-2.00876886e-17
-1.87563861e-17
-1.93595494e-17
-1.97022644e-17
-2.09039899e-17
-1.93832163e-17
-1.75440691e-17
-2.03002151e-17
-1.58559242e-17
-1.56087825e-17
-1.49250925e-17
-1.78711351e-17
-1.70592671e-17
-1.64419137e-17
-1.55003007e-17
-1.48529464e-17
-1.53464325e-17
-8.94465337e-18
-1.35055951e-17
-1.46329777e-17
-1.53265566e-17
-1.81622583e-17
-2.01807967e-17
-1.53735418e-17
-1.74122203e-17
-1.6382062e-17
-1.08084461e-17
-8.99831361e-18
-9.94784631e-18
-8.65381313e-18
-1.05462921e-17
-1.43293374e-17
-1.03939112e-17
-8.51947077e-18
-1.04354862e-17
-1.09428966e-17
-1.14033171e-17
-1.15791921e-17
-1.09234446e-17
-1.15668716e-17
-1.35773505e-17
-1.17285128e-17
-7.76214137e-18
-8.08183341e-18
-4.82597036e-18
-7.24207629e-18
-6.3140129e-18
-6.62027963e-18
-5.92208685e-18
-6.84463534e-18
-6.52090816e-18
-6.30548039e-18
-5.28971749e-18
-1.82448155e-18
7.34398069e-20
-1.01685509e-18
-8.91735144e-19
9.45009803e-19
7.82990924e-19
3.92575525e-18
4.81837499e-18
7.51722643e-18
8.56994149e-18
1.07478807e-17
9.75220993e-18
1.13855066e-17
1.13833113e-17
8.87696775e-18
1.08846501e-17
8.82524258e-18
1.01619969e-17
1.24933708e-17
1.48599237e-17
1.5535521e-17
1.76231593e-17
1.90170439e-17
2.24090716e-17
2.22485281e-17
2.65254939e-17
2.55781027e-17
2.46755424e-17
2.40724681e-17
2.42382583e-17
1.91289263e-17
1.98637204e-17
2.28538987e-17
2.0898104e-17
2.03492506e-17
2.30437634e-17
2.48334271e-17
2.56638591e-17
2.72259502e-17
2.98218756e-17
2.81643777e-17
2.90245157e-17
3.03351994e-17
3.2927392e-17
3.00868714e-17
3.41115214e-17
3.34846198e-17
3.23844842e-17
3.28508882e-17
3.23559737e-17
3.28294908e-17
3.19976353e-17
3.29552721e-17
3.88643967e-17
3.80822936e-17
4.12127718e-17
3.91551285e-17
3.83702201e-17
3.71270094e-17
3.81103227e-17
4.07286675e-17
3.89225766e-17
3.62056122e-17
3.98062837e-17
4.14791424e-17
3.89792512e-17
4.32449719e-17
4.62457303e-17
4.74277384e-17
4.91285299e-17
4.92437117e-17
4.99794028e-17
4.77886579e-17
4.97203257e-17
4.55776954e-17
4.86117677e-17
4.55617806e-17
4.71257878e-17
4.41939852e-17
4.49754553e-17
4.66830958e-17
4.61378335e-17
4.64109864e-17
4.91729091e-17
4.89370493e-17
5.07423555e-17
5.10142964e-17
5.14863644e-17
4.98779814e-17
4.9214511e-17
5.30344512e-17
5.388759e-17
5.3404529e-17
5.57707577e-17
5.35650146e-17
5.53056452e-17
5.32538049e-17
5.6845197e-17
5.54502947e-17
5.4759474e-17
5.64770166e-17
5.49150768e-17
5.55918562e-17
5.77379004e-17
6.0188572e-17
6.11865901e-17
5.95104812e-17
6.02015029e-17
5.83079533e-17
6.1304137e-17
6.16619349e-17
5.75665029e-17
6.08863507e-17
5.92394317e-17
6.02990529e-17
5.79829598e-17
5.78985041e-17
5.91109728e-17
6.02611068e-17
5.81165072e-17
5.91454913e-17
5.92705634e-17
6.23543007e-17
6.66507669e-17
6.5901754e-17
6.82105083e-17
6.73832186e-17
7.104407e-17
6.77033759e-17
7.09357302e-17
6.86345621e-17
7.07427351e-17
6.84828229e-17
7.31840787e-17
7.69737894e-17
7.46651462e-17
7.86986979e-17
7.5882854e-17
7.84858864e-17
7.85564389e-17
7.7001958e-17
7.62214658e-17
7.68612199e-17
8.15117893e-17
8.1429099e-17
8.18752827e-17
8.06130975e-17
7.93516993e-17
8.06495631e-17
8.1276781e-17
8.70800715e-17
8.83975947e-17
8.97303805e-17
8.906555e-17
9.34514331e-17
9.48307469e-17
9.67855716e-17
9.8521536e-17
9.91634505e-17
1.03644777e-16
1.05826312e-16
1.10742511e-16
1.13708474e-16
1.14653011e-16
1.1433251e-16
1.1785718e-16
1.22809329e-16
1.26293839e-16
1.31027045e-16
1.35350172e-16
1.3939082e-16
1.44497098e-16
1.52708463e-16
1.56734309e-16
1.63137623e-16
1.72378679e-16
1.77193357e-16
1.88263507e-16
1.93761053e-16
2.05713611e-16
2.17395187e-16
2.26868789e-16
2.41062338e-16
2.509839e-16
2.6748596e-16
2.81856273e-16
2.97682189e-16
3.14909659e-16
3.33070716e-16
3.57224049e-16
3.78037974e-16
4.06366858e-16
4.25873096e-16
4.59611109e-16
4.89106795e-16
5.25569919e-16
5.61681254e-16
6.00924488e-16
6.42519692e-16
6.87836882e-16
7.39296924e-16
7.93546474e-16
8.49558563e-16
9.15166478e-16
9.83436382e-16
1.05856145e-15
1.13937289e-15
1.22938514e-15
1.3231272e-15
1.42543267e-15
1.53855665e-15
1.66003695e-15
1.79084673e-15
1.93071892e-15
2.0821513e-15
2.24861292e-15
2.42838797e-15
2.6206317e-15
2.82691813e-15
3.05228299e-15
3.29981271e-15
3.56717955e-15
3.8551628e-15
4.15646039e-15
4.48638589e-15
4.84577863e-15
5.23624074e-15
5.65521529e-15
6.11240688e-15
6.60187468e-15
7.12969004e-15
7.70443576e-15
8.3192258e-15
8.98812688e-15
9.71192198e-15
1.04909783e-14
1.13283472e-14
1.22362725e-14
1.32140861e-14
1.42650731e-14
1.54037956e-14
1.66321664e-14
1.79567235e-14
1.93838551e-14
2.09275991e-14
2.25926316e-14
2.43853494e-14
2.6316006e-14
2.84001908e-14
3.06440258e-14
3.30644944e-14
3.56765623e-14
3.84872002e-14
4.15157947e-14
4.47786776e-14
4.82922586e-14
5.20770276e-14
5.61546488e-14
6.05474213e-14