/*--------------------------------*- C++ -*----------------------------------*\
| =========                 |                                                 |
| \\      /  F ield         | OpenFOAM: The Open Source CFD Toolbox           |
|  \\    /   O peration     | Version:  2206                                  |
|   \\  /    A nd           | Website:  www.openfoam.com                      |
|    \\/     M anipulation  |                                                 |
\*---------------------------------------------------------------------------*/
FoamFile
{
    version     2.0;
    format      ascii;
    arch        "LSB;label=32;scalar=64";
    class       volVectorField;
    location    "1.26e-05";
    object      U;
}
// * * * * * * * * * * * * * * * * * * * * * * * * * * * * * * * * * * * * * //

dimensions      [0 1 -1 0 0 0 0];

internalField   nonuniform List<vector> 
3183
(
(3.5957843e-13 0 0)
(7.20807844e-14 0 0)
(-2.44590635e-13 0 0)
(-2.39427098e-13 0 0)
(-1.34363058e-13 0 0)
(-6.98074641e-18 0 0)
(-5.44176087e-19 0 0)
(-4.14261033e-23 0 0)
(4.39963899e-23 0 0)
(6.13151286e-19 0 0)
(1.14200033e-17 0 0)
(1.82978685e-13 0 0)
(5.42723704e-13 0 0)
(1.62722114e-13 0 0)
(9.78862753e-14 0 0)
(7.7228237e-14 0 0)
(-2.51585559e-13 0 0)
(-5.90395498e-13 0 0)
(-7.66532833e-13 0 0)
(-8.12393385e-14 0 0)
(3.60241385e-13 0 0)
(1.39706588e-16 0 0)
(4.73318853e-14 0 0)
(2.76363472e-13 0 0)
(3.54797003e-13 0 0)
(4.83503788e-13 0 0)
(5.14918955e-13 0 0)
(6.36775103e-13 0 0)
(3.2848269e-13 0 0)
(4.12243213e-13 0 0)
(-8.64412855e-14 0 0)
(-3.49221162e-13 0 0)
(-7.43074548e-13 0 0)
(-1.00211953e-12 0 0)
(-9.00227741e-13 0 0)
(-5.91492679e-13 0 0)
(-6.42867548e-13 0 0)
(-4.95660381e-13 0 0)
(-2.14435641e-13 0 0)
(-2.62846166e-13 0 0)
(-5.37977494e-13 0 0)
(-4.96380669e-13 0 0)
(-2.20342591e-13 0 0)
(-5.18796725e-13 0 0)
(-1.66169111e-14 0 0)
(3.04498982e-13 0 0)
(2.13561941e-13 0 0)
(4.31434707e-13 0 0)
(3.37506062e-13 0 0)
(6.65230736e-13 0 0)
(7.44401774e-13 0 0)
(1.35517193e-12 0 0)
(1.14246743e-12 0 0)
(1.75924418e-12 0 0)
(2.11136979e-12 0 0)
(2.12295072e-12 0 0)
(2.16490782e-12 0 0)
(2.15489664e-12 0 0)
(1.87466761e-12 0 0)
(1.89963531e-12 0 0)
(1.49316674e-12 0 0)
(9.22274391e-13 0 0)
(9.59890147e-13 0 0)
(4.38024081e-13 0 0)
(3.98898046e-13 0 0)
(2.69712058e-13 0 0)
(-3.32373404e-13 0 0)
(-3.1121631e-13 0 0)
(-6.39139677e-13 0 0)
(-1.21661299e-12 0 0)
(-8.69478468e-13 0 0)
(-1.09885228e-12 0 0)
(-1.12091809e-12 0 0)
(-1.57716494e-12 0 0)
(-1.94890223e-12 0 0)
(-2.13385388e-12 0 0)
(-2.03816151e-12 0 0)
(-2.55477288e-12 0 0)
(-2.81709012e-12 0 0)
(-3.07403589e-12 0 0)
(-3.50989673e-12 0 0)
(-3.70043674e-12 0 0)
(-3.08807193e-12 0 0)
(-4.76518027e-12 0 0)
(-3.7770462e-12 0 0)
(-3.66845775e-12 0 0)
(-4.4971995e-12 0 0)
(-4.36718713e-12 0 0)
(-4.51780141e-12 0 0)
(-4.60343838e-12 0 0)
(-5.513428e-12 0 0)
(-5.62826504e-12 0 0)
(-4.76780553e-12 0 0)
(-5.44158425e-12 0 0)
(-5.8204343e-12 0 0)
(-4.95526652e-12 0 0)
(-6.34674077e-12 0 0)
(-5.04134748e-12 0 0)
(-5.40230945e-12 0 0)
(-5.69559201e-12 0 0)
(-4.91975859e-12 0 0)
(-5.67478587e-12 0 0)
(-5.70622066e-12 0 0)
(-5.38358054e-12 0 0)
(-5.21644753e-12 0 0)
(-5.66240768e-12 0 0)
(-5.84274106e-12 0 0)
(-5.60432507e-12 0 0)
(-6.12679451e-12 0 0)
(-6.47735778e-12 0 0)
(-5.22156426e-12 0 0)
(-6.26135237e-12 0 0)
(-5.3292842e-12 0 0)
(-6.7299325e-12 0 0)
(-5.66540312e-12 0 0)
(-5.93327072e-12 0 0)
(-5.74776772e-12 0 0)
(-5.79885292e-12 0 0)
(-5.35973643e-12 0 0)
(-6.61918347e-12 0 0)
(-6.34240027e-12 0 0)
(-5.32122038e-12 0 0)
(-6.40541151e-12 0 0)
(-5.92160639e-12 0 0)
(-6.00248639e-12 0 0)
(-5.8562487e-12 0 0)
(-5.36002862e-12 0 0)
(-6.75439522e-12 0 0)
(-5.48125538e-12 0 0)
(-6.09108058e-12 0 0)
(-5.78523423e-12 0 0)
(-6.13135768e-12 0 0)
(-5.98904054e-12 0 0)
(-6.8873318e-12 0 0)
(-6.48208071e-12 0 0)
(-6.76453089e-12 0 0)
(-6.79630838e-12 0 0)
(-7.21843093e-12 0 0)
(-6.6068776e-12 0 0)
(-6.78557198e-12 0 0)
(-6.46812871e-12 0 0)
(-7.41497972e-12 0 0)
(-8.00778299e-12 0 0)
(-8.45057039e-12 0 0)
(-7.2847785e-12 0 0)
(-7.54723663e-12 0 0)
(-7.32434075e-12 0 0)
(-8.62117895e-12 0 0)
(-7.56233166e-12 0 0)
(-7.85580704e-12 0 0)
(-7.57332733e-12 0 0)
(-8.255049e-12 0 0)
(-7.77688473e-12 0 0)
(-7.41290527e-12 0 0)
(-8.68063228e-12 0 0)
(-7.40923528e-12 0 0)
(-8.08476042e-12 0 0)
(-8.19877848e-12 0 0)
(-6.98655231e-12 0 0)
(-8.09228852e-12 0 0)
(-8.85977605e-12 0 0)
(-8.38125638e-12 0 0)
(-7.36319203e-12 0 0)
(-8.54391256e-12 0 0)
(-9.0665235e-12 0 0)
(-8.99724955e-12 0 0)
(-8.8915898e-12 0 0)
(-8.51360259e-12 0 0)
(-8.67799742e-12 0 0)
(-8.89172506e-12 0 0)
(-9.86160189e-12 0 0)
(-9.09889744e-12 0 0)
(-9.83717323e-12 0 0)
(-9.29032337e-12 0 0)
(-1.04009181e-11 0 0)
(-8.87999829e-12 0 0)
(-9.84507525e-12 0 0)
(-9.15990906e-12 0 0)
(-9.96533068e-12 0 0)
(-9.54006708e-12 0 0)
(-8.88805733e-12 0 0)
(-1.16486884e-11 0 0)
(-9.56856149e-12 0 0)
(-9.97689111e-12 0 0)
(-1.07360642e-11 0 0)
(-1.14614367e-11 0 0)
(-1.00332121e-11 0 0)
(-1.08597733e-11 0 0)
(-1.09829204e-11 0 0)
(-1.0446549e-11 0 0)
(-1.15725582e-11 0 0)
(-1.11822475e-11 0 0)
(-1.1031162e-11 0 0)
(-1.07831205e-11 0 0)
(-1.21469005e-11 0 0)
(-1.05717318e-11 0 0)
(-1.09602002e-11 0 0)
(-1.09294925e-11 0 0)
(-1.1814151e-11 0 0)
(-1.28571965e-11 0 0)
(-1.18267104e-11 0 0)
(-1.20758022e-11 0 0)
(-1.15041132e-11 0 0)
(-1.21957308e-11 0 0)
(-1.26045893e-11 0 0)
(-1.11810917e-11 0 0)
(-1.14185762e-11 0 0)
(-1.1692829e-11 0 0)
(-1.26588828e-11 0 0)
(-1.06796654e-11 0 0)
(-1.11477794e-11 0 0)
(-1.27406058e-11 0 0)
(-1.10384492e-11 0 0)
(-1.28626507e-11 0 0)
(-1.22778788e-11 0 0)
(-1.22938639e-11 0 0)
(-1.18040061e-11 0 0)
(-1.20858618e-11 0 0)
(-1.07785117e-11 0 0)
(-1.21040749e-11 0 0)
(-1.25260589e-11 0 0)
(-1.1452182e-11 0 0)
(-1.29159798e-11 0 0)
(-1.14424143e-11 0 0)
(-1.14012735e-11 0 0)
(-1.28730879e-11 0 0)
(-1.13375258e-11 0 0)
(-1.24497395e-11 0 0)
(-1.30988042e-11 0 0)
(-1.22389642e-11 0 0)
(-1.26047587e-11 0 0)
(-1.19713113e-11 0 0)
(-1.22051512e-11 0 0)
(-1.34031467e-11 0 0)
(-1.31865781e-11 0 0)
(-1.22676996e-11 0 0)
(-1.35041097e-11 0 0)
(-1.26083378e-11 0 0)
(-1.39593905e-11 0 0)
(-1.29825994e-11 0 0)
(-1.26839514e-11 0 0)
(-1.32024659e-11 0 0)
(-1.18608552e-11 0 0)
(-1.21664747e-11 0 0)
(-1.24537013e-11 0 0)
(-1.3886553e-11 0 0)
(-1.25315671e-11 0 0)
(-1.18038477e-11 0 0)
(-1.26622345e-11 0 0)
(-1.32279673e-11 0 0)
(-1.2303414e-11 0 0)
(-1.27480363e-11 0 0)
(-1.36435485e-11 0 0)
(-1.33422135e-11 0 0)
(-1.27813354e-11 0 0)
(-1.30169965e-11 0 0)
(-1.29608179e-11 0 0)
(-1.21992982e-11 0 0)
(-1.26157837e-11 0 0)
(-1.33010185e-11 0 0)
(-1.2883295e-11 0 0)
(-1.28669799e-11 0 0)
(-1.31799169e-11 0 0)
(-1.26655112e-11 0 0)
(-1.28090152e-11 0 0)
(-1.27788377e-11 0 0)
(-1.38053299e-11 0 0)
(-1.41584607e-11 0 0)
(-1.31097125e-11 0 0)
(-1.37402433e-11 0 0)
(-1.31454743e-11 0 0)
(-1.31155752e-11 0 0)
(-1.27322172e-11 0 0)
(-1.33825136e-11 0 0)
(-1.31293563e-11 0 0)
(-1.31589917e-11 0 0)
(-1.31925131e-11 0 0)
(-1.4302954e-11 0 0)
(-1.39825433e-11 0 0)
(-1.39191713e-11 0 0)
(-1.4575189e-11 0 0)
(-1.49922964e-11 0 0)
(-1.49978268e-11 0 0)
(-1.45772343e-11 0 0)
(-1.46282881e-11 0 0)
(-1.51036633e-11 0 0)
(-1.39948545e-11 0 0)
(-1.54765048e-11 0 0)
(-1.6286825e-11 0 0)
(-1.64505429e-11 0 0)
(-1.60899281e-11 0 0)
(-1.62846384e-11 0 0)
(-1.60289682e-11 0 0)
(-1.66077816e-11 0 0)
(-1.59307772e-11 0 0)
(-1.62911911e-11 0 0)
(-1.62039652e-11 0 0)
(-1.58423053e-11 0 0)
(-1.57958119e-11 0 0)
(-1.6549481e-11 0 0)
(-1.58472594e-11 0 0)
(-1.61935779e-11 0 0)
(-1.62758727e-11 0 0)
(-1.5856574e-11 0 0)
(-1.63573343e-11 0 0)
(-1.6285332e-11 0 0)
(-1.54994597e-11 0 0)
(-1.61392354e-11 0 0)
(-1.65341402e-11 0 0)
(-1.67201979e-11 0 0)
(-1.70932468e-11 0 0)
(-1.6687111e-11 0 0)
(-1.62453976e-11 0 0)
(-1.66540667e-11 0 0)
(-1.74582909e-11 0 0)
(-1.68639164e-11 0 0)
(-1.84875288e-11 0 0)
(-1.74593587e-11 0 0)
(-1.64756605e-11 0 0)
(-1.82095229e-11 0 0)
(-1.73585174e-11 0 0)
(-1.71440914e-11 0 0)
(-1.71724941e-11 0 0)
(-1.73410858e-11 0 0)
(-1.74944598e-11 0 0)
(-1.70542793e-11 0 0)
(-1.7516135e-11 0 0)
(-1.62602845e-11 0 0)
(-1.68109713e-11 0 0)
(-1.67158703e-11 0 0)
(-1.58633827e-11 0 0)
(-1.69236196e-11 0 0)
(-1.69332948e-11 0 0)
(-1.62157882e-11 0 0)
(-1.51565308e-11 0 0)
(-1.54964025e-11 0 0)
(-1.60726169e-11 0 0)
(-1.72038596e-11 0 0)
(-1.7146447e-11 0 0)
(-1.7411714e-11 0 0)
(-1.65081196e-11 0 0)
(-1.69932286e-11 0 0)
(-1.62978359e-11 0 0)
(-1.53634911e-11 0 0)
(-1.56382431e-11 0 0)
(-1.59261344e-11 0 0)
(-1.60813533e-11 0 0)
(-1.5769677e-11 0 0)
(-1.53001884e-11 0 0)
(-1.55663635e-11 0 0)
(-1.49993698e-11 0 0)
(-1.55563569e-11 0 0)
(-1.62698578e-11 0 0)
(-1.51196792e-11 0 0)
(-1.55433581e-11 0 0)
(-1.60921432e-11 0 0)
(-1.66301947e-11 0 0)
(-1.57531324e-11 0 0)
(-1.59711836e-11 0 0)
(-1.60203734e-11 0 0)
(-1.56950622e-11 0 0)
(-1.61735738e-11 0 0)
(-1.60382776e-11 0 0)
(-1.67027522e-11 0 0)
(-1.54438172e-11 0 0)
(-1.60277426e-11 0 0)
(-1.55405515e-11 0 0)
(-1.62223384e-11 0 0)
(-1.56747553e-11 0 0)
(-1.62688944e-11 0 0)
(-1.62105605e-11 0 0)
(-1.65220393e-11 0 0)
(-1.58563159e-11 0 0)
(-1.61492663e-11 0 0)
(-1.52440816e-11 0 0)
(-1.74842879e-11 0 0)
(-1.58825673e-11 0 0)
(-1.6143955e-11 0 0)
(-1.66960311e-11 0 0)
(-1.57632598e-11 0 0)
(-1.68638991e-11 0 0)
(-1.5593755e-11 0 0)
(-1.73524243e-11 0 0)
(-1.61114846e-11 0 0)
(-1.64775389e-11 0 0)
(-1.66935496e-11 0 0)
(-1.60940798e-11 0 0)
(-1.61302937e-11 0 0)
(-1.68457724e-11 0 0)
(-1.54024361e-11 0 0)
(-1.55740732e-11 0 0)
(-1.61273619e-11 0 0)
(-1.55243362e-11 0 0)
(-1.5455877e-11 0 0)
(-1.64577017e-11 0 0)
(-1.44753422e-11 0 0)
(-1.54009744e-11 0 0)
(-1.55542038e-11 0 0)
(-1.50306691e-11 0 0)
(-1.38224907e-11 0 0)
(-1.3915862e-11 0 0)
(-1.42457721e-11 0 0)
(-1.44512896e-11 0 0)
(-1.44203935e-11 0 0)
(-1.33772555e-11 0 0)
(-1.38245665e-11 0 0)
(-1.27789892e-11 0 0)
(-1.37182899e-11 0 0)
(-1.27993438e-11 0 0)
(-1.32368614e-11 0 0)
(-1.24362554e-11 0 0)
(-1.1522798e-11 0 0)
(-1.21185624e-11 0 0)
(-1.25768171e-11 0 0)
(-1.2750204e-11 0 0)
(-1.19263557e-11 0 0)
(-1.19439172e-11 0 0)
(-1.18219097e-11 0 0)
(-1.19176948e-11 0 0)
(-1.19138545e-11 0 0)
(-1.05227006e-11 0 0)
(-1.03258697e-11 0 0)
(-1.09147015e-11 0 0)
(-1.08916027e-11 0 0)
(-1.13181696e-11 0 0)
(-1.13403613e-11 0 0)
(-1.06680524e-11 0 0)
(-1.04454546e-11 0 0)
(-1.04984298e-11 0 0)
(-1.01674592e-11 0 0)
(-1.07972754e-11 0 0)
(-1.0582961e-11 0 0)
(-1.02156678e-11 0 0)
(-9.64821656e-12 0 0)
(-9.86206339e-12 0 0)
(-9.9946362e-12 0 0)
(-1.06156356e-11 0 0)
(-1.10444397e-11 0 0)
(-8.9757582e-12 0 0)
(-9.40868207e-12 0 0)
(-1.0003073e-11 0 0)
(-1.02113371e-11 0 0)
(-9.24203732e-12 0 0)
(-9.36435883e-12 0 0)
(-1.00200594e-11 0 0)
(-9.84378562e-12 0 0)
(-1.08144543e-11 0 0)
(-1.03059105e-11 0 0)
(-1.12183665e-11 0 0)
(-9.76057962e-12 0 0)
(-9.63299506e-12 0 0)
(-9.25739554e-12 0 0)
(-9.87314748e-12 0 0)
(-9.43156715e-12 0 0)
(-9.37736916e-12 0 0)
(-9.31477883e-12 0 0)
(-9.31644088e-12 0 0)
(-1.02628844e-11 0 0)
(-9.40420336e-12 0 0)
(-7.67344217e-12 0 0)
(-9.36696994e-12 0 0)
(-1.01444144e-11 0 0)
(-8.84118585e-12 0 0)
(-8.20818407e-12 0 0)
(-9.65649852e-12 0 0)
(-8.96682268e-12 0 0)
(-7.49933762e-12 0 0)
(-8.1889239e-12 0 0)
(-7.06842943e-12 0 0)
(-7.78352688e-12 0 0)
(-7.67589853e-12 0 0)
(-8.19624351e-12 0 0)
(-7.81312272e-12 0 0)
(-7.71668173e-12 0 0)
(-8.05958608e-12 0 0)
(-8.81684315e-12 0 0)
(-7.95639867e-12 0 0)
(-8.25447698e-12 0 0)
(-7.92424095e-12 0 0)
(-8.43564383e-12 0 0)
(-8.01214349e-12 0 0)
(-8.22856973e-12 0 0)
(-8.13215975e-12 0 0)
(-7.9393696e-12 0 0)
(-8.15792091e-12 0 0)
(-8.06870264e-12 0 0)
(-7.82918951e-12 0 0)
(-8.94660852e-12 0 0)
(-8.41982116e-12 0 0)
(-7.4962338e-12 0 0)
(-8.43455788e-12 0 0)
(-8.30394494e-12 0 0)
(-9.29639999e-12 0 0)
(-8.2661803e-12 0 0)
(-8.73953722e-12 0 0)
(-8.46479096e-12 0 0)
(-8.29645835e-12 0 0)
(-8.73829192e-12 0 0)
(-7.39530848e-12 0 0)
(-8.097664e-12 0 0)
(-8.32039618e-12 0 0)
(-7.3724348e-12 0 0)
(-6.43238155e-12 0 0)
(-6.52554087e-12 0 0)
(-6.27812361e-12 0 0)
(-6.92717505e-12 0 0)
(-7.03167323e-12 0 0)
(-5.49325397e-12 0 0)
(-6.33662806e-12 0 0)
(-5.60858e-12 0 0)
(-4.71790012e-12 0 0)
(-5.2475279e-12 0 0)
(-4.07643991e-12 0 0)
(-4.4916138e-12 0 0)
(-4.91434911e-12 0 0)
(-3.90267953e-12 0 0)
(-4.79927741e-12 0 0)
(-3.80844856e-12 0 0)
(-4.01064129e-12 0 0)
(-4.36166944e-12 0 0)
(-4.33918341e-12 0 0)
(-4.60552676e-12 0 0)
(-3.36796988e-12 0 0)
(-3.69953437e-12 0 0)
(-4.48514389e-12 0 0)
(-3.82961333e-12 0 0)
(-4.38812035e-12 0 0)
(-4.35831021e-12 0 0)
(-4.0688084e-12 0 0)
(-3.68091197e-12 0 0)
(-4.39908205e-12 0 0)
(-3.80151197e-12 0 0)
(-4.50809418e-12 0 0)
(-3.63790598e-12 0 0)
(-3.24588154e-12 0 0)
(-2.81511053e-12 0 0)
(-3.46389483e-12 0 0)
(-2.41361017e-12 0 0)
(-3.05120638e-12 0 0)
(-2.78157436e-12 0 0)
(-3.02956383e-12 0 0)
(-2.38415795e-12 0 0)
(-3.93799895e-12 0 0)
(-1.94104094e-12 0 0)
(-1.89450853e-12 0 0)
(-2.50067944e-12 0 0)
(-1.54142021e-12 0 0)
(-1.78929935e-12 0 0)
(-2.10041311e-12 0 0)
(-3.09418271e-12 0 0)
(-2.18609679e-12 0 0)
(-2.0310528e-12 0 0)
(-1.29703053e-12 0 0)
(-2.00265057e-12 0 0)
(-1.79508619e-12 0 0)
(-6.20471059e-13 0 0)
(-1.25680228e-12 0 0)
(-9.68250736e-13 0 0)
(-1.07429016e-12 0 0)
(-1.69200407e-12 0 0)
(-1.10308129e-12 0 0)
(-1.4531118e-12 0 0)
(-1.02316046e-12 0 0)
(-1.26331647e-12 0 0)
(-1.37301822e-12 0 0)
(-1.26777104e-12 0 0)
(-1.19538394e-12 0 0)
(-9.83493429e-13 0 0)
(6.64901991e-15 0 0)
(-1.03891456e-12 0 0)
(-1.07173467e-12 0 0)
(-1.43986696e-12 0 0)
(-5.04547706e-13 0 0)
(-8.42154727e-13 0 0)
(-5.99196212e-14 0 0)
(-1.61745071e-12 0 0)
(-1.37289528e-12 0 0)
(-6.11838074e-13 0 0)
(-5.55620628e-13 0 0)
(-3.42888797e-13 0 0)
(-1.02358941e-12 0 0)
(3.07187771e-13 0 0)
(3.12527793e-13 0 0)
(2.55354944e-13 0 0)
(-9.22466172e-13 0 0)
(-2.88429768e-13 0 0)
(-1.47599491e-13 0 0)
(4.00301966e-13 0 0)
(1.45301863e-14 0 0)
(2.0099273e-13 0 0)
(9.48980063e-13 0 0)
(1.72236266e-12 0 0)
(-7.20981653e-14 0 0)
(8.51541094e-13 0 0)
(3.32952299e-13 0 0)
(4.02159462e-13 0 0)
(1.3383499e-12 0 0)
(1.22217196e-12 0 0)
(1.94166992e-12 0 0)
(2.0121775e-12 0 0)
(1.19265064e-12 0 0)
(9.41075507e-13 0 0)
(1.73696996e-12 0 0)
(1.3894515e-12 0 0)
(2.12106785e-12 0 0)
(1.02888902e-12 0 0)
(2.07347451e-12 0 0)
(2.37518738e-12 0 0)
(2.74081221e-12 0 0)
(1.76599775e-12 0 0)
(3.34472171e-12 0 0)
(2.87656121e-12 0 0)
(2.35246458e-12 0 0)
(1.85635092e-12 0 0)
(2.70635292e-12 0 0)
(2.69798057e-12 0 0)
(3.22810525e-12 0 0)
(3.2638462e-12 0 0)
(2.74345382e-12 0 0)
(3.60612109e-12 0 0)
(2.26847788e-12 0 0)
(1.9627356e-12 0 0)
(2.3930291e-12 0 0)
(2.15799721e-12 0 0)
(2.27934794e-12 0 0)
(3.22024447e-12 0 0)
(2.96452169e-12 0 0)
(2.12111751e-12 0 0)
(3.03275042e-12 0 0)
(2.5183812e-12 0 0)
(2.51808394e-12 0 0)
(2.1999433e-12 0 0)
(1.60505456e-12 0 0)
(2.34547253e-12 0 0)
(2.24605282e-12 0 0)
(2.03037116e-12 0 0)
(2.33406538e-12 0 0)
(2.64167441e-12 0 0)
(2.23213815e-12 0 0)
(2.40352053e-12 0 0)
(1.89755414e-12 0 0)
(2.08466861e-12 0 0)
(2.73821089e-12 0 0)
(1.8679e-12 0 0)
(2.29438254e-12 0 0)
(2.82315737e-12 0 0)
(1.90405869e-12 0 0)
(2.02825748e-12 0 0)
(2.15463322e-12 0 0)
(2.66408046e-12 0 0)
(2.28578166e-12 0 0)
(2.73017344e-12 0 0)
(1.47876341e-12 0 0)
(3.26783297e-12 0 0)
(2.59531713e-12 0 0)
(2.80136157e-12 0 0)
(1.82391488e-12 0 0)
(3.07277781e-12 0 0)
(2.07431505e-12 0 0)
(1.58260185e-12 0 0)
(3.09977864e-12 0 0)
(3.37410111e-12 0 0)
(2.60672873e-12 0 0)
(2.77332785e-12 0 0)
(3.96438766e-12 0 0)
(2.85921635e-12 0 0)
(4.18686907e-12 0 0)
(3.84840109e-12 0 0)
(4.32239646e-12 0 0)
(3.99095133e-12 0 0)
(4.92074981e-12 0 0)
(4.01665402e-12 0 0)
(4.80441019e-12 0 0)
(4.06606156e-12 0 0)
(4.80967177e-12 0 0)
(4.38634105e-12 0 0)
(5.84658968e-12 0 0)
(4.86699147e-12 0 0)
(4.43750475e-12 0 0)
(5.9432967e-12 0 0)
(4.82853542e-12 0 0)
(6.01080677e-12 0 0)
(4.31963325e-12 0 0)
(4.78568321e-12 0 0)
(4.51072887e-12 0 0)
(4.6064001e-12 0 0)
(4.26299604e-12 0 0)
(5.17873534e-12 0 0)
(5.49851087e-12 0 0)
(6.12337574e-12 0 0)
(6.88322019e-12 0 0)
(6.387854e-12 0 0)
(6.26088106e-12 0 0)
(6.35964275e-12 0 0)
(7.42556053e-12 0 0)
(6.31014757e-12 0 0)
(6.89607033e-12 0 0)
(6.57143405e-12 0 0)
(7.07257124e-12 0 0)
(7.56518432e-12 0 0)
(7.94949591e-12 0 0)
(6.1516897e-12 0 0)
(7.92378962e-12 0 0)
(7.09804369e-12 0 0)
(8.12880259e-12 0 0)
(7.9707821e-12 0 0)
(8.66639773e-12 0 0)
(7.58289252e-12 0 0)
(7.72768504e-12 0 0)
(7.95633034e-12 0 0)
(8.57304691e-12 0 0)
(8.47783096e-12 0 0)
(8.38430548e-12 0 0)
(9.33687028e-12 0 0)
(9.16631504e-12 0 0)
(8.57158954e-12 0 0)
(8.88745096e-12 0 0)
(8.33110506e-12 0 0)
(8.74110526e-12 0 0)
(8.16539018e-12 0 0)
(7.71716753e-12 0 0)
(8.20731592e-12 0 0)
(8.1240984e-12 0 0)
(8.27566591e-12 0 0)
(8.53906742e-12 0 0)
(8.27703849e-12 0 0)
(7.78373795e-12 0 0)
(8.01319595e-12 0 0)
(9.59937467e-12 0 0)
(8.70186227e-12 0 0)
(9.66670585e-12 0 0)
(8.46247795e-12 0 0)
(9.45502793e-12 0 0)
(9.33251886e-12 0 0)
(8.73618711e-12 0 0)
(9.85231948e-12 0 0)
(8.97076139e-12 0 0)
(8.60871566e-12 0 0)
(8.5975949e-12 0 0)
(9.30552659e-12 0 0)
(9.37595625e-12 0 0)
(8.0364499e-12 0 0)
(9.15871754e-12 0 0)
(8.92019002e-12 0 0)
(8.97273335e-12 0 0)
(8.69205631e-12 0 0)
(9.29951018e-12 0 0)
(9.33281068e-12 0 0)
(9.51007197e-12 0 0)
(9.0833107e-12 0 0)
(8.83664812e-12 0 0)
(8.98300025e-12 0 0)
(8.98090958e-12 0 0)
(9.49462827e-12 0 0)
(8.98228642e-12 0 0)
(9.10109015e-12 0 0)
(1.0555568e-11 0 0)
(9.80555477e-12 0 0)
(8.67967186e-12 0 0)
(8.64141307e-12 0 0)
(9.30478778e-12 0 0)
(9.32955595e-12 0 0)
(9.11491518e-12 0 0)
(9.08008571e-12 0 0)
(8.91308944e-12 0 0)
(8.50373909e-12 0 0)
(8.63192124e-12 0 0)
(9.2993606e-12 0 0)
(8.93964587e-12 0 0)
(8.27142719e-12 0 0)
(9.81856861e-12 0 0)
(8.27812731e-12 0 0)
(8.1959835e-12 0 0)
(8.94904242e-12 0 0)
(9.01320383e-12 0 0)
(9.0557602e-12 0 0)
(9.01684532e-12 0 0)
(9.15958102e-12 0 0)
(9.64290764e-12 0 0)
(8.84877071e-12 0 0)
(9.43952975e-12 0 0)
(9.49492124e-12 0 0)
(9.52073921e-12 0 0)
(1.00071261e-11 0 0)
(9.36157809e-12 0 0)
(1.00259292e-11 0 0)
(9.41869922e-12 0 0)
(9.70153073e-12 0 0)
(9.19875134e-12 0 0)
(8.98459718e-12 0 0)
(9.86237219e-12 0 0)
(1.00597034e-11 0 0)
(9.99629797e-12 0 0)
(8.75497674e-12 0 0)
(8.76406423e-12 0 0)
(8.82764273e-12 0 0)
(1.05119426e-11 0 0)
(9.36673881e-12 0 0)
(1.01455938e-11 0 0)
(8.80077241e-12 0 0)
(9.26282987e-12 0 0)
(9.55225256e-12 0 0)
(9.5271428e-12 0 0)
(9.15106436e-12 0 0)
(9.37111248e-12 0 0)
(8.98209425e-12 0 0)
(9.58249591e-12 0 0)
(9.83667764e-12 0 0)
(9.52457818e-12 0 0)
(8.68924792e-12 0 0)
(1.10415745e-11 0 0)
(9.17843046e-12 0 0)
(9.85889697e-12 0 0)
(9.04158477e-12 0 0)
(1.02638218e-11 0 0)
(9.52598075e-12 0 0)
(9.42750733e-12 0 0)
(9.80562252e-12 0 0)
(8.83857434e-12 0 0)
(9.18471315e-12 0 0)
(8.68417994e-12 0 0)
(8.49191484e-12 0 0)
(8.83235399e-12 0 0)
(8.04220224e-12 0 0)
(8.33168313e-12 0 0)
(7.86777975e-12 0 0)
(7.68933586e-12 0 0)
(9.43861024e-12 0 0)
(9.55980756e-12 0 0)
(8.49289461e-12 0 0)
(7.59380119e-12 0 0)
(8.88617101e-12 0 0)
(7.69931826e-12 0 0)
(8.21102843e-12 0 0)
(8.58432156e-12 0 0)
(8.10216673e-12 0 0)
(7.82295098e-12 0 0)
(8.71063216e-12 0 0)
(8.66939526e-12 0 0)
(8.87479837e-12 0 0)
(9.00509304e-12 0 0)
(8.90164944e-12 0 0)
(8.76978474e-12 0 0)
(8.53882318e-12 0 0)
(8.05142128e-12 0 0)
(8.84910449e-12 0 0)
(9.23762965e-12 0 0)
(9.45744363e-12 0 0)
(8.55481084e-12 0 0)
(9.46914642e-12 0 0)
(9.29442598e-12 0 0)
(9.49861558e-12 0 0)
(9.61011089e-12 0 0)
(9.85224854e-12 0 0)
(9.54729909e-12 0 0)
(9.03559193e-12 0 0)
(8.62984282e-12 0 0)
(1.06666986e-11 0 0)
(9.14496784e-12 0 0)
(9.21434608e-12 0 0)
(8.51421091e-12 0 0)
(8.67612991e-12 0 0)
(8.71207671e-12 0 0)
(9.82635336e-12 0 0)
(8.75220823e-12 0 0)
(9.18051056e-12 0 0)
(1.02655905e-11 0 0)
(9.5503254e-12 0 0)
(9.46510859e-12 0 0)
(9.60855525e-12 0 0)
(9.07250452e-12 0 0)
(1.02512672e-11 0 0)
(1.01220492e-11 0 0)
(1.00525566e-11 0 0)
(1.06083415e-11 0 0)
(8.52927839e-12 0 0)
(9.052554e-12 0 0)
(1.00370457e-11 0 0)
(9.83659181e-12 0 0)
(8.74502229e-12 0 0)
(9.50492228e-12 0 0)
(9.16520485e-12 0 0)
(8.65817646e-12 0 0)
(9.80343879e-12 0 0)
(9.07128371e-12 0 0)
(8.97288691e-12 0 0)
(8.80890496e-12 0 0)
(9.02641297e-12 0 0)
(9.00963703e-12 0 0)
(8.97556888e-12 0 0)
(8.77482186e-12 0 0)
(8.46135857e-12 0 0)
(7.94353689e-12 0 0)
(8.63921703e-12 0 0)
(9.33119001e-12 0 0)
(9.09608653e-12 0 0)
(8.57168084e-12 0 0)
(8.92839877e-12 0 0)
(8.87160066e-12 0 0)
(8.56518823e-12 0 0)
(8.3794382e-12 0 0)
(9.38166543e-12 0 0)
(8.94627145e-12 0 0)
(8.05130371e-12 0 0)
(9.82804273e-12 0 0)
(9.62212651e-12 0 0)
(8.26678123e-12 0 0)
(9.20398554e-12 0 0)
(8.89058573e-12 0 0)
(8.53292685e-12 0 0)
(8.50647829e-12 0 0)
(8.10474374e-12 0 0)
(9.29807659e-12 0 0)
(8.36276696e-12 0 0)
(7.38862886e-12 0 0)
(8.99167214e-12 0 0)
(9.91726768e-12 0 0)
(9.03005932e-12 0 0)
(9.36382693e-12 0 0)
(8.42241013e-12 0 0)
(9.98850522e-12 0 0)
(8.85295874e-12 0 0)
(8.78264827e-12 0 0)
(9.74000876e-12 0 0)
(8.94555072e-12 0 0)
(8.14552948e-12 0 0)
(8.77812217e-12 0 0)
(7.87787461e-12 0 0)
(8.48663346e-12 0 0)
(7.43782146e-12 0 0)
(7.85242445e-12 0 0)
(7.12128396e-12 0 0)
(8.03538871e-12 0 0)
(7.04056998e-12 0 0)
(8.17341235e-12 0 0)
(8.93146204e-12 0 0)
(8.48131634e-12 0 0)
(7.91386586e-12 0 0)
(7.01563287e-12 0 0)
(7.89995179e-12 0 0)
(8.44344578e-12 0 0)
(7.32836993e-12 0 0)
(8.3390993e-12 0 0)
(7.82722374e-12 0 0)
(7.47854298e-12 0 0)
(7.82186908e-12 0 0)
(7.7934407e-12 0 0)
(7.68045848e-12 0 0)
(8.31224659e-12 0 0)
(8.77660777e-12 0 0)
(7.08884351e-12 0 0)
(7.05156978e-12 0 0)
(7.63199365e-12 0 0)
(8.53695768e-12 0 0)
(8.00172851e-12 0 0)
(8.58086458e-12 0 0)
(8.81107071e-12 0 0)
(8.04737853e-12 0 0)
(8.64786457e-12 0 0)
(8.4287077e-12 0 0)
(7.52153164e-12 0 0)
(8.99574052e-12 0 0)
(9.07011324e-12 0 0)
(7.93514739e-12 0 0)
(9.01004232e-12 0 0)
(7.40156891e-12 0 0)
(8.86931422e-12 0 0)
(8.07370947e-12 0 0)
(8.32734526e-12 0 0)
(8.07659073e-12 0 0)
(8.19072444e-12 0 0)
(8.08580366e-12 0 0)
(8.69650072e-12 0 0)
(8.23068748e-12 0 0)
(7.88828473e-12 0 0)
(8.28964012e-12 0 0)
(7.97887939e-12 0 0)
(7.40486467e-12 0 0)
(8.04934778e-12 0 0)
(8.10697208e-12 0 0)
(8.34913068e-12 0 0)
(7.65031473e-12 0 0)
(8.0039519e-12 0 0)
(8.11358983e-12 0 0)
(7.00955056e-12 0 0)
(8.1146036e-12 0 0)
(6.97980296e-12 0 0)
(7.8394837e-12 0 0)
(7.85077831e-12 0 0)
(6.96426861e-12 0 0)
(7.897178e-12 0 0)
(8.46896799e-12 0 0)
(7.20326943e-12 0 0)
(7.85301806e-12 0 0)
(6.71578357e-12 0 0)
(7.9225871e-12 0 0)
(7.23460561e-12 0 0)
(7.20096342e-12 0 0)
(7.40521425e-12 0 0)
(7.18885291e-12 0 0)
(7.96072288e-12 0 0)
(6.86796309e-12 0 0)
(7.0128431e-12 0 0)
(8.06019069e-12 0 0)
(8.12571366e-12 0 0)
(7.48002746e-12 0 0)
(7.61937886e-12 0 0)
(7.47633422e-12 0 0)
(7.10880876e-12 0 0)
(7.76030208e-12 0 0)
(7.4201052e-12 0 0)
(7.25955416e-12 0 0)
(7.13513275e-12 0 0)
(6.21463735e-12 0 0)
(6.76210579e-12 0 0)
(5.77355739e-12 0 0)
(7.1405159e-12 0 0)
(6.84640168e-12 0 0)
(6.27920058e-12 0 0)
(5.7321391e-12 0 0)
(6.49529402e-12 0 0)
(6.34791572e-12 0 0)
(5.74501943e-12 0 0)
(5.03030084e-12 0 0)
(6.71887776e-12 0 0)
(5.19255831e-12 0 0)
(5.87885839e-12 0 0)
(5.68534279e-12 0 0)
(4.93456795e-12 0 0)
(4.80580405e-12 0 0)
(3.77596867e-12 0 0)
(4.57809954e-12 0 0)
(3.84572286e-12 0 0)
(4.71680237e-12 0 0)
(3.94283332e-12 0 0)
(3.61345829e-12 0 0)
(4.38867656e-12 0 0)
(4.32924307e-12 0 0)
(2.97524606e-12 0 0)
(4.02235784e-12 0 0)
(2.92619165e-12 0 0)
(3.98694946e-12 0 0)
(3.72262502e-12 0 0)
(3.8277934e-12 0 0)
(3.78234969e-12 0 0)
(3.78240108e-12 0 0)
(4.50154999e-12 0 0)
(4.43127622e-12 0 0)
(3.8015568e-12 0 0)
(3.44916406e-12 0 0)
(4.02988452e-12 0 0)
(2.93827028e-12 0 0)
(3.06870231e-12 0 0)
(4.04705719e-12 0 0)
(3.18807646e-12 0 0)
(2.63519669e-12 0 0)
(3.40417189e-12 0 0)
(3.60196403e-12 0 0)
(2.93142083e-12 0 0)
(3.33463323e-12 0 0)
(2.66645532e-12 0 0)
(2.26539572e-12 0 0)
(2.63789027e-12 0 0)
(3.37701948e-12 0 0)
(3.26399743e-12 0 0)
(3.43955652e-12 0 0)
(3.88207733e-12 0 0)
(3.29711253e-12 0 0)
(3.44336489e-12 0 0)
(2.62344295e-12 0 0)
(4.38863194e-12 0 0)
(4.08327901e-12 0 0)
(3.72783773e-12 0 0)
(4.07750996e-12 0 0)
(4.0529052e-12 0 0)
(3.85869382e-12 0 0)
(3.76644522e-12 0 0)
(3.93642273e-12 0 0)
(3.92689498e-12 0 0)
(3.14356577e-12 0 0)
(2.44244581e-12 0 0)
(4.09661338e-12 0 0)
(2.57627042e-12 0 0)
(2.29342651e-12 0 0)
(2.36588485e-12 0 0)
(3.09565859e-12 0 0)
(3.16290821e-12 0 0)
(1.47683679e-12 0 0)
(2.91988122e-12 0 0)
(1.41601166e-12 0 0)
(1.31032099e-12 0 0)
(1.2157452e-12 0 0)
(6.82332083e-13 0 0)
(1.24310561e-13 0 0)
(1.177592e-12 0 0)
(9.2084393e-14 0 0)
(5.03575862e-14 0 0)
(2.42401487e-13 0 0)
(6.24961449e-14 0 0)
(-6.96129417e-13 0 0)
(-2.51248968e-13 0 0)
(-9.09313123e-13 0 0)
(-1.10035715e-12 0 0)
(-6.71830467e-13 0 0)
(-8.71841026e-13 0 0)
(-1.32755473e-12 0 0)
(-4.59563086e-13 0 0)
(-1.22174906e-12 0 0)
(-9.96415199e-13 0 0)
(-1.00940458e-12 0 0)
(-1.43394711e-12 0 0)
(-1.52314438e-12 0 0)
(-1.61768263e-12 0 0)
(-2.42783356e-12 0 0)
(-2.11848689e-12 0 0)
(-2.0221783e-12 0 0)
(-1.80058808e-12 0 0)
(-2.3998387e-12 0 0)
(-3.023582e-12 0 0)
(-3.1802505e-12 0 0)
(-4.05929968e-12 0 0)
(-2.51662086e-12 0 0)
(-2.59762706e-12 0 0)
(-3.68413023e-12 0 0)
(-2.5713941e-12 0 0)
(-3.01157103e-12 0 0)
(-2.85027201e-12 0 0)
(-3.70655281e-12 0 0)
(-3.60767364e-12 0 0)
(-3.2874646e-12 0 0)
(-3.17623551e-12 0 0)
(-3.32585515e-12 0 0)
(-3.49189235e-12 0 0)
(-3.57131299e-12 0 0)
(-3.38489233e-12 0 0)
(-3.13488311e-12 0 0)
(-2.18572836e-12 0 0)
(-4.21655132e-12 0 0)
(-2.31705612e-12 0 0)
(-4.03704042e-12 0 0)
(-2.83580612e-12 0 0)
(-3.50518833e-12 0 0)
(-3.4118888e-12 0 0)
(-2.70840313e-12 0 0)
(-2.89986801e-12 0 0)
(-3.05938924e-12 0 0)
(-2.81213236e-12 0 0)
(-3.50659864e-12 0 0)
(-2.48407377e-12 0 0)
(-3.09948041e-12 0 0)
(-3.22666644e-12 0 0)
(-3.60160146e-12 0 0)
(-3.89204416e-12 0 0)
(-4.29804953e-12 0 0)
(-3.58535899e-12 0 0)
(-3.7276506e-12 0 0)
(-3.36428242e-12 0 0)
(-3.68527527e-12 0 0)
(-3.2010735e-12 0 0)
(-3.27412457e-12 0 0)
(-3.36140144e-12 0 0)
(-3.02589724e-12 0 0)
(-3.79123167e-12 0 0)
(-3.50317125e-12 0 0)
(-3.79961013e-12 0 0)
(-2.91937646e-12 0 0)
(-4.58198639e-12 0 0)
(-3.1792609e-12 0 0)
(-3.30082352e-12 0 0)
(-4.27060153e-12 0 0)
(-3.84818813e-12 0 0)
(-3.92897871e-12 0 0)
(-4.38680013e-12 0 0)
(-4.05288547e-12 0 0)
(-3.77624053e-12 0 0)
(-4.65594151e-12 0 0)
(-3.64612643e-12 0 0)
(-3.9266432e-12 0 0)
(-4.12656352e-12 0 0)
(-4.1625667e-12 0 0)
(-3.93244166e-12 0 0)
(-4.77944719e-12 0 0)
(-5.69641445e-12 0 0)
(-6.31293768e-12 0 0)
(-6.08447881e-12 0 0)
(-5.64527706e-12 0 0)
(-6.80500086e-12 0 0)
(-6.6661261e-12 0 0)
(-5.9491944e-12 0 0)
(-6.20584542e-12 0 0)
(-6.60760372e-12 0 0)
(-6.16465475e-12 0 0)
(-7.32598764e-12 0 0)
(-6.52739725e-12 0 0)
(-5.54077618e-12 0 0)
(-7.10000311e-12 0 0)
(-7.78357212e-12 0 0)
(-8.2005861e-12 0 0)
(-7.70346548e-12 0 0)
(-9.86261945e-12 0 0)
(-8.33760253e-12 0 0)
(-8.8757096e-12 0 0)
(-9.44900248e-12 0 0)
(-1.06073597e-11 0 0)
(-9.02777582e-12 0 0)
(-8.90337624e-12 0 0)
(-8.82134864e-12 0 0)
(-1.00106962e-11 0 0)
(-9.24564583e-12 0 0)
(-9.37740469e-12 0 0)
(-9.20898416e-12 0 0)
(-1.0426716e-11 0 0)
(-8.22470269e-12 0 0)
(-9.59178843e-12 0 0)
(-9.75266844e-12 0 0)
(-9.81258913e-12 0 0)
(-1.00027775e-11 0 0)
(-9.5626884e-12 0 0)
(-9.99569427e-12 0 0)
(-8.5897976e-12 0 0)
(-8.8593627e-12 0 0)
(-8.56833973e-12 0 0)
(-9.4475475e-12 0 0)
(-9.02801432e-12 0 0)
(-8.8284855e-12 0 0)
(-8.70508124e-12 0 0)
(-9.06232261e-12 0 0)
(-8.35688487e-12 0 0)
(-9.18753931e-12 0 0)
(-8.17831174e-12 0 0)
(-8.2853944e-12 0 0)
(-7.4214724e-12 0 0)
(-8.86004563e-12 0 0)
(-8.33310055e-12 0 0)
(-8.80862648e-12 0 0)
(-8.28119829e-12 0 0)
(-9.24128313e-12 0 0)
(-8.79242103e-12 0 0)
(-9.3019437e-12 0 0)
(-8.46011278e-12 0 0)
(-8.47798808e-12 0 0)
(-9.08640566e-12 0 0)
(-8.28376713e-12 0 0)
(-9.43322571e-12 0 0)
(-7.77631922e-12 0 0)
(-8.59451864e-12 0 0)
(-7.8128263e-12 0 0)
(-7.55076078e-12 0 0)
(-8.43143027e-12 0 0)
(-8.3304578e-12 0 0)
(-6.92643301e-12 0 0)
(-7.40769549e-12 0 0)
(-7.6370764e-12 0 0)
(-7.64161534e-12 0 0)
(-8.01231764e-12 0 0)
(-6.78943883e-12 0 0)
(-7.83072059e-12 0 0)
(-8.7907952e-12 0 0)
(-6.8164456e-12 0 0)
(-7.7335778e-12 0 0)
(-7.9127435e-12 0 0)
(-7.76104881e-12 0 0)
(-7.64698555e-12 0 0)
(-7.2967216e-12 0 0)
(-7.11344175e-12 0 0)
(-7.6337696e-12 0 0)
(-6.93506684e-12 0 0)
(-7.27828425e-12 0 0)
(-7.30526534e-12 0 0)
(-7.43311896e-12 0 0)
(-7.56959537e-12 0 0)
(-7.27487514e-12 0 0)
(-7.23250376e-12 0 0)
(-7.63177087e-12 0 0)
(-7.56314368e-12 0 0)
(-6.8253549e-12 0 0)
(-7.85950394e-12 0 0)
(-7.53721591e-12 0 0)
(-7.84258635e-12 0 0)
(-7.43707605e-12 0 0)
(-7.59180637e-12 0 0)
(-7.33640135e-12 0 0)
(-7.98895346e-12 0 0)
(-7.59089773e-12 0 0)
(-7.57636608e-12 0 0)
(-7.34339995e-12 0 0)
(-7.63864765e-12 0 0)
(-8.19734755e-12 0 0)
(-7.75371171e-12 0 0)
(-8.20740776e-12 0 0)
(-7.66480741e-12 0 0)
(-8.32591951e-12 0 0)
(-7.44732895e-12 0 0)
(-7.16621027e-12 0 0)
(-7.51974537e-12 0 0)
(-7.33433798e-12 0 0)
(-7.99042203e-12 0 0)
(-7.6152561e-12 0 0)
(-7.39639213e-12 0 0)
(-7.26199973e-12 0 0)
(-7.55155694e-12 0 0)
(-7.62591321e-12 0 0)
(-7.51568392e-12 0 0)
(-7.31537877e-12 0 0)
(-7.67122812e-12 0 0)
(-7.0771287e-12 0 0)
(-7.37310173e-12 0 0)
(-7.95331654e-12 0 0)
(-7.34573668e-12 0 0)
(-7.81972679e-12 0 0)
(-7.80234956e-12 0 0)
(-8.16700378e-12 0 0)
(-6.75272799e-12 0 0)
(-7.49108421e-12 0 0)
(-7.29611668e-12 0 0)
(-7.98608067e-12 0 0)
(-7.98545466e-12 0 0)
(-8.02940771e-12 0 0)
(-8.33643315e-12 0 0)
(-7.78589322e-12 0 0)
(-8.57794774e-12 0 0)
(-8.7829565e-12 0 0)
(-8.6972572e-12 0 0)
(-9.07876678e-12 0 0)
(-8.48971153e-12 0 0)
(-8.10949191e-12 0 0)
(-8.32794206e-12 0 0)
(-9.57275275e-12 0 0)
(-8.94539176e-12 0 0)
(-8.74213762e-12 0 0)
(-9.90955319e-12 0 0)
(-9.51858667e-12 0 0)
(-9.86687773e-12 0 0)
(-1.08158144e-11 0 0)
(-1.01990405e-11 0 0)
(-9.65715666e-12 0 0)
(-1.03507005e-11 0 0)
(-1.06375496e-11 0 0)
(-9.81750933e-12 0 0)
(-9.96870194e-12 0 0)
(-9.24784868e-12 0 0)
(-1.03470276e-11 0 0)
(-1.07830341e-11 0 0)
(-1.17244974e-11 0 0)
(-1.05262747e-11 0 0)
(-1.15024778e-11 0 0)
(-9.9912182e-12 0 0)
(-1.1664615e-11 0 0)
(-1.20101849e-11 0 0)
(-1.10178725e-11 0 0)
(-9.96360314e-12 0 0)
(-1.0864119e-11 0 0)
(-1.24928194e-11 0 0)
(-1.11711806e-11 0 0)
(-1.06584137e-11 0 0)