/*--------------------------------*- C++ -*----------------------------------*\
| =========                 |                                                 |
| \\      /  F ield         | OpenFOAM: The Open Source CFD Toolbox           |
|  \\    /   O peration     | Version:  2206                                  |
|   \\  /    A nd           | Website:  www.openfoam.com                      |
|    \\/     M anipulation  |                                                 |
\*---------------------------------------------------------------------------*/
FoamFile
{
    version     2.0;
    format      ascii;
    arch        "LSB;label=32;scalar=64";
    class       volScalarField;
    location    "1.2e-05";
    object      PVsourcePV;
}
// * * * * * * * * * * * * * * * * * * * * * * * * * * * * * * * * * * * * * //

dimensions      [1 -3 -1 0 0 0 0];

internalField   nonuniform List<scalar> 
3183
(
0
0
0
0
0
0
0
0
0
0
0
0
0
0
0
0
0
0
0
0
0
0
0
0
0
0
0
0
0
0
0
0
0
0
0
0
0
0
0
0
0
0
0
0
0
0
0
0
0
0
0
0
0
0
0
0
0
0
0
0
0
0
0
0
0
0
0
0
0
0
0
0
0
0
0
0
0
0
0
0
0
0
0
0
0
0
0
0
0
0
0
0
0
0
0
0
0
0
0
0
0
0
0
0
0
0
0
0
0
0
0
0
0
0
0
0
0
0
0
0
0
0
0
0
0
0
0
0
0
0
0
0
0
0
0
0
0
0
0
0
0
0
0
0
0
0
0
0
0
0
0
0
0
0
0
0
0
0
0
0
0
0
0
0
0
0
0
0
0
0
0
0
0
0
0
0
0
0
0
0
0
0
0
0
0
0
0
0
0
0
0
0
0
0
0
0
0
0
0
0
0
0
0
0
0
0
0
0
0
0
0
0
0
0
0
0
0
0
0
0
0
0
0
0
0
0
0
0
0
0
0
0
0
0
0
0
0
0
0
0
0
0
0
0
0
0
0
0
0
0
0
0
0
0
0
0
0
0
0
0
0
0
0
0
0
0
0
0
0
0
0
0
0
0
0
0
0
0
0
0
0
0
0
0
0
0
0
0
0
0
0
0
0
0
0
0
0
0
0
0
0
0
0
0
0
0
0
0
0
0
0
0
0
0
0
0
0
0
0
0
0
0
0
0
0
0
0
0
0
0
0
0
0
0
0
0
0
0
0
0
0
0
0
0
0
0
0
0
0
0
0
0
0
0
0
0
0
0
0
0
0
0
0
0
0
0
0
0
0
0
0
0
0
0
0
0
0
0
0
0
0
0
0
0
0
0
0
0
0
0
0
0
0
0
0
0
0
0
0
0
0
0
0
0
0
0
0
0
0
0
0
0
0
0
0
0
0
0
0
0
0
0
0
0
0
0
0
0
0
0
0
0
0
0
0
0
0
0
0
0
0
0
0
0
0
0
0
0
0
0
0
0
0
0
0
0
0
0
0
0
0
0
0
0
0
0
0
0
0
0
0
0
0
0
0
0
0
0
0
0
0
0
0
0
0
0
0
0
0
0
0
0
0
0
0
0
0
0
0
0
0
0
0
0
0
0
0
0
0
0
0
0
0
0
0
0
0
0
0
0
0
0
0
0
0
0
0
0
0
0
0
0
0
0
0
0
0
0
0
0
0
0
0
0
0
0
0
0
0
0
0
0
0
0
0
0
0
0
0
0
0
0
0
0
0
0
0
0
0
0
0
0
0
0
0
0
0
0
0
0
0
0
0
0
0
0
0
0
0
0
0
0
0
0
0
0
0
0
0
0
0
0
0
0
0
0
0
0
0
0
0
0
0
0
0
0
0
0
0
0
0
0
0
0
0
0
0
0
0
0
0
0
0
0
0
0
0
0
0
0
0
0
0
0
0
0
0
0
0
0
0
0
0
0
0
0
0
0
0
0
0
0
0
0
0
0
0
0
0
0
0
0
0
0
0
0
0
0
0
0
0
0
0
0
0
0
0
0
0
0
0
0
0
0
0
0
0
0
0
0
0
0
0
0
0
0
0
0
0
0
0
0
0
0
0
0
0
0
0
0
0
0
0
0
0
0
0
0
0
0
0
0
0
0
0
0
0
0
0
0
0
0
0
0
0
0
0
0
0
0
0
0
0
0
0
0
0
0
0
0
0
0
0
0
0
0
0
0
0
0
0
0
0
0
0
0
0
0
0
0
0
0
0
0
0
0
0
0
0
0
0
0
0
0
0
0
0
0
0
0
0
0
0
0
0
0
0
0
0
0
0
0
0
0
0
0
0
0
0
0
0
0
0
0
0
0
0
0
0
0
0
0
0
0
0
0
0
0
0
0
0
0
0
0
0
0
0
0
0
0
0
0
0
0
0
0
0
0
0
0
0
0
0
0
0
0
0
0
0
0
0
0
0
0
0
0
0
0
0
0
0
0
0
0
0
0
0
0
0
0
0
0
0
0
0
0
0
0
0
0
0
0
0
0
0
0
0
0
0
0
0
0
0
0
0
0
0
0
0
0
0
0
0
0
0
0
0
0
0
0
0
0
0
0
0
0
0
0
0
0
0
0
0
0
0
0
0
0
0
0
0
0
0
0
0
0
0
0
0
0
0
0
0
0
0
0
0
0
0
0
0
0
0
0
0
0
0
0
0
0
0
0
0
0
0
0
0
0
0
0
0
0
0
0
0
0
0
0
0
0
0
0
0
0
0
0
0
0
0
0
0
0
0
0
0
0
0
0
0
0
0
0
0
0
0
0
0
0
0
0
0
0
0
0
0
0
0
0
0
0
0
0
0
0
0
0
0
0
0
0
0
0
0
0
0
0
0
0
0
0
0
0
0
0
0
0
0
0
0
0
0
0
0
0
0
0
0
0
0
0
0
0
0
0
0
0
0
0
0
0
0
0
0
0
0
0
0
0
0
0
0
0
0
0
0
0
0
0
0
0
0
0
0
0
0
0
0
0
0
0
0
0
0
0
0
0
0
0
0
0
0
0
0
0
0
0
0
0
0
0
0
0
0
0
0
0
0
0
0
0
0
0
0
0
0
0
0
0
0
0
0
0
0
0
0
0
0
0
0
0
0
0
0
0
0
0
0
0
0
0
0
0
0
0
0
0
0
0
0
0
0
0
0
0
0
0
0
0
0
0
0
0
0
0
0
0
0
0
0
0
0
0
0
0
0
0
0
0
0
0
0
0
0
0
0
0
0
0
0
0
0
0
0
0
0
0
0
0
0
0
0
0
0
0
0
0
0
0
0
0
0
0
0
0
0
0
0
0
0
0
0
0
0
0
0
0
0
0
0
0
0
0
0
0
0
0
0
0
0
0
0
0
0
0
0
0
0
0
0
0
0
0
0
0
0
0
0
0
0
0
0
0
0
0
0
0
0
0
0
0
0
0
0
0
0
0
0
0
0
0
0
0
0
0
0
0
0
0
0
0
0
0
0
0
0
0
0
0
0
0
0
0
0
0
0
0
0
0
0
0
0
0
0
0
0
0
0
0
0
0
0
0
0
0
0
0
0
0
0
0
0
0
0
0
0
0
0
0
0
0
0
0
0
0
0
0
0
0
0
0
0
0
0
0
0
0
0
0
0
0
0
0
0
0
0
0
0
0
0
0
0
0
0
0
0
0
0
0
0
0
0
0
0
0
0
0
0
0
0
0
0
0
0
0
0
0
0
0
0
0
0
0
0
0
0
0
0
0
0
0
0
0
0
0
0
0
0
0
0
0
0
0
0
0
0
0
0
0
0
0
0
0
0
0
0
0
0
0
0
0
0
0
0
0
0
0
0
0
0
0
0
0
0
0
0
0
0
0
0
0
0
0
0
0
0
0
0
0
0
0
0
0
0
0
0
0
0
0
0
0
0
0
0
0
0
0
0
0
0
0
0
0
0
0
0
0
0
0
0
0
0
0
0
0
0
0
0
0
0
0
0
0
0
0
0
0
0
0
0
0
0
0
0
0
0
0
0
0
0
0
0
0
0
0
0
0
0
0
0
0
0
0
0
0
0
0
0
0
0
0
0
0
0
0
0
0
0
0
0
0
0
0
0
0
0
0
0
0
0
0
0
0
0
0
0
0
0
0
0
0
0
0
0
0
0
0
0
0
0
0
0
0
0
0
0
0
0
0
0
0
0
0
0
0
0
0
0
0
0
0
0
0
0
0
0
0
0
0
0
0
0
0
0
0
0
0
0
0
0
0
0
0
0
0
0
0
0
0
0
0
0
0
0
0
0
0
0
0
0
0
0
0
0
0
0
0
0
0
0
0
0
0
0
0
0
0
0
0
0
0
0
0
0
0
0
0
0
0
0
0
0
0
0
0
0
0
0
0
0
0
0
0
0
0
0
0
0
0
0
0
0
0
0
0
0
0
0
0
0
0
0
0
0
0
0
0
0
0
0
0
0
0
0
0
0
0
0
0
0
0
0
0
0
0
0
0
0
0
0
0
0
0
0
0
0
0
0
0
0
0
0
0
0
0
0
0
0
0
0
0
0
0
0
0
0
0
0
0
0
0
0
0
0
0
0
0
0
0
0
0
0
0
0
0
0
0
0
0
0
0
0
0
0
0
0
0
0
0
0
0
0
0
0
0
0
0
0
0
0
0
0
0
0
0
0
0
0
0
0
0
0
0
0
0
0
0
0
0
0
0
0
0
0
0
0
0
0
0
0
0
0
0
0
0
0
0
0
0
0
0
0
0
0
0
0
0
0
0
0
0
0
0
0
0
0
0
0
0
0
0
0
0
0
0
0
0
0
0
0
0
0
0
0
0
0
0
0
0
0
0
0
0
0
0
0
0
0
0
0
0
0
0
0
0
0
0
0
0
0
0
0
0
0
0
0
0
0
0
0
0
0
0
0
0
0
0
0
0
0
0
0
0
0
0
0
0
0
0
0
0
0
0
0
0
0
0
0
0
0
0
0
0
0
0
0
0
0
0
0
0
0
0
0
0
0
0
0
0
0
0
0
0
0
0
0
0
0
0
0
0
0
0
0
0
0
0
0
0
0
0
0
0
0
0
0
0
0
0
0
0
0
0
0
0
0
0
0
0
0
0
0
0
0
0
0
0
0
0
0
0
0
0
0
0
0
0
0
0
0
0
0
0
0
0
0
0
0
0
0
0
0
0
0
0
0
0
0
0
0
0
0
0
0
0
0
0
0
0
0
0
0
0
0
0
0
0
0
0
0
0
0
0
0
0
0
0
0
0
0
0
0
0
0
0
0
0
0
0
0
0
0
0
0
0
0
0
0
0
0
0
0
0
0
0
0
0
0
0
0
0
0
0
0
0
0
0
0
0
0
0
0
0
0
0
0
0
0
0
0
0
0
0
0
0
0
0
0
0
0
0
0
0
0
0
0
0
0
0
0
0
0
0
0
0
0
0
0
0
0
0
0
0
0
0
0
0
0
0
0
0
0
0
0
0
0
0
0
0
0
0
0
0
0
0
0
0
0
0
0
0
0
0
0
0
0
0
0
0
0
0
0
0
0
0
0
0
0
0
0
0
0
0
0
0
0
0
0
0
0
0
0
0
0
0
0
0
0
0
0
0
0
0
0
0
0
0
0
0
0
0
0
0
0
0
0
0
0
0
0
0
0
0
0
0
0
0
0
0
0
0
0
0
0
0
0
0
0
0
0
0
0
0
0
0
0
0
0
0
0
0
0
0
0
0
0
0
0
0
0
0
0
0
0
0
0
0
0
0
0
0
0
0
0
0
0
0
0
0
0
0
0
0
0
0
0
0
0
0
0
0
0
0
0
0
0
0
0
0
0
0
0
0
0
1.34399894e-298
2.35858661e-299
1.05874133e-295
1.97816567e-296
8.22018563e-293
1.6259853e-293
6.2910541e-290
1.31225783e-290
4.74637275e-287
1.04015579e-287
3.53053839e-284
8.091812e-285
2.58941881e-281
6.19944292e-282
1.87277297e-278
4.66969043e-279
1.33575356e-275
3.46535314e-276
9.39638022e-273
2.5262965e-273
6.5195907e-270
1.81321469e-270
4.46206556e-267
1.2815982e-267
3.01256004e-264
8.92256393e-265
2.00653105e-261
6.11997034e-262
1.31853223e-258
4.13626496e-259
8.54855385e-256
2.7550924e-256
5.46854806e-253
1.80881845e-253
3.45181467e-250
1.17068638e-250
2.14998632e-247
7.47004004e-248
1.32145274e-244
4.69988061e-245
8.01509032e-242
2.91589731e-242
4.79752688e-239
1.78408153e-239
2.83392423e-236
1.0765786e-236
1.65207115e-233
6.40756578e-234
9.50484625e-231
3.7616714e-231
5.39686691e-228
2.17836134e-228
3.02427509e-225
1.24439409e-225
1.6725721e-222
7.01260829e-223
9.12917773e-220
3.89858171e-220
4.91766917e-217
2.13819916e-217
2.61434948e-214
1.1569391e-214
1.37163573e-211
6.17586025e-212
7.1019424e-209
3.25244768e-209
3.62885277e-206
1.68984898e-206
1.82980275e-203
8.66176892e-204
9.10477087e-201
4.38006391e-201
4.4704256e-198
2.18504878e-198
2.16584458e-195
1.07532072e-195
1.03534687e-192
5.22033174e-193
4.88319822e-190
2.49992003e-190
2.27227305e-187
1.18087641e-187
1.04311025e-184
5.50190577e-185
4.72375415e-182
2.52830775e-182
2.11010244e-179
1.14585628e-179
9.29712527e-177
5.12137682e-177
4.04008298e-174
2.25720077e-174
1.73138523e-171
9.80953809e-172
7.3168146e-169
4.20327054e-169
3.04885009e-166
1.77561778e-166
1.25254726e-163
7.39426946e-164
5.07285041e-161
3.03516498e-161
2.02517779e-158
1.22790675e-158
7.96852651e-156
4.8954934e-156
3.08990042e-153
1.92320045e-153
1.18061278e-150
7.4438151e-151
4.44435706e-148
2.83826097e-148
1.64811561e-145
1.06594377e-145
6.01976023e-143
3.94255338e-143
2.16528769e-140
1.43586868e-140
7.66876508e-138
5.14842687e-138
2.67382779e-135
1.81711338e-135
9.17614826e-133
6.31187022e-133
3.09901065e-130
2.15734356e-130
1.02975444e-127
7.25400706e-128
3.36589017e-125
2.39906237e-125
1.08199363e-122
7.80211863e-123
3.41983908e-120
2.49452765e-120
1.06251507e-117
7.8389996e-118
3.24413924e-115
2.42055772e-115
9.73148678e-113
7.3423054e-113
2.86713463e-110
2.18718121e-110
8.29417253e-108
6.39644243e-108
2.35512322e-105
1.83591357e-105
6.56177558e-103
5.16983356e-103
1.79324399e-100
1.4277544e-100
4.80509148e-98
3.86559106e-98
1.26192174e-95
1.02562058e-95
3.24672378e-93
2.66549767e-93
8.1798008e-91
6.78252712e-91
2.01704035e-88
1.68894275e-88
4.86561338e-86
4.11361432e-86
1.14755618e-83
9.79440365e-84
2.64466153e-81
2.27836289e-81
5.95189486e-79
5.17470587e-79
1.3071933e-76
1.14676599e-76
2.79971313e-74
2.47786734e-74
5.84310152e-72
5.21627342e-72
1.18733002e-69
1.06896001e-69
2.34699286e-67
2.13055767e-67
4.50866271e-65
4.1260721e-65
8.4086906e-63
7.75601225e-63
1.52077226e-60
1.41353376e-60
2.66392819e-58
2.49462007e-58
4.51358843e-56
4.25744156e-56
7.38628083e-54
7.01615248e-54
1.16555938e-51
1.11468453e-51
1.77041805e-49
1.70424223e-49
2.58341953e-47
2.50251378e-47
3.61359894e-45
3.52150291e-45
4.83332621e-43
4.73706336e-43
6.16475082e-41
6.07435972e-41
7.47467115e-39
7.40125009e-39
8.58479186e-37
8.5368793e-37
9.30148224e-35
9.28038128e-35
9.4623705e-33
9.45845616e-33
8.98796426e-31
8.98194893e-31
7.91912949e-29
7.89226687e-29
6.42110252e-27
6.37054706e-27
4.74513244e-25
4.69219073e-25
3.15741183e-23
3.09343558e-23
1.86292062e-21
1.8591918e-21
9.54415322e-20
9.51969441e-20
4.1319794e-18
4.12921496e-18
1.450905e-16
1.44864831e-16
3.87578743e-15
3.89270532e-15
3.74073634e-11
3.8290292e-11
0.0106973354
0.0452927324
0.671142077
0.742449975
0.503303639
0.427690137
0.0962613636
0.0790907239
0.0148494972
0.0132913706
0.00266725124
0.00249864228
0.000423709643
0.000414286995
6.19637477e-05
6.19468017e-05
8.91461752e-06
8.91859728e-06
1.69246382e-06
1.69143608e-06
7.89302116e-07
7.89253288e-07
6.85189356e-07
6.85206041e-07
6.74037516e-07
6.74040382e-07
6.72918463e-07
6.72919483e-07
6.72812025e-07
6.72814511e-07
6.72802753e-07
6.72805012e-07
6.7280218e-07
6.72804868e-07
6.728009e-07
6.72804133e-07
6.72801989e-07
6.72802186e-07
6.72802673e-07
6.72801547e-07
6.72803366e-07
6.72801715e-07
6.72804679e-07
6.72801843e-07
6.72803085e-07
6.72802533e-07
6.72803844e-07
6.72802282e-07
6.72803788e-07
6.72802501e-07
6.72803663e-07
6.72802428e-07
6.72802779e-07
6.72803092e-07
6.72802984e-07
6.72802462e-07
6.72802973e-07
6.72803215e-07
6.72802455e-07
6.72802933e-07
6.72803413e-07
6.72802958e-07
6.72802461e-07
6.72802793e-07
6.72802864e-07
6.72802268e-07
6.72803485e-07
6.72802369e-07
6.72803212e-07
6.72801275e-07
6.72802785e-07
6.72802982e-07
6.7280187e-07
6.7280346e-07
6.72801466e-07
6.72803713e-07
6.72802685e-07
6.72803879e-07
6.72802321e-07
6.72803736e-07
6.72802017e-07
6.72803704e-07
6.7280229e-07
6.72803195e-07
6.72802919e-07
6.72801522e-07
6.7280397e-07
6.72801729e-07
6.72803711e-07
6.72801338e-07
6.72803452e-07
6.72802236e-07
6.72803508e-07
6.72803377e-07
6.72802991e-07
6.72803189e-07
6.72803017e-07
6.72802719e-07
6.72804061e-07
6.72803141e-07
6.72802623e-07
6.72803305e-07
6.72802723e-07
6.728034e-07
6.72803258e-07
6.72802727e-07
6.72802609e-07
6.72803481e-07
6.7280271e-07
6.72803509e-07
6.72802472e-07
6.72802809e-07
6.72802647e-07
6.72802913e-07
6.72802354e-07
6.72802751e-07
6.72802264e-07
6.72803679e-07
6.72802539e-07
6.72803441e-07
6.72802865e-07
6.72803458e-07
6.72802433e-07
6.72802876e-07
6.72802937e-07
6.72803655e-07
6.72802162e-07
6.72804241e-07
6.72802249e-07
6.7280439e-07
6.72803076e-07
6.72802979e-07
6.72804498e-07
6.72803562e-07
6.72803672e-07
6.72803458e-07
6.72804043e-07
6.72803123e-07
6.72803307e-07
6.72803221e-07
6.72801732e-07
6.72803619e-07
6.72802166e-07
6.72802604e-07
6.72802639e-07
6.72803127e-07
6.72802038e-07
6.72802956e-07
6.7280345e-07
6.72802382e-07
6.72803842e-07
6.72801975e-07
6.72804285e-07
6.72802569e-07
6.72803639e-07
6.72803268e-07
6.72803125e-07
6.72803145e-07
6.72803436e-07
6.72803427e-07
6.72804699e-07
6.72802392e-07
6.72804602e-07
6.72802866e-07
6.72804523e-07
6.72801873e-07
6.72804124e-07
6.72802433e-07
6.72802527e-07
6.72802489e-07
6.72803026e-07
6.72803075e-07
6.72802459e-07
6.72802779e-07
6.72802947e-07
6.72803348e-07
6.72803757e-07
6.72803911e-07
6.72803586e-07
6.72804305e-07
6.72804126e-07
6.72804103e-07
6.72804672e-07
6.72803745e-07
6.72803498e-07
6.72802506e-07
6.72804039e-07
6.7280236e-07
6.72803978e-07
6.72803351e-07
6.72804002e-07
6.72802859e-07
6.7280454e-07
6.72802892e-07
6.72804563e-07
6.72803267e-07
6.72802813e-07
6.72802818e-07
6.72803792e-07
6.72802365e-07
6.7280437e-07
6.72802829e-07
6.72804765e-07
6.72802502e-07
6.7280362e-07
6.72803267e-07
6.72803657e-07
6.72803215e-07
6.7280503e-07
6.72803675e-07
6.72804489e-07
6.72803066e-07
6.72804223e-07
6.72803531e-07
6.7280448e-07
6.72803525e-07
6.72803075e-07
6.72804289e-07
6.72803381e-07
6.72803314e-07
6.72804122e-07
6.7280384e-07
6.72802837e-07
6.72803588e-07
6.72803797e-07
6.72803354e-07
6.72803791e-07
6.72803433e-07
6.72804105e-07
6.72804335e-07
6.72803398e-07
6.72803644e-07
6.72804085e-07
6.72803678e-07
6.72803729e-07
6.72803529e-07
6.7280398e-07
6.72804377e-07
6.72803979e-07
6.72804346e-07
6.72803195e-07
6.72804984e-07
6.72803199e-07
6.72805127e-07
6.72802282e-07
6.72805223e-07
6.72802615e-07
6.72803787e-07
6.72803406e-07
6.72803461e-07
6.72804139e-07
6.72804062e-07
6.72803895e-07
6.72804039e-07
6.72802862e-07
6.7280444e-07
6.7280305e-07
6.72804285e-07
6.72803759e-07
6.72803688e-07
6.72804551e-07
6.72803259e-07
6.72805443e-07
6.72802459e-07
6.72805134e-07
6.72803156e-07
6.72803969e-07
6.72803589e-07
6.72803146e-07
6.7280319e-07
6.72804646e-07
6.72802537e-07
6.72803998e-07
6.72803959e-07
6.7280314e-07
6.72804517e-07
6.7280332e-07
6.72804743e-07
6.72804107e-07
6.72803181e-07
6.7280445e-07
6.72803539e-07
6.72804184e-07
6.72804303e-07
6.72803589e-07
6.72803422e-07
6.72803369e-07
6.72803401e-07
6.72803857e-07
6.72804572e-07
6.72803741e-07
6.72803991e-07
6.72804504e-07
6.728031e-07
6.72803993e-07
6.72803461e-07
6.72804176e-07
6.72804217e-07
6.72804517e-07
6.72803851e-07
6.72803711e-07
6.72804562e-07
6.72804431e-07
6.7280365e-07
6.72804941e-07
6.72803463e-07
6.72803638e-07
6.72804244e-07
6.72803639e-07
6.72804249e-07
6.72803969e-07
6.72804746e-07
6.72802921e-07
6.72804909e-07
6.72803448e-07
6.72804044e-07
6.72804027e-07
6.72803609e-07
6.7280469e-07
6.72803273e-07
6.72804647e-07
6.72803455e-07
6.72804926e-07
6.72803519e-07
6.72804529e-07
6.72803516e-07
6.72804242e-07
6.72804273e-07
6.72803745e-07
6.72805021e-07
6.72803805e-07
6.72804572e-07
6.72803864e-07
6.72803901e-07
6.72804006e-07
6.72804104e-07
6.72804175e-07
6.72804223e-07
6.72803366e-07
6.72804178e-07
6.72804478e-07
6.72804667e-07
6.72803891e-07
6.72804503e-07
6.72804374e-07
6.72804348e-07
6.72803987e-07
6.72803633e-07
6.72804842e-07
6.72803087e-07
6.72804583e-07
6.72804989e-07
6.72803366e-07
6.72804375e-07
6.72804283e-07
6.72803775e-07
6.72804748e-07
6.72804464e-07
6.72804223e-07
6.72804532e-07
6.72804654e-07
6.72803603e-07
6.72804037e-07
6.72804668e-07
6.72804618e-07
6.72804944e-07
6.72804305e-07
6.72804854e-07
6.72804976e-07
6.72804948e-07
6.72804897e-07
6.72804718e-07
6.72804591e-07
6.72804833e-07
6.72804406e-07
6.72804443e-07
6.72803329e-07
6.7280454e-07
6.72804434e-07
6.72805299e-07
6.72804817e-07
6.72804195e-07
6.72804792e-07
6.72804517e-07
6.7280486e-07
6.72803526e-07
6.72804278e-07
6.7280473e-07
6.72803569e-07
6.72804767e-07
6.728038e-07
6.72804726e-07
6.72803492e-07
6.72804809e-07
6.72804979e-07
6.72804271e-07
6.728053e-07
6.72804388e-07
6.72804972e-07
6.7280437e-07
6.72804036e-07
6.72804372e-07
6.72804043e-07
6.72805462e-07
6.7280314e-07
6.72805561e-07
6.72803525e-07
6.72805021e-07
6.72804935e-07
6.72804626e-07
6.72804833e-07
6.7280478e-07
6.72804899e-07
6.72805099e-07
6.72805221e-07
6.72804676e-07
6.7280485e-07
6.72804278e-07
6.72804509e-07
6.72804748e-07
6.7280427e-07
6.72805118e-07
6.72804122e-07
6.72805563e-07
6.7280522e-07
6.72805202e-07
6.72804736e-07
6.72805328e-07
6.72804096e-07
6.7280579e-07
6.72804598e-07
6.72804999e-07
6.72805166e-07
6.72805533e-07
6.72804759e-07
6.72805037e-07
6.72804413e-07
6.72805176e-07
6.72804935e-07
6.72805626e-07
6.72804589e-07
6.72805132e-07
6.72804644e-07
6.7280481e-07
6.72804158e-07
6.72805585e-07
6.72804859e-07
6.72805765e-07
6.72804261e-07
6.72804914e-07
6.72805326e-07
6.72804355e-07
6.72805522e-07
6.72804575e-07
6.72805076e-07
6.72805547e-07
6.7280382e-07
6.72805554e-07
6.72804923e-07
6.72804186e-07
6.7280526e-07
6.72805425e-07
6.72803952e-07
6.72805927e-07
6.72804063e-07
6.7280601e-07
6.72805238e-07
6.72805291e-07
6.72804905e-07
6.72805051e-07
6.72805208e-07
6.72804541e-07
6.72805035e-07
6.7280518e-07
6.72804172e-07
6.72806132e-07
6.72804256e-07
6.72805572e-07
6.72804278e-07
6.72805148e-07
6.72803397e-07
6.72805614e-07
6.72804127e-07
6.72805166e-07
6.72804403e-07
6.72804738e-07
6.72804715e-07
6.72804333e-07
6.72806535e-07
6.72803979e-07
6.72805493e-07
6.72804581e-07
6.7280604e-07
6.72804788e-07
6.72806598e-07
6.72803513e-07
6.7280667e-07
6.72803519e-07
6.72806252e-07
6.7280439e-07
6.72805735e-07
6.72804997e-07
6.72805103e-07
6.72805253e-07
6.72805712e-07
6.72805041e-07
6.72805759e-07
6.72804814e-07
6.72805193e-07
6.72805058e-07
6.72805415e-07
6.72804845e-07
6.72805411e-07
6.72805361e-07
6.7280555e-07
6.72805526e-07
6.72805242e-07
6.72805553e-07
6.72805297e-07
6.72805217e-07
6.7280554e-07
6.72805527e-07
6.72805563e-07
6.72805564e-07
6.72805559e-07
6.72805579e-07
6.72805691e-07
6.72805731e-07
6.72805755e-07
6.72805871e-07
6.72805908e-07
6.72806041e-07
6.72806141e-07
6.72806164e-07
6.7280632e-07
6.72806447e-07
6.72806508e-07
6.72806659e-07
6.72806814e-07
6.72806996e-07
6.72807117e-07
6.72807257e-07
6.72807436e-07
6.72807542e-07
6.72807687e-07
6.72807809e-07
6.72807912e-07
6.72807936e-07
6.7280804e-07
6.72808062e-07
6.72808077e-07
6.72808097e-07
6.72808104e-07
6.72808109e-07
6.72808123e-07
6.72808116e-07
6.72808115e-07
6.72808092e-07
6.72808088e-07
6.72808122e-07
6.72808105e-07
6.72808107e-07
6.72808112e-07
6.72808115e-07
6.72808123e-07
6.72808119e-07
6.7280811e-07
6.72808129e-07
6.72808102e-07
6.72808115e-07
6.72808105e-07
6.72808115e-07
6.72808115e-07
6.72808111e-07
6.72808111e-07
6.72808102e-07
6.72808096e-07
6.72808132e-07
)
;

boundaryField
{
    closed
    {
        type            calculated;
        value           uniform 0;
    }
    open
    {
        type            calculated;
        value           uniform 0;
    }
    sides
    {
        type            empty;
    }
}


// ************************************************************************* //
