/*--------------------------------*- C++ -*----------------------------------*\
| =========                 |                                                 |
| \\      /  F ield         | OpenFOAM: The Open Source CFD Toolbox           |
|  \\    /   O peration     | Version:  2206                                  |
|   \\  /    A nd           | Website:  www.openfoam.com                      |
|    \\/     M anipulation  |                                                 |
\*---------------------------------------------------------------------------*/
FoamFile
{
    version     2.0;
    format      ascii;
    arch        "LSB;label=32;scalar=64";
    class       volScalarField;
    location    "1.38e-05";
    object      p;
}
// * * * * * * * * * * * * * * * * * * * * * * * * * * * * * * * * * * * * * //

dimensions      [1 -1 -2 0 0 0 0];

internalField   nonuniform List<scalar> 
3183
(
101325
101325
101325
101325
101325
101325
101325
101325
101325
101325
101325
101325
101325
101325
101325
101325
101325
101325
101325
101325
101325
101325
101325
101325
101325
101325
101325
101325
101325
101325
101325
101325
101325
101325
101325
101325
101325
101325
101325
101325
101325
101325
101325
101325
101325
101325
101325
101325
101325
101325
101325
101325
101325
101325
101325
101325
101325
101325
101325
101325
101325
101325
101325
101325
101325
101325
101325
101325
101325
101325
101325
101325
101325
101325
101325
101325
101325
101325
101325
101325
101325
101325
101325
101325
101325
101325
101325
101325
101325
101325
101325
101325
101325
101325
101325
101325
101325
101325
101325
101325
101325
101325
101325
101325
101325
101325
101325
101325
101325
101325
101325
101325
101325
101325
101325
101325
101325
101325
101325
101325
101325
101325
101325
101325
101325
101325
101325
101325
101325
101325
101325
101325
101325
101325
101325
101325
101325
101325
101325
101325
101325
101325
101325
101325
101325
101325
101325
101325
101325
101325
101325
101325
101325
101325
101325
101325
101325
101325
101325
101325
101325
101325
101325
101325
101325
101325
101325
101325
101325
101325
101325
101325
101325
101325
101325
101325
101325
101325
101325
101325
101325
101325
101325
101325
101325
101325
101325
101325
101325
101325
101325
101325
101325
101325
101325
101325
101325
101325
101325
101325
101325
101325
101325
101325
101325
101325
101325
101325
101325
101325
101325
101325
101325
101325
101325
101325
101325
101325
101325
101325
101325
101325
101325
101325
101325
101325
101325
101325
101325
101325
101325
101325
101325
101325
101325
101325
101325
101325
101325
101325
101325
101325
101325
101325
101325
101325
101325
101325
101325
101325
101325
101325
101325
101325
101325
101325
101325
101325
101325
101325
101325
101325
101325
101325
101325
101325
101325
101325
101325
101325
101325
101325
101325
101325
101325
101325
101325
101325
101325
101325
101325
101325
101325
101325
101325
101325
101325
101325
101325
101325
101325
101325
101325
101325
101325
101325
101325
101325
101325
101325
101325
101325
101325
101325
101325
101325
101325
101325
101325
101325
101325
101325
101325
101325
101325
101325
101325
101325
101325
101325
101325
101325
101325
101325
101325
101325
101325
101325
101325
101325
101325
101325
101325
101325
101325
101325
101325
101325
101325
101325
101325
101325
101325
101325
101325
101325
101325
101325
101325
101325
101325
101325
101325
101325
101325
101325
101325
101325
101325
101325
101325
101325
101325
101325
101325
101325
101325
101325
101325
101325
101325
101325
101325
101325
101325
101325
101325
101325
101325
101325
101325
101325
101325
101325
101325
101325
101325
101325
101325
101325
101325
101325
101325
101325
101325
101325
101325
101325
101325
101325
101325
101325
101325
101325
101325
101325
101325
101325
101325
101325
101325
101325
101325
101325
101325
101325
101325
101325
101325
101325
101325
101325
101325
101325
101325
101325
101325
101325
101325
101325
101325
101325
101325
101325
101325
101325
101325
101325
101325
101325
101325
101325
101325
101325
101325
101325
101325
101325
101325
101325
101325
101325
101325
101325
101325
101325
101325
101325
101325
101325
101325
101325
101325
101325
101325
101325
101325
101325
101325
101325
101325
101325
101325
101325
101325
101325
101325
101325
101325
101325
101325
101325
101325
101325
101325
101325
101325
101325
101325
101325
101325
101325
101325
101325
101325
101325
101325
101325
101325
101325
101325
101325
101325
101325
101325
101325
101325
101325
101325
101325
101325
101325
101325
101325
101325
101325
101325
101325
101325
101325
101325
101325
101325
101325
101325
101325
101325
101325
101325
101325
101325
101325
101325
101325
101325
101325
101325
101325
101325
101325
101325
101325
101325
101325
101325
101325
101325
101325
101325
101325
101325
101325
101325
101325
101325
101325
101325
101325
101325
101325
101325
101325
101325
101325
101325
101325
101325
101325
101325
101325
101325
101325
101325
101325
101325
101325
101325
101325
101325
101325
101325
101325
101325
101325
101325
101325
101325
101325
101325
101325
101325
101325
101325
101325
101325
101325
101325
101325
101325
101325
101325
101325
101325
101325
101325
101325
101325
101325
101325
101325
101325
101325
101325
101325
101325
101325
101325
101325
101325
101325
101325
101325
101325
101325
101325
101325
101325
101325
101325
101325
101325
101325
101325
101325
101325
101325
101325
101325
101325
101325
101325
101325
101325
101325
101325
101325
101325
101325
101325
101325
101325
101325
101325
101325
101325
101325
101325
101325
101325
101325
101325
101325
101325
101325
101325
101325
101325
101325
101325
101325
101325
101325
101325
101325
101325
101325
101325
101325
101325
101325
101325
101325
101325
101325
101325
101325
101325
101325
101325
101325
101325
101325
101325
101325
101325
101325
101325
101325
101325
101325
101325
101325
101325
101325
101325
101325
101325
101325
101325
101325
101325
101325
101325
101325
101325
101325
101325
101325
101325
101325
101325
101325
101325
101325
101325
101325
101325
101325
101325
101325
101325
101325
101325
101325
101325
101325
101325
101325
101325
101325
101325
101325
101325
101325
101325
101325
101325
101325
101325
101325
101325
101325
101325
101325
101325
101325
101325
101325
101325
101325
101325
101325
101325
101325
101325
101325
101325
101325
101325
101325
101325
101325
101325
101325
101325
101325
101325
101325
101325
101325
101325
101325
101325
101325
101325
101325
101325
101325
101325
101325
101325
101325
101325
101325
101325
101325
101325
101325
101325
101325
101325
101325
101325
101325
101325
101325
101325
101325
101325
101325
101325
101325
101325
101325
101325
101325
101325
101325
101325
101325
101325
101325
101325
101325
101325
101325
101325
101325
101325
101325
101325
101325
101325
101325
101325
101325
101325
101325
101325
101325
101325
101325
101325
101325
101325
101325
101325
101325
101325
101325
101325
101325
101325
101325
101325
101325
101325
101325
101325
101325
101325
101325
101325
101325
101325
101325
101325
101325
101325
101325
101325
101325
101325
101325
101325
101325
101325
101325
101325
101325
101325
101325
101325
101325
101325
101325
101325
101325
101325
101325
101325
101325
101325
101325
101325
101325
101325
101325
101325
101325
101325
101325
101325
101325
101325
101325
101325
101325
101325
101325
101325
101325
101325
101325
101325
101325
101325
101325
101325
101325
101325
101325
101325
101325
101325
101325
101325
101325
101325
101325
101325
101325
101325
101325
101325
101325
101325
101325
101325
101325
101325
101325
101325
101325
101325
101325
101325
101325
101325
101325
101325
101325
101325
101325
101325
101325
101325
101325
101325
101325
101325
101325
101325
101325
101325
101325
101325
101325
101325
101325
101325
101325
101325
101325
101325
101325
101325
101325
101325
101325
101325
101325
101325
101325
101325
101325
101325
101325
101325
101325
101325
101325
101325
101325
101325
101325
101325
101325
101325
101325
101325
101325
101325
101325
101325
101325
101325
101325
101325
101325
101325
101325
101325
101325
101325
101325
101325
101325
101325
101325
101325
101325
101325
101325
101325
101325
101325
101325
101325
101325
101325
101325
101325
101325
101325
101325
101325
101325
101325
101325
101325
101325
101325
101325
101325
101325
101325
101325
101325
101325
101325
101325
101325
101325
101325
101325
101325
101325
101325
101325
101325
101325
101325
101325
101325
101325
101325
101325
101325
101325
101325
101325
101325
101325
101325
101325
101325
101325
101325
101325
101325
101325
101325
101325
101325
101325
101325
101325
101325
101325
101325
101325
101325
101325
101325
101325
101325
101325
101325
101325
101325
101325
101325
101325
101325
101325
101325
101325
101325
101325
101325
101325
101325
101325
101325
101325
101325
101325
101325
101325
101325
101325
101325
101325
101325
101325
101325
101325
101325
101325
101325
101325
101325
101325
101325
101325
101325
101325
101325
101325
101325
101325
101325
101325
101325
101325
101325
101325
101325
101325
101325
101325
101325
101325
101325
101325
101325
101325
101325
101325
101325
101325
101325
101325
101325
101325
101325
101325
101325
101325
101325
101325
101325
101325
101325
101325
101325
101325
101325
101325
101325
101325
101325
101325
101325
101325
101325
101325
101325
101325
101325
101325
101325
101325
101325
101325
101325
101325
101325
101325
101325
101325
101325
101325
101325
101325
101325
101325
101325
101325
101325
101325
101325
101325
101325
101325
101325
101325
101325
101325
101325
101325
101325
101325
101325
101325
101325
101325
101325
101325
101325
101325
101325
101325
101325
101325
101325
101325
101325
101325
101325
101325
101325
101325
101325
101325
101325
101325
101325
101325
101325
101325
101325
101325
101325
101325
101325
101325
101325
101325
101325
101325
101325
101325
101325
101325
101325
101325
101325
101325
101325
101325
101325
101325
101325
101325
101325
101325
101325
101325
101325
101325
101325
101325
101325
101325
101325
101325
101325
101325
101325
101325
101325
101325
101325
101325
101325
101325
101325
101325
101325
101325
101325
101325
101325
101325
101325
101325
101325
101325
101325
101325
101325
101325
101325
101325
101325
101325
101325
101325
101325
101325
101325
101325
101325
101325
101325
101325
101325
101325
101325
101325
101325
101325
101325
101325
101325
101325
101325
101325
101325
101325
101325
101325
101325
101325
101325
101325
101325
101325
101325
101325
101325
101325
101325
101325
101325
101325
101325
101325
101325
101325
101325
101325
101325
101325
101325
101325
101325
101325
101325
101325
101325
101325
101325
101325
101325
101325
101325
101325
101325
101325
101325
101325
101325
101325
101325
101325
101325
101325
101325
101325
101325
101325
101325
101325
101325
101325
101325
101325
101325
101325
101325
101325
101325
101325
101325
101325
101325
101325
101325
101325
101325
101325
101325
101325
101325
101325
101325
101325
101325
101325
101325
101325
101325
101325
101325
101325
101325
101325
101325
101325
101325
101325
101325
101325
101325
101325
101325
101325
101325
101325
101325
101325
101325
101325
101325
101325
101325
101325
101325
101325
101325
101325
101325
101325
101325
101325
101325
101325
101325
101325
101325
101325
101325
101325
101325
101325
101325
101325
101325
101325
101325
101325
101325
101325
101325
101325
101325
101325
101325
101325
101325
101325
101325
101325
101325
101325
101325
101325
101325
101325
101325
101325
101325
101325
101325
101325
101325
101325
101325
101325
101325
101325
101325
101325
101325
101325
101325
101325
101325
101325
101325
101325
101325
101325
101325
101325
101325
101325
101325
101325
101325
101325
101325
101325
101325
101325
101325
101325
101325
101325
101325
101325
101325
101325
101325
101325
101325
101325
101325
101325
101325
101325
101325
101325
101325
101325
101325
101325
101325
101325
101325
101325
101325
101325
101325
101325
101325
101325
101325
101325
101325
101325
101325
101325
101325
101325
101325
101325
101325
101325
101325
101325
101325
101325
101325
101325
101325
101325
101325
101325
101325
101325
101325
101325
101325
101325
101325
101325
101325
101325
101325
101325
101325
101325
101325
101325
101325
101325
101325
101325
101325
101325
101325
101325
101325
101325
101325
101325
101325
101325
101325
101325
101325
101325
101325
101325
101325
101325
101325
101325
101325
101325
101325
101325
101325
101325
101325
101325
101325
101325
101325
101325
101325
101325
101325
101325
101325
101325
101325
101325
101325
101325
101325
101325
101325
101325
101325
101325
101325
101325
101325
101325
101325
101325
101325
101325
101325
101325
101325
101325
101325
101325
101325
101325
101325
101325
101325
101325
101325
101325
101325
101325
101325
101325
101325
101325
101325
101325
101325
101325
101325
101325
101325
101325
101325
101325
101325
101325
101325
101325
101325
101325
101325
101325
101325
101325
101325
101325
101325
101325
101325
101325
101325
101325
101325
101325
101325
101325
101325
101325
101325
101325
101325
101325
101325
101325
101325
101325
101325
101325
101325
101325
101325
101325
101325
101325
101325
101325
101325
101325
101325
101325
101325
101325
101325
101325
101325
101325
101325
101325
101325
101325
101325
101325
101325
101325
101325
101325
101325
101325
101325
101325
101325
101325
101325
101325
101325
101325
101325
101325
101325
101325
101325
101325
101325
101325
101325
101325
101325
101325
101325
101325
101325
101325
101325
101325
101325
101325
101325
101325
101325
101325
101325
101325
101325
101325
101325
101325
101325
101325
101325
101325
101325
101325
101325
101325
101325
101325
101325
101325
101325
101325
101325
101325
101325
101325
101325
101325
101325
101325
101325
101325
101325
101325
101325
101325
101325
101325
101325
101325
101325
101325
101325
101325
101325
101325
101325
101325
101325
101325
101325
101325
101325
101325
101325
101325
101325
101325
101325
101325
101325
101325
101325
101325
101325
101325
101325
101325
101325
101325
101325
101325
101325
101325
101325
101325
101325
101325
101325
101325
101325
101325
101325
101325
101325
101325
101325
101325
101325
101325
101325
101325
101325
101325
101325
101325
101325
101325
101325
101325
101325
101325
101325
101325
101325
101325
101325
101325
101325
101325
101325
101325
101325
101325
101325
101325
101325
101325
101325
101325
101325
101325
101325
101325
101324.999
101324.999
101324.999
101324.999
101324.999
101324.999
101324.999
101324.999
101324.999
101324.999
101324.999
101324.999
101324.999
101324.999
101324.999
101324.999
101324.999
101324.998
101324.998
101324.998
101324.998
101324.998
101324.998
101324.998
101324.998
101324.997
101324.997
101324.997
101324.997
101324.997
101324.997
101324.996
101324.996
101324.996
101324.996
101324.995
101324.995
101324.995
101324.995
101324.994
101324.994
101324.994
101324.993
101324.993
101324.992
101324.992
101324.991
101324.991
101324.99
101324.99
101324.989
101324.988
101324.988
101324.987
101324.986
101324.986
101324.985
101324.984
101324.983
101324.982
101324.981
101324.98
101324.979
101324.978
101324.976
101324.975
101324.974
101324.972
101324.971
101324.969
101324.967
101324.965
101324.964
101324.962
101324.959
101324.957
101324.955
101324.952
101324.95
101324.947
101324.944
101324.941
101324.938
101324.935
101324.932
101324.928
101324.924
101324.92
101324.916
101324.912
101324.907
101324.903
101324.898
101324.892
101324.887
101324.881
101324.875
101324.869
101324.862
101324.855
101324.848
101324.841
101324.833
101324.825
101324.816
101324.807
101324.798
101324.788
101324.778
101324.767
101324.756
101324.744
101324.732
101324.719
101324.706
101324.692
101324.678
101324.663
101324.648
101324.631
101324.614
101324.597
101324.578
101324.559
101324.539
101324.519
101324.497
101324.475
101324.452
101324.427
101324.402
101324.376
101324.349
101324.321
101324.292
101324.261
101324.23
101324.197
101324.163
101324.128
101324.091
101324.054
101324.014
101323.974
101323.932
101323.888
101323.843
101323.797
101323.748
101323.698
101323.647
101323.593
101323.538
101323.481
101323.422
101323.361
101323.298
101323.233
101323.166
101323.097
101323.025
101322.952
101322.876
101322.798
101322.717
101322.634
101322.548
101322.46
101322.369
101322.276
101322.18
101322.081
101321.98
101321.875
101321.768
101321.658
101321.544
101321.428
101321.309
101321.186
101321.061
101320.932
101320.8
101320.664
101320.525
101320.383
101320.238
101320.089
101319.936
101319.78
101319.62
101319.457
101319.29
101319.12
101318.946
101318.768
101318.587
101318.402
101318.213
101318.02
101317.824
101317.623
101317.42
101317.212
101317
101316.785
101316.566
101316.344
101316.118
101315.888
101315.654
101315.417
101315.176
101314.931
101314.684
101314.432
101314.177
101313.919
101313.658
101313.393
101313.125
101312.854
101312.58
101312.303
101312.023
101311.74
101311.455
101311.167
101310.877
101310.584
101310.289
101309.992
101309.692
101309.391
101309.088
101308.783
101308.477
101308.17
101307.861
101307.551
101307.24
101306.929
101306.616
101306.304
101305.991
101305.678
101305.365
101305.052
101304.74
101304.428
101304.117
101303.807
101303.498
101303.191
101302.885
101302.58
101302.278
101301.978
101301.68
101301.384
101301.091
101300.802
101300.515
101300.231
101299.951
101299.675
101299.402
101299.133
101298.869
101298.609
101298.354
101298.103
101297.857
101297.617
101297.382
101297.152
101296.927
101296.709
101296.496
101296.289
101296.089
101295.895
101295.707
101295.526
101295.352
101295.184
101295.023
101294.869
101294.723
101294.583
101294.451
101294.326
101294.208
101294.098
101293.995
101293.9
101293.812
101293.731
101293.659
101293.593
101293.536
101293.486
101293.443
101293.408
101293.38
101293.36
101293.347
101293.342
101293.343
101293.352
101293.368
101293.391
101293.421
101293.457
101293.5
101293.55
101293.606
101293.668
101293.737
101293.812
101293.892
101293.978
101294.07
101294.167
101294.269
101294.377
101294.489
101294.606
101294.727
101294.853
101294.983
101295.117
101295.254
101295.396
101295.54
101295.688
101295.839
101295.992
101296.148
101296.307
101296.468
101296.631
101296.795
101296.962
101297.129
101297.298
101297.469
101297.64
101297.811
101297.984
101298.156
101298.329
101298.502
101298.675
101298.848
101299.02
101299.192
101299.363
101299.534
101299.703
101299.871
101300.038
101300.204
101300.368
101300.531
101300.693
101300.852
101301.01
101301.166
101301.32
101301.472
101301.622
101301.77
101301.915
101302.059
101302.2
101302.339
101302.475
101302.609
101302.741
101302.87
101302.997
101303.121
101303.243
101303.363
101303.48
101303.594
101303.706
101303.816
101303.924
101304.029
101304.131
101304.232
101304.33
101304.426
101304.519
101304.61
101304.7
101304.787
101304.872
101304.955
101305.036
101305.115
101305.192
101305.267
101305.341
101305.413
101305.483
101305.552
101305.619
101305.684
101305.748
101305.81
101305.872
101305.931
101305.99
101306.047
101306.104
101306.159
101306.213
101306.266
101306.318
101306.369
101306.419
101306.469
101306.517
101306.565
101306.613
101306.659
101306.706
101306.751
101306.796
101306.841
101306.885
101306.929
101306.972
101307.015
101307.058
101307.101
101307.143
101307.185
101307.227
101307.269
101307.311
101307.352
101307.394
101307.435
101307.477
101307.518
101307.56
101307.601
101307.643
101307.684
101307.726
101307.767
101307.809
101307.85
101307.892
101307.934
101307.976
101308.017
101308.059
101308.101
101308.143
101308.185
101308.227
101308.269
101308.311
101308.353
101308.394
101308.436
101308.478
101308.519
101308.561
101308.602
101308.643
101308.684
101308.725
101308.765
101308.805
101308.845
101308.885
101308.924
101308.963
101309.001
101309.039
101309.077
101309.114
101309.151
101309.187
101309.223
101309.258
101309.292
101309.326
101309.36
101309.393
101309.425
101309.456
101309.487
101309.517
101309.546
101309.575
101309.603
101309.63
101309.657
101309.683
101309.708
101309.732
101309.756
101309.779
101309.801
101309.823
101309.843
101309.863
101309.883
101309.902
101309.92
101309.937
101309.954
101309.97
101309.986
101310.001
101310.016
101310.029
101310.043
101310.056
101310.069
101310.081
101310.092
101310.104
101310.115
101310.125
101310.136
101310.146
101310.156
101310.166
101310.175
101310.185
101310.194
101310.204
101310.213
101310.222
101310.232
101310.241
101310.251
101310.26
101310.27
101310.281
101310.291
101310.302
101310.313
101310.324
101310.336
101310.348
101310.361
101310.374
101310.387
101310.401
101310.416
101310.431
101310.447
101310.463
101310.48
101310.498
101310.516
101310.535
101310.554
101310.574
101310.595
101310.616
101310.638
101310.661
101310.684
101310.708
101310.732
101310.757
101310.782
101310.808
101310.835
101310.861
101310.889
101310.916
101310.944
101310.972
101311
101311.028
101311.057
101311.085
101311.113
101311.142
101311.17
101311.198
101311.226
101311.253
101311.28
101311.307
101311.334
101311.36
101311.385
101311.41
101311.434
101311.458
101311.481
101311.503
101311.525
101311.546
101311.566
101311.586
101311.604
101311.623
101311.64
101311.657
101311.673
101311.688
101311.703
101311.717
101311.731
101311.744
101311.757
101311.769
101311.781
101311.792
101311.803
101311.814
101311.824
101311.834
101311.844
101311.854
101311.864
101311.873
101311.882
101311.892
101311.901
101311.91
101311.92
101311.929
101311.938
101311.948
101311.957
101311.967
101311.976
101311.986
101311.996
101312.005
101312.015
101312.025
101312.035
101312.045
101312.056
101312.066
101312.076
101312.087
101312.097
101312.108
101312.119
101312.13
101312.141
101312.152
101312.163
101312.175
101312.186
101312.198
101312.21
101312.223
101312.235
101312.248
101312.261
101312.274
101312.287
101312.301
101312.315
101312.329
101312.344
101312.358
101312.373
101312.388
101312.403
101312.418
101312.433
101312.448
101312.462
101312.476
101312.49
101312.502
101312.514
101312.523
101312.531
101312.537
101312.54
101312.539
101312.534
101312.523
101312.506
101312.482
101312.445
101312.378
101312.282
101312.578
101312.802
101312.769
101312.172
101312.093
101312.104
101312.233
101312.301
101312.429
101312.479
101312.547
101312.574
101312.599
101312.605
101312.609
101312.606
101312.603
101312.596
101312.59
101312.582
101312.574
101312.566
101312.558
101312.549
101312.541
101312.532
101312.524
101312.515
101312.507
101312.499
101312.49
101312.482
101312.474
101312.466
101312.458
101312.45
101312.442
101312.434
101312.426
101312.419
101312.411
101312.404
101312.396
101312.389
101312.382
101312.374
101312.367
101312.36
101312.353
101312.346
101312.339
101312.332
101312.326
101312.319
101312.312
101312.306
101312.299
101312.293
101312.286
101312.28
101312.273
101312.267
101312.261
101312.254
101312.248
101312.242
101312.236
101312.229
101312.223
101312.217
101312.211
101312.205
101312.199
101312.193
101312.187
101312.181
101312.175
101312.169
101312.163
101312.157
101312.151
101312.145
101312.14
101312.134
101312.128
101312.122
101312.116
101312.11
101312.105
101312.099
101312.093
101312.087
101312.081
101312.075
101312.07
101312.064
101312.058
101312.052
101312.047
101312.041
101312.035
101312.029
101312.024
101312.018
101312.012
101312.006
101312.001
101311.995
101311.989
101311.984
101311.978
101311.972
101311.967
101311.961
101311.955
101311.95
101311.944
101311.938
101311.933
101311.927
101311.922
101311.916
101311.911
101311.905
101311.9
101311.894
101311.889
101311.883
101311.878
101311.872
101311.867
101311.861
101311.856
101311.85
101311.845
101311.839
101311.834
101311.828
101311.823
101311.817
101311.812
101311.806
101311.8
101311.795
101311.789
101311.783
101311.777
101311.771
101311.765
101311.759
101311.753
101311.747
101311.741
101311.735
101311.728
101311.722
101311.715
101311.709
101311.702
101311.695
101311.688
101311.681
101311.673
101311.666
101311.659
101311.651
101311.643
101311.635
101311.627
101311.619
101311.61
101311.602
101311.593
101311.584
101311.575
101311.566
101311.556
101311.547
101311.537
101311.527
101311.517
101311.506
101311.495
101311.485
101311.474
101311.463
101311.451
101311.44
101311.429
101311.417
101311.405
101311.393
101311.381
101311.369
101311.356
101311.344
101311.331
101311.318
101311.305
101311.292
101311.278
101311.265
101311.252
101311.238
101311.224
101311.21
101311.196
101311.183
101311.168
101311.154
101311.14
101311.126
101311.112
101311.097
101311.083
101311.069
101311.054
101311.04
101311.026
101311.011
101310.997
101310.982
101310.968
101310.954
101310.94
101310.925
101310.911
101310.897
101310.883
101310.869
101310.855
101310.841
101310.828
101310.814
101310.8
101310.787
101310.774
101310.76
101310.747
101310.734
101310.721
101310.709
101310.696
101310.683
101310.671
101310.659
101310.647
101310.635
101310.623
101310.611
101310.6
101310.588
101310.577
101310.566
101310.555
101310.545
101310.534
101310.524
101310.513
101310.503
101310.493
101310.483
101310.474
101310.464
101310.455
101310.446
101310.437
101310.428
101310.419
101310.41
101310.402
101310.394
101310.385
101310.377
101310.369
101310.362
101310.354
101310.346
101310.339
101310.331
101310.324
101310.317
101310.31
101310.303
101310.296
101310.29
101310.283
101310.277
101310.27
101310.264
101310.257
101310.251
101310.245
101310.239
101310.233
101310.227
101310.221
101310.215
101310.209
101310.204
101310.198
101310.192
101310.186
101310.181
101310.175
101310.169
101310.164
101310.158
101310.153
101310.147
101310.141
101310.136
101310.13
101310.124
101310.119
101310.113
101310.107
101310.101
101310.096
101310.09
101310.084
101310.078
101310.072
101310.066
101310.06
101310.053
101310.047
101310.041
101310.034
101310.028
101310.021
101310.015
101310.008
101310.001
101309.994
101309.987
101309.98
101309.973
101309.965
101309.958
101309.95
101309.943
101309.935
101309.927
101309.919
101309.911
101309.902
101309.894
101309.885
101309.876
101309.868
101309.859
101309.849
101309.84
101309.831
101309.821
101309.811
101309.801
101309.791
101309.781
101309.771
101309.76
101309.749
101309.739
101309.728
101309.716
101309.705
101309.693
101309.682
101309.67
101309.658
101309.646
101309.633
101309.621
101309.608
101309.595
101309.582
101309.569
101309.555
101309.542
101309.528
101309.514
101309.5
101309.485
101309.471
101309.456
101309.441
101309.426
101309.411
101309.396
101309.38
101309.365
101309.349
101309.333
101309.317
101309.3
101309.284
101309.267
101309.251
101309.234
101309.216
101309.199
101309.182
101309.164
101309.146
101309.129
101309.111
101309.092
101309.074
101309.056
101309.037
101309.019
101309
101308.981
101308.962
101308.943
101308.923
101308.904
101308.884
101308.865
101308.845
101308.825
101308.805
101308.785
101308.765
101308.745
101308.725
101308.704
101308.684
101308.663
101308.642
101308.622
101308.601
101308.58
101308.559
101308.538
101308.517
101308.496
101308.475
101308.453
101308.432
101308.411
101308.389
101308.368
101308.347
101308.325
101308.304
101308.282
101308.26
101308.239
101308.217
101308.196
101308.174
101308.152
101308.13
101308.109
101308.087
101308.065
101308.043
101308.022
101308
101307.978
101307.956
101307.934
101307.913
101307.891
101307.869
101307.847
101307.826
101307.804
101307.782
101307.76
101307.738
101307.717
101307.695
101307.673
101307.651
101307.63
101307.608
101307.586
101307.565
101307.543
101307.521
101307.5
101307.478
101307.456
101307.435
101307.413
101307.391
101307.37
101307.348
101307.326
101307.305
101307.283
101307.262
101307.24
101307.218
101307.197
101307.175
101307.153
101307.131
101307.11
101307.088
101307.065
101307.041
101307.015
101306.987
101306.957
101306.925
101306.891
101306.854
101306.814
101306.771
101306.724
101306.674
101306.62
101306.562
101306.499
101306.43
101306.355
101306.273
101306.183
101306.085
101305.975
101305.854
101305.719
101305.567
101305.395
101305.199
101304.974
101304.715
101304.413
101304.061
101303.646
101303.156
101302.576
101301.892
101301.086
101300.146
101299.064
101297.846
101296.517
101295.134
101293.796
101292.654
101291.909
101291.802
101292.576
101294.42
101297.396
101301.38
101306.034
101310.857
101315.303
101318.944
101321.584
101323.271
101324.218
101324.686
101324.888
101324.965
101324.99
101324.998
101325
101325
101325
101325.001
101325.001
101325.001
101325.001
101325.001
101325.001
101325.001
101325.001
101325.001
101325
101325
101325
101325
101325
)
;

boundaryField
{
    closed
    {
        type            zeroGradient;
    }
    open
    {
        type            waveTransmissive;
        gamma           1.25;
        fieldInf        101325;
        lInf            1;
        value           uniform 101325;
    }
    sides
    {
        type            empty;
    }
}


// ************************************************************************* //
