/*--------------------------------*- C++ -*----------------------------------*\
| =========                 |                                                 |
| \\      /  F ield         | OpenFOAM: The Open Source CFD Toolbox           |
|  \\    /   O peration     | Version:  2206                                  |
|   \\  /    A nd           | Website:  www.openfoam.com                      |
|    \\/     M anipulation  |                                                 |
\*---------------------------------------------------------------------------*/
FoamFile
{
    version     2.0;
    format      ascii;
    arch        "LSB;label=32;scalar=64";
    class       volScalarField;
    location    "1.38e-05";
    object      PVsourcePV;
}
// * * * * * * * * * * * * * * * * * * * * * * * * * * * * * * * * * * * * * //

dimensions      [1 -3 -1 0 0 0 0];

internalField   nonuniform List<scalar> 
3183
(
0
0
0
0
0
0
0
0
0
0
0
0
0
0
0
0
0
0
0
0
0
0
0
0
0
0
0
0
0
0
0
0
0
0
0
0
0
0
0
0
0
0
0
0
0
0
0
0
0
0
0
0
0
0
0
0
0
0
0
0
0
0
0
0
0
0
0
0
0
0
0
0
0
0
0
0
0
0
0
0
0
0
0
0
0
0
0
0
0
0
0
0
0
0
0
0
0
0
0
0
0
0
0
0
0
0
0
0
0
0
0
0
0
0
0
0
0
0
0
0
0
0
0
0
0
0
0
0
0
0
0
0
0
0
0
0
0
0
0
0
0
0
0
0
0
0
0
0
0
0
0
0
0
0
0
0
0
0
0
0
0
0
0
0
0
0
0
0
0
0
0
0
0
0
0
0
0
0
0
0
0
0
0
0
0
0
0
0
0
0
0
0
0
0
0
0
0
0
0
0
0
0
0
0
0
0
0
0
0
0
0
0
0
0
0
0
0
0
0
0
0
0
0
0
0
0
0
0
0
0
0
0
0
0
0
0
0
0
0
0
0
0
0
0
0
0
0
0
0
0
0
0
0
0
0
0
0
0
0
0
0
0
0
0
0
0
0
0
0
0
0
0
0
0
0
0
0
0
0
0
0
0
0
0
0
0
0
0
0
0
0
0
0
0
0
0
0
0
0
0
0
0
0
0
0
0
0
0
0
0
0
0
0
0
0
0
0
0
0
0
0
0
0
0
0
0
0
0
0
0
0
0
0
0
0
0
0
0
0
0
0
0
0
0
0
0
0
0
0
0
0
0
0
0
0
0
0
0
0
0
0
0
0
0
0
0
0
0
0
0
0
0
0
0
0
0
0
0
0
0
0
0
0
0
0
0
0
0
0
0
0
0
0
0
0
0
0
0
0
0
0
0
0
0
0
0
0
0
0
0
0
0
0
0
0
0
0
0
0
0
0
0
0
0
0
0
0
0
0
0
0
0
0
0
0
0
0
0
0
0
0
0
0
0
0
0
0
0
0
0
0
0
0
0
0
0
0
0
0
0
0
0
0
0
0
0
0
0
0
0
0
0
0
0
0
0
0
0
0
0
0
0
0
0
0
0
0
0
0
0
0
0
0
0
0
0
0
0
0
0
0
0
0
0
0
0
0
0
0
0
0
0
0
0
0
0
0
0
0
0
0
0
0
0
0
0
0
0
0
0
0
0
0
0
0
0
0
0
0
0
0
0
0
0
0
0
0
0
0
0
0
0
0
0
0
0
0
0
0
0
0
0
0
0
0
0
0
0
0
0
0
0
0
0
0
0
0
0
0
0
0
0
0
0
0
0
0
0
0
0
0
0
0
0
0
0
0
0
0
0
0
0
0
0
0
0
0
0
0
0
0
0
0
0
0
0
0
0
0
0
0
0
0
0
0
0
0
0
0
0
0
0
0
0
0
0
0
0
0
0
0
0
0
0
0
0
0
0
0
0
0
0
0
0
0
0
0
0
0
0
0
0
0
0
0
0
0
0
0
0
0
0
0
0
0
0
0
0
0
0
0
0
0
0
0
0
0
0
0
0
0
0
0
0
0
0
0
0
0
0
0
0
0
0
0
0
0
0
0
0
0
0
0
0
0
0
0
0
0
0
0
0
0
0
0
0
0
0
0
0
0
0
0
0
0
0
0
0
0
0
0
0
0
0
0
0
0
0
0
0
0
0
0
0
0
0
0
0
0
0
0
0
0
0
0
0
0
0
0
0
0
0
0
0
0
0
0
0
0
0
0
0
0
0
0
0
0
0
0
0
0
0
0
0
0
0
0
0
0
0
0
0
0
0
0
0
0
0
0
0
0
0
0
0
0
0
0
0
0
0
0
0
0
0
0
0
0
0
0
0
0
0
0
0
0
0
0
0
0
0
0
0
0
0
0
0
0
0
0
0
0
0
0
0
0
0
0
0
0
0
0
0
0
0
0
0
0
0
0
0
0
0
0
0
0
0
0
0
0
0
0
0
0
0
0
0
0
0
0
0
0
0
0
0
0
0
0
0
0
0
0
0
0
0
0
0
0
0
0
0
0
0
0
0
0
0
0
0
0
0
0
0
0
0
0
0
0
0
0
0
0
0
0
0
0
0
0
0
0
0
0
0
0
0
0
0
0
0
0
0
0
0
0
0
0
0
0
0
0
0
0
0
0
0
0
0
0
0
0
0
0
0
0
0
0
0
0
0
0
0
0
0
0
0
0
0
0
0
0
0
0
0
0
0
0
0
0
0
0
0
0
0
0
0
0
0
0
0
0
0
0
0
0
0
0
0
0
0
0
0
0
0
0
0
0
0
0
0
0
0
0
0
0
0
0
0
0
0
0
0
0
0
0
0
0
0
0
0
0
0
0
0
0
0
0
0
0
0
0
0
0
0
0
0
0
0
0
0
0
0
0
0
0
0
0
0
0
0
0
0
0
0
0
0
0
0
0
0
0
0
0
0
0
0
0
0
0
0
0
0
0
0
0
0
0
0
0
0
0
0
0
0
0
0
0
0
0
0
0
0
0
0
0
0
0
0
0
0
0
0
0
0
0
0
0
0
0
0
0
0
0
0
0
0
0
0
0
0
0
0
0
0
0
0
0
0
0
0
0
0
0
0
0
0
0
0
0
0
0
0
0
0
0
0
0
0
0
0
0
0
0
0
0
0
0
0
0
0
0
0
0
0
0
0
0
0
0
0
0
0
0
0
0
0
0
0
0
0
0
0
0
0
0
0
0
0
0
0
0
0
0
0
0
0
0
0
0
0
0
0
0
0
0
0
0
0
0
0
0
0
0
0
0
0
0
0
0
0
0
0
0
0
0
0
0
0
0
0
0
0
0
0
0
0
0
0
0
0
0
0
0
0
0
0
0
0
0
0
0
0
0
0
0
0
0
0
0
0
0
0
0
0
0
0
0
0
0
0
0
0
0
0
0
0
0
0
0
0
0
0
0
0
0
0
0
0
0
0
0
0
0
0
0
0
0
0
0
0
0
0
0
0
0
0
0
0
0
0
0
0
0
0
0
0
0
0
0
0
0
0
0
0
0
0
0
0
0
0
0
0
0
0
0
0
0
0
0
0
0
0
0
0
0
0
0
0
0
0
0
0
0
0
0
0
0
0
0
0
0
0
0
0
0
0
0
0
0
0
0
0
0
0
0
0
0
0
0
0
0
0
0
0
0
0
0
0
0
0
0
0
0
0
0
0
0
0
0
0
0
0
0
0
0
0
0
0
0
0
0
0
0
0
0
0
0
0
0
0
0
0
0
0
0
0
0
0
0
0
0
0
0
0
0
0
0
0
0
0
0
0
0
0
0
0
0
0
0
0
0
0
0
0
0
0
0
0
0
0
0
0
0
0
0
0
0
0
0
0
0
0
0
0
0
0
0
0
0
0
0
0
0
0
0
0
0
0
0
0
0
0
0
0
0
0
0
0
0
0
0
0
0
0
0
0
0
0
0
0
0
0
0
0
0
0
0
0
0
0
0
0
0
0
0
0
0
0
0
0
0
0
0
0
0
0
0
0
0
0
0
0
0
0
0
0
0
0
0
0
0
0
0
0
0
0
0
0
0
0
0
0
0
0
0
0
0
0
0
0
0
0
0
0
0
0
0
0
0
0
0
0
0
0
0
0
0
0
0
0
0
0
0
0
0
0
0
0
0
0
0
0
0
0
0
0
0
0
0
0
0
0
0
0
0
0
0
0
0
0
0
0
0
0
0
0
0
0
0
0
0
0
0
0
0
0
0
0
0
0
0
0
0
0
0
0
0
0
0
0
0
0
0
0
0
0
0
0
0
0
0
0
0
0
0
0
0
0
0
0
0
0
0
0
0
0
0
0
0
0
0
0
0
0
0
0
0
0
0
0
0
0
0
0
0
0
0
0
0
0
0
0
0
0
0
0
0
0
0
0
0
0
0
0
0
0
0
0
0
0
0
0
0
0
0
0
0
0
0
0
0
0
0
0
0
0
0
0
0
0
0
0
0
0
0
0
0
0
0
0
0
0
0
0
0
0
0
0
0
0
0
0
0
0
0
0
0
0
0
0
0
0
0
0
0
0
0
0
0
0
0
0
0
0
0
0
0
0
0
0
0
0
0
0
0
0
0
0
0
0
0
0
0
0
0
0
0
0
0
0
0
0
0
0
0
0
0
0
0
0
0
0
0
0
0
0
0
0
0
0
0
0
0
0
0
0
0
0
0
0
0
0
0
0
0
0
0
0
0
0
0
0
0
0
0
0
0
0
0
0
0
0
0
0
0
0
0
0
0
0
0
0
0
0
0
0
0
0
0
0
0
0
0
0
0
0
0
0
0
0
0
0
0
0
0
0
0
0
0
0
0
0
0
0
0
0
0
0
0
0
0
0
0
0
0
0
0
0
0
0
0
0
0
0
0
0
0
0
0
0
0
0
0
0
0
0
0
0
0
0
0
0
0
0
0
0
0
0
0
0
0
0
0
0
0
0
0
0
0
0
0
0
0
0
0
0
0
0
0
0
0
0
0
0
0
0
0
0
0
0
0
0
0
0
0
0
0
0
0
0
0
0
0
0
0
0
0
0
0
0
0
0
0
0
0
0
0
0
0
0
0
0
0
0
0
0
0
0
0
0
0
0
0
0
0
0
0
0
0
0
0
0
0
0
0
0
0
0
0
0
0
0
0
0
0
0
0
0
0
0
0
0
0
0
0
0
0
0
0
0
0
0
0
0
0
0
0
0
0
0
0
0
0
0
0
0
0
0
0
0
0
0
0
0
0
0
0
0
0
0
0
0
0
0
0
0
0
0
0
0
0
0
0
0
0
0
0
0
0
0
0
0
0
0
0
0
0
0
0
0
0
0
0
0
0
0
0
0
0
0
0
0
0
0
0
0
0
0
0
0
0
0
0
0
0
0
0
0
0
0
0
0
0
0
0
0
0
0
0
0
0
0
0
0
0
0
0
0
0
0
0
0
0
0
0
0
0
0
0
0
0
0
0
0
0
0
0
0
0
0
0
0
0
0
0
0
0
0
0
0
0
0
0
0
0
0
0
0
0
0
0
0
0
0
0
0
0
0
0
0
0
0
0
0
0
0
0
0
0
0
0
0
0
0
0
0
0
0
0
0
0
0
0
0
0
0
0
0
0
0
0
0
0
0
0
0
0
0
0
0
0
0
0
0
0
0
0
0
0
0
0
0
0
0
0
0
0
0
0
0
0
0
0
0
0
0
0
0
0
0
0
0
0
0
0
0
0
0
0
0
0
0
0
0
0
0
0
0
0
0
0
0
0
0
0
0
0
0
0
0
0
0
0
0
0
0
0
0
0
0
0
0
0
0
0
0
0
0
0
4.21244787e-300
1.3600732e-300
2.7888186e-297
9.21280291e-298
1.82476552e-294
6.16259182e-295
1.18007985e-291
4.07146631e-292
7.54307555e-289
2.65702296e-289
4.7657604e-286
1.71257859e-286
2.97629085e-283
1.09064853e-283
1.83733976e-280
6.86246559e-281
1.12120453e-277
4.26390584e-278
6.76348655e-275
2.6198469e-275
4.03324689e-272
1.59032717e-272
2.37762956e-269
9.54491282e-270
1.38562097e-266
5.65608643e-267
7.9828891e-264
3.31221741e-264
4.5466814e-261
1.91687355e-261
2.56005904e-258
1.09635494e-258
1.42504175e-255
6.1972844e-256
7.84200918e-253
3.46219828e-253
4.26626787e-250
1.91165158e-250
2.29449784e-247
1.04322077e-247
1.21995149e-244
5.62674429e-245
6.41221866e-242
2.9995272e-242
3.33180279e-239
1.5803845e-239
1.71138868e-236
8.22972235e-237
8.689774e-234
4.23561707e-234
4.36163839e-231
2.15452934e-231
2.16402317e-228
1.0831435e-228
1.06128926e-225
5.38157778e-226
5.14461153e-223
2.64249384e-223
2.46492945e-220
1.28229609e-220
1.16727824e-217
6.14922504e-218
5.46318526e-215
2.91404652e-215
2.52697816e-212
1.36458756e-212
1.15510685e-209
6.31420209e-210
5.21780338e-207
2.88688512e-207
2.32903793e-204
1.30411162e-204
1.02722543e-201
5.82040247e-202
4.47642127e-199
2.56638281e-199
1.92728669e-196
1.11788113e-196
8.19755988e-194
4.8100497e-194
3.44442692e-191
2.04435158e-191
1.42959524e-188
8.58191778e-189
5.86058528e-186
3.55799054e-186
2.37283228e-183
1.45674684e-183
9.48759038e-181
5.88962447e-181
3.74602401e-178
2.35114207e-178
1.46040069e-175
9.26658045e-176
5.62107726e-173
3.6055302e-173
2.13584829e-170
1.38479475e-170
8.01087235e-168
5.24957136e-168
2.96552051e-165
1.96398341e-165
1.08338978e-162
7.25067522e-163
3.90552947e-160
2.64115908e-160
1.38909784e-157
9.49144933e-158
4.87402072e-155
3.36462185e-155
1.68688258e-152
1.17637834e-152
5.75789751e-150
4.05605063e-150
1.93802982e-147
1.3789262e-147
6.43142714e-145
4.62160416e-145
2.10394549e-142
1.52682121e-142
6.78372904e-140
4.97111423e-140
2.15542367e-137
1.59482275e-137
6.74755882e-135
5.04061629e-135
2.08078199e-132
1.56921718e-132
6.31952485e-130
4.8108562e-130
1.88985353e-127
1.45214214e-127
5.56366927e-125
4.31465873e-125
1.61206613e-122
1.26163236e-122
4.59607235e-120
3.62962536e-120
1.28902757e-117
1.02712133e-117
3.55543149e-115
2.85821894e-115
9.64172547e-113
7.8191581e-113
2.56992786e-110
2.1022578e-110
6.73062837e-108
5.55312566e-108
1.73147628e-105
1.44069338e-105
4.37375001e-103
3.66975916e-103
1.08445121e-100
9.17438187e-101
2.63826418e-98
2.2502042e-98
6.29510573e-96
5.41247892e-96
1.47257893e-93
1.27618298e-93
3.37558094e-91
2.94831983e-91
7.57887696e-89
6.6707087e-89
1.66581598e-86
1.47734969e-86
3.58245622e-84
3.20090751e-84
7.53386001e-82
6.78095942e-82
1.54836019e-79
1.40368906e-79
3.1078618e-77
2.83745088e-77
6.08814375e-75
5.59706163e-75
1.16310461e-72
1.07656834e-72
2.16529626e-70
2.01755363e-70
3.92472259e-68
3.68075627e-68
6.91980422e-66
6.53093855e-66
1.18560636e-63
1.12591908e-63
1.97189029e-61
1.88392247e-61
3.17991078e-59
3.05586958e-59
4.96578047e-57
4.79920819e-57
7.49896411e-55
7.28724775e-55
1.09345454e-52
1.06820357e-52
1.5369733e-50
1.5090679e-50
2.0787637e-48
2.05073684e-48
2.69985066e-46
2.67503341e-46
3.35965701e-44
3.34109815e-44
3.995595e-42
3.98390967e-42
4.5287273e-40
4.5191005e-40
4.87637772e-38
4.85664083e-38
4.97018601e-36
4.92484595e-36
4.77524447e-34
4.69973815e-34
4.30392744e-32
4.22486179e-32
3.61826604e-30
3.58544615e-30
2.81809788e-28
2.81575148e-28
2.01749623e-26
2.00926377e-26
1.31488292e-24
1.30574746e-24
7.70594081e-23
7.63741717e-23
3.99838237e-21
3.95923153e-21
1.79968241e-19
1.79996171e-19
6.83156275e-18
6.80263174e-18
2.10181981e-16
2.08740479e-16
4.91676339e-15
4.93600925e-15
6.26344733e-11
6.3343454e-11
0.00646064373
0.0282747936
0.59689669
0.693017417
0.59835855
0.524050331
0.149907425
0.122107884
0.0231866519
0.0205138217
0.00470448051
0.00433054698
0.000841905939
0.000808617437
0.000136277612
0.000135396679
2.10974409e-05
2.108223e-05
3.49501102e-06
3.503894e-06
1.03391955e-06
1.03371271e-06
7.12819226e-07
7.12920201e-07
6.74169258e-07
6.74187695e-07
6.69811314e-07
6.69813709e-07
6.69348601e-07
6.69350356e-07
6.69302085e-07
6.69302812e-07
6.69297864e-07
6.69299396e-07
6.69296223e-07
6.69298998e-07
6.69297123e-07
6.69296856e-07
6.69297498e-07
6.69296282e-07
6.69298463e-07
6.6929659e-07
6.69299049e-07
6.69296688e-07
6.69297905e-07
6.69297572e-07
6.69298216e-07
6.69297423e-07
6.69298025e-07
6.69297857e-07
6.69298126e-07
6.69297448e-07
6.69297975e-07
6.69297872e-07
6.69297884e-07
6.69297911e-07
6.6929698e-07
6.69299382e-07
6.69296872e-07
6.69298055e-07
6.69298058e-07
6.69298573e-07
6.69298013e-07
6.69297044e-07
6.69297679e-07
6.69297282e-07
6.69297911e-07
6.69297715e-07
6.69297628e-07
6.69297236e-07
6.69297358e-07
6.6929756e-07
6.69296802e-07
6.69297589e-07
6.69297031e-07
6.69297865e-07
6.69297765e-07
6.69298383e-07
6.69297683e-07
6.69298668e-07
6.69296691e-07
6.6929837e-07
6.6929774e-07
6.69297939e-07
6.69297854e-07
6.69296562e-07
6.69298751e-07
6.69296676e-07
6.69298507e-07
6.69296163e-07
6.69298943e-07
6.69296936e-07
6.69298765e-07
6.69297293e-07
6.69298505e-07
6.69297297e-07
6.69298097e-07
6.69297948e-07
6.69298771e-07
6.69298224e-07
6.69297829e-07
6.69297931e-07
6.69297869e-07
6.69298279e-07
6.6929809e-07
6.69297892e-07
6.69297747e-07
6.69298185e-07
6.692978e-07
6.6929858e-07
6.69296923e-07
6.69298221e-07
6.69297382e-07
6.6929759e-07
6.69297755e-07
6.69297312e-07
6.69296699e-07
6.69298921e-07
6.69296187e-07
6.69298729e-07
6.69297738e-07
6.69298263e-07
6.69296817e-07
6.69297736e-07
6.69297707e-07
6.69298023e-07
6.69297621e-07
6.6929861e-07
6.69297398e-07
6.69298885e-07
6.6929791e-07
6.69297719e-07
6.69298769e-07
6.69298651e-07
6.69298115e-07
6.69298299e-07
6.69298587e-07
6.69298085e-07
6.69297696e-07
6.69297882e-07
6.69297398e-07
6.69298036e-07
6.69296934e-07
6.69298261e-07
6.69297159e-07
6.69298015e-07
6.69296916e-07
6.69297797e-07
6.69298722e-07
6.6929676e-07
6.6929854e-07
6.69296981e-07
6.69298646e-07
6.6929751e-07
6.69298452e-07
6.69297921e-07
6.69298417e-07
6.69298685e-07
6.69297438e-07
6.69297649e-07
6.69300161e-07
6.69296857e-07
6.69299656e-07
6.69297428e-07
6.69299741e-07
6.69297205e-07
6.69298748e-07
6.69297701e-07
6.69297545e-07
6.69297564e-07
6.69297399e-07
6.69298048e-07
6.69296581e-07
6.69298578e-07
6.69297361e-07
6.69298605e-07
6.69298143e-07
6.69298881e-07
6.69298216e-07
6.69299095e-07
6.69298788e-07
6.69299266e-07
6.69298619e-07
6.69299345e-07
6.69297888e-07
6.69297698e-07
6.69298814e-07
6.69297547e-07
6.69299021e-07
6.69298229e-07
6.69298611e-07
6.69297245e-07
6.69298876e-07
6.69298179e-07
6.69299219e-07
6.69297737e-07
6.69297663e-07
6.69297829e-07
6.69298484e-07
6.69297379e-07
6.69299486e-07
6.69296837e-07
6.69299683e-07
6.69297248e-07
6.69298628e-07
6.6929846e-07
6.6929778e-07
6.69298597e-07
6.69299272e-07
6.69298775e-07
6.69299278e-07
6.6929827e-07
6.69298775e-07
6.69298425e-07
6.6929891e-07
6.69298511e-07
6.69297909e-07
6.69298372e-07
6.69297802e-07
6.6929869e-07
6.69298692e-07
6.69298037e-07
6.69298347e-07
6.69298812e-07
6.69298523e-07
6.6929838e-07
6.69299782e-07
6.69297664e-07
6.69298573e-07
6.69298994e-07
6.69298652e-07
6.69298233e-07
6.69298644e-07
6.69298648e-07
6.69298697e-07
6.69299358e-07
6.69298225e-07
6.69299266e-07
6.69298212e-07
6.69299197e-07
6.69298489e-07
6.69300044e-07
6.69297695e-07
6.69300605e-07
6.69296968e-07
6.69299925e-07
6.69298251e-07
6.6929732e-07
6.69299168e-07
6.69297192e-07
6.6929932e-07
6.69298525e-07
6.6929889e-07
6.69298059e-07
6.69298998e-07
6.69298655e-07
6.69298153e-07
6.69298682e-07
6.69298708e-07
6.69299017e-07
6.69299258e-07
6.69298289e-07
6.69299381e-07
6.69297915e-07
6.69299304e-07
6.69297889e-07
6.6929856e-07
6.69298361e-07
6.69298804e-07
6.69297092e-07
6.69299537e-07
6.69297847e-07
6.69298598e-07
6.69298644e-07
6.69298166e-07
6.69299628e-07
6.69298305e-07
6.69298754e-07
6.69299195e-07
6.69298184e-07
6.69298819e-07
6.69298683e-07
6.69298329e-07
6.69298729e-07
6.69298234e-07
6.69298518e-07
6.69298131e-07
6.69299367e-07
6.69298308e-07
6.69299119e-07
6.69298463e-07
6.69298436e-07
6.69299231e-07
6.69297706e-07
6.69297723e-07
6.69299188e-07
6.69298011e-07
6.69299409e-07
6.69299022e-07
6.69298791e-07
6.69298927e-07
6.69298454e-07
6.69299656e-07
6.69298253e-07
6.69298963e-07
6.69298669e-07
6.69298294e-07
6.69298646e-07
6.69298036e-07
6.69299215e-07
6.69298206e-07
6.69299609e-07
6.69297604e-07
6.69300227e-07
6.69297999e-07
6.69298867e-07
6.69298619e-07
6.69299141e-07
6.69298998e-07
6.69297711e-07
6.69300075e-07
6.69297397e-07
6.69300335e-07
6.69297911e-07
6.69299455e-07
6.69298233e-07
6.6929875e-07
6.69299366e-07
6.69298339e-07
6.69299507e-07
6.69298103e-07
6.69299294e-07
6.69298399e-07
6.69299006e-07
6.69298421e-07
6.69298737e-07
6.69298864e-07
6.69299329e-07
6.69298171e-07
6.69299243e-07
6.69298721e-07
6.692997e-07
6.69299428e-07
6.69298771e-07
6.6929913e-07
6.69299293e-07
6.69298278e-07
6.69299155e-07
6.69299423e-07
6.69297933e-07
6.6929971e-07
6.69299336e-07
6.69298611e-07
6.69298307e-07
6.69299298e-07
6.69298593e-07
6.69299514e-07
6.69298469e-07
6.69299464e-07
6.69299238e-07
6.69298871e-07
6.69298627e-07
6.69298816e-07
6.69299294e-07
6.69299643e-07
6.6929888e-07
6.69299366e-07
6.69299344e-07
6.69300123e-07
6.69299625e-07
6.69300452e-07
6.69299451e-07
6.69299167e-07
6.69299297e-07
6.69299681e-07
6.69298644e-07
6.69299018e-07
6.69299443e-07
6.69299137e-07
6.69299564e-07
6.69299197e-07
6.69298626e-07
6.6929971e-07
6.69299249e-07
6.69299354e-07
6.69299614e-07
6.69298328e-07
6.69300005e-07
6.69298006e-07
6.69299331e-07
6.69298477e-07
6.69299636e-07
6.69298111e-07
6.69299152e-07
6.69299221e-07
6.69299265e-07
6.69300156e-07
6.69299231e-07
6.69299579e-07
6.69298777e-07
6.69299378e-07
6.69298995e-07
6.69298488e-07
6.69300439e-07
6.69297993e-07
6.69300069e-07
6.69298146e-07
6.69300069e-07
6.69299265e-07
6.6929906e-07
6.69299518e-07
6.69300014e-07
6.69299444e-07
6.69299744e-07
6.69299754e-07
6.69298988e-07
6.69299656e-07
6.69299449e-07
6.69299574e-07
6.69299305e-07
6.69299766e-07
6.69299762e-07
6.69298885e-07
6.69301284e-07
6.69299133e-07
6.69300352e-07
6.69299428e-07
6.69300501e-07
6.69298885e-07
6.69300843e-07
6.69298895e-07
6.69300441e-07
6.69300107e-07
6.69299215e-07
6.69300384e-07
6.69299277e-07
6.69299954e-07
6.69300196e-07
6.69299201e-07
6.69300599e-07
6.6929912e-07
6.69300449e-07
6.69299136e-07
6.69299442e-07
6.69298852e-07
6.69300736e-07
6.6929907e-07
6.69300541e-07
6.69299314e-07
6.69299447e-07
6.69300211e-07
6.69299273e-07
6.69300451e-07
6.69299265e-07
6.6929905e-07
6.69300383e-07
6.69298879e-07
6.69299497e-07
6.69300227e-07
6.69299083e-07
6.69300565e-07
6.69299576e-07
6.69299204e-07
6.69300363e-07
6.69299189e-07
6.69300891e-07
6.69299454e-07
6.69300289e-07
6.69299279e-07
6.69300053e-07
6.69299335e-07
6.69299697e-07
6.6929928e-07
6.69299477e-07
6.69299549e-07
6.69300189e-07
6.69299436e-07
6.69300216e-07
6.69299088e-07
6.69299612e-07
6.69299115e-07
6.6929992e-07
6.69298345e-07
6.69299905e-07
6.69299104e-07
6.6929937e-07
6.69299607e-07
6.69298614e-07
6.69300743e-07
6.69298724e-07
6.69300191e-07
6.69299171e-07
6.69300978e-07
6.69298828e-07
6.69300934e-07
6.69297756e-07
6.69301682e-07
6.69297828e-07
6.69301518e-07
6.69298047e-07
6.69300526e-07
6.69299124e-07
6.69299796e-07
6.69300355e-07
6.69300149e-07
6.69299214e-07
6.6930073e-07
6.69299412e-07
6.69299745e-07
6.69299831e-07
6.69299964e-07
6.69299656e-07
6.69299954e-07
6.6929994e-07
6.69300253e-07
6.69299956e-07
6.69299879e-07
6.69300245e-07
6.69299909e-07
6.69299773e-07
6.69300157e-07
6.69300163e-07
6.69300141e-07
6.69300073e-07
6.69300164e-07
6.6930004e-07
6.69300249e-07
6.69300237e-07
6.69300274e-07
6.69300317e-07
6.69300354e-07
6.69300473e-07
6.69300547e-07
6.69300519e-07
6.69300655e-07
6.6930074e-07
6.69300782e-07
6.69300888e-07
6.69301023e-07
6.69301184e-07
6.6930128e-07
6.69301444e-07
6.69301643e-07
6.69301797e-07
6.69302017e-07
6.69302253e-07
6.69302473e-07
6.69302639e-07
6.69302874e-07
6.69303033e-07
6.6930316e-07
6.69303275e-07
6.69303336e-07
6.69303378e-07
6.69303415e-07
6.69303422e-07
6.69303424e-07
6.69303398e-07
6.69303395e-07
6.69303431e-07
6.69303415e-07
6.69303418e-07
6.69303419e-07
6.69303419e-07
6.69303428e-07
6.69303428e-07
6.6930342e-07
6.69303438e-07
6.69303417e-07
6.69303426e-07
6.69303416e-07
6.69303421e-07
6.69303423e-07
6.69303419e-07
6.69303427e-07
6.69303415e-07
6.69303403e-07
6.69303443e-07
)
;

boundaryField
{
    closed
    {
        type            calculated;
        value           uniform 0;
    }
    open
    {
        type            calculated;
        value           uniform 0;
    }
    sides
    {
        type            empty;
    }
}


// ************************************************************************* //
