/*--------------------------------*- C++ -*----------------------------------*\
| =========                 |                                                 |
| \\      /  F ield         | OpenFOAM: The Open Source CFD Toolbox           |
|  \\    /   O peration     | Version:  2206                                  |
|   \\  /    A nd           | Website:  www.openfoam.com                      |
|    \\/     M anipulation  |                                                 |
\*---------------------------------------------------------------------------*/
FoamFile
{
    version     2.0;
    format      ascii;
    arch        "LSB;label=32;scalar=64";
    class       volScalarField;
    location    "1.38e-05";
    object      sourcePV;
}
// * * * * * * * * * * * * * * * * * * * * * * * * * * * * * * * * * * * * * //

dimensions      [1 -3 -1 0 0 0 0];

internalField   nonuniform List<scalar> 
3183
(
0
0
0
0
0
0
0
0
0
0
0
0
0
0
0
0
0
0
0
0
0
0
0
0
0
0
0
0
0
0
0
0
0
0
0
0
0
0
0
0
0
0
0
0
0
0
0
0
0
0
0
0
0
0
0
0
0
0
0
0
0
0
0
0
0
0
0
0
0
0
0
0
0
0
0
0
0
0
0
0
0
0
0
0
0
0
0
0
0
0
0
0
0
0
0
0
0
0
0
0
0
0
0
0
0
0
0
0
0
0
0
0
0
0
0
0
0
0
0
0
0
0
0
0
0
0
0
0
0
0
0
0
0
0
0
0
0
0
0
0
0
0
0
0
0
0
0
0
0
0
0
0
0
0
0
0
0
0
0
0
0
0
0
0
0
0
0
0
0
0
0
0
0
0
0
0
0
0
0
0
0
0
0
0
0
0
0
0
0
0
0
0
0
0
0
0
0
0
0
0
0
0
0
0
0
0
0
0
0
0
0
0
0
0
0
0
0
0
0
0
0
0
0
0
0
0
0
0
0
0
0
0
0
0
0
0
0
0
0
0
0
0
0
0
0
0
0
0
0
0
0
0
0
0
0
0
0
0
0
0
0
0
0
0
0
0
0
0
0
0
0
0
0
0
0
0
0
0
0
0
0
0
0
0
0
0
0
0
0
0
0
0
0
0
0
0
0
0
0
0
0
0
0
0
0
0
0
0
0
0
0
0
0
0
0
0
0
0
0
0
0
0
0
0
0
0
0
0
0
0
0
0
0
0
0
0
0
0
0
0
0
0
0
0
0
0
0
0
0
0
0
0
0
0
0
0
0
0
0
0
0
0
0
0
0
0
0
0
0
0
0
0
0
0
0
0
0
0
0
0
0
0
0
0
0
0
0
0
0
0
0
0
0
0
0
0
0
0
0
0
0
0
0
0
0
0
0
0
0
0
0
0
0
0
0
0
0
0
0
0
0
0
0
0
0
0
0
0
0
0
0
0
0
0
0
0
0
0
0
0
0
0
0
0
0
0
0
0
0
0
0
0
0
0
0
0
0
0
0
0
0
0
0
0
0
0
0
0
0
0
0
0
0
0
0
0
0
0
0
0
0
0
0
0
0
0
0
0
0
0
0
0
0
0
0
0
0
0
0
0
0
0
0
0
0
0
0
0
0
0
0
0
0
0
0
0
0
0
0
0
0
0
0
0
0
0
0
0
0
0
0
0
0
0
0
0
0
0
0
0
0
0
0
0
0
0
0
0
0
0
0
0
0
0
0
0
0
0
0
0
0
0
0
0
0
0
0
0
0
0
0
0
0
0
0
0
0
0
0
0
0
0
0
0
0
0
0
0
0
0
0
0
0
0
0
0
0
0
0
0
0
0
0
0
0
0
0
0
0
0
0
0
0
0
0
0
0
0
0
0
0
0
0
0
0
0
0
0
0
0
0
0
0
0
0
0
0
0
0
0
0
0
0
0
0
0
0
0
0
0
0
0
0
0
0
0
0
0
0
0
0
0
0
0
0
0
0
0
0
0
0
0
0
0
0
0
0
0
0
0
0
0
0
0
0
0
0
0
0
0
0
0
0
0
0
0
0
0
0
0
0
0
0
0
0
0
0
0
0
0
0
0
0
0
0
0
0
0
0
0
0
0
0
0
0
0
0
0
0
0
0
0
0
0
0
0
0
0
0
0
0
0
0
0
0
0
0
0
0
0
0
0
0
0
0
0
0
0
0
0
0
0
0
0
0
0
0
0
0
0
0
0
0
0
0
0
0
0
0
0
0
0
0
0
0
0
0
0
0
0
0
0
0
0
0
0
0
0
0
0
0
0
0
0
0
0
0
0
0
0
0
0
0
0
0
0
0
0
0
0
0
0
0
0
0
0
0
0
0
0
0
0
0
0
0
0
0
0
0
0
0
0
0
0
0
0
0
0
0
0
0
0
0
0
0
0
0
0
0
0
0
0
0
0
0
0
0
0
0
0
0
0
0
0
0
0
0
0
0
0
0
0
0
0
0
0
0
0
0
0
0
0
0
0
0
0
0
0
0
0
0
0
0
0
0
0
0
0
0
0
0
0
0
0
0
0
0
0
0
0
0
0
0
0
0
0
0
0
0
0
0
0
0
0
0
0
0
0
0
0
0
0
0
0
0
0
0
0
0
0
0
0
0
0
0
0
0
0
0
0
0
0
0
0
0
0
0
0
0
0
0
0
0
0
0
0
0
0
0
0
0
0
0
0
0
0
0
0
0
0
0
0
0
0
0
0
0
0
0
0
0
0
0
0
0
0
0
0
0
0
0
0
0
0
0
0
0
0
0
0
0
0
0
0
0
0
0
0
0
0
0
0
0
0
0
0
0
0
0
0
0
0
0
0
0
0
0
0
0
0
0
0
0
0
0
0
0
0
0
0
0
0
0
0
0
0
0
0
0
0
0
0
0
0
0
0
0
0
0
0
0
0
0
0
0
0
0
0
0
0
0
0
0
0
0
0
0
0
0
0
0
0
0
0
0
0
0
0
0
0
0
0
0
0
0
0
0
0
0
0
0
0
0
0
0
0
0
0
0
0
0
0
0
0
0
0
0
0
0
0
0
0
0
0
0
0
0
0
0
0
0
0
0
0
0
0
0
0
0
0
0
0
0
0
0
0
0
0
0
0
0
0
0
0
0
0
0
0
0
0
0
0
0
0
0
0
0
0
0
0
0
0
0
0
0
0
0
0
0
0
0
0
0
0
0
0
0
0
0
0
0
0
0
0
0
0
0
0
0
0
0
0
0
0
0
0
0
0
0
0
0
0
0
0
0
0
0
0
0
0
0
0
0
0
0
0
0
0
0
0
0
0
0
0
0
0
0
0
0
0
0
0
0
0
0
0
0
0
0
0
0
0
0
0
0
0
0
0
0
0
0
0
0
0
0
0
0
0
0
0
0
0
0
0
0
0
0
0
0
0
0
0
0
0
0
0
0
0
0
0
0
0
0
0
0
0
0
0
0
0
0
0
0
0
0
0
0
0
0
0
0
0
0
0
0
0
0
0
0
0
0
0
0
0
0
0
0
0
0
0
0
0
0
0
0
0
0
0
0
0
0
0
0
0
0
0
0
0
0
0
0
0
0
0
0
0
0
0
0
0
0
0
0
0
0
0
0
0
0
0
0
0
0
0
0
0
0
0
0
0
0
0
0
0
0
0
0
0
0
0
0
0
0
0
0
0
0
0
0
0
0
0
0
0
0
0
0
0
0
0
0
0
0
0
0
0
0
0
0
0
0
0
0
0
0
0
0
0
0
0
0
0
0
0
0
0
0
0
0
0
0
0
0
0
0
0
0
0
0
0
0
0
0
0
0
0
0
0
0
0
0
0
0
0
0
0
0
0
0
0
0
0
0
0
0
0
0
0
0
0
0
0
0
0
0
0
0
0
0
0
0
0
0
0
0
0
0
0
0
0
0
0
0
0
0
0
0
0
0
0
0
0
0
0
0
0
0
0
0
0
0
0
0
0
0
0
0
0
0
0
0
0
0
0
0
0
0
0
0
0
0
0
0
0
0
0
0
0
0
0
0
0
0
0
0
0
0
0
0
0
0
0
0
0
0
0
0
0
0
0
0
0
0
0
0
0
0
0
0
0
0
0
0
0
0
0
0
0
0
0
0
0
0
0
0
0
0
0
0
0
0
0
0
0
0
0
0
0
0
0
0
0
0
0
0
0
0
0
0
0
0
0
0
0
0
0
0
0
0
0
0
0
0
0
0
0
0
0
0
0
0
0
0
0
0
0
0
0
0
0
0
0
0
0
0
0
0
0
0
0
0
0
0
0
0
0
0
0
0
0
0
0
0
0
0
0
0
0
0
0
0
0
0
0
0
0
0
0
0
0
0
0
0
0
0
0
0
0
0
0
0
0
0
0
0
0
0
0
0
0
0
0
0
0
0
0
0
0
0
0
0
0
0
0
0
0
0
0
0
0
0
0
0
0
0
0
0
0
0
0
0
0
0
0
0
0
0
0
0
0
0
0
0
0
0
0
0
0
0
0
0
0
0
0
0
0
0
0
0
0
0
0
0
0
0
0
0
0
0
0
0
0
0
0
0
0
0
0
0
0
0
0
0
0
0
0
0
0
0
0
0
0
0
0
0
0
0
0
0
0
0
0
0
0
0
0
0
0
0
0
0
0
0
0
0
0
0
0
0
0
0
0
0
0
0
0
0
0
0
0
0
0
0
0
0
0
0
0
0
0
0
0
0
0
0
0
0
0
0
0
0
0
0
0
0
0
0
0
0
0
0
0
0
0
0
0
0
0
0
0
0
0
0
0
0
0
0
0
0
0
0
0
0
0
0
0
0
0
0
0
0
0
0
0
0
0
0
0
0
0
0
0
0
0
0
0
0
0
0
0
0
0
0
0
0
0
0
0
0
0
0
0
0
0
0
0
0
0
0
0
0
0
0
0
0
0
0
0
0
0
0
0
0
0
0
0
0
0
0
0
0
0
0
0
0
0
0
0
0
0
0
0
0
0
0
0
0
0
0
0
0
0
0
0
0
0
0
0
0
0
0
0
0
0
0
0
0
0
0
0
0
0
0
0
0
0
0
0
0
0
0
0
0
0
0
0
0
0
0
0
0
0
0
0
0
0
0
0
0
0
0
0
0
0
0
0
0
0
0
0
0
0
0
0
0
0
0
0
0
0
0
0
0
0
0
0
0
0
0
0
0
0
0
0
0
0
0
0
0
0
0
0
0
0
0
0
0
0
0
0
0
0
0
0
0
0
0
0
0
0
0
0
0
0
0
0
0
0
0
0
0
0
0
0
0
0
0
0
0
0
0
0
0
0
0
0
0
0
0
0
0
0
0
0
0
0
0
0
0
0
0
0
0
0
0
0
0
0
0
0
0
0
0
0
0
0
0
0
0
0
0
0
0
0
0
0
0
0
0
0
0
0
0
0
0
0
0
0
0
0
0
0
0
0
0
0
0
0
0
0
0
0
0
0
0
0
0
0
0
0
0
0
0
0
0
0
0
0
0
0
0
0
0
0
0
0
0
0
0
0
0
0
0
0
0
0
0
0
0
0
0
0
0
0
0
0
0
0
0
0
0
0
0
0
0
0
0
0
0
0
0
0
0
0
0
0
0
0
0
0
0
0
0
0
0
0
0
0
0
0
0
0
0
0
0
0
0
0
0
0
0
0
0
0
0
0
0
0
0
0
0
0
0
0
0
0
0
0
0
0
0
0
0
0
0
0
0
0
0
0
0
0
0
0
0
0
0
0
0
0
0
0
0
0
0
0
0
0
0
0
0
0
0
0
0
0
0
0
0
0
0
0
0
0
0
0
0
0
0
0
0
0
0
0
0
1.09787119e-299
3.46157711e-300
7.3545107e-297
2.37455115e-297
4.86899705e-294
1.60846282e-294
3.18585724e-291
1.07592661e-291
2.06030085e-288
7.10837107e-289
1.3169452e-285
4.6388951e-286
8.32053879e-283
2.98999014e-283
5.19630476e-280
1.90416274e-280
3.2078106e-277
1.19811754e-277
1.95751045e-274
7.44435115e-275
1.18083679e-271
4.57398945e-272
7.0416438e-269
2.77655145e-269
4.1511023e-266
1.66644587e-266
2.41915498e-263
9.87495858e-264
1.39373222e-260
5.78279878e-261
7.93804888e-258
3.34666862e-258
4.46960584e-255
1.91412556e-255
2.48797971e-252
1.08198359e-252
1.36913601e-249
6.04465031e-250
7.44847502e-247
3.33755156e-247
4.00596268e-244
1.82135864e-244
2.12991271e-241
9.82373014e-242
1.11950895e-238
5.2368731e-239
5.81699289e-236
2.75919255e-236
2.98791268e-233
1.43682683e-233
1.51714722e-230
7.39496181e-231
7.61498237e-228
3.76159174e-228
3.778167e-225
1.89105972e-225
1.8529044e-222
9.39569406e-223
8.98197479e-220
4.61352872e-220
4.30351914e-217
2.23876012e-217
2.03795052e-214
1.0735929e-214
9.53817251e-212
5.08763242e-212
4.41184995e-209
2.38243276e-209
2.01670049e-206
1.10239624e-206
9.10976041e-204
5.04021134e-204
4.06626621e-201
2.27684786e-201
1.79343239e-198
1.01618379e-198
7.81538174e-196
4.48064651e-196
3.36484891e-193
1.95170813e-193
1.43121158e-190
8.39786346e-191
6.0136233e-188
3.56923244e-188
2.49592965e-185
1.49831661e-185
1.0231993e-182
6.21189397e-183
4.14272674e-180
2.5433336e-180
1.65643795e-177
1.02826925e-177
6.54018151e-175
4.10485781e-175
2.54971285e-172
1.61785183e-172
9.81383609e-170
6.29489343e-170
3.7289765e-167
2.41771248e-167
1.39861782e-164
9.16522411e-165
5.17750083e-162
3.42891769e-162
1.89148969e-159
1.26589504e-159
6.81866202e-157
4.61119837e-157
2.42522525e-154
1.65711168e-154
8.50955043e-152
5.87429167e-152
2.94512748e-149
2.05383838e-149
1.00527105e-146
7.08145684e-147
3.38360533e-144
2.40746659e-144
1.12286255e-141
8.06885648e-142
3.67327743e-139
2.66567641e-139
1.18437093e-136
8.67906595e-137
3.76315316e-134
2.78440026e-134
1.17805597e-131
8.80040955e-132
3.63283628e-129
2.73969553e-129
1.10332554e-126
8.39927151e-127
3.29949437e-124
2.53529427e-124
9.7136075e-122
7.53296059e-122
2.81450548e-119
2.20268333e-119
8.0242805e-117
6.33696117e-117
2.25051262e-114
1.79325064e-114
6.20742613e-112
4.99016308e-112
1.68334839e-109
1.36514644e-109
4.48683581e-107
3.67033088e-107
1.17510008e-104
9.69519941e-105
3.02298359e-102
2.51530588e-102
7.63612803e-100
6.40703076e-100
1.89334285e-97
1.60175489e-97
4.60614417e-95
3.92863043e-95
1.09906221e-92
9.44964433e-93
2.57097484e-90
2.22808724e-90
5.89342514e-88
5.14747017e-88
1.32319576e-85
1.16463871e-85
2.90834732e-83
2.57930411e-83
6.25460859e-81
5.58846288e-81
1.31533626e-78
1.18388738e-78
2.70328131e-76
2.45070005e-76
5.42601441e-74
4.95390412e-74
1.06292872e-71
9.77190721e-72
2.03066377e-69
1.87958014e-69
3.78038969e-67
3.52244591e-67
6.85217129e-65
6.42623059e-65
1.20812829e-62
1.14023625e-62
2.06994958e-60
1.96574158e-60
3.44272231e-58
3.28913933e-58
5.5518047e-56
5.33524122e-56
8.66975373e-54
8.37893526e-54
1.30924378e-51
1.27228023e-51
1.90906175e-49
1.86497609e-49
2.68340094e-47
2.63468091e-47
3.62931255e-45
3.58038047e-45
4.71366797e-43
4.67033955e-43
5.86562356e-41
5.83322166e-41
6.97590738e-39
6.95550597e-39
7.90670281e-37
7.88989539e-37
8.51366551e-35
8.47920688e-35
8.67744536e-33
8.59828617e-33
8.33709702e-31
8.20527058e-31
7.51422485e-29
7.37618416e-29
6.31712894e-27
6.25982871e-27
4.92011574e-25
4.91601915e-25
3.52234569e-23
3.50797265e-23
2.29565346e-21
2.27970386e-21
1.34537984e-19
1.3334163e-19
6.98077386e-18
6.91242043e-18
3.14206465e-16
3.14255228e-16
1.19272221e-14
1.18767115e-14
3.6695662e-13
3.64439902e-13
8.58417484e-12
8.61777618e-12
9.14558861e-09
9.23162023e-09
0.146188437
0.576243949
8.64735445
9.6901154
7.46057486
6.46458089
1.78185149
1.44781294
0.272330258
0.240937517
0.0552547355
0.0508628373
0.00988829155
0.00949731374
0.00160059449
0.00159024782
0.000247788303
0.000247609648
4.10454595e-05
4.11497912e-05
1.21396181e-05
1.21371887e-05
8.36825272e-06
8.36943868e-06
7.91430378e-06
7.91452033e-06
7.86311917e-06
7.8631473e-06
7.85768453e-06
7.85770516e-06
7.8571382e-06
7.85714674e-06
7.85708862e-06
7.85710662e-06
7.85706936e-06
7.85710195e-06
7.85707993e-06
7.85707678e-06
7.85708432e-06
7.85707005e-06
7.85709567e-06
7.85707367e-06
7.85710254e-06
7.85707481e-06
7.85708911e-06
7.85708519e-06
7.85709276e-06
7.85708344e-06
7.85709052e-06
7.85708854e-06
7.85709171e-06
7.85708374e-06
7.85708993e-06
7.85708872e-06
7.85708886e-06
7.85708917e-06
7.85707824e-06
7.85710646e-06
7.85707697e-06
7.85709087e-06
7.8570909e-06
7.85709696e-06
7.85709038e-06
7.857079e-06
7.85708645e-06
7.85708179e-06
7.85708917e-06
7.85708688e-06
7.85708585e-06
7.85708125e-06
7.85708268e-06
7.85708505e-06
7.85707616e-06
7.85708539e-06
7.85707885e-06
7.85708863e-06
7.85708746e-06
7.85709472e-06
7.85708651e-06
7.85709807e-06
7.85707486e-06
7.85709457e-06
7.85708717e-06
7.8570895e-06
7.85708851e-06
7.85707333e-06
7.85709905e-06
7.85707467e-06
7.85709617e-06
7.85706865e-06
7.8571013e-06
7.85707773e-06
7.8570992e-06
7.85708192e-06
7.85709615e-06
7.85708197e-06
7.85709137e-06
7.85708961e-06
7.85709928e-06
7.85709286e-06
7.85708821e-06
7.85708942e-06
7.85708869e-06
7.8570935e-06
7.85709128e-06
7.85708895e-06
7.85708726e-06
7.85709239e-06
7.85708787e-06
7.85709703e-06
7.85707758e-06
7.85709282e-06
7.85708297e-06
7.8570854e-06
7.85708734e-06
7.85708214e-06
7.85707494e-06
7.85710104e-06
7.85706892e-06
7.85709878e-06
7.85708714e-06
7.85709332e-06
7.85707633e-06
7.85708712e-06
7.85708678e-06
7.8570905e-06
7.85708577e-06
7.85709739e-06
7.85708315e-06
7.85710061e-06
7.85708916e-06
7.85708692e-06
7.85709926e-06
7.85709787e-06
7.85709158e-06
7.85709374e-06
7.85709712e-06
7.85709122e-06
7.85708665e-06
7.85708884e-06
7.85708316e-06
7.85709065e-06
7.8570777e-06
7.85709328e-06
7.85708034e-06
7.8570904e-06
7.85707749e-06
7.85708784e-06
7.85709871e-06
7.85707566e-06
7.85709657e-06
7.85707825e-06
7.85709782e-06
7.85708447e-06
7.85709553e-06
7.8570893e-06
7.85709513e-06
7.85709827e-06
7.85708362e-06
7.8570861e-06
7.85711561e-06
7.85707679e-06
7.85710967e-06
7.85708351e-06
7.85711067e-06
7.85708089e-06
7.85709901e-06
7.85708672e-06
7.85708488e-06
7.85708511e-06
7.85708317e-06
7.85709078e-06
7.85707355e-06
7.85709701e-06
7.85708271e-06
7.85709733e-06
7.85709191e-06
7.85710057e-06
7.85709276e-06
7.85710308e-06
7.85709948e-06
7.85710509e-06
7.8570975e-06
7.85710602e-06
7.85708891e-06
7.85708667e-06
7.85709979e-06
7.85708491e-06
7.85710221e-06
7.85709291e-06
7.8570974e-06
7.85708136e-06
7.85710051e-06
7.85709233e-06
7.85710454e-06
7.85708713e-06
7.85708626e-06
7.85708821e-06
7.85709591e-06
7.85708293e-06
7.85710768e-06
7.85707656e-06
7.85710999e-06
7.85708139e-06
7.85709759e-06
7.85709562e-06
7.85708764e-06
7.85709723e-06
7.85710517e-06
7.85709932e-06
7.85710523e-06
7.85709339e-06
7.85709932e-06
7.85709521e-06
7.85710091e-06
7.85709623e-06
7.85708915e-06
7.8570946e-06
7.85708789e-06
7.85709833e-06
7.85709836e-06
7.85709066e-06
7.8570943e-06
7.85709977e-06
7.85709637e-06
7.85709468e-06
7.85711115e-06
7.85708628e-06
7.85709695e-06
7.85710189e-06
7.85709788e-06
7.85709297e-06
7.85709778e-06
7.85709784e-06
7.85709841e-06
7.85710617e-06
7.85709287e-06
7.85710509e-06
7.85709271e-06
7.85710429e-06
7.85709596e-06
7.85711423e-06
7.85708664e-06
7.85712082e-06
7.85707811e-06
7.85711283e-06
7.85709317e-06
7.85708224e-06
7.85710394e-06
7.85708073e-06
7.85710573e-06
7.85709639e-06
7.85710068e-06
7.85709092e-06
7.85710195e-06
7.85709792e-06
7.85709202e-06
7.85709823e-06
7.85709854e-06
7.85710217e-06
7.857105e-06
7.85709362e-06
7.85710644e-06
7.85708923e-06
7.85710554e-06
7.85708892e-06
7.8570968e-06
7.85709446e-06
7.85709967e-06
7.85707956e-06
7.85710827e-06
7.85708842e-06
7.85709724e-06
7.85709778e-06
7.85709217e-06
7.85710935e-06
7.8570938e-06
7.85709908e-06
7.85710426e-06
7.85709238e-06
7.85709984e-06
7.85709825e-06
7.85709409e-06
7.85709878e-06
7.85709298e-06
7.85709631e-06
7.85709176e-06
7.85710628e-06
7.85709384e-06
7.85710337e-06
7.85709566e-06
7.85709535e-06
7.85710468e-06
7.85708677e-06
7.85708697e-06
7.85710417e-06
7.85709035e-06
7.85710678e-06
7.85710222e-06
7.85709951e-06
7.85710111e-06
7.85709555e-06
7.85710968e-06
7.8570932e-06
7.85710153e-06
7.85709808e-06
7.85709368e-06
7.85709781e-06
7.85709065e-06
7.8571045e-06
7.85709264e-06
7.85710912e-06
7.85708557e-06
7.85711638e-06
7.85709021e-06
7.8571004e-06
7.85709749e-06
7.85710362e-06
7.85710195e-06
7.85708683e-06
7.85711459e-06
7.85708314e-06
7.85711764e-06
7.85708917e-06
7.85710732e-06
7.85709297e-06
7.85709903e-06
7.85710627e-06
7.85709421e-06
7.85710792e-06
7.85709143e-06
7.85710542e-06
7.8570949e-06
7.85710204e-06
7.85709517e-06
7.85709888e-06
7.85710037e-06
7.85710583e-06
7.85709224e-06
7.85710483e-06
7.8570987e-06
7.85711019e-06
7.857107e-06
7.85709928e-06
7.85710349e-06
7.85710541e-06
7.85709348e-06
7.85710379e-06
7.85710694e-06
7.85708944e-06
7.8571103e-06
7.85710592e-06
7.8570974e-06
7.85709383e-06
7.85710547e-06
7.85709719e-06
7.85710801e-06
7.85709573e-06
7.85710742e-06
7.85710476e-06
7.85710045e-06
7.85709758e-06
7.85709981e-06
7.85710542e-06
7.85710952e-06
7.85710056e-06
7.85710627e-06
7.85710601e-06
7.85711515e-06
7.85710931e-06
7.85711902e-06
7.85710726e-06
7.85710393e-06
7.85710545e-06
7.85710996e-06
7.85709778e-06
7.85710218e-06
7.85710717e-06
7.85710358e-06
7.8571086e-06
7.85710428e-06
7.85709757e-06
7.8571103e-06
7.85710489e-06
7.85710613e-06
7.85710918e-06
7.85709408e-06
7.85711377e-06
7.8570903e-06
7.85710586e-06
7.85709583e-06
7.85710944e-06
7.85709153e-06
7.85710376e-06
7.85710456e-06
7.85710508e-06
7.85711555e-06
7.85710468e-06
7.85710877e-06
7.85709935e-06
7.85710641e-06
7.8571019e-06
7.85709595e-06
7.85711887e-06
7.85709014e-06
7.85711453e-06
7.85709194e-06
7.85711452e-06
7.85710508e-06
7.85710268e-06
7.85710806e-06
7.85711387e-06
7.85710718e-06
7.85711071e-06
7.85711082e-06
7.85710183e-06
7.85710968e-06
7.85710724e-06
7.85710871e-06
7.85710555e-06
7.85711096e-06
7.85711092e-06
7.85710061e-06
7.8571288e-06
7.85710353e-06
7.85711784e-06
7.857107e-06
7.8571196e-06
7.85710062e-06
7.85712362e-06
7.85710074e-06
7.85711889e-06
7.85711497e-06
7.85710449e-06
7.85711823e-06
7.85710522e-06
7.85711317e-06
7.85711601e-06
7.85710433e-06
7.85712075e-06
7.85710338e-06
7.85711899e-06
7.85710357e-06
7.85710716e-06
7.85710023e-06
7.85712236e-06
7.85710279e-06
7.85712007e-06
7.85710565e-06
7.85710722e-06
7.85711619e-06
7.85710518e-06
7.85711901e-06
7.85710508e-06
7.85710255e-06
7.85711822e-06
7.85710055e-06
7.8571078e-06
7.85711638e-06
7.85710294e-06
7.85712035e-06
7.85710874e-06
7.85710436e-06
7.85711798e-06
7.85710419e-06
7.85712418e-06
7.8571073e-06
7.8571171e-06
7.85710524e-06
7.85711434e-06
7.8571059e-06
7.85711016e-06
7.85710526e-06
7.85710757e-06
7.85710842e-06
7.85711594e-06
7.85710709e-06
7.85711626e-06
7.85710301e-06
7.85710916e-06
7.85710332e-06
7.85711277e-06
7.85709428e-06
7.8571126e-06
7.85710319e-06
7.85710631e-06
7.8571091e-06
7.85709744e-06
7.85712244e-06
7.85709873e-06
7.85711596e-06
7.85710398e-06
7.85712519e-06
7.85709995e-06
7.85712469e-06
7.85708735e-06
7.85713347e-06
7.8570882e-06
7.85713154e-06
7.85709077e-06
7.85711989e-06
7.85710342e-06
7.85711132e-06
7.85711789e-06
7.85711546e-06
7.85710448e-06
7.85712229e-06
7.85710681e-06
7.85711072e-06
7.85711173e-06
7.85711329e-06
7.85710968e-06
7.85711317e-06
7.85711301e-06
7.85711669e-06
7.85711319e-06
7.85711229e-06
7.85711659e-06
7.85711264e-06
7.85711104e-06
7.85711556e-06
7.85711563e-06
7.85711537e-06
7.85711457e-06
7.85711564e-06
7.85711418e-06
7.85711664e-06
7.8571165e-06
7.85711693e-06
7.85711744e-06
7.85711788e-06
7.85711926e-06
7.85712014e-06
7.85711981e-06
7.8571214e-06
7.85712241e-06
7.8571229e-06
7.85712415e-06
7.85712573e-06
7.85712762e-06
7.85712874e-06
7.85713067e-06
7.85713301e-06
7.85713482e-06
7.85713741e-06
7.85714017e-06
7.85714275e-06
7.85714471e-06
7.85714747e-06
7.85714934e-06
7.85715083e-06
7.85715218e-06
7.8571529e-06
7.85715339e-06
7.85715382e-06
7.85715391e-06
7.85715393e-06
7.85715362e-06
7.85715359e-06
7.85715401e-06
7.85715382e-06
7.85715385e-06
7.85715388e-06
7.85715388e-06
7.85715398e-06
7.85715397e-06
7.85715389e-06
7.8571541e-06
7.85715384e-06
7.85715395e-06
7.85715383e-06
7.8571539e-06
7.85715392e-06
7.85715388e-06
7.85715396e-06
7.85715382e-06
7.85715368e-06
7.85715415e-06
)
;

boundaryField
{
    closed
    {
        type            calculated;
        value           uniform 0;
    }
    open
    {
        type            calculated;
        value           uniform 0;
    }
    sides
    {
        type            empty;
    }
}


// ************************************************************************* //
