/*--------------------------------*- C++ -*----------------------------------*\
| =========                 |                                                 |
| \\      /  F ield         | OpenFOAM: The Open Source CFD Toolbox           |
|  \\    /   O peration     | Version:  2206                                  |
|   \\  /    A nd           | Website:  www.openfoam.com                      |
|    \\/     M anipulation  |                                                 |
\*---------------------------------------------------------------------------*/
FoamFile
{
    version     2.0;
    format      ascii;
    arch        "LSB;label=32;scalar=64";
    class       volScalarField;
    location    "5.2e-06";
    object      p;
}
// * * * * * * * * * * * * * * * * * * * * * * * * * * * * * * * * * * * * * //

dimensions      [1 -1 -2 0 0 0 0];

internalField   nonuniform List<scalar> 
3183
(
101325
101325
101325
101325
101325
101325
101325
101325
101325
101325
101325
101325
101325
101325
101325
101325
101325
101325
101325
101325
101325
101325
101325
101325
101325
101325
101325
101325
101325
101325
101325
101325
101325
101325
101325
101325
101325
101325
101325
101325
101325
101325
101325
101325
101325
101325
101325
101325
101325
101325
101325
101325
101325
101325
101325
101325
101325
101325
101325
101325
101325
101325
101325
101325
101325
101325
101325
101325
101325
101325
101325
101325
101325
101325
101325
101325
101325
101325
101325
101325
101325
101325
101325
101325
101325
101325
101325
101325
101325
101325
101325
101325
101325
101325
101325
101325
101325
101325
101325
101325
101325
101325
101325
101325
101325
101325
101325
101325
101325
101325
101325
101325
101325
101325
101325
101325
101325
101325
101325
101325
101325
101325
101325
101325
101325
101325
101325
101325
101325
101325
101325
101325
101325
101325
101325
101325
101325
101325
101325
101325
101325
101325
101325
101325
101325
101325
101325
101325
101325
101325
101325
101325
101325
101325
101325
101325
101325
101325
101325
101325
101325
101325
101325
101325
101325
101325
101325
101325
101325
101325
101325
101325
101325
101325
101325
101325
101325
101325
101325
101325
101325
101325
101325
101325
101325
101325
101325
101325
101325
101325
101325
101325
101325
101325
101325
101325
101325
101325
101325
101325
101325
101325
101325
101325
101325
101325
101325
101325
101325
101325
101325
101325
101325
101325
101325
101325
101325
101325
101325
101325
101325
101325
101325
101325
101325
101325
101325
101325
101325
101325
101325
101325
101325
101325
101325
101325
101325
101325
101325
101325
101325
101325
101325
101325
101325
101325
101325
101325
101325
101325
101325
101325
101325
101325
101325
101325
101325
101325
101325
101325
101325
101325
101325
101325
101325
101325
101325
101325
101325
101325
101325
101325
101325
101325
101325
101325
101325
101325
101325
101325
101325
101325
101325
101325
101325
101325
101325
101325
101325
101325
101325
101325
101325
101325
101325
101325
101325
101325
101325
101325
101325
101325
101325
101325
101325
101325
101325
101325
101325
101325
101325
101325
101325
101325
101325
101325
101325
101325
101325
101325
101325
101325
101325
101325
101325
101325
101325
101325
101325
101325
101325
101325
101325
101325
101325
101325
101325
101325
101325
101325
101325
101325
101325
101325
101325
101325
101325
101325
101325
101325
101325
101325
101325
101325
101325
101325
101325
101325
101325
101325
101325
101325
101325
101325
101325
101325
101325
101325
101325
101325
101325
101325
101325
101325
101325
101325
101325
101325
101325
101325
101325
101325
101325
101325
101325
101325
101325
101325
101325
101325
101325
101325
101325
101325
101325
101325
101325
101325
101325
101325
101325
101325
101325
101325
101325
101325
101325
101325
101325
101325
101325
101325
101325
101325
101325
101325
101325
101325
101325
101325
101325
101325
101325
101325
101325
101325
101325
101325
101325
101325
101325
101325
101325
101325
101325
101325
101325
101325
101325
101325
101325
101325
101325
101325
101325
101325
101325
101325
101325
101325
101325
101325
101325
101325
101325
101325
101325
101325
101325
101325
101325
101325
101325
101325
101325
101325
101325
101325
101325
101325
101325
101325
101325
101325
101325
101325
101325
101325
101325
101325
101325
101325
101325
101325
101325
101325
101325
101325
101325
101325
101325
101325
101325
101325
101325
101325
101325
101325
101325
101325
101325
101325
101325
101325
101325
101325
101325
101325
101325
101325
101325
101325
101325
101325
101325
101325
101325
101325
101325
101325
101325
101325
101325
101325
101325
101325
101325
101325
101325
101325
101325
101325
101325
101325
101325
101325
101325
101325
101325
101325
101325
101325
101325
101325
101325
101325
101325
101325
101325
101325
101325
101325
101325
101325
101325
101325
101325
101325
101325
101325
101325
101325
101325
101325
101325
101325
101325
101325
101325
101325
101325
101325
101325
101325
101325
101325
101325
101325
101325
101325
101325
101325
101325
101325
101325
101325
101325
101325
101325
101325
101325
101325
101325
101325
101325
101325
101325
101325
101325
101325
101325
101325
101325
101325
101325
101325
101325
101325
101325
101325
101325
101325
101325
101325
101325
101325
101325
101325
101325
101325
101325
101325
101325
101325
101325
101325
101325
101325
101325
101325
101325
101325
101325
101325
101325
101325
101325
101325
101325
101325
101325
101325
101325
101325
101325
101325
101325
101325
101325
101325
101325
101325
101325
101325
101325
101325
101325
101325
101325
101325
101325
101325
101325
101325
101325
101325
101325
101325
101325
101325
101325
101325
101325
101325
101325
101325
101325
101325
101325
101325
101325
101325
101325
101325
101325
101325
101325
101325
101325
101325
101325
101325
101325
101325
101325
101325
101325
101325
101325
101325
101325
101325
101325
101325
101325
101325
101325
101325
101325
101325
101325
101325
101325
101325
101325
101325
101325
101325
101325
101325
101325
101325
101325
101325
101325
101325
101325
101325
101325
101325
101325
101325
101325
101325
101325
101325
101325
101325
101325
101325
101325
101325
101325
101325
101325
101325
101325
101325
101325
101325
101325
101325
101325
101325
101325
101325
101325
101325
101325
101325
101325
101325
101325
101325
101325
101325
101325
101325
101325
101325
101325
101325
101325
101325
101325
101325
101325
101325
101325
101325
101325
101325
101325
101325
101325
101325
101325
101325
101325
101325
101325
101325
101325
101325
101325
101325
101325
101325
101325
101325
101325
101325
101325
101325
101325
101325
101325
101325
101325
101325
101325
101325
101325
101325
101325
101325
101325
101325
101325
101325
101325
101325
101325
101325
101325
101325
101325
101325
101325
101325
101325
101325
101325
101325
101325
101325
101325
101325
101325
101325
101325
101325
101325
101325
101325
101325
101325
101325
101325
101325
101325
101325
101325
101325
101325
101325
101325
101325
101325
101325
101325
101325
101325
101325
101325
101325
101325
101325
101325
101325
101325
101325
101325
101325
101325
101325
101325
101325
101325
101325
101325
101325
101325
101325
101325
101325
101325
101325
101325
101325
101325
101325
101325
101325
101325
101325
101325
101325
101325
101325
101325
101325
101325
101325
101325
101325
101325
101325
101325
101325
101325
101325
101325
101325
101325
101325
101325
101325
101325
101325
101325
101325
101325
101325
101325
101325
101325
101325
101325
101325
101325
101325
101325
101325
101325
101325
101325
101325
101325
101325
101325
101325
101325
101325
101325
101325
101325
101325
101325
101325
101325
101325
101325
101325
101325
101325
101325
101325
101325
101325
101325
101325
101325
101325
101325
101325
101325
101325
101325
101325
101325
101325
101325
101325
101325
101325
101325
101325
101325
101325
101325
101325
101325
101325
101325
101325
101325
101325
101325
101325
101325
101325
101325
101325
101325
101325
101325
101325
101325
101325
101325
101325
101325
101325
101325
101325
101325
101325
101325
101325
101325
101325
101325
101325
101325
101325
101325
101325
101325
101325
101325
101325
101325
101325
101325
101325
101325
101325
101325
101325
101325
101325
101325
101325
101325
101325
101325
101325
101325
101325
101325
101325
101325
101325
101325
101325
101325
101325
101325
101325
101325
101325
101325
101325
101325
101325
101325
101325
101325
101325
101325
101325
101325
101325
101325
101325
101325
101325
101325
101325
101325
101325
101325
101325
101325
101325
101325
101325
101325
101325
101325
101325
101325
101325
101325
101325
101325
101325
101325
101325
101325
101325
101325
101325
101325
101325
101325
101325
101325
101325
101325
101325
101325
101325
101325
101325
101325
101325
101325
101325
101325
101325
101325
101325
101325
101325
101325
101325
101325
101325
101325
101325
101325
101325
101325
101325
101325
101325
101325
101325
101325
101325
101325
101325
101325
101325
101325
101325
101325
101325
101325
101325
101325
101325
101325
101325
101325
101325
101325
101325
101325
101325
101325
101325
101325
101325
101325
101325
101325
101325
101325
101325
101325
101325
101325
101325
101325
101325
101325
101325
101325
101325
101325
101325
101325
101325
101325
101325
101325
101325
101325
101325
101325
101325
101325
101325
101325
101325
101325
101325
101325
101325
101325
101325
101325
101325
101325
101325
101325
101325
101325
101325
101325
101325
101325
101325
101325
101325
101325
101325
101325
101325
101325
101325
101325
101325
101325
101325
101325
101325
101325
101325
101325
101325
101325
101325
101325
101325
101325
101325
101325
101325
101325
101325
101325
101325
101325
101325
101325
101325
101325
101325
101325
101325
101325
101325
101325
101325
101325
101325
101325
101325
101325
101325
101325
101325
101325
101325
101325
101325
101325
101325
101325
101325
101325
101325
101325
101325
101325
101325
101325
101325
101325
101325
101325
101325
101325
101325
101325
101325
101325
101325
101325
101325
101325
101325
101325
101325
101325
101325
101325
101325
101325
101325
101325
101325
101325
101325
101325
101325
101325
101325
101325
101325
101325
101325
101325
101325
101325
101325
101325
101325
101325
101325
101325
101325
101325
101325
101325
101325
101325
101325
101325
101325
101325
101325
101325
101325
101325
101325
101325
101325
101325
101325
101325
101325
101325
101325
101325
101325
101325
101325
101325
101325
101325
101325
101325
101325
101325
101325
101325
101325
101325
101325
101325
101325
101325
101325
101325
101325
101325
101325
101325
101325
101325
101325
101325
101325
101325
101325
101325
101325
101325
101325
101325
101325
101325
101325
101325
101325
101325
101325
101325
101325
101325
101325
101325
101325
101325
101325
101325
101325
101325
101325
101325
101325
101325
101325
101325
101325
101325
101325
101325
101325
101325
101325
101325
101325
101325
101325
101325
101325
101325
101325
101325
101325
101325
101325
101325
101325
101325
101325
101325
101325
101325
101325
101325
101325
101325
101325
101325
101325
101325
101325
101325
101325
101325
101325
101325
101325
101325
101325
101325
101325
101325
101325
101325
101325
101325
101325
101325
101325
101325
101325
101325
101325
101325
101325
101325
101325
101325
101325
101325
101325
101325
101325
101325
101325
101325
101325
101325
101325
101325
101325
101325
101325
101325
101325
101325
101325
101325
101325
101325
101325
101325
101325
101325
101325
101325
101325
101325
101325
101325
101325
101325
101325
101325
101325
101325
101325
101325
101325
101325
101325
101325
101325
101325
101325
101325
101325
101325
101325
101325
101325
101325
101325
101325
101325
101325
101325
101325
101325
101325
101325
101325
101325
101325
101325
101325
101325
101325
101325
101325
101325
101325
101325
101325
101325
101325
101325
101325
101325
101325
101325
101325
101325
101325
101325
101325
101325
101325
101325
101325
101325
101325
101325
101325
101325
101325
101325
101325
101325
101325
101325
101325
101325
101325
101325
101325
101325
101325
101325
101325
101325
101325
101325
101325
101325
101325
101325
101325
101325
101325
101325
101325
101325
101325
101325
101325
101325
101325
101325
101325
101325
101325
101325
101325
101325
101325
101325
101325
101325
101325
101325
101325
101325
101325
101325
101325
101325
101325
101325
101325
101325
101325
101325
101325
101325
101325
101325
101325
101325
101325
101325
101325
101325
101325
101325
101325
101325
101325
101325
101325
101325
101325
101325
101325
101325
101325
101325
101325
101325
101325
101325
101325
101325
101325
101325
101325
101325
101325
101325
101325
101325
101325
101325
101325
101325
101325
101325
101325
101325
101325
101325
101325
101325
101325
101325
101325
101325
101325
101325
101325
101325
101325
101325
101325
101325
101325
101325
101325
101325
101325
101325
101325
101325
101325
101325
101325
101325
101325
101325
101325
101325
101325
101325
101325
101325
101325
101325
101325
101325
101325
101325
101325
101325
101325
101325
101325
101325
101325
101325
101325
101325
101325
101325
101325
101325
101325
101325
101325
101325
101325
101325
101325
101325
101325
101325
101325
101325
101325
101325
101325
101325
101325
101325
101325
101325
101325
101325
101325
101325
101325
101325
101325
101325
101325
101325
101325
101325
101325
101325
101325
101325
101325
101325
101325
101325
101325
101325
101325
101325
101325
101325
101325
101325
101325
101325
101325
101325
101325
101325
101325
101325
101325
101325
101325
101325
101325
101325
101325
101325
101325
101325
101325
101325
101325
101325
101325
101325
101325
101325
101325
101325
101325
101325
101325
101325
101325
101325
101325
101325
101325
101325
101325
101325
101325
101325
101325
101325
101325
101325
101325
101325
101325
101325
101325
101325
101325
101325
101325
101325
101325
101325
101325
101325
101325
101325
101325
101325
101325
101325
101325
101325
101325
101325
101325
101325
101325
101325
101325
101325
101325
101325
101325
101325
101325
101325
101325
101325
101325
101325
101325
101325
101325
101325
101325
101325
101325
101325
101325
101325
101325
101325
101325
101325
101325
101325
101325
101325
101325
101325
101325
101325
101325
101325
101325
101325
101325
101325
101325
101325
101325
101325
101325
101325
101325
101325
101325
101325
101325
101325
101325
101325
101325
101325
101325
101325
101325
101325
101325
101325
101325
101325
101325
101325
101325
101325
101325
101325
101325
101325
101325
101325
101325
101325
101325
101325
101325
101325
101325
101325
101325
101325
101325
101325
101325
101325
101325
101325
101325
101325
101325
101325
101325
101325
101325
101325
101325
101325
101325
101325
101325
101325
101325
101325
101325
101325
101325
101325
101325
101325
101325
101325
101325
101325
101325
101325
101325
101325
101325
101325
101325
101325
101325
101325
101325
101325
101325
101325
101325
101325
101325
101325
101325
101325
101325
101325
101325
101325
101325
101325
101325
101325
101325
101325
101325
101325
101325
101325
101325
101325
101325
101325
101325
101325
101325
101325
101325
101325
101325
101325
101325
101325
101325
101325
101325
101325
101325
101325
101325
101325
101325
101325
101325
101325
101325
101325
101325
101325
101325
101325
101325
101325
101325
101325
101325
101325
101325
101325
101325
101325
101325
101325
101325
101325
101325
101325
101325
101325
101325
101325
101325
101325
101325
101325
101325
101325
101325
101325
101325
101325
101325
101325
101325
101325
101325
101325
101325
101325
101325
101325
101325
101325
101325
101325
101325
101325
101325
101325
101325
101325
101325
101325
101325
101325
101325
101325
101325
101325
101325
101325
101325
101325
101325
101325
101325
101325
101325
101325
101325
101325
101325
101325
101325
101325
101325
101325
101325
101325
101325
101325
101325
101325
101325
101325
101325
101325
101325
101325
101325
101325
101325
101325
101325
101325
101325
101325
101325
101325
101325
101325
101325
101325
101325
101325
101325
101325
101325
101325
101325
101325
101325
101325
101325
101325
101325
101325
101325
101325
101325
101325
101325
101325
101325
101325
101325
101325
101325
101325
101325
101325
101325
101325
101325
101325
101325
101325
101325
101325
101325
101325
101325
101325
101325
101325
101325
101325
101325
101325
101325
101325
101325
101325
101325
101325
101325
101325
101325
101325
101325
101325
101325
101325
101325
101325
101325
101325
101325
101325
101325
101325
101325
101325
101325
101325
101325
101325
101325
101325
101325
101325
101325
101325
101325
101325
101325
101325
101325
101325
101325
101325
101325
101325
101325
101325
101325
101325
101325
101325
101325
101325
101325
101325
101325
101325
101325
101325
101325
101325
101325
101325
101325
101325
101325
101325
101325
101325
101325
101325
101325
101325
101325
101325
101325
101325
101325
101325
101325
101325
101325
101325
101325
101325
101325
101325
101325
101325
101325
101325
101325
101324.999
101324.999
101324.999
101324.999
101324.999
101324.999
101324.999
101324.999
101324.999
101324.999
101324.999
101324.999
101324.998
101324.998
101324.998
101324.998
101324.998
101324.998
101324.997
101324.997
101324.997
101324.997
101324.996
101324.996
101324.996
101324.995
101324.995
101324.995
101324.994
101324.994
101324.993
101324.993
101324.992
101324.991
101324.99
101324.99
101324.989
101324.988
101324.987
101324.986
101324.984
101324.983
101324.982
101324.98
101324.979
101324.977
101324.975
101324.973
101324.971
101324.969
101324.966
101324.963
101324.96
101324.957
101324.954
101324.95
101324.946
101324.942
101324.937
101324.933
101324.927
101324.922
101324.916
101324.909
101324.902
101324.895
101324.887
101324.879
101324.87
101324.86
101324.85
101324.838
101324.827
101324.814
101324.8
101324.786
101324.77
101324.754
101324.736
101324.718
101324.698
101324.676
101324.654
101324.629
101324.604
101324.576
101324.547
101324.516
101324.484
101324.449
101324.412
101324.372
101324.331
101324.287
101324.24
101324.19
101324.138
101324.082
101324.024
101323.961
101323.896
101323.826
101323.753
101323.676
101323.594
101323.508
101323.418
101323.322
101323.222
101323.116
101323.005
101322.888
101322.765
101322.636
101322.5
101322.358
101322.209
101322.053
101321.89
101321.719
101321.54
101321.353
101321.157
101320.953
101320.74
101320.517
101320.285
101320.044
101319.792
101319.531
101319.259
101318.976
101318.683
101318.378
101318.062
101317.734
101317.395
101317.044
101316.681
101316.306
101315.919
101315.519
101315.106
101314.682
101314.244
101313.794
101313.332
101312.857
101312.369
101311.869
101311.357
101310.833
101310.296
101309.748
101309.189
101308.619
101308.037
101307.446
101306.844
101306.233
101305.613
101304.984
101304.347
101303.703
101303.052
101302.396
101301.734
101301.067
101300.397
101299.725
101299.05
101298.374
101297.699
101297.024
101296.351
101295.682
101295.016
101294.356
101293.702
101293.055
101292.417
101291.789
101291.172
101290.567
101289.975
101289.397
101288.835
101288.29
101287.762
101287.253
101286.764
101286.296
101285.85
101285.426
101285.026
101284.651
101284.301
101283.977
101283.679
101283.409
101283.167
101282.952
101282.767
101282.61
101282.483
101282.384
101282.315
101282.276
101282.265
101282.283
101282.331
101282.406
101282.51
101282.641
101282.798
101282.982
101283.192
101283.426
101283.683
101283.964
101284.266
101284.59
101284.933
101285.294
101285.674
101286.069
101286.48
101286.904
101287.342
101287.79
101288.249
101288.717
101289.193
101289.675
101290.162
101290.654
101291.149
101291.645
101292.142
101292.639
101293.135
101293.628
101294.118
101294.603
101295.084
101295.559
101296.026
101296.487
101296.939
101297.382
101297.816
101298.239
101298.652
101299.053
101299.443
101299.82
101300.184
101300.535
101300.873
101301.196
101301.505
101301.799
101302.078
101302.342
101302.591
101302.823
101303.04
101303.241
101303.425
101303.594
101303.746
101303.883
101304.003
101304.108
101304.197
101304.271
101304.33
101304.375
101304.407
101304.425
101304.431
101304.426
101304.41
101304.385
101304.351
101304.31
101304.264
101304.213
101304.159
101304.104
101304.049
101303.995
101303.945
101303.9
101303.863
101303.833
101303.814
101303.807
101303.813
101303.835
101303.872
101303.927
101304.001
101304.093
101304.206
101304.34
101304.494
101304.668
101304.863
101305.077
101305.309
101305.557
101305.821
101306.097
101306.384
101306.677
101306.975
101307.273
101307.568
101307.855
101308.13
101308.39
101308.63
101308.845
101309.033
101309.188
101309.31
101309.395
101309.441
101309.45
101309.422
101309.36
101309.267
101309.148
101309.011
101308.863
101308.713
101308.568
101308.438
101308.325
101308.22
101308.132
101308.384
101308.598
101308.449
101306.91
101307.031
101307.218
101307.57
101307.647
101307.757
101307.793
101307.834
101307.87
101307.917
101307.973
101308.038
101308.112
101308.192
101308.276
101308.363
101308.451
101308.536
101308.617
101308.693
101308.762
101308.822
101308.871
101308.91
101308.937
101308.952
101308.954
101308.944
101308.921
101308.884
101308.836
101308.776
101308.704
101308.622
101308.529
101308.427
101308.315
101308.196
101308.07
101307.937
101307.798
101307.655
101307.507
101307.355
101307.201
101307.045
101306.888
101306.729
101306.571
101306.412
101306.255
101306.099
101305.946
101305.794
101305.645
101305.5
101305.358
101305.22
101305.086
101304.956
101304.831
101304.711
101304.596
101304.486
101304.381
101304.282
101304.187
101304.099
101304.016
101303.938
101303.866
101303.799
101303.738
101303.682
101303.632
101303.586
101303.545
101303.51
101303.479
101303.453
101303.431
101303.413
101303.4
101303.391
101303.385
101303.383
101303.384
101303.388
101303.395
101303.405
101303.418
101303.432
101303.449
101303.468
101303.488
101303.51
101303.533
101303.557
101303.582
101303.607
101303.633
101303.659
101303.685
101303.71
101303.736
101303.761
101303.785
101303.808
101303.83
101303.851
101303.87
101303.888
101303.904
101303.918
101303.931
101303.941
101303.949
101303.955
101303.958
101303.959
101303.957
101303.952
101303.944
101303.934
101303.92
101303.904
101303.884
101303.861
101303.835
101303.806
101303.773
101303.737
101303.697
101303.654
101303.608
101303.557
101303.504
101303.447
101303.386
101303.321
101303.253
101303.182
101303.106
101303.027
101302.945
101302.859
101302.769
101302.675
101302.578
101302.477
101302.373
101302.265
101302.153
101302.038
101301.919
101301.797
101301.671
101301.541
101301.409
101301.272
101301.132
101300.989
101300.842
101300.692
101300.538
101300.381
101300.22
101300.056
101299.889
101299.719
101299.545
101299.368
101299.188
101299.005
101298.818
101298.628
101298.436
101298.24
101298.041
101297.839
101297.635
101297.427
101297.217
101297.004
101296.788
101296.569
101296.348
101296.124
101295.897
101295.668
101295.437
101295.203
101294.968
101294.729
101294.489
101294.247
101294.003
101293.757
101293.509
101293.26
101293.009
101292.757
101292.503
101292.248
101291.992
101291.734
101291.476
101291.217
101290.958
101290.698
101290.437
101290.177
101289.916
101289.655
101289.394
101289.134
101288.874
101288.615
101288.357
101288.099
101287.843
101287.588
101287.334
101287.082
101286.831
101286.583
101286.337
101286.093
101285.851
101285.612
101285.376
101285.143
101284.913
101284.686
101284.463
101284.243
101284.027
101283.815
101283.608
101283.405
101283.206
101283.012
101282.823
101282.638
101282.459
101282.286
101282.117
101281.955
101281.798
101281.647
101281.502
101281.363
101281.23
101281.104
101280.985
101280.872
101280.766
101280.667
101280.575
101280.49
101280.412
101280.341
101280.278
101280.222
101280.174
101280.133
101280.1
101280.075
101280.058
101280.048
101280.046
101280.052
101280.065
101280.087
101280.117
101280.154
101280.2
101280.253
101280.314
101280.383
101280.46
101280.545
101280.638
101280.739
101280.847
101280.963
101281.086
101281.217
101281.356
101281.502
101281.656
101281.816
101281.984
101282.159
101282.341
101282.53
101282.726
101282.928
101283.138
101283.353
101283.575
101283.803
101284.038
101284.278
101284.524
101284.776
101285.034
101285.297
101285.565
101285.839
101286.117
101286.401
101286.689
101286.981
101287.279
101287.58
101287.886
101288.195
101288.509
101288.826
101289.146
101289.47
101289.797
101290.127
101290.46
101290.796
101291.134
101291.475
101291.818
101292.163
101292.51
101292.859
101293.209
101293.561
101293.914
101294.268
101294.624
101294.98
101295.337
101295.695
101296.053
101296.411
101296.77
101297.128
101297.487
101297.845
101298.203
101298.561
101298.918
101299.274
101299.63
101299.984
101300.338
101300.69
101301.041
101301.391
101301.739
101302.086
101302.431
101302.774
101303.115
101303.455
101303.792
101304.127
101304.46
101304.791
101305.12
101305.446
101305.77
101306.091
101306.409
101306.725
101307.038
101307.349
101307.656
101307.961
101308.263
101308.561
101308.857
101309.15
101309.439
101309.726
101310.009
101310.289
101310.566
101310.84
101311.111
101311.378
101311.642
101311.902
101312.16
101312.414
101312.664
101312.912
101313.156
101313.396
101313.634
101313.867
101314.098
101314.325
101314.549
101314.769
101314.987
101315.2
101315.411
101315.618
101315.822
101316.023
101316.22
101316.414
101316.605
101316.793
101316.977
101317.159
101317.337
101317.512
101317.684
101317.853
101318.019
101318.182
101318.342
101318.499
101318.653
101318.804
101318.952
101319.098
101319.24
101319.38
101319.517
101319.652
101319.783
101319.912
101320.039
101320.163
101320.284
101320.403
101320.519
101320.633
101320.745
101320.854
101320.961
101321.065
101321.167
101321.267
101321.365
101321.461
101321.554
101321.646
101321.735
101321.822
101321.907
101321.991
101322.072
101322.152
101322.229
101322.305
101322.379
101322.452
101322.522
101322.591
101322.658
101322.724
101322.788
101322.85
101322.911
101322.97
101323.028
101323.084
101323.139
101323.193
101323.245
101323.296
101323.345
101323.394
101323.441
101323.487
101323.531
101323.575
101323.617
101323.658
101323.698
101323.737
101323.775
101323.812
101323.848
101323.883
101323.917
101323.95
101323.982
101324.013
101324.044
101324.073
101324.102
101324.13
101324.157
101324.183
101324.209
101324.234
101324.258
101324.282
101324.306
101324.33
101324.356
101324.382
101324.409
101324.436
101324.465
101324.494
101324.523
101324.553
101324.583
101324.613
101324.643
101324.672
101324.702
101324.73
101324.758
101324.785
101324.811
101324.835
101324.858
101324.879
101324.898
101324.915
101324.931
101324.945
101324.956
101324.966
101324.975
101324.981
101324.987
101324.991
101324.994
101324.996
101324.997
101324.999
101324.999
101325
101325
101325
101325
101325
101325
101325
101325
101325
101325
101325
101325
101325
101325
101325
101325
101325
101325
101325
101325
101325
101325
101325
101325
101325
101325
101325
101325
101325
101325
101325
101325
101325
101325
101325
101325
101325
101325
101325
101325
)
;

boundaryField
{
    closed
    {
        type            zeroGradient;
    }
    open
    {
        type            waveTransmissive;
        gamma           1.25;
        fieldInf        101325;
        lInf            1;
        value           uniform 101325;
    }
    sides
    {
        type            empty;
    }
}


// ************************************************************************* //
