/*--------------------------------*- C++ -*----------------------------------*\
| =========                 |                                                 |
| \\      /  F ield         | OpenFOAM: The Open Source CFD Toolbox           |
|  \\    /   O peration     | Version:  2206                                  |
|   \\  /    A nd           | Website:  www.openfoam.com                      |
|    \\/     M anipulation  |                                                 |
\*---------------------------------------------------------------------------*/
FoamFile
{
    version     2.0;
    format      ascii;
    arch        "LSB;label=32;scalar=64";
    class       volScalarField;
    location    "5.2e-06";
    object      PVsourcePV;
}
// * * * * * * * * * * * * * * * * * * * * * * * * * * * * * * * * * * * * * //

dimensions      [1 -3 -1 0 0 0 0];

internalField   nonuniform List<scalar> 
3183
(
0
0
0
0
0
0
0
0
0
0
0
0
0
0
0
0
0
0
0
0
0
0
0
0
0
0
0
0
0
0
0
0
0
0
0
0
0
0
0
0
0
0
0
0
0
0
0
0
0
0
0
0
0
0
0
0
0
0
0
0
0
0
0
0
0
0
0
0
0
0
0
0
0
0
0
0
0
0
0
0
0
0
0
0
0
0
0
0
0
0
0
0
0
0
0
0
0
0
0
0
0
0
0
0
0
0
0
0
0
0
0
0
0
0
0
0
0
0
0
0
0
0
0
0
0
0
0
0
0
0
0
0
0
0
0
0
0
0
0
0
0
0
0
0
0
0
0
0
0
0
0
0
0
0
0
0
0
0
0
0
0
0
0
0
0
0
0
0
0
0
0
0
0
0
0
0
0
0
0
0
0
0
0
0
0
0
0
0
0
0
0
0
0
0
0
0
0
0
0
0
0
0
0
0
0
0
0
0
0
0
0
0
0
0
0
0
0
0
0
0
0
0
0
0
0
0
0
0
0
0
0
0
0
0
0
0
0
0
0
0
0
0
0
0
0
0
0
0
0
0
0
0
0
0
0
0
0
0
0
0
0
0
0
0
0
0
0
0
0
0
0
0
0
0
0
0
0
0
0
0
0
0
0
0
0
0
0
0
0
0
0
0
0
0
0
0
0
0
0
0
0
0
0
0
0
0
0
0
0
0
0
0
0
0
0
0
0
0
0
0
0
0
0
0
0
0
0
0
0
0
0
0
0
0
0
0
0
0
0
0
0
0
0
0
0
0
0
0
0
0
0
0
0
0
0
0
0
0
0
0
0
0
0
0
0
0
0
0
0
0
0
0
0
0
0
0
0
0
0
0
0
0
0
0
0
0
0
0
0
0
0
0
0
0
0
0
0
0
0
0
0
0
0
0
0
0
0
0
0
0
0
0
0
0
0
0
0
0
0
0
0
0
0
0
0
0
0
0
0
0
0
0
0
0
0
0
0
0
0
0
0
0
0
0
0
0
0
0
0
0
0
0
0
0
0
0
0
0
0
0
0
0
0
0
0
0
0
0
0
0
0
0
0
0
0
0
0
0
0
0
0
0
0
0
0
0
0
0
0
0
0
0
0
0
0
0
0
0
0
0
0
0
0
0
0
0
0
0
0
0
0
0
0
0
0
0
0
0
0
0
0
0
0
0
0
0
0
0
0
0
0
0
0
0
0
0
0
0
0
0
0
0
0
0
0
0
0
0
0
0
0
0
0
0
0
0
0
0
0
0
0
0
0
0
0
0
0
0
0
0
0
0
0
0
0
0
0
0
0
0
0
0
0
0
0
0
0
0
0
0
0
0
0
0
0
0
0
0
0
0
0
0
0
0
0
0
0
0
0
0
0
0
0
0
0
0
0
0
0
0
0
0
0
0
0
0
0
0
0
0
0
0
0
0
0
0
0
0
0
0
0
0
0
0
0
0
0
0
0
0
0
0
0
0
0
0
0
0
0
0
0
0
0
0
0
0
0
0
0
0
0
0
0
0
0
0
0
0
0
0
0
0
0
0
0
0
0
0
0
0
0
0
0
0
0
0
0
0
0
0
0
0
0
0
0
0
0
0
0
0
0
0
0
0
0
0
0
0
0
0
0
0
0
0
0
0
0
0
0
0
0
0
0
0
0
0
0
0
0
0
0
0
0
0
0
0
0
0
0
0
0
0
0
0
0
0
0
0
0
0
0
0
0
0
0
0
0
0
0
0
0
0
0
0
0
0
0
0
0
0
0
0
0
0
0
0
0
0
0
0
0
0
0
0
0
0
0
0
0
0
0
0
0
0
0
0
0
0
0
0
0
0
0
0
0
0
0
0
0
0
0
0
0
0
0
0
0
0
0
0
0
0
0
0
0
0
0
0
0
0
0
0
0
0
0
0
0
0
0
0
0
0
0
0
0
0
0
0
0
0
0
0
0
0
0
0
0
0
0
0
0
0
0
0
0
0
0
0
0
0
0
0
0
0
0
0
0
0
0
0
0
0
0
0
0
0
0
0
0
0
0
0
0
0
0
0
0
0
0
0
0
0
0
0
0
0
0
0
0
0
0
0
0
0
0
0
0
0
0
0
0
0
0
0
0
0
0
0
0
0
0
0
0
0
0
0
0
0
0
0
0
0
0
0
0
0
0
0
0
0
0
0
0
0
0
0
0
0
0
0
0
0
0
0
0
0
0
0
0
0
0
0
0
0
0
0
0
0
0
0
0
0
0
0
0
0
0
0
0
0
0
0
0
0
0
0
0
0
0
0
0
0
0
0
0
0
0
0
0
0
0
0
0
0
0
0
0
0
0
0
0
0
0
0
0
0
0
0
0
0
0
0
0
0
0
0
0
0
0
0
0
0
0
0
0
0
0
0
0
0
0
0
0
0
0
0
0
0
0
0
0
0
0
0
0
0
0
0
0
0
0
0
0
0
0
0
0
0
0
0
0
0
0
0
0
0
0
0
0
0
0
0
0
0
0
0
0
0
0
0
0
0
0
0
0
0
0
0
0
0
0
0
0
0
0
0
0
0
0
0
0
0
0
0
0
0
0
0
0
0
0
0
0
0
0
0
0
0
0
0
0
0
0
0
0
0
0
0
0
0
0
0
0
0
0
0
0
0
0
0
0
0
0
0
0
0
0
0
0
0
0
0
0
0
0
0
0
0
0
0
0
0
0
0
0
0
0
0
0
0
0
0
0
0
0
0
0
0
0
0
0
0
0
0
0
0
0
0
0
0
0
0
0
0
0
0
0
0
0
0
0
0
0
0
0
0
0
0
0
0
0
0
0
0
0
0
0
0
0
0
0
0
0
0
0
0
0
0
0
0
0
0
0
0
0
0
0
0
0
0
0
0
0
0
0
0
0
0
0
0
0
0
0
0
0
0
0
0
0
0
0
0
0
0
0
0
0
0
0
0
0
0
0
0
0
0
0
0
0
0
0
0
0
0
0
0
0
0
0
0
0
0
0
0
0
0
0
0
0
0
0
0
0
0
0
0
0
0
0
0
0
0
0
0
0
0
0
0
0
0
0
0
0
0
0
0
0
0
0
0
0
0
0
0
0
0
0
0
0
0
0
0
0
0
0
0
0
0
0
0
0
0
0
0
0
0
0
0
0
0
0
0
0
0
0
0
0
0
0
0
0
0
0
0
0
0
0
0
0
0
0
0
0
0
0
0
0
0
0
0
0
0
0
0
0
0
0
0
0
0
0
0
0
0
0
0
0
0
0
0
0
0
0
0
0
0
0
0
0
0
0
0
0
0
0
0
0
0
0
0
0
0
0
0
0
0
0
0
0
0
0
0
0
0
0
0
0
0
0
0
0
0
0
0
0
0
0
0
0
0
0
0
0
0
0
0
0
0
0
0
0
0
0
0
0
0
0
0
0
0
0
0
0
0
0
0
0
0
0
0
0
0
0
0
0
0
0
0
0
0
0
0
0
0
0
0
0
0
0
0
0
0
0
0
0
0
0
0
0
0
0
0
0
0
0
0
0
0
0
0
0
0
0
0
0
0
0
0
0
0
0
0
0
0
0
0
0
0
0
0
0
0
0
0
0
0
0
0
0
0
0
0
0
0
0
0
0
0
0
0
0
0
0
0
0
0
0
0
0
0
0
0
0
0
0
0
0
0
0
0
0
0
0
0
0
0
0
0
0
0
0
0
0
0
0
0
0
0
0
0
0
0
0
0
0
0
0
0
0
0
0
0
0
0
0
0
0
0
0
0
0
0
0
0
0
0
0
0
0
0
0
0
0
0
0
0
0
0
0
0
0
0
0
0
0
0
0
0
0
0
0
0
0
0
0
0
0
0
0
0
0
0
0
0
0
0
0
0
0
0
0
0
0
0
0
0
0
0
0
0
0
0
0
0
0
0
0
0
0
0
0
0
0
0
0
0
0
0
0
0
0
0
0
0
0
0
0
0
0
0
0
0
0
0
0
0
0
0
0
0
0
0
0
0
0
0
0
0
0
0
0
0
0
0
0
0
0
0
0
0
0
0
0
0
0
0
0
0
0
0
0
0
0
0
0
0
0
0
0
0
0
0
0
0
0
0
0
0
0
0
0
0
0
0
0
0
0
0
0
0
0
0
0
0
0
0
0
0
0
0
0
0
0
0
0
0
0
0
0
0
0
0
0
0
0
0
0
0
0
0
0
0
0
0
0
0
0
0
0
0
0
0
0
0
0
0
0
0
0
0
0
0
0
0
0
0
0
0
0
0
0
0
0
0
0
0
0
0
0
0
0
0
0
0
0
0
0
0
0
0
0
0
0
0
0
0
0
0
0
0
0
0
0
0
0
0
0
0
0
0
0
0
0
0
0
0
0
0
0
0
0
0
0
0
0
0
0
0
0
0
0
0
0
0
0
0
0
0
0
0
0
0
0
0
0
0
0
0
0
0
0
0
0
0
0
0
0
0
0
0
0
0
0
0
0
0
0
0
0
0
0
0
0
0
0
0
0
0
0
0
0
0
0
0
0
0
0
0
0
0
0
0
0
0
0
0
0
0
0
0
0
0
0
0
0
0
0
0
0
0
0
0
0
0
0
0
0
0
0
0
0
0
0
0
0
0
0
0
0
0
0
0
0
0
0
0
0
0
0
0
0
0
0
0
0
0
0
0
0
0
0
0
0
0
0
0
0
0
0
0
0
0
0
0
0
0
0
0
0
0
0
0
0
0
0
0
0
0
0
0
0
0
0
0
0
0
0
0
0
0
0
0
0
0
0
0
0
0
0
0
0
0
0
0
0
0
0
0
0
0
0
0
0
0
0
0
0
0
0
0
0
0
0
0
0
0
0
0
0
0
0
0
0
0
0
0
0
0
0
0
0
0
0
0
0
0
0
0
0
0
0
0
0
0
0
0
0
0
0
0
0
0
0
0
0
0
0
0
0
0
0
0
0
0
0
0
0
0
0
0
0
0
0
0
0
0
0
0
0
0
0
0
0
0
0
0
0
0
0
0
0
0
0
0
0
0
0
0
0
0
0
0
0
0
0
0
0
0
0
0
0
0
0
0
0
0
0
0
0
0
0
0
0
0
0
0
0
0
0
0
0
0
0
0
0
0
0
0
0
0
0
0
0
0
0
0
0
0
0
0
0
0
0
0
0
0
0
0
0
0
0
0
0
0
0
0
0
0
0
0
0
0
0
0
0
0
0
0
0
0
0
0
0
0
0
0
0
0
0
0
0
0
0
0
0
0
0
0
0
0
0
0
0
0
0
0
0
0
0
0
0
0
0
0
0
0
0
0
0
0
0
0
0
0
0
0
0
0
0
0
0
0
0
0
0
0
0
0
0
0
0
0
0
0
0
0
0
0
0
0
0
0
0
0
0
0
0
0
0
0
0
0
0
0
0
0
0
0
0
0
0
0
0
0
0
0
0
0
0
0
0
0
0
0
0
0
0
0
0
0
0
0
0
0
0
0
0
0
0
0
0
0
0
0
0
0
0
0
0
3.10020956e-295
0
4.15364705e-287
0
2.86662517e-279
0
1.01911361e-271
0
1.86642627e-264
0
1.76115476e-257
0
8.56472216e-251
0
2.14793454e-244
0
2.78123721e-238
0
1.86366573e-232
0
6.49136496e-227
0
9.065587e-223
0
6.66932639e-219
0
3.40764216e-215
0
1.35432032e-211
0
4.45061529e-208
0
1.25597817e-204
0
3.12243199e-201
0
6.96439813e-198
0
1.4127869e-194
0
2.63416274e-191
0
4.55198011e-188
0
7.33965372e-185
0
1.11038605e-181
0
1.58344141e-178
0
2.13674546e-175
0
2.73759794e-172
0
3.33959155e-169
0
3.88864372e-166
0
4.33131684e-163
0
4.62357875e-160
0
4.7379857e-157
0
4.6676941e-154
0
4.42656601e-151
0
4.04563215e-148
0
3.5670048e-145
0
3.03677262e-142
5.93447602e-144
2.49839682e-139
1.25331031e-140
1.98774558e-136
1.5665453e-137
1.53032708e-133
1.61826671e-134
1.14070426e-130
1.4967214e-131
8.23642059e-128
1.28003681e-128
5.76320765e-125
1.028951e-125
3.90938263e-122
7.84829485e-123
2.57160275e-119
5.7144351e-120
1.64082422e-116
3.98792139e-117
1.01571408e-113
2.67505215e-114
6.10098233e-111
1.72833339e-111
3.55626466e-108
1.07719855e-108
2.01178434e-105
6.48383494e-106
1.10450828e-102
3.77228813e-103
5.88496783e-100
2.12268305e-100
3.04280582e-97
1.15575199e-97
1.52653474e-94
6.09073573e-95
7.42964581e-92
3.10721241e-92
3.50722708e-89
1.53457987e-89
1.60537802e-86
7.33672485e-87
7.12309151e-84
3.39503851e-84
3.0624795e-81
1.52024376e-81
1.27526643e-78
6.58515372e-79
5.14083178e-76
2.75818174e-76
2.0050352e-73
1.11651776e-73
7.56110408e-71
4.365518e-71
2.75489666e-68
1.64752837e-68
9.69001728e-66
5.99669044e-66
3.28730956e-63
2.10318686e-63
1.07448683e-60
7.10041709e-61
3.37984736e-58
2.30474146e-58
1.02177475e-55
7.18320515e-56
2.96433943e-53
2.14645019e-53
8.23914829e-51
6.13889949e-51
2.18970325e-48
1.67720283e-48
5.55246503e-46
4.36760909e-46
1.33996298e-43
1.08133369e-43
3.06864079e-41
2.53779353e-41
6.6462962e-39
5.62661373e-39
1.35604321e-36
1.1737837e-36
2.59410918e-34
2.29304341e-34
4.62675791e-32
4.17100961e-32
7.64117332e-30
7.01552076e-30
1.15863821e-27
1.08177202e-27
1.5957726e-25
1.51267619e-25
1.96862951e-23
1.89123646e-23
2.13490435e-21
2.07431346e-21
1.98232134e-19
1.94385034e-19
1.5152452e-17
1.49432891e-17
8.94231411e-16
8.9604706e-16
2.11765833e-12
2.22334619e-12
0.152282678
0.327131187
0.620580117
0.534350745
0.070322848
0.0583024223
0.00671030341
0.00632742975
0.000686069259
0.000678896067
6.35561048e-05
6.36332603e-05
5.83896144e-06
5.86093207e-06
1.06969046e-06
1.06998702e-06
7.11820464e-07
7.1214018e-07
6.87827203e-07
6.87827669e-07
6.86303846e-07
6.86304927e-07
6.86215827e-07
6.86216522e-07
6.86211633e-07
6.86211599e-07
6.86211397e-07
6.86211762e-07
6.86210672e-07
6.86212206e-07
6.86210563e-07
6.86211153e-07
6.86210705e-07
6.86212155e-07
6.86210357e-07
6.86211505e-07
6.86211642e-07
6.86210913e-07
6.86210912e-07
6.86210995e-07
6.86211768e-07
6.86211131e-07
6.86211685e-07
6.86210369e-07
6.86211404e-07
6.86210817e-07
6.86211885e-07
6.86211205e-07
6.86211232e-07
6.86210636e-07
6.86211728e-07
6.86211111e-07
6.86211181e-07
6.86211421e-07
6.86211355e-07
6.86210949e-07
6.86211024e-07
6.86211426e-07
6.86211471e-07
6.86210749e-07
6.86211652e-07
6.86211136e-07
6.86211066e-07
6.86211279e-07
6.86211152e-07
6.8621109e-07
6.86211686e-07
6.86210449e-07
6.86211755e-07
6.86209861e-07
6.86212368e-07
6.86209761e-07
6.86211955e-07
6.86210862e-07
6.86210913e-07
6.86211691e-07
6.86211158e-07
6.86211625e-07
6.86211409e-07
6.8621211e-07
6.86211422e-07
6.86211254e-07
6.86211762e-07
6.86211223e-07
6.86211992e-07
6.86210969e-07
6.86211375e-07
6.86211422e-07
6.86211527e-07
6.86210856e-07
6.86211793e-07
6.86211664e-07
6.86211068e-07
6.86212684e-07
6.86211334e-07
6.86211859e-07
6.86211472e-07
6.86212184e-07
6.86211754e-07
6.86211241e-07
6.86212188e-07
6.8621159e-07
6.8621168e-07
6.8621183e-07
6.86211631e-07
6.86211092e-07
6.8621194e-07
6.8621229e-07
6.86211225e-07
6.86211178e-07
6.86211941e-07
6.86210354e-07
6.86211884e-07
6.86211245e-07
6.86211722e-07
6.86211403e-07
6.86211569e-07
6.86211508e-07
6.86211215e-07
6.86211889e-07
6.86211677e-07
6.86211558e-07
6.86211687e-07
6.86211623e-07
6.86211873e-07
6.86211205e-07
6.86211697e-07
6.86211079e-07
6.86211995e-07
6.86212031e-07
6.86211974e-07
6.86211012e-07
6.86212348e-07
6.86212791e-07
6.86211078e-07
6.86212946e-07
6.86211502e-07
6.86211367e-07
6.862126e-07
6.86210964e-07
6.86212087e-07
6.86211692e-07
6.86211864e-07
6.86211435e-07
6.86211441e-07
6.86212093e-07
6.86211696e-07
6.86211952e-07
6.86211803e-07
6.86212144e-07
6.86211588e-07
6.86212059e-07
6.86212193e-07
6.86212043e-07
6.86212199e-07
6.86212444e-07
6.86211629e-07
6.86212663e-07
6.86211611e-07
6.86212077e-07
6.86212117e-07
6.86211915e-07
6.86212064e-07
6.8621165e-07
6.86212525e-07
6.86212262e-07
6.86213056e-07
6.86211552e-07
6.86212087e-07
6.86211912e-07
6.86212132e-07
6.8621144e-07
6.86211926e-07
6.8621153e-07
6.86211229e-07
6.86212208e-07
6.8621278e-07
6.86211729e-07
6.86211871e-07
6.86213425e-07
6.86212562e-07
6.86213029e-07
6.86212413e-07
6.86212389e-07
6.86212028e-07
6.86212681e-07
6.86212468e-07
6.8621228e-07
6.86212867e-07
6.86211963e-07
6.86212756e-07
6.86212472e-07
6.86212151e-07
6.8621286e-07
6.86212859e-07
6.86211979e-07
6.86212937e-07
6.86211775e-07
6.86213097e-07
6.86211251e-07
6.86212941e-07
6.86211852e-07
6.86212311e-07
6.86212839e-07
6.86212146e-07
6.86212056e-07
6.86212819e-07
6.86212452e-07
6.8621304e-07
6.86212232e-07
6.86213316e-07
6.86211546e-07
6.86213416e-07
6.86212368e-07
6.86212922e-07
6.86212593e-07
6.86212594e-07
6.86212671e-07
6.86212931e-07
6.86213566e-07
6.86211921e-07
6.86213371e-07
6.86212244e-07
6.86212573e-07
6.86212784e-07
6.8621199e-07
6.86212962e-07
6.86212647e-07
6.86213014e-07
6.86212836e-07
6.86212564e-07
6.86212675e-07
6.86213524e-07
6.86212386e-07
6.86213473e-07
6.86212606e-07
6.86213157e-07
6.86213455e-07
6.86212435e-07
6.86213736e-07
6.86213223e-07
6.86213171e-07
6.86212408e-07
6.86213261e-07
6.86213105e-07
6.86213113e-07
6.8621261e-07
6.86212905e-07
6.86212532e-07
6.86212876e-07
6.86212732e-07
6.86213885e-07
6.86213091e-07
6.86213136e-07
6.86212579e-07
6.86213359e-07
6.86213152e-07
6.86213141e-07
6.86213896e-07
6.86212665e-07
6.86213977e-07
6.86213797e-07
6.86213777e-07
6.86212762e-07
6.86214436e-07
6.8621305e-07
6.86213056e-07
6.86213014e-07
6.86212821e-07
6.86212946e-07
6.86213751e-07
6.8621362e-07
6.86213098e-07
6.86214738e-07
6.86212585e-07
6.86214354e-07
6.86212766e-07
6.86214e-07
6.86213382e-07
6.86213432e-07
6.86214384e-07
6.86212225e-07
6.86213766e-07
6.86213974e-07
6.86214211e-07
6.86213348e-07
6.86212932e-07
6.86213696e-07
6.86213533e-07
6.86213823e-07
6.86213037e-07
6.86213557e-07
6.86213415e-07
6.86213214e-07
6.86214142e-07
6.86212761e-07
6.86213452e-07
6.86213846e-07
6.8621459e-07
6.8621369e-07
6.86214127e-07
6.86213669e-07
6.86213756e-07
6.86213983e-07
6.8621386e-07
6.86213979e-07
6.86214924e-07
6.86213552e-07
6.86214148e-07
6.86214316e-07
6.86213981e-07
6.86213977e-07
6.86213151e-07
6.86214711e-07
6.86213698e-07
6.86214288e-07
6.86214996e-07
6.86212926e-07
6.86214421e-07
6.86213903e-07
6.86214453e-07
6.86214378e-07
6.86213858e-07
6.86214004e-07
6.86213793e-07
6.86214403e-07
6.86213693e-07
6.86214359e-07
6.86213709e-07
6.8621419e-07
6.86214055e-07
6.86214439e-07
6.86213538e-07
6.8621347e-07
6.8621398e-07
6.86213725e-07
6.86214573e-07
6.86213244e-07
6.86214785e-07
6.86213529e-07
6.86214555e-07
6.86214217e-07
6.86214041e-07
6.8621511e-07
6.86213452e-07
6.86214856e-07
6.86213568e-07
6.86214973e-07
6.86214174e-07
6.86214321e-07
6.86213715e-07
6.86214451e-07
6.86214345e-07
6.86213805e-07
6.86215005e-07
6.86213841e-07
6.86215073e-07
6.86214041e-07
6.86214635e-07
6.86214471e-07
6.86214263e-07
6.86213679e-07
6.86215012e-07
6.86214093e-07
6.86214046e-07
6.86215031e-07
6.86214815e-07
6.86214905e-07
6.86214778e-07
6.86214718e-07
6.86215123e-07
6.86215301e-07
6.86213941e-07
6.86215319e-07
6.86213858e-07
6.86214822e-07
6.86214581e-07
6.86214052e-07
6.86214742e-07
6.86213746e-07
6.86215192e-07
6.86214066e-07
6.86214355e-07
6.86214171e-07
6.8621432e-07
6.86213972e-07
6.86214358e-07
6.86214591e-07
6.86213986e-07
6.86214542e-07
6.8621414e-07
6.86214765e-07
6.86214225e-07
6.86214539e-07
6.86213872e-07
6.86215186e-07
6.86214702e-07
6.86214942e-07
6.8621428e-07
6.86214638e-07
6.8621387e-07
6.86214621e-07
6.86214325e-07
6.86215714e-07
6.86214111e-07
6.86215042e-07
6.86213507e-07
6.86214914e-07
6.86214647e-07
6.8621525e-07
6.86214759e-07
6.86214933e-07
6.86214359e-07
6.86214144e-07
6.86215018e-07
6.86213804e-07
6.8621501e-07
6.86214157e-07
6.86214208e-07
6.86214555e-07
6.86214794e-07
6.86213874e-07
6.86214711e-07
6.86214219e-07
6.86215173e-07
6.86214168e-07
6.86214476e-07
6.86215231e-07
6.86214154e-07
6.86215679e-07
6.86214819e-07
6.86215143e-07
6.86214517e-07
6.86214794e-07
6.86214758e-07
6.86215233e-07
6.86214555e-07
6.86215309e-07
6.86214892e-07
6.86214711e-07
6.86214634e-07
6.86214505e-07
6.86214436e-07
6.86214399e-07
6.86215039e-07
6.86214377e-07
6.86215482e-07
6.86214442e-07
6.86214965e-07
6.86215529e-07
6.86213833e-07
6.86214459e-07
6.86214904e-07
6.86213903e-07
6.86215244e-07
6.86214993e-07
6.86214585e-07
6.86214272e-07
6.86214871e-07
6.86214673e-07
6.86213847e-07
6.86215101e-07
6.86214548e-07
6.86214383e-07
6.86214486e-07
6.86214152e-07
6.8621546e-07
6.86213619e-07
6.86215986e-07
6.86214189e-07
6.8621531e-07
6.86214335e-07
6.86214106e-07
6.86214882e-07
6.86214312e-07
6.86215263e-07
6.86214494e-07
6.8621476e-07
6.86214083e-07
6.86214621e-07
6.86213697e-07
6.86214724e-07
6.86214771e-07
6.86214596e-07
6.86214822e-07
6.86214177e-07
6.86215039e-07
6.86214629e-07
6.86214843e-07
6.86214115e-07
6.8621459e-07
6.86214913e-07
6.86214909e-07
6.86214819e-07
6.86214993e-07
6.86214193e-07
6.8621484e-07
6.86214225e-07
6.86215408e-07
6.86213987e-07
6.86215459e-07
6.86213556e-07
6.86214764e-07
6.86214776e-07
6.86214486e-07
6.86214967e-07
6.8621477e-07
6.86214697e-07
6.8621439e-07
6.86214519e-07
6.86214819e-07
6.86214225e-07
6.86214725e-07
6.86214435e-07
6.86214751e-07
6.86214713e-07
6.86214453e-07
6.86214518e-07
6.86214637e-07
6.86214476e-07
6.86214558e-07
6.8621462e-07
6.86214589e-07
6.86214532e-07
6.86214528e-07
6.86214489e-07
6.86214547e-07
6.86214572e-07
6.86214558e-07
6.86214574e-07
6.86214547e-07
6.86214555e-07
6.86214558e-07
6.86214551e-07
6.86214588e-07
6.86214565e-07
6.86214536e-07
6.86214543e-07
6.86214566e-07
6.86214561e-07
6.86214557e-07
6.8621456e-07
6.86214557e-07
6.86214556e-07
6.86214563e-07
6.86214558e-07
6.86214566e-07
6.8621454e-07
6.86214564e-07
6.86214553e-07
6.86214554e-07
6.86214555e-07
6.86214555e-07
6.86214557e-07
6.86214567e-07
6.86214552e-07
6.86214557e-07
6.86214548e-07
6.86214549e-07
6.86214559e-07
6.86214561e-07
6.8621456e-07
6.8621456e-07
6.86214544e-07
6.86214562e-07
6.86214556e-07
6.86214555e-07
6.86214563e-07
6.86214551e-07
6.86214569e-07
6.86214555e-07
6.86214564e-07
6.86214552e-07
6.86214551e-07
6.86214565e-07
6.86214551e-07
6.8621455e-07
6.86214561e-07
)
;

boundaryField
{
    closed
    {
        type            calculated;
        value           uniform 0;
    }
    open
    {
        type            calculated;
        value           uniform 0;
    }
    sides
    {
        type            empty;
    }
}


// ************************************************************************* //
