/*--------------------------------*- C++ -*----------------------------------*\
| =========                 |                                                 |
| \\      /  F ield         | OpenFOAM: The Open Source CFD Toolbox           |
|  \\    /   O peration     | Version:  2206                                  |
|   \\  /    A nd           | Website:  www.openfoam.com                      |
|    \\/     M anipulation  |                                                 |
\*---------------------------------------------------------------------------*/
FoamFile
{
    version     2.0;
    format      ascii;
    arch        "LSB;label=32;scalar=64";
    class       volScalarField;
    location    "5.2e-06";
    object      sourcePV;
}
// * * * * * * * * * * * * * * * * * * * * * * * * * * * * * * * * * * * * * //

dimensions      [1 -3 -1 0 0 0 0];

internalField   nonuniform List<scalar> 
3183
(
0
0
0
0
0
0
0
0
0
0
0
0
0
0
0
0
0
0
0
0
0
0
0
0
0
0
0
0
0
0
0
0
0
0
0
0
0
0
0
0
0
0
0
0
0
0
0
0
0
0
0
0
0
0
0
0
0
0
0
0
0
0
0
0
0
0
0
0
0
0
0
0
0
0
0
0
0
0
0
0
0
0
0
0
0
0
0
0
0
0
0
0
0
0
0
0
0
0
0
0
0
0
0
0
0
0
0
0
0
0
0
0
0
0
0
0
0
0
0
0
0
0
0
0
0
0
0
0
0
0
0
0
0
0
0
0
0
0
0
0
0
0
0
0
0
0
0
0
0
0
0
0
0
0
0
0
0
0
0
0
0
0
0
0
0
0
0
0
0
0
0
0
0
0
0
0
0
0
0
0
0
0
0
0
0
0
0
0
0
0
0
0
0
0
0
0
0
0
0
0
0
0
0
0
0
0
0
0
0
0
0
0
0
0
0
0
0
0
0
0
0
0
0
0
0
0
0
0
0
0
0
0
0
0
0
0
0
0
0
0
0
0
0
0
0
0
0
0
0
0
0
0
0
0
0
0
0
0
0
0
0
0
0
0
0
0
0
0
0
0
0
0
0
0
0
0
0
0
0
0
0
0
0
0
0
0
0
0
0
0
0
0
0
0
0
0
0
0
0
0
0
0
0
0
0
0
0
0
0
0
0
0
0
0
0
0
0
0
0
0
0
0
0
0
0
0
0
0
0
0
0
0
0
0
0
0
0
0
0
0
0
0
0
0
0
0
0
0
0
0
0
0
0
0
0
0
0
0
0
0
0
0
0
0
0
0
0
0
0
0
0
0
0
0
0
0
0
0
0
0
0
0
0
0
0
0
0
0
0
0
0
0
0
0
0
0
0
0
0
0
0
0
0
0
0
0
0
0
0
0
0
0
0
0
0
0
0
0
0
0
0
0
0
0
0
0
0
0
0
0
0
0
0
0
0
0
0
0
0
0
0
0
0
0
0
0
0
0
0
0
0
0
0
0
0
0
0
0
0
0
0
0
0
0
0
0
0
0
0
0
0
0
0
0
0
0
0
0
0
0
0
0
0
0
0
0
0
0
0
0
0
0
0
0
0
0
0
0
0
0
0
0
0
0
0
0
0
0
0
0
0
0
0
0
0
0
0
0
0
0
0
0
0
0
0
0
0
0
0
0
0
0
0
0
0
0
0
0
0
0
0
0
0
0
0
0
0
0
0
0
0
0
0
0
0
0
0
0
0
0
0
0
0
0
0
0
0
0
0
0
0
0
0
0
0
0
0
0
0
0
0
0
0
0
0
0
0
0
0
0
0
0
0
0
0
0
0
0
0
0
0
0
0
0
0
0
0
0
0
0
0
0
0
0
0
0
0
0
0
0
0
0
0
0
0
0
0
0
0
0
0
0
0
0
0
0
0
0
0
0
0
0
0
0
0
0
0
0
0
0
0
0
0
0
0
0
0
0
0
0
0
0
0
0
0
0
0
0
0
0
0
0
0
0
0
0
0
0
0
0
0
0
0
0
0
0
0
0
0
0
0
0
0
0
0
0
0
0
0
0
0
0
0
0
0
0
0
0
0
0
0
0
0
0
0
0
0
0
0
0
0
0
0
0
0
0
0
0
0
0
0
0
0
0
0
0
0
0
0
0
0
0
0
0
0
0
0
0
0
0
0
0
0
0
0
0
0
0
0
0
0
0
0
0
0
0
0
0
0
0
0
0
0
0
0
0
0
0
0
0
0
0
0
0
0
0
0
0
0
0
0
0
0
0
0
0
0
0
0
0
0
0
0
0
0
0
0
0
0
0
0
0
0
0
0
0
0
0
0
0
0
0
0
0
0
0
0
0
0
0
0
0
0
0
0
0
0
0
0
0
0
0
0
0
0
0
0
0
0
0
0
0
0
0
0
0
0
0
0
0
0
0
0
0
0
0
0
0
0
0
0
0
0
0
0
0
0
0
0
0
0
0
0
0
0
0
0
0
0
0
0
0
0
0
0
0
0
0
0
0
0
0
0
0
0
0
0
0
0
0
0
0
0
0
0
0
0
0
0
0
0
0
0
0
0
0
0
0
0
0
0
0
0
0
0
0
0
0
0
0
0
0
0
0
0
0
0
0
0
0
0
0
0
0
0
0
0
0
0
0
0
0
0
0
0
0
0
0
0
0
0
0
0
0
0
0
0
0
0
0
0
0
0
0
0
0
0
0
0
0
0
0
0
0
0
0
0
0
0
0
0
0
0
0
0
0
0
0
0
0
0
0
0
0
0
0
0
0
0
0
0
0
0
0
0
0
0
0
0
0
0
0
0
0
0
0
0
0
0
0
0
0
0
0
0
0
0
0
0
0
0
0
0
0
0
0
0
0
0
0
0
0
0
0
0
0
0
0
0
0
0
0
0
0
0
0
0
0
0
0
0
0
0
0
0
0
0
0
0
0
0
0
0
0
0
0
0
0
0
0
0
0
0
0
0
0
0
0
0
0
0
0
0
0
0
0
0
0
0
0
0
0
0
0
0
0
0
0
0
0
0
0
0
0
0
0
0
0
0
0
0
0
0
0
0
0
0
0
0
0
0
0
0
0
0
0
0
0
0
0
0
0
0
0
0
0
0
0
0
0
0
0
0
0
0
0
0
0
0
0
0
0
0
0
0
0
0
0
0
0
0
0
0
0
0
0
0
0
0
0
0
0
0
0
0
0
0
0
0
0
0
0
0
0
0
0
0
0
0
0
0
0
0
0
0
0
0
0
0
0
0
0
0
0
0
0
0
0
0
0
0
0
0
0
0
0
0
0
0
0
0
0
0
0
0
0
0
0
0
0
0
0
0
0
0
0
0
0
0
0
0
0
0
0
0
0
0
0
0
0
0
0
0
0
0
0
0
0
0
0
0
0
0
0
0
0
0
0
0
0
0
0
0
0
0
0
0
0
0
0
0
0
0
0
0
0
0
0
0
0
0
0
0
0
0
0
0
0
0
0
0
0
0
0
0
0
0
0
0
0
0
0
0
0
0
0
0
0
0
0
0
0
0
0
0
0
0
0
0
0
0
0
0
0
0
0
0
0
0
0
0
0
0
0
0
0
0
0
0
0
0
0
0
0
0
0
0
0
0
0
0
0
0
0
0
0
0
0
0
0
0
0
0
0
0
0
0
0
0
0
0
0
0
0
0
0
0
0
0
0
0
0
0
0
0
0
0
0
0
0
0
0
0
0
0
0
0
0
0
0
0
0
0
0
0
0
0
0
0
0
0
0
0
0
0
0
0
0
0
0
0
0
0
0
0
0
0
0
0
0
0
0
0
0
0
0
0
0
0
0
0
0
0
0
0
0
0
0
0
0
0
0
0
0
0
0
0
0
0
0
0
0
0
0
0
0
0
0
0
0
0
0
0
0
0
0
0
0
0
0
0
0
0
0
0
0
0
0
0
0
0
0
0
0
0
0
0
0
0
0
0
0
0
0
0
0
0
0
0
0
0
0
0
0
0
0
0
0
0
0
0
0
0
0
0
0
0
0
0
0
0
0
0
0
0
0
0
0
0
0
0
0
0
0
0
0
0
0
0
0
0
0
0
0
0
0
0
0
0
0
0
0
0
0
0
0
0
0
0
0
0
0
0
0
0
0
0
0
0
0
0
0
0
0
0
0
0
0
0
0
0
0
0
0
0
0
0
0
0
0
0
0
0
0
0
0
0
0
0
0
0
0
0
0
0
0
0
0
0
0
0
0
0
0
0
0
0
0
0
0
0
0
0
0
0
0
0
0
0
0
0
0
0
0
0
0
0
0
0
0
0
0
0
0
0
0
0
0
0
0
0
0
0
0
0
0
0
0
0
0
0
0
0
0
0
0
0
0
0
0
0
0
0
0
0
0
0
0
0
0
0
0
0
0
0
0
0
0
0
0
0
0
0
0
0
0
0
0
0
0
0
0
0
0
0
0
0
0
0
0
0
0
0
0
0
0
0
0
0
0
0
0
0
0
0
0
0
0
0
0
0
0
0
0
0
0
0
0
0
0
0
0
0
0
0
0
0
0
0
0
0
0
0
0
0
0
0
0
0
0
0
0
0
0
0
0
0
0
0
0
0
0
0
0
0
0
0
0
0
0
0
0
0
0
0
0
0
0
0
0
0
0
0
0
0
0
0
0
0
0
0
0
0
0
0
0
0
0
0
0
0
0
0
0
0
0
0
0
0
0
0
0
0
0
0
0
0
0
0
0
0
0
0
0
0
0
0
0
0
0
0
0
0
0
0
0
0
0
0
0
0
0
0
0
0
0
0
0
0
0
0
0
0
0
0
0
0
0
0
0
0
0
0
0
0
0
0
0
0
0
0
0
0
0
0
0
0
0
0
0
0
0
0
0
0
0
0
0
0
0
0
0
0
0
0
0
0
0
0
0
0
0
0
0
0
0
0
0
0
0
0
0
0
0
0
0
0
0
0
0
0
0
0
0
0
0
0
0
0
0
0
0
0
0
0
0
0
0
0
0
0
0
0
0
0
0
0
0
0
0
0
0
0
0
0
0
0
0
0
0
0
0
0
0
0
0
0
0
0
0
0
0
0
0
0
0
0
0
0
0
0
0
0
0
0
0
0
0
0
0
0
0
0
0
0
0
0
0
0
0
0
0
0
0
0
0
0
0
0
0
0
0
0
0
0
0
0
0
0
0
0
0
0
0
0
0
0
0
0
0
0
0
0
0
0
0
0
0
0
0
0
0
0
0
0
0
0
0
0
0
0
0
0
0
0
0
0
0
0
0
0
0
0
0
0
0
0
0
0
0
0
0
0
0
0
0
0
0
0
0
0
0
0
0
0
0
0
0
0
0
0
0
0
0
0
0
0
0
0
0
0
0
0
0
0
0
0
0
0
0
0
0
0
0
0
0
0
0
0
0
0
0
0
0
0
0
0
0
0
0
0
0
0
0
0
0
0
0
0
0
0
0
0
0
0
0
0
0
0
0
0
0
0
0
0
0
0
0
0
0
0
0
0
0
0
0
0
0
0
0
0
0
0
0
0
0
0
0
0
0
0
0
0
0
0
0
0
0
0
0
0
0
0
0
0
0
0
0
0
0
0
0
0
0
0
0
0
0
0
0
0
0
0
0
0
0
0
0
0
0
0
0
0
0
0
0
0
0
0
0
0
0
0
0
0
0
0
0
0
0
0
0
0
0
0
0
0
0
0
0
0
0
0
0
0
0
0
0
0
0
0
0
0
0
0
0
0
0
0
0
0
0
0
0
0
0
0
0
0
0
0
0
0
0
0
0
0
0
0
0
0
0
0
0
0
0
0
0
0
0
0
0
0
0
0
0
0
0
0
0
0
0
0
0
0
0
0
0
0
0
0
0
0
0
0
0
0
0
0
0
0
0
0
0
0
0
0
0
0
0
0
0
0
0
0
0
0
0
0
0
0
0
0
0
0
0
0
0
0
0
0
0
0
0
0
0
0
2.08102172e-300
0
5.41265438e-292
0
7.25185039e-284
0
5.00483951e-276
0
1.77926996e-268
0
3.25859272e-261
0
3.07479924e-254
0
1.49531443e-247
0
3.75007788e-241
0
4.85576071e-235
0
3.25377309e-229
0
1.1333271e-223
0
1.5827604e-219
0
1.16439737e-215
0
5.94940081e-212
0
2.36450719e-208
0
7.77032709e-205
0
2.19281168e-201
0
5.4514525e-198
0
1.21591393e-194
0
2.46658397e-191
0
4.59898345e-188
0
7.94729988e-185
0
1.28142979e-181
0
1.93862246e-178
0
2.76452959e-175
0
3.73054288e-172
0
4.77957093e-169
0
5.83059128e-166
0
6.78918119e-163
0
7.56204398e-160
0
8.07230392e-157
0
8.27204696e-154
0
8.14932489e-151
0
7.72833946e-148
0
7.06326723e-145
0
6.22763196e-142
0
5.30189985e-139
1.03609988e-140
4.36194981e-136
2.18815386e-137
3.47040405e-133
2.73503069e-134
2.67179731e-130
2.82533107e-131
1.99155502e-127
2.61312517e-128
1.43799627e-124
2.23481564e-125
1.00619815e-121
1.79644505e-122
6.82538925e-119
1.37023342e-119
4.48976001e-116
9.97682949e-117
2.86471422e-113
6.96251003e-114
1.77333472e-110
4.67037225e-111
1.06517021e-107
3.01749644e-108
6.20888076e-105
1.88068043e-105
3.5123733e-102
1.13201243e-102
1.92836047e-99
6.58603603e-100
1.02745625e-96
3.70599131e-97
5.31243322e-94
2.01782685e-94
2.66517627e-91
1.06338126e-91
1.2971415e-88
5.42488065e-89
6.12326607e-86
2.67922225e-86
2.80282871e-83
1.28091844e-83
1.2436202e-80
5.9273961e-81
5.34678148e-78
2.65419284e-78
2.22648704e-75
1.14970167e-75
8.97537573e-73
4.81550818e-73
3.50059e-70
1.94932782e-70
1.3200928e-67
7.62175577e-68
4.80977276e-65
2.87641898e-65
1.69177965e-62
1.0469619e-62
5.73931218e-60
3.67195293e-60
1.87594605e-57
1.23966148e-57
5.90087387e-55
4.023847e-55
1.78391604e-52
1.25411544e-52
5.17543878e-50
3.74748636e-50
1.4384725e-47
1.07179017e-47
3.82300185e-45
2.92822761e-45
9.69404603e-43
7.6254066e-43
2.33944071e-40
1.88789997e-40
5.35753849e-38
4.4307325e-38
1.16037653e-35
9.82350221e-36
2.36751519e-33
2.0493084e-33
4.52905396e-31
4.00342339e-31
8.0778544e-29
7.28216367e-29
1.33407208e-26
1.22483943e-26
2.02286589e-24
1.88866526e-24
2.78605862e-22
2.64098063e-22
3.43702931e-20
3.30190883e-20
3.72732848e-18
3.62154287e-18
3.46093387e-16
3.39376737e-16
2.64546587e-14
2.60894812e-14
1.56123819e-12
1.56440813e-12
6.49751813e-10
6.74735669e-10
2.66420194
5.21993788
7.76490908
6.60134683
0.83010501
0.687419186
0.078813388
0.0743164867
0.00805796934
0.00797371926
0.000746470867
0.000747377069
6.8575464e-05
6.88335119e-05
1.25597521e-05
1.25632352e-05
8.35652212e-06
8.36027724e-06
8.07471814e-06
8.07472361e-06
8.05682611e-06
8.05683881e-06
8.05579232e-06
8.05580048e-06
8.05574306e-06
8.05574265e-06
8.05574028e-06
8.05574457e-06
8.05573177e-06
8.05574979e-06
8.05573048e-06
8.05573742e-06
8.05573216e-06
8.05574919e-06
8.05572807e-06
8.05574155e-06
8.05574316e-06
8.0557346e-06
8.05573459e-06
8.05573557e-06
8.05574464e-06
8.05573716e-06
8.05574367e-06
8.05572821e-06
8.05574037e-06
8.05573347e-06
8.05574601e-06
8.05573803e-06
8.05573834e-06
8.05573134e-06
8.05574417e-06
8.05573692e-06
8.05573775e-06
8.05574057e-06
8.05573979e-06
8.05573502e-06
8.05573591e-06
8.05574063e-06
8.05574115e-06
8.05573268e-06
8.05574328e-06
8.05573722e-06
8.05573639e-06
8.05573889e-06
8.05573741e-06
8.05573668e-06
8.05574368e-06
8.05572915e-06
8.05574449e-06
8.05572224e-06
8.05575169e-06
8.05572107e-06
8.05574684e-06
8.055734e-06
8.0557346e-06
8.05574373e-06
8.05573747e-06
8.05574296e-06
8.05574043e-06
8.05574866e-06
8.05574058e-06
8.05573861e-06
8.05574457e-06
8.05573824e-06
8.05574727e-06
8.05573526e-06
8.05574003e-06
8.05574058e-06
8.05574181e-06
8.05573393e-06
8.05574494e-06
8.05574343e-06
8.05573643e-06
8.05575541e-06
8.05573955e-06
8.05574571e-06
8.05574116e-06
8.05574953e-06
8.05574448e-06
8.05573845e-06
8.05574958e-06
8.05574255e-06
8.05574361e-06
8.05574537e-06
8.05574304e-06
8.0557367e-06
8.05574666e-06
8.05575078e-06
8.05573827e-06
8.05573771e-06
8.05574668e-06
8.05572804e-06
8.055746e-06
8.0557385e-06
8.0557441e-06
8.05574036e-06
8.0557423e-06
8.05574158e-06
8.05573814e-06
8.05574606e-06
8.05574358e-06
8.05574218e-06
8.05574369e-06
8.05574294e-06
8.05574587e-06
8.05573803e-06
8.05574381e-06
8.05573655e-06
8.0557473e-06
8.05574773e-06
8.05574706e-06
8.05573576e-06
8.05575145e-06
8.05575666e-06
8.05573654e-06
8.05575848e-06
8.05574152e-06
8.05573993e-06
8.05575441e-06
8.0557352e-06
8.05574839e-06
8.05574374e-06
8.05574577e-06
8.05574073e-06
8.0557408e-06
8.05574846e-06
8.0557438e-06
8.05574681e-06
8.05574506e-06
8.05574906e-06
8.05574253e-06
8.05574807e-06
8.05574963e-06
8.05574788e-06
8.05574971e-06
8.05575258e-06
8.05574301e-06
8.05575515e-06
8.0557428e-06
8.05574827e-06
8.05574874e-06
8.05574637e-06
8.05574812e-06
8.05574326e-06
8.05575353e-06
8.05575045e-06
8.05575977e-06
8.0557421e-06
8.05574839e-06
8.05574634e-06
8.05574891e-06
8.05574079e-06
8.0557465e-06
8.05574185e-06
8.05573831e-06
8.05574981e-06
8.05575653e-06
8.05574418e-06
8.05574585e-06
8.0557641e-06
8.05575397e-06
8.05575945e-06
8.05575222e-06
8.05575193e-06
8.0557477e-06
8.05575536e-06
8.05575286e-06
8.05575066e-06
8.05575754e-06
8.05574693e-06
8.05575624e-06
8.05575291e-06
8.05574915e-06
8.05575747e-06
8.05575746e-06
8.05574712e-06
8.05575837e-06
8.05574473e-06
8.05576026e-06
8.05573858e-06
8.05575842e-06
8.05574563e-06
8.05575102e-06
8.05575723e-06
8.05574908e-06
8.05574802e-06
8.05575698e-06
8.05575267e-06
8.05575958e-06
8.05575009e-06
8.05576282e-06
8.05574204e-06
8.05576399e-06
8.05575169e-06
8.05575819e-06
8.05575434e-06
8.05575435e-06
8.05575525e-06
8.05575831e-06
8.05576576e-06
8.05574643e-06
8.05576347e-06
8.05575024e-06
8.05575409e-06
8.05575658e-06
8.05574725e-06
8.05575867e-06
8.05575497e-06
8.05575927e-06
8.05575718e-06
8.05575399e-06
8.0557553e-06
8.05576527e-06
8.0557519e-06
8.05576467e-06
8.05575448e-06
8.05576096e-06
8.05576446e-06
8.05575248e-06
8.05576775e-06
8.05576173e-06
8.05576112e-06
8.05575215e-06
8.05576218e-06
8.05576034e-06
8.05576044e-06
8.05575454e-06
8.055758e-06
8.05575362e-06
8.05575765e-06
8.05575597e-06
8.0557695e-06
8.05576018e-06
8.05576071e-06
8.05575417e-06
8.05576333e-06
8.0557609e-06
8.05576076e-06
8.05576964e-06
8.05575518e-06
8.05577059e-06
8.05576847e-06
8.05576824e-06
8.05575632e-06
8.05577598e-06
8.05575971e-06
8.05575977e-06
8.05575928e-06
8.05575702e-06
8.05575848e-06
8.05576793e-06
8.0557664e-06
8.05576027e-06
8.05577952e-06
8.05575424e-06
8.05577502e-06
8.05575636e-06
8.05577086e-06
8.0557636e-06
8.05576419e-06
8.05577537e-06
8.05575001e-06
8.05576811e-06
8.05577055e-06
8.05577334e-06
8.0557632e-06
8.05575832e-06
8.05576729e-06
8.05576537e-06
8.05576878e-06
8.05575955e-06
8.05576566e-06
8.05576398e-06
8.05576162e-06
8.05577253e-06
8.05575631e-06
8.05576442e-06
8.05576905e-06
8.05577778e-06
8.05576721e-06
8.05577235e-06
8.05576697e-06
8.05576799e-06
8.05577066e-06
8.05576922e-06
8.05577061e-06
8.05578171e-06
8.05576559e-06
8.05577259e-06
8.05577456e-06
8.05577064e-06
8.05577058e-06
8.05576088e-06
8.0557792e-06
8.05576731e-06
8.05577424e-06
8.05578255e-06
8.05575824e-06
8.0557758e-06
8.05576971e-06
8.05577617e-06
8.0557753e-06
8.0557692e-06
8.0557709e-06
8.05576842e-06
8.05577559e-06
8.05576725e-06
8.05577507e-06
8.05576744e-06
8.05577309e-06
8.0557715e-06
8.05577602e-06
8.05576544e-06
8.05576463e-06
8.05577062e-06
8.05576763e-06
8.05577758e-06
8.05576198e-06
8.05578008e-06
8.05576533e-06
8.05577737e-06
8.05577341e-06
8.05577135e-06
8.0557839e-06
8.05576442e-06
8.05578091e-06
8.05576578e-06
8.05578229e-06
8.0557729e-06
8.05577463e-06
8.05576751e-06
8.05577615e-06
8.05577491e-06
8.05576857e-06
8.05578266e-06
8.05576899e-06
8.05578346e-06
8.05577133e-06
8.05577831e-06
8.05577639e-06
8.05577395e-06
8.05576709e-06
8.05578274e-06
8.05577195e-06
8.0557714e-06
8.05578296e-06
8.05578043e-06
8.05578149e-06
8.05578e-06
8.05577929e-06
8.05578404e-06
8.05578614e-06
8.05577016e-06
8.05578635e-06
8.05576918e-06
8.05578051e-06
8.05577768e-06
8.05577147e-06
8.05577957e-06
8.05576787e-06
8.05578486e-06
8.05577163e-06
8.05577503e-06
8.05577287e-06
8.05577462e-06
8.05577053e-06
8.05577506e-06
8.0557778e-06
8.0557707e-06
8.05577722e-06
8.0557725e-06
8.05577984e-06
8.05577351e-06
8.05577719e-06
8.05576935e-06
8.05578479e-06
8.0557791e-06
8.05578193e-06
8.05577415e-06
8.05577835e-06
8.05576933e-06
8.05577816e-06
8.05577467e-06
8.05579099e-06
8.05577216e-06
8.05578309e-06
8.05576506e-06
8.0557816e-06
8.05577845e-06
8.05578554e-06
8.05577978e-06
8.05578182e-06
8.05577507e-06
8.05577255e-06
8.05578282e-06
8.05576856e-06
8.05578272e-06
8.0557727e-06
8.0557733e-06
8.05577738e-06
8.05578019e-06
8.05576938e-06
8.05577921e-06
8.05577343e-06
8.05578464e-06
8.05577283e-06
8.05577645e-06
8.05578531e-06
8.05577267e-06
8.05579058e-06
8.05578047e-06
8.05578428e-06
8.05577693e-06
8.05578018e-06
8.05577977e-06
8.05578534e-06
8.05577738e-06
8.05578624e-06
8.05578133e-06
8.0557792e-06
8.0557783e-06
8.05577679e-06
8.05577597e-06
8.05577554e-06
8.05578306e-06
8.05577529e-06
8.05578827e-06
8.05577605e-06
8.05578219e-06
8.05578882e-06
8.0557689e-06
8.05577625e-06
8.05578147e-06
8.05576971e-06
8.05578546e-06
8.05578252e-06
8.05577773e-06
8.05577406e-06
8.05578109e-06
8.05577876e-06
8.05576906e-06
8.05578379e-06
8.0557773e-06
8.05577536e-06
8.05577657e-06
8.05577264e-06
8.05578801e-06
8.05576639e-06
8.05579418e-06
8.05577308e-06
8.05578625e-06
8.05577479e-06
8.0557721e-06
8.05578122e-06
8.05577452e-06
8.0557857e-06
8.05577666e-06
8.05577979e-06
8.05577183e-06
8.05577816e-06
8.0557673e-06
8.05577936e-06
8.05577991e-06
8.05577786e-06
8.05578051e-06
8.05577293e-06
8.05578306e-06
8.05577824e-06
8.05578076e-06
8.0557722e-06
8.05577778e-06
8.05578159e-06
8.05578153e-06
8.05578047e-06
8.05578252e-06
8.05577312e-06
8.05578073e-06
8.05577351e-06
8.05578739e-06
8.05577071e-06
8.05578799e-06
8.05576565e-06
8.05577983e-06
8.05577998e-06
8.05577657e-06
8.05578221e-06
8.0557799e-06
8.05577904e-06
8.05577544e-06
8.05577695e-06
8.05578047e-06
8.05577351e-06
8.05577937e-06
8.05577596e-06
8.05577968e-06
8.05577924e-06
8.05577617e-06
8.05577694e-06
8.05577834e-06
8.05577645e-06
8.05577741e-06
8.05577814e-06
8.05577777e-06
8.05577711e-06
8.05577705e-06
8.0557766e-06
8.05577729e-06
8.05577757e-06
8.05577741e-06
8.0557776e-06
8.05577729e-06
8.05577738e-06
8.05577741e-06
8.05577733e-06
8.05577776e-06
8.05577749e-06
8.05577715e-06
8.05577723e-06
8.05577751e-06
8.05577745e-06
8.0557774e-06
8.05577744e-06
8.0557774e-06
8.05577739e-06
8.05577747e-06
8.05577741e-06
8.05577751e-06
8.0557772e-06
8.05577748e-06
8.05577735e-06
8.05577736e-06
8.05577738e-06
8.05577738e-06
8.0557774e-06
8.05577752e-06
8.05577734e-06
8.0557774e-06
8.0557773e-06
8.05577731e-06
8.05577742e-06
8.05577745e-06
8.05577744e-06
8.05577744e-06
8.05577724e-06
8.05577746e-06
8.05577739e-06
8.05577738e-06
8.05577747e-06
8.05577733e-06
8.05577754e-06
8.05577738e-06
8.05577748e-06
8.05577734e-06
8.05577733e-06
8.05577749e-06
8.05577733e-06
8.05577732e-06
8.05577745e-06
)
;

boundaryField
{
    closed
    {
        type            calculated;
        value           uniform 0;
    }
    open
    {
        type            calculated;
        value           uniform 0;
    }
    sides
    {
        type            empty;
    }
}


// ************************************************************************* //
