/*--------------------------------*- C++ -*----------------------------------*\
| =========                 |                                                 |
| \\      /  F ield         | OpenFOAM: The Open Source CFD Toolbox           |
|  \\    /   O peration     | Version:  2206                                  |
|   \\  /    A nd           | Website:  www.openfoam.com                      |
|    \\/     M anipulation  |                                                 |
\*---------------------------------------------------------------------------*/
FoamFile
{
    version     2.0;
    format      ascii;
    arch        "LSB;label=32;scalar=64";
    class       surfaceScalarField;
    location    "3e-06";
    object      phi;
}
// * * * * * * * * * * * * * * * * * * * * * * * * * * * * * * * * * * * * * //

dimensions      [1 0 -1 0 0 0 0];

oriented        oriented;

internalField   nonuniform List<scalar> 
3182
(
8.25349062e-19
-7.17062799e-19
2.02741537e-19
-4.19888319e-19
-4.71119871e-23
-1.36262907e-24
-9.91940078e-26
-1.3132999e-30
1.96880951e-29
7.19181634e-25
9.83738709e-24
7.10315528e-22
1.63541078e-18
-6.4958737e-19
-1.19120166e-18
-1.7725474e-23
1.24268209e-18
-1.32757412e-18
-2.45915484e-18
3.09882008e-18
1.64437049e-21
3.81738958e-23
4.52148988e-24
1.93201078e-23
2.27063538e-22
1.11320436e-18
2.85138841e-18
-1.9935752e-18
-1.46338599e-18
-8.70263157e-19
-1.29253089e-18
1.4583025e-18
-1.0823837e-19
-1.02611703e-18
3.24821426e-19
4.85165153e-19
-4.87662067e-19
-4.85399436e-19
4.86673913e-19
-2.74319066e-19
-1.95266839e-18
-1.29385248e-18
4.31721371e-19
1.19300759e-18
7.62084644e-19
1.51303741e-18
8.67236534e-19
6.48768486e-19
-9.74444942e-19
-3.25682259e-19
-3.27946241e-19
-1.72545497e-18
-2.15032738e-19
1.04838957e-19
2.15210195e-19
-2.14682024e-19
-2.15049287e-19
-2.19168125e-19
-6.99385826e-23
-4.32944884e-19
-6.46514456e-19
-1.08610324e-18
-2.22195625e-19
-2.17236088e-19
-4.194291e-19
4.39229386e-19
1.08742863e-18
1.29475405e-18
2.18064039e-18
2.58953542e-18
2.60198422e-18
3.06219562e-18
2.17674507e-18
3.0411796e-18
4.35531655e-18
4.80504744e-18
5.65228075e-18
6.11465878e-18
5.25323442e-18
4.41031891e-18
5.68199562e-18
6.04173098e-18
4.27207907e-18
4.32028224e-18
5.04777456e-18
4.24588732e-18
2.61005252e-18
3.39236824e-18
3.36776138e-18
3.3151236e-18
2.54671741e-18
9.46690019e-19
1.15669389e-18
8.11355882e-19
-1.89888223e-18
-3.14294562e-18
-4.88879839e-18
-5.01400429e-18
-1.8122859e-18
1.27577696e-18
1.2679191e-18
1.34304518e-18
-9.93391444e-19
2.5208265e-19
-3.55703287e-19
2.28785236e-18
-1.4265415e-18
-1.21088375e-18
6.87796345e-19
-1.68280265e-18
-4.13571806e-18
-3.63050754e-18
-3.1654226e-18
-5.21286789e-18
-3.76020086e-18
-4.81176039e-18
-4.65192604e-18
-3.51704172e-18
-3.66158993e-18
-5.73738642e-18
-1.89918802e-18
-3.11228444e-19
-8.5536535e-19
-1.8954032e-18
-3.32984771e-19
-6.32718111e-19
-5.61967357e-18
-3.44487609e-18
-5.0338064e-18
-5.65749899e-18
-2.81533423e-18
-4.00089386e-18
-6.98472997e-19
9.18688367e-19
3.22398135e-19
-2.60685406e-18
4.57602372e-19
3.77672981e-19
2.70178582e-18
1.10561553e-18
7.22501838e-19
3.53469536e-18
-1.37429001e-18
2.46428717e-18
1.27240941e-18
3.89336903e-18
4.59866538e-18
5.63249157e-18
4.93971189e-18
4.70665625e-18
1.97589711e-18
1.93036805e-18
3.14969858e-18
3.87774197e-18
5.74218084e-18
7.52323e-18
8.22174004e-18
9.75390693e-18
7.38986639e-18
9.79340155e-18
1.00117027e-17
7.98473715e-18
6.52796398e-18
8.74948202e-18
1.01526991e-17
6.90415605e-18
1.07726185e-17
1.06394434e-17
8.67602722e-18
9.76449647e-18
9.01169638e-18
1.22826644e-17
9.71004612e-18
7.90175561e-18
1.08121984e-17
8.27018337e-18
8.74709307e-18
1.18310667e-17
5.79229751e-18
3.83992377e-18
3.84897791e-18
2.51796088e-18
1.80230232e-18
2.24280312e-19
2.3071923e-18
3.00546675e-18
9.09536111e-19
2.53377747e-18
3.33192683e-18
3.45717264e-18
6.49867944e-18
5.31619955e-18
5.72645636e-18
9.21651314e-18
4.79655719e-18
5.46735744e-18
3.27399312e-18
3.27103005e-18
4.92837052e-18
5.55995263e-18
4.70441308e-18
5.91426784e-18
7.22624943e-18
3.81430826e-18
4.88731173e-18
3.54946345e-18
2.778689e-18
2.53050864e-18
3.33334154e-18
-4.49943086e-19
-6.67030482e-19
3.32300689e-19
1.64371003e-18
-5.13518793e-19
-8.6629176e-20
5.99085197e-19
-1.51046297e-18
-2.39120946e-18
-3.11225249e-18
2.537248e-20
1.59731348e-18
1.55338558e-18
1.67278848e-18
8.58859538e-19
2.24397768e-18
3.13747251e-18
3.73513399e-18
2.65405514e-18
3.97536143e-18
2.12070254e-18
2.96807159e-18
1.00682154e-18
4.16568799e-18
1.64464119e-18
1.95188174e-18
-8.16800696e-19
6.78760405e-19
-3.89818301e-18
-1.84474461e-18
-1.0538758e-18
-1.63959878e-18
-1.54254494e-18
-1.06668319e-19
-9.1741355e-19
-2.89900832e-18
-3.93515258e-18
-6.51612964e-18
-4.93410351e-18
-6.12219282e-18
-9.73599482e-18
-1.13175685e-17
-1.10800423e-17
-1.40674443e-17
-1.11447552e-17
-1.28243124e-17
-1.00874425e-17
-7.77504298e-18
-1.17086485e-17
-9.37770315e-18
-8.10323016e-18
-8.83491948e-18
-6.20574583e-18
-7.41145261e-18
-8.27414543e-18
-1.42614844e-17
-1.36609293e-17
-1.18832443e-17
-1.42588427e-17
-1.32585986e-17
-1.23855558e-17
-1.19441451e-17
-1.23982081e-17
-1.25639817e-17
-1.34181647e-17
-1.09727914e-17
-9.82580369e-18
-7.21319795e-18
-9.0922309e-18
-9.04704012e-18
-1.07231629e-17
-1.1592081e-17
-1.4168976e-17
-9.98397594e-18
-1.26686628e-17
-1.76894601e-17
-1.86789629e-17
-2.14177879e-17
-2.47359875e-17
-2.45968468e-17
-2.45998995e-17
-2.23197661e-17
-2.65306133e-17
-2.70165752e-17
-2.73412143e-17
-3.23921587e-17
-2.77039908e-17
-2.69699231e-17
-2.62319647e-17
-2.64496396e-17
-2.71997306e-17
-2.54993239e-17
-2.43128377e-17
-2.31954457e-17
-2.20086134e-17
-2.41081149e-17
-2.19054759e-17
-2.14011385e-17
-2.58073321e-17
-2.67914184e-17
-2.7424004e-17
-2.40808526e-17
-2.24734746e-17
-2.34489396e-17
-2.70712396e-17
-2.77197795e-17
-3.00717243e-17
-2.89402449e-17
-2.93294822e-17
-2.96621868e-17
-2.77533572e-17
-2.77467896e-17
-2.63998413e-17
-2.78286957e-17
-2.85874914e-17
-2.8621698e-17
-2.67685054e-17
-2.37820926e-17
-2.7037334e-17
-2.4993881e-17
-2.72761024e-17
-2.33246515e-17
-2.68379527e-17
-2.40868651e-17
-2.72617065e-17
-2.60367082e-17
-2.78911064e-17
-2.82629202e-17
-2.78591864e-17
-2.79208364e-17
-2.55984894e-17
-2.8575667e-17
-2.70771878e-17
-2.66125746e-17
-2.61452646e-17
-2.78658145e-17
-2.55199987e-17
-2.71529796e-17
-2.39298471e-17
-2.60539039e-17
-2.3174261e-17
-2.81063258e-17
-2.64504096e-17
-2.64179874e-17
-2.23030606e-17
-2.48071433e-17
-2.48690042e-17
-2.53792296e-17
-2.22777683e-17
-2.38729309e-17
-2.14600515e-17
-1.92234799e-17
-2.16716371e-17
-2.45610003e-17
-2.65996544e-17
-2.39405295e-17
-2.21776242e-17
-2.35741843e-17
-2.45807756e-17
-2.17230929e-17
-2.37774834e-17
-2.126299e-17
-2.24303892e-17
-2.09335056e-17
-2.35314403e-17
-2.15288076e-17
-2.19380474e-17
-2.14275192e-17
-2.23315519e-17
-1.9540127e-17
-2.00451255e-17
-2.25373746e-17
-1.89241982e-17
-1.68899563e-17
-1.89959585e-17
-1.49799115e-17
-1.24359557e-17
-1.33371484e-17
-1.14362007e-17
-1.17690032e-17
-1.31265598e-17
-1.63852044e-17
-1.42137965e-17
-1.22131043e-17
-9.76840535e-18
-1.10828009e-17
-1.26157461e-17
-8.82393279e-18
-8.57899827e-18
-1.27229885e-17
-7.38247268e-18
-9.81502347e-18
-1.02752921e-17
-6.88219695e-18
-8.57193901e-18
-1.21402441e-17
-8.97454307e-18
-9.49194606e-18
-6.12621227e-18
-2.26564305e-18
-2.12966658e-18
1.47714408e-18
1.11634577e-18
2.48276488e-18
9.73610759e-19
1.94364391e-19
1.28905558e-19
1.80549651e-18
4.18072327e-18
4.92850501e-18
1.22660701e-18
1.15274305e-18
1.55865167e-18
1.61322767e-18
2.21411419e-18
5.91237354e-19
-2.67796527e-18
3.53774155e-19
4.69726078e-18
2.73968353e-18
2.4938861e-18
1.87377891e-18
3.35046518e-18
1.77201838e-18
5.89739419e-20
-2.67426661e-18
7.91095032e-20
-1.16511012e-18
1.37221842e-19
3.1302788e-20
-8.88869388e-19
-1.15287034e-18
-3.65983184e-18
-5.81940987e-18
-2.70508254e-18
-4.5944619e-19
8.62970092e-19
-4.99390475e-19
3.30640848e-18
1.26648129e-19
-2.20204999e-18
-1.58619967e-18
7.34064209e-19
-2.99975439e-18
-5.2999598e-19
-1.5526861e-18
-3.10261308e-18
-6.42174817e-20
1.74516321e-18
2.63916518e-18
2.02820049e-19
4.39060597e-19
5.33354959e-19
4.22724353e-19
-7.79554551e-19
3.31103729e-19
3.56562154e-18
4.18047326e-18
2.67386787e-18
1.79757612e-18
2.56073142e-18
4.79348109e-18
5.683659e-18
1.69349378e-18
6.59276861e-19
-2.58492275e-19
-1.13397621e-18
9.30203946e-19
8.29972981e-19
4.69415056e-18
-1.47887521e-19
3.78237949e-18
1.29601535e-18
3.17395209e-18
8.61265043e-19
6.89959124e-19
6.89244051e-19
-5.20710634e-19
-1.37511052e-18
-1.99573742e-18
-5.57884048e-20
-4.28622835e-18
-4.42297926e-18
-4.40520451e-18
-5.2641162e-18
-7.0842502e-18
-6.6956624e-18
-3.96397415e-18
-3.85466488e-18
-5.53080464e-18
-4.42721608e-18
-4.13222024e-18
-1.03623038e-18
-3.75398674e-18
-3.9844854e-18
-6.35073388e-19
1.13037225e-18
2.57467989e-18
2.45168702e-18
1.2448338e-18
1.82936798e-18
2.3133953e-18
-3.09595801e-18
-2.69530358e-18
-4.66698798e-18
-5.90592608e-18
-1.73517635e-18
-5.0016852e-18
-5.19694469e-18
-3.35584575e-18
-5.10436051e-18
-4.86883722e-18
-6.50843523e-18
-8.16860683e-18
-7.38601366e-18
-2.08653137e-18
-3.17729927e-18
-4.7863916e-18
-7.97540222e-19
2.76808754e-18
1.90214632e-18
-2.80683146e-18
-3.46441799e-18
-3.65627707e-18
-5.78651266e-19
1.22958098e-20
6.8885483e-20
-2.18705527e-18
-3.25090031e-18
-1.95659993e-18
2.8856746e-19
-2.87519817e-18
-2.18465263e-18
-2.89837466e-18
-3.11676812e-18
-3.27215858e-18
-5.74952031e-18
-4.19729713e-18
-4.00006817e-18
-3.32935497e-18
-4.9839296e-18
-5.85238446e-18
-4.81715983e-18
-3.20054562e-18
-3.6718866e-18
-1.94176783e-18
-1.07977877e-18
-2.89122746e-18
-2.22000619e-18
-2.52715545e-18
-3.16179721e-18
-1.14861152e-18
-1.2793811e-18
-2.20911636e-18
1.46802352e-18
-2.11741292e-19
2.09819378e-18
7.71375276e-18
7.49843079e-18
1.00283081e-17
9.53744382e-18
9.83606701e-18
1.00639774e-17
1.17421862e-17
9.93993238e-18
1.06080461e-17
1.08513692e-17
7.33314001e-18
6.1326228e-18
9.07740734e-18
1.01203555e-17
9.49897178e-18
1.33484051e-17
9.1035053e-18
8.88311387e-18
1.15712689e-17
7.29608498e-18
9.19884627e-18
6.33583985e-18
8.04254414e-18
5.63748363e-18
4.62807068e-18
6.77761198e-18
5.34220985e-18
6.93714467e-18
4.01261026e-18
7.42006218e-18
6.95940021e-18
1.00170075e-17
8.40365756e-18
7.97863107e-18
1.1455992e-17
1.49833942e-17
1.08719309e-17
1.04720132e-17
7.12526442e-18
6.54201602e-18
7.33806339e-18
7.46660644e-18
8.56788872e-18
6.70213479e-18
2.52236789e-18
1.68697971e-18
5.18472296e-18
7.59778084e-18
6.75719023e-18
8.85288817e-18
7.77054718e-18
7.0137638e-18
1.01544435e-17
1.23883304e-17
1.04963742e-17
8.09600221e-18
8.78243049e-18
1.02200341e-17
9.25436681e-18
7.89493928e-18
5.63518371e-18
7.35898382e-18
4.86556197e-18
6.19070618e-18
7.2599438e-18
1.00785985e-17
1.12907881e-17
1.0193438e-17
7.32638011e-18
7.30793595e-18
3.06175436e-18
1.8426289e-18
2.64947221e-18
3.01978523e-18
1.48150043e-18
8.41634186e-19
2.84778454e-18
-9.60931866e-20
-2.71762084e-18
-2.70795855e-18
-1.34263469e-18
7.77722637e-19
1.85907695e-18
2.15713726e-18
-7.50380193e-19
2.95813533e-18
4.08385743e-18
2.48834875e-18
1.37668529e-18
3.53677611e-19
1.98962742e-18
-3.48160791e-18
-2.97122315e-18
-2.85101428e-18
-9.19900672e-19
-8.16716721e-19
-1.60645942e-19
-5.05694443e-19
-1.07812107e-18
4.06316713e-19
3.39994818e-18
1.31456195e-18
-1.60525545e-18
-1.15707226e-18
-2.16130907e-18
-7.64968299e-19
2.29262688e-18
6.84022767e-19
-2.38863865e-18
-3.14337161e-18
-3.45650526e-18
-3.52439951e-18
-6.10757648e-18
-6.05330476e-18
-6.0066158e-18
-2.40875242e-18
-4.07454311e-18
-2.5518991e-18
-2.01821073e-18
-1.08259264e-18
-1.4056255e-19
-3.35947369e-18
-1.95446884e-18
2.87996921e-18
-2.07374297e-19
2.17879092e-18
2.78695938e-18
7.38626233e-18
9.09078704e-18
1.17905376e-17
1.12536946e-17
1.10184101e-17
1.28565675e-17
1.51323343e-17
1.35344268e-17
1.7684057e-17
1.62780642e-17
2.12230248e-17
2.0774488e-17
2.29758696e-17
2.11415751e-17
2.15928947e-17
1.82939562e-17
1.89401128e-17
1.81266274e-17
1.69413158e-17
1.55345628e-17
1.48725557e-17
1.56562391e-17
1.6515818e-17
1.65506801e-17
1.73003881e-17
1.68525059e-17
1.61308398e-17
1.73932291e-17
1.6249267e-17
1.73194131e-17
1.53632547e-17
1.25004505e-17
1.24615019e-17
1.06992169e-17
1.54780264e-17
1.31009529e-17
1.39216074e-17
1.39325866e-17
1.53192349e-17
1.49809309e-17
1.68730374e-17
1.58419783e-17
1.42072165e-17
1.49878411e-17
1.20461429e-17
9.92009853e-18
1.44926263e-17
1.35211115e-17
1.52253541e-17
1.49942046e-17
1.61518122e-17
1.79808808e-17
1.66384413e-17
1.49337447e-17
1.46790611e-17
1.35076845e-17
1.14410531e-17
9.77710506e-18
1.01631367e-17
1.1478616e-17
9.15253918e-18
8.66158113e-18
6.56031107e-18
6.38887321e-18
6.54245914e-18
2.96950582e-18
4.86591803e-18
8.31934365e-18
9.24955804e-18
7.75750143e-18
8.20939163e-18
8.94515717e-18
6.98149479e-18
5.16304767e-18
5.87205423e-18
3.726803e-18
1.83841187e-18
2.91938407e-18
4.68730274e-18
3.26351119e-18
3.41065692e-18
4.96403838e-18
4.11751143e-18
-1.09693209e-20
4.28635176e-18
7.81768823e-19
9.63936765e-19
-3.55704639e-18
-2.37264686e-18
-4.77975552e-18
-2.90386733e-18
-3.1544367e-18
-5.32519723e-18
-6.40463916e-18
-7.14296661e-18
-9.27108257e-18
-5.20636657e-18
-7.07330665e-18
-5.96239745e-18
-7.56811004e-18
-3.95723586e-18
-6.78653527e-18
-3.42891118e-19
-2.43257425e-18
-3.66567968e-18
-4.21461193e-18
-6.04009146e-18
-4.42605486e-18
-5.86788784e-18
-5.48113891e-18
-3.34231157e-18
-1.98578859e-18
-3.77472613e-18
-2.67149357e-18
-2.40430978e-18
-2.33887342e-18
-5.29390061e-18
-6.11380538e-18
-4.11361002e-18
-1.4312711e-18
-4.06096246e-18
-6.0489948e-18
-6.49285825e-18
-7.51997961e-18
-6.36478482e-18
-7.32263092e-18
-7.29694493e-18
-7.69529852e-18
-4.15831571e-18
-2.59917854e-18
-4.20843682e-18
-4.60892027e-18
-2.9446849e-18
-1.98183045e-18
-2.84445238e-18
1.15588676e-18
-9.89814635e-19
-2.76515854e-18
-1.89701109e-18
-3.79086811e-18
-3.72720362e-18
-2.24872824e-18
6.73917983e-19
2.36792716e-18
2.79667397e-18
4.56857317e-18
5.90931979e-18
3.82796566e-18
5.40430687e-18
6.45561566e-18
6.3247034e-18
4.47822008e-18
2.77219992e-18
3.60442772e-18
3.43278802e-18
4.13675205e-18
3.35318494e-18
3.98232422e-18
2.36387335e-18
1.01141811e-18
-2.01044093e-19
1.46330718e-18
4.20524565e-19
7.91800784e-19
-4.33824805e-18
-3.45147641e-18
-8.3617987e-19
9.6550943e-20
-1.06173549e-18
-3.7331761e-18
-1.86227232e-18
-7.108279e-19
-9.13335807e-19
-5.38169951e-19
-2.98099373e-18
-2.35034561e-18
-9.30997668e-19
-5.71538854e-19
-5.39285201e-19
2.45031189e-19
1.74053014e-18
3.38033824e-19
-1.85238213e-18
4.0516774e-19
-1.43458216e-19
6.60189512e-19
-1.52806454e-18
-1.78868022e-18
-4.28172484e-18
-1.63059014e-18
-2.47952865e-18
-4.57457357e-18
-4.37557823e-18
-3.12367309e-18
-2.16419233e-18
-2.30460586e-18
-1.85637252e-18
-9.78191031e-19
-3.83441491e-18
-2.29369243e-18
1.46857159e-18
3.71035201e-18
1.90903298e-18
3.4583629e-18
5.49287382e-18
2.10285636e-18
-8.49917513e-19
1.41238632e-18
6.08628438e-19
-1.90357319e-19
1.80873891e-18
2.41118079e-18
3.7673625e-19
6.08334523e-19
4.27965137e-18
3.3611516e-18
5.95362265e-18
4.44399822e-18
2.39740703e-18
1.66053091e-18
1.0990964e-18
3.59708337e-18
3.64120707e-18
7.19185309e-18
6.33372382e-18
4.1660261e-18
2.26128677e-18
3.25429483e-18
2.71095074e-18
9.01825196e-19
1.21970868e-18
3.86811292e-18
2.99852756e-18
4.7676271e-18
1.54027663e-18
8.66975774e-19
1.57361306e-18
1.36028877e-18
4.0833855e-18
5.67459581e-18
7.59557202e-18
5.73662913e-18
1.69343182e-18
2.57378182e-18
4.96944899e-18
7.28783198e-18
7.96401138e-18
7.20011155e-18
9.88742484e-18
1.18702277e-17
8.96130994e-18
1.0273983e-17
5.98956454e-18
4.81993961e-18
8.30242039e-18
9.83717432e-18
1.01649627e-17
1.31591527e-17
7.83558806e-18
8.06581556e-18
8.94913266e-18
1.27019386e-17
9.95938046e-18
7.90750781e-18
6.50824663e-18
6.10613913e-18
9.5783067e-18
1.1645459e-17
1.50347444e-17
1.31004831e-17
1.42873403e-17
1.63265869e-17
1.48407233e-17
1.69233726e-17
1.53434836e-17
1.65051537e-17
1.56766439e-17
1.48832605e-17
2.01090352e-17
1.90897306e-17
2.05324707e-17
2.18553228e-17
2.08270006e-17
1.92563353e-17
2.01258172e-17
2.24149e-17
1.9124662e-17
1.92645954e-17
2.08700133e-17
2.20982832e-17
2.11843307e-17
2.16840206e-17
1.71666743e-17
1.82075785e-17
1.98631852e-17
2.05333991e-17
2.0205119e-17
2.29486919e-17
2.19102115e-17
2.00105112e-17
2.01827854e-17
2.12484976e-17
2.12359968e-17
1.9205213e-17
2.14257683e-17
2.10309903e-17
2.1093572e-17
1.82836201e-17
1.6082519e-17
1.581897e-17
1.75446915e-17
1.78339668e-17
1.42040677e-17
1.43497874e-17
1.52565671e-17
1.51339915e-17
1.01016486e-17
9.23232351e-18
7.95366193e-18
8.81439632e-18
6.40519691e-18
8.95915608e-18
9.17352555e-18
1.16789996e-17
9.58344404e-18
1.28765182e-17
1.27540264e-17
1.55998422e-17
1.90351293e-17
1.51671354e-17
1.941089e-17
1.9907775e-17
1.84245406e-17
1.44027406e-17
1.58948721e-17
1.7419068e-17
1.26083056e-17
1.223877e-17
1.58043777e-17
1.45145485e-17
1.50123233e-17
1.31846279e-17
9.3606146e-18
1.01466473e-17
7.19232028e-18
6.96732766e-18
5.67228638e-18
5.01968952e-18
3.20240763e-18
5.16002356e-18
7.65378382e-18
7.44908407e-18
8.32073551e-18
9.78392982e-18
6.95002363e-18
7.29556179e-18
1.25581701e-17
1.14925123e-17
1.34937682e-17
1.13092444e-17
1.49900695e-17
1.48503633e-17
1.42406128e-17
1.5339981e-17
1.23550645e-17
1.78423263e-17
1.80450802e-17
1.88851896e-17
1.51361769e-17
1.67020568e-17
1.56863606e-17
1.59485415e-17
1.11976511e-17
9.02009377e-18
1.24521476e-17
1.02202998e-17
9.9674685e-18
1.33938382e-17
1.20262362e-17
1.08970583e-17
1.45884004e-17
1.36447404e-17
1.50914918e-17
1.04490795e-17
8.69713234e-18
9.83998394e-18
1.03127425e-17
4.98140331e-18
4.15117067e-18
3.32547545e-18
5.79083699e-18
3.17444994e-18
1.46078401e-18
4.67972053e-18
9.39671178e-19
3.19669835e-18
3.97414989e-18
2.16431801e-18
1.75497741e-19
-2.06335337e-18
-1.6120768e-19
-1.75577052e-18
-3.923724e-18
-3.78584414e-18
-4.03386667e-18
-3.58255557e-18
-3.8200077e-18
-6.98262866e-18
-3.47303564e-18
-6.20253885e-18
-6.45314244e-18
-5.02444934e-18
-2.51486394e-18
-1.59225363e-18
4.04019736e-19
-2.20292335e-18
-3.84881978e-18
-4.02676646e-18
-2.44061692e-18
-5.01716009e-18
-6.94171764e-18
-3.26178041e-18
-5.96487904e-18
-7.44000064e-18
-1.12936405e-17
-9.34380534e-18
-1.26697324e-17
-1.01371487e-17
-9.79665511e-18
-9.42893328e-18
-8.46052067e-18
-9.22611251e-18
-1.01706785e-17
-1.08138129e-17
-1.08018898e-17
-1.4725323e-17
-1.35285683e-17
-1.47826896e-17
-1.57565002e-17
-1.42633767e-17
-1.38817169e-17
-1.33821744e-17
-1.47619209e-17
-1.38624368e-17
-1.62925823e-17
-1.35669065e-17
-1.55652926e-17
-1.83945977e-17
-1.20596027e-17
-1.02108958e-17
-1.09656584e-17
-1.21370737e-17
-1.0000376e-17
-7.05278878e-18
-9.8342144e-18
-6.48862749e-18
-5.35900292e-18
-3.096886e-18
-1.62542293e-18
-3.47904015e-18
-1.25145739e-18
-2.76002287e-18
-1.82261838e-18
9.11809966e-19
1.47024636e-18
1.26310053e-18
5.18093123e-19
-7.82942244e-19
-2.82793907e-18
-4.04674808e-18
-1.08079195e-18
1.9579547e-18
-2.49716583e-19
-1.73000249e-18
-2.38690427e-19
-3.33580604e-18
-2.75766363e-19
-4.88602229e-18
-6.1578315e-18
-6.37150482e-18
-5.01921148e-18
-7.15926381e-18
-6.86272502e-18
-8.70101213e-18
-6.21843978e-18
-7.02231602e-18
-6.09984821e-18
-8.30919237e-18
-4.33117212e-18
-7.72913024e-18
-9.38370672e-18
-1.0941058e-17
-1.14753124e-17
-1.18635211e-17
-1.43846169e-17
-8.77519954e-18
-6.54288667e-18
-7.31059628e-18
-9.10757685e-18
-1.07942528e-17
-1.05326518e-17
-1.3246168e-17
-1.2762902e-17
-1.58646582e-17
-1.54123377e-17
-1.42874016e-17
-1.68579692e-17
-1.4455521e-17
-1.60964002e-17
-1.6705105e-17
-1.50208391e-17
-1.68476146e-17
-1.56610123e-17
-1.53707531e-17
-1.49498132e-17
-1.48847215e-17
-1.80142067e-17
-1.8280302e-17
-1.84214954e-17
-1.9285205e-17
-2.07636802e-17
-1.93659211e-17
-1.97272127e-17
-1.91791088e-17
-1.77746072e-17
-1.75225834e-17
-1.8083003e-17
-1.68936557e-17
-1.51993941e-17
-1.77407943e-17
-1.96854184e-17
-2.25285984e-17
-2.33735229e-17
-2.45680102e-17
-2.31858682e-17
-2.48425857e-17
-2.14511957e-17
-1.97818255e-17
-2.06468011e-17
-2.0474041e-17
-1.9882661e-17
-1.88954072e-17
-1.81047956e-17
-2.00599376e-17
-2.00088985e-17
-2.31303138e-17
-2.21305212e-17
-2.04815592e-17
-2.260171e-17
-1.95982114e-17
-2.00262471e-17
-1.62411087e-17
-1.52756936e-17
-1.73803798e-17
-1.64522878e-17
-1.4676405e-17
-1.27166069e-17
-1.43417186e-17
-1.27088101e-17
-1.34975609e-17
-1.28124468e-17
-1.40734529e-17
-1.71476762e-17
-1.57657056e-17
-2.12410159e-17
-2.09784199e-17
-2.10954664e-17
-1.97684656e-17
-1.77914028e-17
-1.79829354e-17
-1.74723602e-17
-1.76965192e-17
-1.62762611e-17
-1.86378595e-17
-1.38969759e-17
-1.49086914e-17
-1.68945035e-17
-1.58358053e-17
-1.24097757e-17
-1.1768231e-17
-8.70739101e-18
-6.06276946e-18
-6.85191484e-18
-7.36822444e-18
-7.18467794e-18
-6.00594805e-18
-5.72820934e-18
-6.0621466e-18
-3.91802185e-18
-5.01604885e-18
2.48013262e-19
5.92964833e-19
-4.86460482e-19
-6.51055503e-19
-8.38495834e-20
-2.76382086e-19
-9.80217216e-19
-2.15044247e-18
-1.65388368e-18
8.35294083e-19
3.55091288e-18
6.89895498e-19
1.52075943e-18
2.16604528e-18
-3.8336279e-19
9.08434656e-19
9.65946621e-19
-1.02894524e-18
-2.22431526e-19
2.72890392e-18
4.00856054e-19
-1.92729458e-18
-1.9263891e-18
-1.69035025e-18
-1.4739746e-20
2.94634522e-18
1.93109712e-18
3.7385629e-18
3.51149146e-18
3.9372647e-18
3.80051623e-18
-7.54268849e-19
7.09264196e-20
-3.28110848e-18
-1.51278201e-18
-3.68685349e-18
-5.84073606e-18
-4.37609478e-18
-1.55916198e-18
-3.54955426e-18
-1.93004298e-18
-8.71690913e-19
-4.28435234e-18
-1.32502814e-19
-2.05624544e-19
-3.35577242e-18
-9.31410437e-19
-7.92413015e-19
-1.59442046e-18
1.99304767e-19
-2.01030156e-18
-2.27545774e-18
-1.04991709e-18
-5.71691337e-19
-3.16558432e-18
-6.4511165e-19
1.0704456e-18
5.17563158e-19
-1.40109386e-18
-1.94943641e-18
-1.50864693e-18
8.14698517e-19
-1.54059836e-20
-1.65691662e-19
-2.7060544e-18
-1.59692827e-18
-1.51872739e-18
7.12319568e-19
-9.29976281e-19
-1.19774755e-18
1.97898425e-19
-1.46074003e-18
5.45852151e-19
1.25687413e-18
4.12892449e-18
1.88931846e-18
9.51373602e-19
2.83607006e-18
2.26599196e-18
8.26354571e-20
1.71049908e-18
3.58667648e-18
7.46154918e-18
6.76376863e-18
6.03292091e-18
9.32254769e-18
9.22905291e-18
1.08471135e-17
1.08951443e-17
8.56046651e-18
9.44423187e-18
1.35068755e-17
1.01541883e-17
1.03643826e-17
9.26444761e-18
8.50135034e-18
6.82583928e-18
9.3555892e-18
7.49307586e-18
4.96878019e-18
3.72631585e-18
4.16102882e-18
1.11310828e-18
2.51999035e-18
2.14130655e-18
3.58590224e-18
5.17643224e-18
5.89302124e-18
5.20150027e-18
4.57751335e-18
7.41836771e-18
4.77279623e-18
4.83483293e-18
5.76248143e-18
4.62485449e-18
2.86384457e-19
3.03596953e-19
-1.68156324e-18
-2.48310412e-18
1.09864134e-18
-1.28416743e-20
8.39691406e-19
2.64474476e-18
1.06872056e-18
3.9016158e-18
2.8581499e-18
6.44131101e-18
4.99104067e-18
7.16716624e-18
6.06567011e-18
7.31253373e-18
5.76090076e-18
4.79746193e-18
4.16117259e-18
8.87811746e-19
3.78663689e-18
4.37351493e-18
7.88233566e-19
-3.83135139e-19
-1.75916964e-19
-4.90113417e-19
7.79082179e-19
4.23909027e-19
-1.78939753e-18
-1.51186583e-18
-7.10377182e-19
-2.28667744e-18
-1.52711411e-18
-2.17759825e-18
-3.0378797e-18
-1.85443087e-18
2.10836258e-18
3.85070752e-19
-2.71344635e-18
-2.90966584e-18
-3.34843818e-18
-2.61660332e-18
-3.31281634e-18
-6.69445324e-19
4.10515738e-18
-5.0637319e-19
-1.22333857e-18
-7.15932305e-19
2.41614617e-18
7.01985667e-19
2.5896234e-18
2.91013901e-18
-1.48642387e-19
-1.02692704e-18
-2.92333679e-18
-5.62711636e-18
-8.09598529e-18
-8.19338453e-18
-1.07836694e-17
-8.48611829e-18
-8.00007703e-18
-9.20908448e-18
-1.05369818e-17
-1.34118091e-17
-1.34817074e-17
-1.12658453e-17
-1.06667141e-17
-8.11863004e-18
-1.04356265e-17
-1.08095956e-17
-1.31781295e-17
-1.48067523e-17
-1.64148547e-17
-1.62540958e-17
-1.7377348e-17
-1.27216995e-17
-1.45167665e-17
-1.60629303e-17
-1.12891473e-17
-1.06545087e-17
-1.38390402e-17
-1.17918093e-17
-1.05071669e-17
-1.07585326e-17
-1.08245767e-17
-1.05322743e-17
-1.17131419e-17
-1.24560013e-17
-1.28154002e-17
-1.3311626e-17
-1.53953762e-17
-1.3615185e-17
-1.65947769e-17
-1.6960316e-17
-1.76835194e-17
-1.97291303e-17
-1.63625445e-17
-2.11207526e-17
-1.89794284e-17
-1.78360709e-17
-1.72354085e-17
-1.71704219e-17
-1.1087414e-17
-1.29644629e-17
-1.58966766e-17
-1.49826936e-17
-1.40051912e-17
-1.44258957e-17
-1.61225831e-17
-1.45857985e-17
-1.64423941e-17
-1.94260052e-17
-2.05097418e-17
-1.63771141e-17
-1.29210332e-17
-1.04897085e-17
-7.63153059e-18
-6.89634151e-18
-5.53359127e-18
-6.72045123e-18
-7.47473329e-18
-6.41670797e-18
-4.19333233e-18
-4.94379849e-18
-3.81697531e-18
-4.1173583e-18
-6.28322643e-18
-8.43672794e-18
-4.99717009e-18
-1.28489527e-18
-3.8135436e-18
-3.32349534e-19
-4.18469733e-20
3.04089972e-18
3.87937036e-18
2.90210763e-18
2.35961354e-18
5.67640096e-18
6.01019072e-18
6.46372835e-18
5.73472648e-18
5.92918369e-18
5.82826915e-18
5.28588802e-18
2.35216954e-18
1.71643167e-18
3.71423022e-18
4.5486116e-18
3.19665212e-18
3.24526165e-18
5.36097575e-18
5.59792267e-18
5.98376169e-18
4.58099796e-18
4.23361083e-18
3.95873439e-18
6.32285971e-18
2.60936878e-18
2.57198101e-18
-3.91693542e-19
1.89626741e-19
-1.9069798e-18
-5.3301396e-19
-1.20001354e-18
-3.92425955e-18
-5.7632538e-18
-6.91203561e-18
-7.83399488e-18
-6.40222028e-18
-9.20713348e-18
-9.13885103e-18
-6.99329087e-18
-8.71227633e-18
-9.49784285e-18
-1.15600643e-17
-1.41816467e-17
-1.64915207e-17
-1.68397202e-17
-2.03498951e-17
-2.0546702e-17
-1.70799199e-17
-1.60523502e-17
-1.487428e-17
-1.53811483e-17
-1.82367104e-17
-1.6504433e-17
-1.41662294e-17
-1.59133325e-17
-1.57968889e-17
-1.20887636e-17
-1.73637386e-17
-2.03858613e-17
-1.8058653e-17
-1.54486343e-17
-1.89030212e-17
-1.58304378e-17
-2.02312772e-17
-1.67315363e-17
-9.50377808e-18
-1.0332619e-17
-8.13614594e-18
-9.97320901e-18
-6.21134183e-18
-8.13459291e-18
-6.57502365e-18
-3.49756133e-18
-7.66247914e-18
-7.5256422e-18
-1.07189332e-17
-1.33175592e-17
-1.27001584e-17
-1.37259192e-17
-1.10971865e-17
-1.44967994e-17
-1.11637991e-17
-8.93294465e-18
-1.10343953e-17
-1.08276752e-17
-1.43723397e-17
-1.06259339e-17
-1.44430943e-17
-1.09129755e-17
-1.36532261e-17
-1.37141747e-17
-1.12856766e-17
-9.68738867e-18
-1.01877192e-17
-7.52887934e-18
-9.10796258e-18
-1.24316793e-17
-7.68100974e-18
-5.57975365e-18
-4.79012182e-18
-4.0856986e-18
-3.99164214e-18
-6.73659865e-18
-7.00327958e-18
-7.64355303e-18
-3.30575574e-18
-5.76145166e-18
-5.84688384e-18
-6.1775045e-18
-3.2945167e-18
1.49752368e-19
-2.36797822e-18
-8.86190481e-19
-5.53742629e-19
-3.27741105e-18
-3.02142033e-18
-2.29107367e-18
-2.83110372e-18
-4.86533819e-18
-6.82246327e-18
-5.20842027e-18
-5.11926561e-18
-4.52612613e-18
-6.40023221e-18
-3.59301794e-18
-3.16524354e-18
-2.18067442e-18
-1.89684064e-18
-1.04216916e-18
-5.07941481e-18
-2.1287069e-18
-5.18318985e-18
-5.57687651e-18
-3.65585248e-18
-3.73783795e-18
-4.42051642e-18
-1.0665061e-18
-9.53613663e-19
-2.13984453e-18
-4.84770291e-18
-3.84435291e-18
-2.49686716e-18
-6.75186447e-18
-4.16747171e-18
-3.26140488e-18
-1.30680044e-18
-5.413076e-19
-2.90003319e-18
-4.94121232e-18
-3.02116423e-18
-4.19222366e-18
-4.31108024e-18
-6.44989949e-18
-4.51721099e-18
-1.91676258e-18
-3.84082713e-18
-1.87436902e-18
-2.13594147e-18
-3.88218608e-18
-2.27811133e-18
-3.23941997e-20
1.33098793e-20
1.10677769e-18
1.26269086e-19
1.43770804e-20
-9.43290199e-19
-1.23066559e-18
9.26249576e-20
3.73932935e-18
4.62560328e-18
4.82678729e-18
3.1198152e-18
4.04608643e-18
5.34175825e-18
5.18189381e-18
5.92953986e-18
6.90307241e-18
4.36949968e-18
6.51771909e-18
7.84413347e-18
6.26023171e-18
7.96858575e-18
7.41350887e-18
6.50966663e-18
6.53336886e-18
5.5196357e-18
4.6000579e-18
4.20556206e-18
5.3982e-18
3.78348047e-18
3.31556752e-18
3.79112915e-18
6.15592958e-18
5.64451368e-18
6.97896774e-18
5.90859425e-18
8.16913268e-18
6.11976845e-18
6.23546775e-18
5.23322119e-18
6.49476581e-18
7.30257988e-18
4.66094248e-18
5.27412587e-18
6.34798554e-18
7.97530323e-18
4.75738053e-18
3.57002358e-18
4.5435419e-18
4.02825915e-18
3.70986644e-18
7.40338405e-18
5.16505697e-18
7.2028583e-18
9.73581963e-18
7.15728699e-18
6.76634882e-18
9.96537283e-18
9.54050567e-18
8.55230365e-18
6.20878969e-18
4.2786485e-18
5.57781916e-18
6.10901805e-18
5.89579798e-18
6.00390736e-18
7.24472449e-18
4.23781959e-18
3.69684415e-18
3.77942323e-18
4.82791145e-18
5.46825961e-18
8.11179942e-18
6.34299874e-18
7.4773942e-18
1.01039099e-17
7.64174716e-18
5.88721344e-18
6.26329698e-18
9.64776116e-18
8.79480837e-18
8.70185903e-18
1.2740716e-17
1.21656243e-17
1.2753749e-17
1.21801331e-17
1.33012286e-17
1.1197721e-17
1.19214888e-17
8.03133285e-18
8.76438375e-18
9.90630267e-18
1.06334771e-17
8.97321651e-18
8.19868515e-18
7.52278512e-18
6.7932514e-18
7.59053024e-18
8.65736461e-18
8.36430764e-18
9.2642953e-18
1.21882252e-17
1.01695002e-17
8.85970897e-18
1.04278051e-17
1.18269449e-17
1.01395927e-17
1.19151506e-17
1.05976981e-17
1.27876454e-17
1.2170321e-17
1.2689834e-17
1.44955224e-17
1.42773758e-17
1.38920615e-17
1.2428181e-17
1.51347357e-17
1.46549939e-17
1.59303056e-17
1.3956835e-17
1.25360249e-17
1.34588348e-17
9.72631171e-18
9.04391369e-18
1.14794406e-17
1.55271252e-17
1.79688393e-17
1.6316801e-17
1.3697443e-17
1.4116452e-17
1.57088227e-17
1.6900463e-17
1.51643925e-17
1.4775495e-17
1.60914629e-17
1.16392575e-17
1.43209796e-17
1.52537985e-17
1.30557038e-17
1.11703112e-17
1.38219487e-17
1.44499318e-17
1.84076244e-17
2.02634064e-17
1.97034506e-17
2.03652501e-17
1.65869916e-17
1.97031512e-17
2.04930351e-17
1.75078545e-17
1.70107497e-17
1.92236096e-17
1.97927837e-17
1.81425349e-17
1.97740238e-17
1.86608318e-17
1.91134768e-17
1.83470698e-17
1.74589807e-17
1.85756535e-17
1.84499137e-17
1.95934772e-17
2.00545358e-17
2.37204845e-17
2.37537009e-17
2.63351725e-17
3.11539019e-17
2.8963141e-17
2.85301834e-17
3.16426775e-17
2.82049608e-17
3.02931011e-17
3.03047633e-17
2.97285747e-17
2.83826335e-17
2.72520577e-17
2.51214451e-17
2.61142474e-17
2.45282129e-17
2.36291751e-17
2.56660352e-17
2.32814742e-17
1.99884009e-17
2.09831407e-17
2.33235527e-17
2.25218594e-17
2.33646924e-17
2.25068045e-17
2.39495971e-17
2.56696857e-17
2.68818126e-17
2.62197914e-17
2.62347374e-17
2.48559651e-17
2.61912354e-17
3.07127058e-17
3.23689235e-17
3.0367555e-17