/*--------------------------------*- C++ -*----------------------------------*\
| =========                 |                                                 |
| \\      /  F ield         | OpenFOAM: The Open Source CFD Toolbox           |
|  \\    /   O peration     | Version:  2206                                  |
|   \\  /    A nd           | Website:  www.openfoam.com                      |
|    \\/     M anipulation  |                                                 |
\*---------------------------------------------------------------------------*/
FoamFile
{
    version     2.0;
    format      ascii;
    arch        "LSB;label=32;scalar=64";
    class       volVectorField;
    location    "3e-06";
    object      U;
}
// * * * * * * * * * * * * * * * * * * * * * * * * * * * * * * * * * * * * * //

dimensions      [0 1 -1 0 0 0 0];

internalField   nonuniform List<vector> 
3183
(
(5.47970087e-14 0 0)
(-5.40550638e-15 0 0)
(-2.65459038e-14 0 0)
(-2.99281902e-14 0 0)
(-3.14922174e-14 0 0)
(-3.97553208e-19 0 0)
(-3.13403381e-20 0 0)
(-6.24484059e-25 0 0)
(1.99130729e-25 0 0)
(5.72236967e-24 0 0)
(2.15938316e-19 0 0)
(2.74859217e-18 0 0)
(1.26230033e-13 0 0)
(5.31302765e-14 0 0)
(-9.43434315e-14 0 0)
(-1.06625399e-13 0 0)
(1.08323776e-13 0 0)
(-1.2220489e-14 0 0)
(-3.17003975e-13 0 0)
(1.35175715e-14 0 0)
(2.18191106e-13 0 0)
(1.08719586e-17 0 0)
(1.1302598e-18 0 0)
(2.83516384e-19 0 0)
(5.53168242e-18 0 0)
(7.95799788e-14 0 0)
(3.28367322e-13 0 0)
(4.06542037e-14 0 0)
(-2.78010165e-13 0 0)
(-1.20119273e-13 0 0)
(-1.97308026e-13 0 0)
(7.47365155e-14 0 0)
(1.22309675e-13 0 0)
(-1.19490554e-13 0 0)
(2.12152732e-18 0 0)
(9.15616344e-14 0 0)
(-9.63835315e-14 0 0)
(-1.0140351e-13 0 0)
(1.06634428e-13 0 0)
(-6.24772423e-14 0 0)
(-2.88983673e-13 0 0)
(-2.34868412e-13 0 0)
(5.80613131e-14 0 0)
(1.07134754e-13 0 0)
(2.25424082e-13 0 0)
(1.35706434e-13 0 0)
(1.60497679e-13 0 0)
(9.36939987e-14 0 0)
(-1.18200646e-13 0 0)
(-1.03845963e-13 0 0)
(-3.93373312e-16 0 0)
(-1.37854831e-13 0 0)
(-1.44727999e-13 0 0)
(-2.74853493e-16 0 0)
(7.95713662e-14 0 0)
(-5.56101508e-14 0 0)
(8.88266889e-14 0 0)
(-6.27352046e-14 0 0)
(3.2581165e-14 0 0)
(3.45022252e-14 0 0)
(-1.4483233e-13 0 0)
(-1.52999052e-13 0 0)
(-1.21283338e-13 0 0)
(-8.43634127e-14 0 0)
(1.03536926e-15 0 0)
(9.30756303e-14 0 0)
(1.48800766e-13 0 0)
(1.55270316e-13 0 0)
(4.34681287e-13 0 0)
(1.78577332e-13 0 0)
(4.18203394e-13 0 0)
(3.84895936e-13 0 0)
(3.38583683e-13 0 0)
(5.57297342e-13 0 0)
(5.92445133e-13 0 0)
(5.60477679e-13 0 0)
(6.57705673e-13 0 0)
(1.12107209e-12 0 0)
(7.38506241e-13 0 0)
(8.58659865e-13 0 0)
(9.96322382e-13 0 0)
(8.52119666e-13 0 0)
(9.65081155e-13 0 0)
(1.53669738e-13 0 0)
(4.02312207e-13 0 0)
(7.30414129e-13 0 0)
(1.47513849e-13 0 0)
(4.58568816e-13 0 0)
(5.50204529e-13 0 0)
(2.18782584e-13 0 0)
(6.37502439e-13 0 0)
(1.31023688e-13 0 0)
(-1.00838772e-13 0 0)
(-2.82331656e-13 0 0)
(2.70521153e-13 0 0)
(-6.21925025e-14 0 0)
(-1.41972745e-12 0 0)
(-2.82439201e-13 0 0)
(-4.95096031e-13 0 0)
(-1.49066509e-13 0 0)
(2.50186978e-13 0 0)
(9.89971973e-13 0 0)
(-7.9936988e-13 0 0)
(3.04139959e-13 0 0)
(-5.72673625e-13 0 0)
(9.68571569e-13 0 0)
(-2.00657968e-14 0 0)
(-2.10816592e-13 0 0)
(-3.59834619e-14 0 0)
(-3.07527027e-13 0 0)
(-1.13070718e-13 0 0)
(-2.41508307e-13 0 0)
(-5.37190113e-13 0 0)
(-9.57469618e-13 0 0)
(-1.01264727e-13 0 0)
(-1.29510156e-12 0 0)
(-4.92196465e-13 0 0)
(-5.2183105e-13 0 0)
(1.03535315e-13 0 0)
(-1.02207891e-12 0 0)
(-8.6018881e-13 0 0)
(-4.75526673e-13 0 0)
(-3.4205848e-13 0 0)
(-8.51592566e-14 0 0)
(-3.36595925e-15 0 0)
(-4.40434527e-13 0 0)
(6.82147073e-13 0 0)
(-9.72094441e-13 0 0)
(-9.79878715e-13 0 0)
(-1.63360502e-12 0 0)
(-3.94802774e-13 0 0)
(-8.70742084e-13 0 0)
(-5.34382934e-14 0 0)
(-1.66654244e-13 0 0)
(2.15262999e-13 0 0)
(-2.40259839e-13 0 0)
(-1.71423295e-13 0 0)
(9.29563062e-14 0 0)
(1.42304349e-14 0 0)
(3.13350699e-13 0 0)
(5.38753315e-13 0 0)
(-3.27051394e-13 0 0)
(4.80274472e-13 0 0)
(-4.36216372e-13 0 0)
(7.78938833e-13 0 0)
(1.02797454e-12 0 0)
(4.24353997e-13 0 0)
(3.60323994e-13 0 0)
(3.42147501e-13 0 0)
(6.5501531e-13 0 0)
(9.4845557e-13 0 0)
(2.41080346e-14 0 0)
(-1.88209474e-14 0 0)
(1.15457606e-12 0 0)
(6.48849575e-13 0 0)
(8.80037804e-13 0 0)
(1.46512618e-12 0 0)
(1.16021486e-12 0 0)
(1.57534901e-12 0 0)
(1.68547601e-12 0 0)
(1.1581141e-12 0 0)
(2.32002188e-12 0 0)
(8.10936258e-13 0 0)
(6.80997703e-13 0 0)
(1.58875019e-12 0 0)
(1.91758578e-12 0 0)
(7.74253355e-13 0 0)
(1.10805115e-12 0 0)
(1.89141526e-12 0 0)
(1.49037475e-12 0 0)
(7.68485271e-13 0 0)
(1.99870016e-12 0 0)
(1.94430868e-12 0 0)
(1.13803248e-12 0 0)
(1.7636722e-12 0 0)
(1.34118347e-12 0 0)
(1.55171989e-12 0 0)
(1.77954642e-12 0 0)
(4.99723915e-13 0 0)
(1.61818652e-12 0 0)
(3.9280633e-13 0 0)
(-3.25123863e-13 0 0)
(6.59098565e-13 0 0)
(2.64451691e-13 0 0)
(8.30692093e-13 0 0)
(1.97258568e-13 0 0)
(4.60961295e-13 0 0)
(1.03954264e-13 0 0)
(5.12621871e-14 0 0)
(7.59417846e-13 0 0)
(5.29873225e-13 0 0)
(1.65552575e-12 0 0)
(-4.32109606e-13 0 0)
(1.45361396e-12 0 0)
(1.23834517e-12 0 0)
(6.89541303e-13 0 0)
(1.14815796e-12 0 0)
(1.72103493e-13 0 0)
(3.24488671e-13 0 0)
(2.12170569e-12 0 0)
(2.50484559e-13 0 0)
(1.5114063e-14 0 0)
(1.4498973e-12 0 0)
(1.08233705e-12 0 0)
(9.90731226e-13 0 0)
(3.06450881e-13 0 0)
(-2.72184025e-13 0 0)
(1.03629706e-12 0 0)
(3.05787814e-13 0 0)
(3.14838679e-13 0 0)
(-2.92483539e-14 0 0)
(2.23242653e-13 0 0)
(-3.50222952e-13 0 0)
(2.85979197e-13 0 0)
(-5.84232185e-13 0 0)
(1.14498089e-13 0 0)
(3.61262025e-13 0 0)
(-1.19791921e-12 0 0)
(5.58397247e-13 0 0)
(-3.17484665e-13 0 0)
(-9.01545424e-13 0 0)
(5.36709055e-13 0 0)
(-7.92004604e-14 0 0)
(5.95989703e-13 0 0)
(3.63166948e-13 0 0)
(-6.5650775e-13 0 0)
(6.28958829e-13 0 0)
(1.04877632e-12 0 0)
(2.3726729e-13 0 0)
(-4.88650802e-14 0 0)
(5.61230336e-13 0 0)
(7.38251676e-13 0 0)
(-6.60364254e-14 0 0)
(1.07617179e-12 0 0)
(1.79706874e-13 0 0)
(9.37592681e-14 0 0)
(-1.14890981e-13 0 0)
(6.30473541e-13 0 0)
(-7.23101166e-13 0 0)
(2.12503488e-14 0 0)
(-3.1966488e-13 0 0)
(-5.55664408e-13 0 0)
(1.9479102e-13 0 0)
(1.14586075e-13 0 0)
(-1.0761082e-13 0 0)
(-1.33168532e-12 0 0)
(-6.64312007e-13 0 0)
(-1.4353763e-12 0 0)
(-8.93375756e-14 0 0)
(-1.72363368e-12 0 0)
(-1.16427064e-12 0 0)
(-1.84746597e-12 0 0)
(-1.71927827e-12 0 0)
(-2.20065012e-12 0 0)
(-1.5395032e-12 0 0)
(-2.52357529e-12 0 0)
(-1.30188284e-12 0 0)
(-1.10412388e-12 0 0)
(-1.08603569e-12 0 0)
(-2.21681419e-12 0 0)
(-7.05322127e-13 0 0)
(-9.39588747e-13 0 0)
(-1.19081945e-12 0 0)
(-1.24360577e-12 0 0)
(-2.13204368e-12 0 0)
(-2.45993225e-12 0 0)
(-1.47894161e-12 0 0)
(-1.84132853e-12 0 0)
(-2.41055714e-12 0 0)
(-2.05537927e-12 0 0)
(-1.90100167e-12 0 0)
(-1.38433556e-12 0 0)
(-2.43774011e-12 0 0)
(-1.45727633e-12 0 0)
(-2.04148725e-12 0 0)
(-1.73825646e-12 0 0)
(-9.13940324e-13 0 0)
(-1.27533554e-12 0 0)
(-2.01889678e-12 0 0)
(-1.39756786e-12 0 0)
(-1.52508959e-12 0 0)
(-2.26093563e-12 0 0)
(-1.91454075e-12 0 0)
(-1.51092336e-12 0 0)
(-1.96502468e-12 0 0)
(-2.45740781e-12 0 0)
(-3.15067163e-12 0 0)
(-3.47337009e-12 0 0)
(-4.97787448e-12 0 0)
(-3.51946066e-12 0 0)
(-3.77220627e-12 0 0)
(-3.76896597e-12 0 0)
(-3.15360828e-12 0 0)
(-4.48347651e-12 0 0)
(-4.77883841e-12 0 0)
(-4.18536977e-12 0 0)
(-4.35075721e-12 0 0)
(-4.49029122e-12 0 0)
(-4.28454146e-12 0 0)
(-4.98086701e-12 0 0)
(-3.1426822e-12 0 0)
(-3.44247472e-12 0 0)
(-3.4468822e-12 0 0)
(-3.59314373e-12 0 0)
(-4.33593415e-12 0 0)
(-4.19040851e-12 0 0)
(-3.33252062e-12 0 0)
(-3.73485346e-12 0 0)
(-3.97143127e-12 0 0)
(-3.80760325e-12 0 0)
(-4.42451097e-12 0 0)
(-3.58934614e-12 0 0)
(-3.53597308e-12 0 0)
(-3.73747867e-12 0 0)
(-4.17389498e-12 0 0)
(-4.37743874e-12 0 0)
(-5.14631889e-12 0 0)
(-4.99485812e-12 0 0)
(-4.25251231e-12 0 0)
(-4.34930964e-12 0 0)
(-4.07867283e-12 0 0)
(-4.29982685e-12 0 0)
(-4.8446524e-12 0 0)
(-3.82011749e-12 0 0)
(-4.88366417e-12 0 0)
(-3.81878245e-12 0 0)
(-3.88487718e-12 0 0)
(-4.40004112e-12 0 0)
(-4.26019654e-12 0 0)
(-3.76154949e-12 0 0)
(-3.72025779e-12 0 0)
(-3.70942949e-12 0 0)
(-3.52841683e-12 0 0)
(-4.22985021e-12 0 0)
(-3.88239505e-12 0 0)
(-4.28500243e-12 0 0)
(-3.45103806e-12 0 0)
(-5.17513454e-12 0 0)
(-4.10923571e-12 0 0)
(-4.09422149e-12 0 0)
(-4.15141128e-12 0 0)
(-4.58702133e-12 0 0)
(-3.76489717e-12 0 0)
(-3.72954738e-12 0 0)
(-3.86211645e-12 0 0)
(-4.33426141e-12 0 0)
(-4.88492157e-12 0 0)
(-3.60773854e-12 0 0)
(-3.79918098e-12 0 0)
(-3.71484725e-12 0 0)
(-4.74257466e-12 0 0)
(-3.08984063e-12 0 0)
(-4.99984424e-12 0 0)
(-3.77317588e-12 0 0)
(-3.63208761e-12 0 0)
(-2.89753846e-12 0 0)
(-4.19656216e-12 0 0)
(-3.97401656e-12 0 0)
(-4.00808962e-12 0 0)
(-3.29731681e-12 0 0)
(-2.95273355e-12 0 0)
(-3.34702602e-12 0 0)
(-3.6211519e-12 0 0)
(-4.11799785e-12 0 0)
(-3.28205802e-12 0 0)
(-4.05734439e-12 0 0)
(-3.17142823e-12 0 0)
(-3.94429621e-12 0 0)
(-3.2421694e-12 0 0)
(-3.54763045e-12 0 0)
(-3.2616346e-12 0 0)
(-3.30274902e-12 0 0)
(-3.32964737e-12 0 0)
(-4.35852286e-12 0 0)
(-3.33640583e-12 0 0)
(-3.81074996e-12 0 0)
(-2.73190559e-12 0 0)
(-3.33402781e-12 0 0)
(-3.45569527e-12 0 0)
(-3.76183136e-12 0 0)
(-3.03607624e-12 0 0)
(-2.46512484e-12 0 0)
(-3.06544594e-12 0 0)
(-3.06232908e-12 0 0)
(-2.55099776e-12 0 0)
(-2.25062315e-12 0 0)
(-1.73678828e-12 0 0)
(-2.11769037e-12 0 0)
(-1.95197551e-12 0 0)
(-1.88710121e-12 0 0)
(-2.34297327e-12 0 0)
(-2.51977152e-12 0 0)
(-1.87822557e-12 0 0)
(-1.86660397e-12 0 0)
(-1.42377389e-12 0 0)
(-1.68693911e-12 0 0)
(-1.70692858e-12 0 0)
(-1.28413792e-12 0 0)
(-1.87317101e-12 0 0)
(-1.01071332e-12 0 0)
(-1.28455361e-12 0 0)
(-1.24294652e-12 0 0)
(-1.61369982e-12 0 0)
(-1.21363113e-12 0 0)
(-1.59469202e-12 0 0)
(-2.35691389e-12 0 0)
(-5.99223698e-13 0 0)
(-9.34933421e-13 0 0)
(-9.28128095e-13 0 0)
(-6.05335431e-13 0 0)
(1.8985289e-13 0 0)
(9.0794548e-14 0 0)
(7.203985e-13 0 0)
(-1.15064797e-13 0 0)
(4.13078229e-14 0 0)
(-5.98181434e-13 0 0)
(3.10501926e-13 0 0)
(2.4075375e-14 0 0)
(1.3286194e-12 0 0)
(3.15992401e-13 0 0)
(6.43046641e-14 0 0)
(2.36353518e-14 0 0)
(6.83379557e-13 0 0)
(4.25436812e-13 0 0)
(-2.99348776e-14 0 0)
(-2.72531448e-13 0 0)
(8.44571838e-13 0 0)
(7.6103573e-14 0 0)
(-2.04487277e-14 0 0)
(7.25970968e-13 0 0)
(7.08355567e-13 0 0)
(3.25151275e-13 0 0)
(3.12451869e-13 0 0)
(2.7828826e-13 0 0)
(-4.20145894e-14 0 0)
(-9.8968121e-13 0 0)
(-1.7169225e-13 0 0)
(4.85429757e-13 0 0)
(-3.70328946e-13 0 0)
(-3.59361092e-14 0 0)
(-9.4175881e-14 0 0)
(-6.62191189e-13 0 0)
(-1.01227107e-12 0 0)
(-1.54512452e-13 0 0)
(-2.95759672e-13 0 0)
(5.68633867e-13 0 0)
(-2.8699147e-13 0 0)
(8.02541595e-13 0 0)
(-3.49882451e-13 0 0)
(2.93768633e-13 0 0)
(-5.65429783e-13 0 0)
(-3.14485098e-13 0 0)
(3.65792891e-13 0 0)
(-1.43372631e-13 0 0)
(-1.98408769e-13 0 0)
(-4.96707224e-13 0 0)
(-4.46180886e-13 0 0)
(7.33922441e-13 0 0)
(8.22022416e-13 0 0)
(-2.99817325e-13 0 0)
(-2.41781041e-13 0 0)
(2.2756746e-13 0 0)
(1.28044095e-13 0 0)
(1.04846109e-13 0 0)
(-3.35850183e-13 0 0)
(4.99103457e-13 0 0)
(2.90671707e-13 0 0)
(3.60669436e-13 0 0)
(4.67727809e-13 0 0)
(1.17730929e-13 0 0)
(4.95519054e-13 0 0)
(1.54238266e-12 0 0)
(-6.41505016e-14 0 0)
(6.80190094e-13 0 0)
(-9.93691365e-14 0 0)
(3.03141535e-13 0 0)
(-5.7888955e-13 0 0)
(-6.15896616e-15 0 0)
(6.45110436e-13 0 0)
(-2.7240571e-14 0 0)
(9.65431142e-14 0 0)
(-3.02654638e-14 0 0)
(3.30386223e-13 0 0)
(3.99354786e-13 0 0)
(3.74056223e-13 0 0)
(-3.20297744e-13 0 0)
(5.70885402e-13 0 0)
(-5.3547137e-14 0 0)
(-7.82491433e-13 0 0)
(-6.1145015e-14 0 0)
(-2.02863342e-13 0 0)
(-4.72514171e-13 0 0)
(-9.31490756e-13 0 0)
(-7.60504322e-13 0 0)
(-4.23946034e-13 0 0)
(-1.2993794e-12 0 0)
(-9.9393051e-13 0 0)
(-1.21541789e-14 0 0)
(-1.61422889e-12 0 0)
(-4.28445841e-13 0 0)
(-7.21746024e-13 0 0)
(-7.32045849e-13 0 0)
(-6.74453079e-13 0 0)
(-3.53213608e-13 0 0)
(-8.15451226e-14 0 0)
(-4.694727e-13 0 0)
(4.83127113e-13 0 0)
(7.99910397e-13 0 0)
(5.53725622e-14 0 0)
(3.16029265e-13 0 0)
(3.62990243e-13 0 0)
(-7.37569591e-13 0 0)
(-6.05159558e-13 0 0)
(1.56375267e-13 0 0)
(-7.62748214e-13 0 0)
(-4.27100211e-13 0 0)
(-9.02182211e-13 0 0)
(-6.80326108e-13 0 0)
(-8.22496696e-13 0 0)
(-6.28618975e-13 0 0)
(-6.61333021e-13 0 0)
(-7.26614253e-13 0 0)
(-1.06519591e-12 0 0)
(-1.59904266e-12 0 0)
(-3.89430946e-13 0 0)
(-3.97305223e-13 0 0)
(-1.36646547e-12 0 0)
(5.95292865e-14 0 0)
(9.07224407e-13 0 0)
(1.09101043e-13 0 0)
(-4.16675205e-13 0 0)
(-3.63050485e-13 0 0)
(-5.67975355e-13 0 0)
(-1.68298465e-13 0 0)
(-5.84697693e-14 0 0)
(4.8227199e-13 0 0)
(-6.7497895e-13 0 0)
(-3.83966534e-13 0 0)
(-4.89602035e-13 0 0)
(3.36727321e-13 0 0)
(-4.49409275e-13 0 0)
(-4.69789448e-13 0 0)
(-1.1635965e-12 0 0)
(-6.1806345e-13 0 0)
(6.4418143e-14 0 0)
(-1.30008539e-13 0 0)
(-1.30004405e-12 0 0)
(-5.1079135e-13 0 0)
(-7.63125837e-13 0 0)
(-1.60817365e-13 0 0)
(-1.01095314e-12 0 0)
(-7.66649728e-13 0 0)
(-1.31654952e-12 0 0)
(1.95860431e-13 0 0)
(-1.1310217e-12 0 0)
(-7.42873816e-13 0 0)
(3.85846335e-13 0 0)
(-3.03954165e-13 0 0)
(-4.46752293e-13 0 0)
(-2.34758231e-13 0 0)
(-1.27131539e-13 0 0)
(-5.35113379e-13 0 0)
(-5.64479969e-13 0 0)
(-3.35439227e-13 0 0)
(6.34485139e-13 0 0)
(-3.33005516e-13 0 0)
(1.7230385e-12 0 0)
(1.05904054e-12 0 0)
(1.00275916e-12 0 0)
(1.94808434e-12 0 0)
(1.44202851e-12 0 0)
(1.42841548e-12 0 0)
(1.8426369e-12 0 0)
(1.8407725e-12 0 0)
(1.34138038e-12 0 0)
(1.38918523e-12 0 0)
(1.3129295e-12 0 0)
(1.25554587e-12 0 0)
(1.28127114e-12 0 0)
(1.50743174e-12 0 0)
(1.24221113e-12 0 0)
(1.8515601e-12 0 0)
(1.99654203e-12 0 0)
(8.5260825e-13 0 0)
(1.22924331e-12 0 0)
(2.18979366e-12 0 0)
(1.57365351e-12 0 0)
(8.01272694e-13 0 0)
(4.23497756e-13 0 0)
(1.1977825e-12 0 0)
(8.45773238e-13 0 0)
(1.20646283e-12 0 0)
(5.19417982e-13 0 0)
(8.69079701e-13 0 0)
(1.27747352e-12 0 0)
(4.58358616e-13 0 0)
(9.48134367e-13 0 0)
(1.18923125e-12 0 0)
(9.57468826e-13 0 0)
(1.40398685e-12 0 0)
(1.24028924e-12 0 0)
(2.30253494e-12 0 0)
(2.41098482e-12 0 0)
(1.73883835e-12 0 0)
(8.71142133e-13 0 0)
(1.16064965e-12 0 0)
(9.66914243e-13 0 0)
(9.51483821e-13 0 0)
(1.5489226e-12 0 0)
(1.36310077e-12 0 0)
(3.94898216e-13 0 0)
(2.93406214e-13 0 0)
(1.11612469e-12 0 0)
(3.58221931e-13 0 0)
(1.80327742e-12 0 0)
(1.27195923e-12 0 0)
(1.39014832e-12 0 0)
(2.09409229e-13 0 0)
(1.41924677e-12 0 0)
(2.16902693e-12 0 0)
(1.94812472e-12 0 0)
(1.88110064e-12 0 0)
(1.36373096e-12 0 0)
(1.19791045e-12 0 0)
(1.12203748e-12 0 0)
(9.4220497e-13 0 0)
(1.41023987e-12 0 0)
(9.78123849e-13 0 0)
(1.32936546e-12 0 0)
(1.02713737e-12 0 0)
(3.44839946e-13 0 0)
(1.29463233e-12 0 0)
(2.18694913e-12 0 0)
(1.46399821e-12 0 0)
(1.43874683e-12 0 0)
(1.15807246e-12 0 0)
(2.62554808e-13 0 0)
(7.14867938e-13 0 0)
(2.45091748e-13 0 0)
(3.91419812e-13 0 0)
(-3.36563224e-14 0 0)
(6.13143985e-13 0 0)
(-3.61648162e-14 0 0)
(5.16935779e-13 0 0)
(-7.46746065e-13 0 0)
(2.26287391e-13 0 0)
(-6.60520051e-13 0 0)
(7.67358591e-14 0 0)
(-1.05713029e-13 0 0)
(9.0085982e-13 0 0)
(1.29515869e-13 0 0)
(-2.22219713e-13 0 0)
(7.97553364e-13 0 0)
(9.55774794e-13 0 0)
(-1.6185146e-13 0 0)
(5.87678161e-13 0 0)
(3.36238406e-13 0 0)
(-3.91944425e-14 0 0)
(-1.01598355e-12 0 0)
(-6.28519259e-13 0 0)
(-3.506469e-14 0 0)
(-3.07454495e-13 0 0)
(3.38487398e-14 0 0)
(-1.32300532e-13 0 0)
(-2.39472588e-13 0 0)
(1.86557889e-13 0 0)
(-9.78839846e-14 0 0)
(4.76162957e-13 0 0)
(-7.29939355e-14 0 0)
(-1.46033883e-13 0 0)
(-6.65408326e-13 0 0)
(2.32598741e-13 0 0)
(1.00257114e-13 0 0)
(2.25148297e-13 0 0)
(-1.00652462e-14 0 0)
(-3.02910231e-13 0 0)
(-9.05232169e-13 0 0)
(-2.24567926e-13 0 0)
(-4.40335475e-13 0 0)
(-1.06855387e-12 0 0)
(-1.3409859e-12 0 0)
(-6.03311069e-13 0 0)
(-8.51189236e-13 0 0)
(2.5641009e-15 0 0)
(-1.84093462e-13 0 0)
(-4.4342798e-13 0 0)
(-3.08541182e-15 0 0)
(-4.79104026e-13 0 0)
(-2.60161668e-13 0 0)
(8.59664659e-14 0 0)
(-4.41739161e-13 0 0)
(7.04851233e-13 0 0)
(6.29945723e-13 0 0)
(1.03235339e-12 0 0)
(7.70155336e-13 0 0)
(1.39807023e-12 0 0)
(2.01254132e-12 0 0)
(1.92631101e-12 0 0)
(8.99947948e-13 0 0)
(2.38941554e-12 0 0)
(2.18569503e-12 0 0)
(2.71066169e-12 0 0)
(2.09709755e-12 0 0)
(3.66951971e-12 0 0)
(2.34359446e-12 0 0)
(3.66878188e-12 0 0)
(3.35798272e-12 0 0)
(2.56520054e-12 0 0)
(3.0588932e-12 0 0)
(2.99644298e-12 0 0)
(2.85355454e-12 0 0)
(2.68761715e-12 0 0)
(3.01497832e-12 0 0)
(2.61390598e-12 0 0)
(2.15663137e-12 0 0)
(2.76884215e-12 0 0)
(2.54726058e-12 0 0)
(2.44000013e-12 0 0)
(1.94216528e-12 0 0)
(2.31353471e-12 0 0)
(2.40172294e-12 0 0)
(2.7942189e-12 0 0)
(3.23877729e-12 0 0)
(1.65307804e-12 0 0)
(2.38271004e-12 0 0)
(2.65114213e-12 0 0)
(1.1777398e-12 0 0)
(2.34014996e-12 0 0)
(2.47108258e-12 0 0)
(2.10474475e-12 0 0)
(1.48282062e-12 0 0)
(2.69907922e-12 0 0)
(2.19699391e-12 0 0)
(2.47807958e-12 0 0)
(2.37134754e-12 0 0)
(2.55611946e-12 0 0)
(2.5661719e-12 0 0)
(1.96784372e-12 0 0)
(1.99075219e-12 0 0)
(2.16106844e-12 0 0)
(2.01676144e-12 0 0)
(1.92776008e-12 0 0)
(2.77709575e-12 0 0)
(1.65769845e-12 0 0)
(2.66020686e-12 0 0)
(2.70938857e-12 0 0)
(2.75202108e-12 0 0)
(1.73859017e-12 0 0)
(1.90048377e-12 0 0)
(2.26051466e-12 0 0)
(8.38354477e-13 0 0)
(1.59914906e-12 0 0)
(2.18318774e-12 0 0)
(1.32001004e-12 0 0)
(1.74630647e-12 0 0)
(8.41526991e-13 0 0)
(1.59113223e-12 0 0)
(4.50080287e-13 0 0)
(8.2347449e-13 0 0)
(1.0740342e-12 0 0)
(4.68702002e-13 0 0)
(1.6467456e-12 0 0)
(8.84852397e-13 0 0)
(1.16320726e-12 0 0)
(1.98805037e-12 0 0)
(8.58871733e-13 0 0)
(1.14144346e-12 0 0)
(6.845782e-13 0 0)
(8.10025628e-13 0 0)
(2.08466066e-13 0 0)
(1.14122002e-12 0 0)
(9.72749042e-14 0 0)
(5.34767774e-13 0 0)
(1.32920419e-12 0 0)
(-3.00501956e-16 0 0)
(1.40122525e-12 0 0)
(-3.37080663e-13 0 0)
(5.06875042e-13 0 0)
(7.13351347e-14 0 0)
(-1.15333054e-13 0 0)
(4.83728034e-13 0 0)
(-1.16695052e-12 0 0)
(-1.07017625e-13 0 0)
(-7.3693577e-13 0 0)
(-1.64340547e-14 0 0)
(-7.14237122e-13 0 0)
(-1.58234961e-12 0 0)
(-5.17054957e-13 0 0)
(-1.11088145e-12 0 0)
(-1.08985793e-12 0 0)
(-5.9193421e-13 0 0)
(-1.47645284e-12 0 0)
(-3.02949435e-13 0 0)
(-8.09338566e-13 0 0)
(-1.66893522e-12 0 0)
(-5.59048545e-13 0 0)
(-4.66424059e-13 0 0)
(-2.01716368e-13 0 0)
(-3.70783003e-13 0 0)
(-8.43534899e-13 0 0)
(-1.19659048e-12 0 0)
(-6.59921594e-13 0 0)
(-1.08781571e-12 0 0)
(-3.96734334e-13 0 0)
(-5.59400686e-13 0 0)
(-1.27179352e-13 0 0)
(-2.59767694e-13 0 0)
(-5.70904493e-13 0 0)
(-1.53153205e-13 0 0)
(-5.68575946e-13 0 0)
(-6.93958393e-13 0 0)
(-7.38325563e-13 0 0)
(-3.66463205e-13 0 0)
(-9.5283331e-13 0 0)
(-1.32762584e-12 0 0)
(-3.42170857e-13 0 0)
(-7.81105606e-13 0 0)
(-1.07659666e-12 0 0)
(-1.33988769e-12 0 0)
(-1.28800686e-12 0 0)
(-7.16564944e-13 0 0)
(-8.01314683e-13 0 0)
(-5.78597865e-13 0 0)
(-3.13854491e-13 0 0)
(-9.48779237e-13 0 0)
(-5.91186747e-13 0 0)
(5.87758988e-14 0 0)
(-4.87987625e-13 0 0)
(-2.85424678e-13 0 0)
(2.72018106e-13 0 0)
(-7.17073759e-13 0 0)
(-1.61436253e-13 0 0)
(-1.18157335e-12 0 0)
(-2.19737702e-13 0 0)
(-2.62121616e-13 0 0)
(2.96149934e-13 0 0)
(-3.85172108e-13 0 0)
(7.34300895e-13 0 0)
(1.03081163e-12 0 0)
(9.57010982e-13 0 0)
(2.56975067e-13 0 0)
(2.43075633e-13 0 0)
(1.56103473e-12 0 0)
(1.45055723e-12 0 0)
(-7.16840053e-14 0 0)
(9.26198622e-13 0 0)
(6.370377e-13 0 0)
(8.41687111e-13 0 0)
(1.64529621e-13 0 0)
(1.16214862e-12 0 0)
(9.1623494e-13 0 0)
(9.32601633e-14 0 0)
(-3.70366675e-15 0 0)
(1.50810472e-13 0 0)
(1.21183449e-12 0 0)
(-8.51955801e-13 0 0)
(-2.60053049e-13 0 0)
(-3.29328265e-13 0 0)
(-4.49900862e-13 0 0)
(-2.48375485e-14 0 0)
(-4.75504368e-14 0 0)
(4.2179758e-14 0 0)
(-6.19219494e-13 0 0)
(-2.67569917e-14 0 0)
(-2.85970865e-13 0 0)
(4.76070011e-14 0 0)
(-2.03693079e-13 0 0)
(-1.24758625e-13 0 0)
(-3.03963191e-13 0 0)
(-7.38312916e-13 0 0)
(-1.91256545e-13 0 0)
(-8.0634965e-14 0 0)
(-3.45345861e-13 0 0)
(3.57410542e-13 0 0)
(7.30554648e-13 0 0)
(-2.49212526e-13 0 0)
(-1.92170913e-13 0 0)
(-1.09222328e-13 0 0)
(-5.0599762e-14 0 0)
(5.44093475e-13 0 0)
(-3.38980917e-13 0 0)
(-6.44994172e-13 0 0)
(-5.60853059e-13 0 0)
(-3.59355961e-13 0 0)
(2.20190917e-13 0 0)
(-1.01965057e-12 0 0)
(6.74966353e-14 0 0)
(-1.14745255e-12 0 0)
(-6.10888507e-13 0 0)
(-1.82816393e-13 0 0)
(-4.71693248e-13 0 0)
(-3.77186747e-13 0 0)
(-4.83396263e-13 0 0)
(7.689539e-14 0 0)
(3.60416879e-13 0 0)
(7.57990781e-13 0 0)
(6.85604995e-13 0 0)
(6.34207858e-13 0 0)
(2.12516997e-13 0 0)
(-1.89779145e-13 0 0)
(2.45334205e-13 0 0)
(5.57146592e-13 0 0)
(1.16542085e-13 0 0)
(1.78385784e-13 0 0)
(-7.47685632e-14 0 0)
(3.09157306e-13 0 0)
(-7.42222877e-13 0 0)
(1.01996733e-12 0 0)
(5.97685733e-13 0 0)
(1.48527817e-12 0 0)
(-2.79528785e-13 0 0)
(1.59020396e-13 0 0)
(6.40867645e-13 0 0)
(7.03551801e-13 0 0)
(4.80366264e-13 0 0)
(3.53803138e-13 0 0)
(1.02194088e-12 0 0)
(9.64975287e-13 0 0)
(1.04374673e-12 0 0)
(5.34791255e-13 0 0)
(-2.17003832e-13 0 0)
(8.73067584e-13 0 0)
(8.28899043e-13 0 0)
(-5.48187971e-14 0 0)
(2.71885729e-13 0 0)
(1.09160479e-12 0 0)
(5.91747549e-13 0 0)
(4.78571316e-13 0 0)
(1.60505929e-13 0 0)
(-5.10340234e-13 0 0)
(4.01832483e-13 0 0)
(6.33408087e-13 0 0)
(6.30523092e-13 0 0)
(9.60230765e-13 0 0)
(1.04427802e-12 0 0)
(7.56633964e-13 0 0)
(8.24793413e-13 0 0)
(5.96305471e-13 0 0)
(1.02687728e-12 0 0)
(1.03035776e-12 0 0)
(1.02658458e-12 0 0)
(1.37098507e-12 0 0)
(2.12267795e-12 0 0)
(1.18936638e-12 0 0)
(1.66805897e-12 0 0)
(1.12864328e-12 0 0)
(1.15617204e-12 0 0)
(1.41516494e-12 0 0)
(1.03224879e-12 0 0)
(1.6417992e-12 0 0)
(1.48396134e-12 0 0)
(2.34376414e-12 0 0)
(1.27817444e-12 0 0)
(7.39986739e-13 0 0)
(1.94418886e-12 0 0)
(1.44324052e-12 0 0)
(2.08081701e-12 0 0)
(9.85162585e-13 0 0)
(8.85373918e-13 0 0)
(6.591481e-13 0 0)
(1.36088008e-12 0 0)
(2.91226989e-12 0 0)
(2.733933e-12 0 0)
(1.34822158e-12 0 0)
(2.12055796e-12 0 0)
(2.32458703e-12 0 0)
(2.64821176e-12 0 0)
(2.54766101e-12 0 0)
(2.32779114e-12 0 0)
(2.46810847e-12 0 0)
(2.45883466e-12 0 0)
(3.27152945e-12 0 0)
(2.78998172e-12 0 0)
(3.12657319e-12 0 0)
(2.98489375e-12 0 0)
(3.90091689e-12 0 0)
(2.75907053e-12 0 0)
(3.75470267e-12 0 0)
(2.71629816e-12 0 0)
(3.69861385e-12 0 0)
(2.39901323e-12 0 0)
(3.47357368e-12 0 0)
(3.43104507e-12 0 0)
(3.67551834e-12 0 0)
(2.4318205e-12 0 0)
(2.35582091e-12 0 0)
(3.10704103e-12 0 0)
(3.67187847e-12 0 0)
(2.25922223e-12 0 0)
(3.05899297e-12 0 0)
(3.23506766e-12 0 0)
(3.38831087e-12 0 0)
(3.86282766e-12 0 0)
(2.74657715e-12 0 0)
(3.15976225e-12 0 0)
(2.85078387e-12 0 0)
(3.80127361e-12 0 0)
(2.32900479e-12 0 0)
(3.70365055e-12 0 0)
(3.42186691e-12 0 0)
(2.78004438e-12 0 0)
(3.20551544e-12 0 0)
(2.70873728e-12 0 0)
(1.81407035e-12 0 0)
(2.78391431e-12 0 0)
(2.54411119e-12 0 0)
(2.96354472e-12 0 0)
(1.59036139e-12 0 0)
(2.7837865e-12 0 0)
(1.7822033e-12 0 0)
(9.18239305e-13 0 0)
(1.54830992e-12 0 0)
(1.59378306e-12 0 0)
(7.56598422e-13 0 0)
(1.01917942e-12 0 0)
(1.55270084e-12 0 0)
(1.39492332e-12 0 0)
(1.57044991e-12 0 0)
(1.89230858e-12 0 0)
(2.61717912e-12 0 0)
(2.22878179e-12 0 0)
(2.54327252e-12 0 0)
(1.94682497e-12 0 0)
(2.49247651e-12 0 0)
(3.62175407e-12 0 0)
(2.42236355e-12 0 0)
(2.64850973e-12 0 0)
(2.2119239e-12 0 0)
(2.73347421e-12 0 0)
(1.90027548e-12 0 0)
(2.15442598e-12 0 0)
(2.10786121e-12 0 0)
(2.69871841e-12 0 0)
(1.73605341e-12 0 0)
(2.00253377e-12 0 0)
(1.8566546e-12 0 0)
(2.40669746e-12 0 0)
(9.13574085e-13 0 0)
(1.0003432e-12 0 0)
(1.21782836e-12 0 0)
(1.02234316e-12 0 0)
(3.32907237e-13 0 0)
(1.50015093e-13 0 0)
(1.48081544e-12 0 0)
(1.55227553e-12 0 0)
(1.29975143e-12 0 0)
(1.33675462e-12 0 0)
(1.20245375e-12 0 0)
(1.14448505e-12 0 0)
(1.28224798e-12 0 0)
(1.18089667e-12 0 0)
(2.31525605e-12 0 0)
(1.56873388e-12 0 0)
(2.721462e-12 0 0)
(1.94293306e-12 0 0)
(1.22895701e-12 0 0)
(2.33937061e-12 0 0)
(3.05105039e-12 0 0)
(1.95474855e-12 0 0)
(3.8996908e-12 0 0)
(2.30597782e-12 0 0)
(2.31338943e-12 0 0)
(2.53277814e-12 0 0)
(3.43768781e-12 0 0)
(1.38306263e-12 0 0)
(1.73114903e-12 0 0)
(2.21408683e-12 0 0)
(1.87191191e-12 0 0)
(1.31422819e-12 0 0)
(1.34403672e-12 0 0)
(2.394695e-12 0 0)
(1.32244774e-12 0 0)
(1.37967305e-12 0 0)
(2.53050816e-12 0 0)
(2.9714889e-12 0 0)
(1.88116136e-12 0 0)
(1.45511118e-12 0 0)
(1.7308841e-12 0 0)
(1.7857319e-12 0 0)
(8.46703863e-13 0 0)
(1.40971848e-12 0 0)
(6.79450255e-13 0 0)
(7.25873021e-13 0 0)
(1.58788041e-13 0 0)
(1.26714938e-12 0 0)
(2.49874823e-13 0 0)
(4.84085854e-13 0 0)
(7.61356663e-13 0 0)
(6.43681009e-13 0 0)
(3.96372214e-13 0 0)
(-6.41422747e-14 0 0)
(4.21623212e-13 0 0)
(4.30024972e-13 0 0)
(2.10225197e-15 0 0)
(-9.22368661e-13 0 0)
(-7.58443873e-13 0 0)
(-1.93846579e-13 0 0)
(-3.28180434e-13 0 0)
(-1.26557474e-13 0 0)
(-1.21963979e-12 0 0)
(-1.22082415e-13 0 0)
(-8.68647549e-13 0 0)
(-2.00397043e-13 0 0)
(-1.79997365e-12 0 0)
(-5.36299559e-13 0 0)
(-4.86538297e-13 0 0)
(-2.5195174e-13 0 0)
(-3.05798815e-13 0 0)
(-5.34017677e-14 0 0)
(-3.57396607e-13 0 0)
(-8.74678649e-13 0 0)
(-2.08995592e-13 0 0)
(-1.12634997e-12 0 0)
(-8.10088835e-13 0 0)
(-9.42143444e-13 0 0)
(-9.68084675e-13 0 0)
(-1.36224967e-12 0 0)
(-3.25532764e-13 0 0)
(-1.65185172e-12 0 0)
(-1.95964444e-12 0 0)
(-1.14701562e-12 0 0)
(-1.31015302e-12 0 0)
(-2.27170869e-12 0 0)
(-1.11770639e-12 0 0)
(-1.40090297e-12 0 0)
(-1.53093273e-12 0 0)
(-9.29350429e-13 0 0)
(-1.46546353e-12 0 0)
(-1.99690321e-12 0 0)
(-2.45915367e-12 0 0)
(-2.00133782e-12 0 0)
(-2.23896315e-12 0 0)
(-2.98422623e-12 0 0)
(-1.97443775e-12 0 0)
(-1.7136164e-12 0 0)
(-2.27849504e-12 0 0)
(-2.61511015e-12 0 0)
(-1.98351403e-12 0 0)
(-2.54881278e-12 0 0)
(-2.15970786e-12 0 0)
(-2.57344845e-12 0 0)
(-2.67211258e-12 0 0)
(-1.44223494e-12 0 0)
(-1.95081541e-12 0 0)
(-8.54090771e-13 0 0)
(-1.28162628e-12 0 0)
(-2.14284453e-12 0 0)
(-1.28616598e-12 0 0)
(-5.50426567e-13 0 0)
(-1.05558922e-12 0 0)
(-6.41724709e-13 0 0)
(-5.15113447e-13 0 0)
(-8.80221534e-13 0 0)
(-5.6269474e-13 0 0)
(-5.57825984e-13 0 0)
(1.82945984e-13 0 0)
(2.20107284e-13 0 0)
(1.17058272e-13 0 0)
(5.25665874e-13 0 0)
(4.54274038e-13 0 0)
(-9.6971837e-14 0 0)
(-4.52078174e-13 0 0)
(-6.69524051e-13 0 0)
(-1.32822209e-13 0 0)
(-7.12502411e-14 0 0)
(4.29489268e-13 0 0)
(-3.14120027e-13 0 0)
(1.431591e-13 0 0)
(-8.55175262e-13 0 0)
(-2.45187808e-13 0 0)
(-1.2500695e-13 0 0)
(-8.61470761e-13 0 0)
(-6.74175919e-13 0 0)
(-1.57953744e-12 0 0)
(-5.38611856e-13 0 0)
(-9.15966359e-13 0 0)
(-1.5866252e-12 0 0)
(-1.49437108e-12 0 0)
(-5.50973145e-13 0 0)
(-8.73284636e-13 0 0)
(-1.02175663e-12 0 0)
(-1.15710841e-12 0 0)
(-1.6144338e-12 0 0)
(-1.03098534e-12 0 0)
(-2.04966812e-12 0 0)
(-1.32661472e-12 0 0)
(-1.43069261e-12 0 0)
(-2.1753007e-12 0 0)
(-1.70428076e-12 0 0)
(-1.74408114e-12 0 0)
(-1.09122755e-12 0 0)
(-8.00981636e-13 0 0)
(-1.66158651e-12 0 0)
(-7.32576315e-13 0 0)
(-5.39297052e-13 0 0)
(-2.08790906e-12 0 0)
(-2.14089849e-12 0 0)
(-2.52041165e-12 0 0)
(-2.65563088e-12 0 0)
(-2.50010376e-12 0 0)
(-2.09869828e-12 0 0)
(-2.09429803e-12 0 0)
(-2.74477724e-12 0 0)
(-2.55207911e-12 0 0)
(-1.96399148e-12 0 0)
(-2.27431035e-12 0 0)
(-2.79133858e-12 0 0)
(-2.42106193e-12 0 0)
(-2.31103726e-12 0 0)
(-2.67731669e-12 0 0)
(-2.40663382e-12 0 0)
(-3.48519604e-12 0 0)
(-2.97098397e-12 0 0)
(-2.73241665e-12 0 0)
(-2.79300505e-12 0 0)
(-2.78473298e-12 0 0)
(-2.99181888e-12 0 0)
(-3.58390006e-12 0 0)
(-3.33400204e-12 0 0)
(-1.94596882e-12 0 0)
(-2.34840059e-12 0 0)
(-2.73014459e-12 0 0)
(-2.6411269e-12 0 0)
(-3.4063048e-12 0 0)
(-2.65301637e-12 0 0)
(-3.44387688e-12 0 0)
(-4.26475731e-12 0 0)
(-3.53420002e-12 0 0)
(-3.97409609e-12 0 0)
(-2.98753947e-12 0 0)
(-3.64852028e-12 0 0)
(-2.83690822e-12 0 0)
(-3.19672638e-12 0 0)
(-2.22619525e-12 0 0)
(-3.3447964e-12 0 0)
(-2.99325939e-12 0 0)
(-2.51945581e-12 0 0)
(-2.81451521e-12 0 0)
(-2.89676915e-12 0 0)
(-4.16038895e-12 0 0)
(-3.35112105e-12 0 0)
(-3.25370233e-12 0 0)
(-3.73908159e-12 0 0)
(-3.75655026e-12 0 0)
(-2.30263164e-12 0 0)
(-2.13700859e-12 0 0)
(-2.75846298e-12 0 0)
(-2.6515579e-12 0 0)
(-2.09858019e-12 0 0)
(-2.97687797e-12 0 0)
(-1.15220782e-12 0 0)
(-2.30484718e-12 0 0)
(-2.04285272e-12 0 0)
(-2.44327881e-12 0 0)
(-2.09468315e-12 0 0)
(-1.89906266e-12 0 0)
(-2.68837731e-12 0 0)
(-3.12824294e-12 0 0)
(-2.42378296e-12 0 0)
(-3.63046769e-12 0 0)
(-2.92606943e-12 0 0)
(-2.88927091e-12 0 0)
(-2.89906481e-12 0 0)
(-2.65425332e-12 0 0)
(-3.16367691e-12 0 0)
(-3.08243357e-12 0 0)
(-2.01634503e-12 0 0)
(-3.07212508e-12 0 0)
(-1.55414786e-12 0 0)
(-2.74874615e-12 0 0)
(-2.57863295e-12 0 0)
(-3.17253107e-12 0 0)
(-1.59189528e-12 0 0)
(-1.18132139e-12 0 0)
(-7.171876e-13 0 0)
(-1.01526384e-12 0 0)
(-1.2135344e-12 0 0)
(-1.14277516e-12 0 0)
(-1.17127672e-12 0 0)
(-7.94376472e-13 0 0)
(-1.25253591e-12 0 0)
(-8.46874444e-13 0 0)
(-4.74959649e-13 0 0)
(-2.46992819e-13 0 0)
(-5.13213104e-13 0 0)
(1.23127619e-13 0 0)
(4.02969083e-13 0 0)
(-1.50458227e-13 0 0)
(-4.18778793e-13 0 0)
(7.73262389e-15 0 0)
(-1.58310744e-13 0 0)
(-1.74796021e-13 0 0)
(1.72107857e-13 0 0)
(3.1315819e-13 0 0)
(3.19802211e-13 0 0)
(4.87579189e-13 0 0)
(8.43623934e-13 0 0)
(-6.49606445e-13 0 0)
(7.85650807e-14 0 0)
(6.37525646e-13 0 0)
(1.41477599e-14 0 0)
(-1.25750919e-13 0 0)
(3.76490485e-13 0 0)
(5.50243693e-13 0 0)
(2.9848634e-14 0 0)
(-4.971592e-13 0 0)
(6.50579339e-13 0 0)
(-1.24860428e-12 0 0)
(3.77323236e-13 0 0)
(8.95941816e-13 0 0)
(2.07788094e-13 0 0)
(9.19629939e-13 0 0)
(1.24577427e-13 0 0)
(5.84451418e-14 0 0)
(6.41518608e-13 0 0)
(-2.96494125e-13 0 0)
(-8.87205734e-14 0 0)
(6.72278232e-14 0 0)
(2.49961987e-14 0 0)
(-1.34884975e-12 0 0)
(-3.7986233e-13 0 0)
(-9.02639435e-13 0 0)
(-1.53264758e-13 0 0)
(-5.84915671e-13 0 0)
(-1.91694391e-13 0 0)
(-6.17999771e-14 0 0)
(-5.29618842e-13 0 0)
(1.25503963e-13 0 0)
(-4.43118863e-13 0 0)
(2.38269167e-13 0 0)
(-4.159641e-13 0 0)
(-3.59147129e-13 0 0)
(-7.89095549e-13 0 0)
(1.74339371e-13 0 0)
(-1.74880929e-13 0 0)
(-2.09392903e-13 0 0)
(-1.31283619e-13 0 0)
(6.38061089e-13 0 0)
(-7.38059264e-13 0 0)
(4.27262363e-14 0 0)
(-4.10620906e-13 0 0)
(2.0542889e-13 0 0)
(3.02821935e-13 0 0)
(-3.60575148e-13 0 0)
(-3.05682222e-13 0 0)
(-1.46928306e-13 0 0)
(-8.03723925e-14 0 0)
(2.14000372e-13 0 0)
(-5.83571648e-13 0 0)
(-7.3075209e-13 0 0)
(3.9044942e-13 0 0)
(-5.3123358e-13 0 0)
(-1.82591875e-13 0 0)
(3.28670926e-13 0 0)
(-1.84507138e-13 0 0)
(3.0094575e-13 0 0)
(3.22998832e-13 0 0)
(-2.5362505e-13 0 0)
(4.48657191e-13 0 0)