/*--------------------------------*- C++ -*----------------------------------*\
| =========                 |                                                 |
| \\      /  F ield         | OpenFOAM: The Open Source CFD Toolbox           |
|  \\    /   O peration     | Version:  2206                                  |
|   \\  /    A nd           | Website:  www.openfoam.com                      |
|    \\/     M anipulation  |                                                 |
\*---------------------------------------------------------------------------*/
FoamFile
{
    version     2.0;
    format      ascii;
    arch        "LSB;label=32;scalar=64";
    class       surfaceScalarField;
    location    "1.04e-05";
    object      phi;
}
// * * * * * * * * * * * * * * * * * * * * * * * * * * * * * * * * * * * * * //

dimensions      [1 0 -1 0 0 0 0];

oriented        oriented;

internalField   nonuniform List<scalar> 
3182
(
3.69907324e-18
-2.99413493e-18
2.33946442e-19
-1.42754724e-18
-2.05027232e-21
-1.60763602e-23
-1.17196089e-24
-2.07579721e-29
8.51412603e-25
2.00514276e-23
1.03666172e-21
1.78963447e-18
3.5570921e-18
-1.68710676e-18
1.96950091e-18
-7.80008387e-19
-1.37683347e-18
-4.32798266e-18
-3.60651004e-18
4.57950436e-18
4.02959694e-20
4.44686797e-22
2.92485493e-21
1.57594972e-18
2.8431297e-18
1.85588712e-18
3.39141879e-18
8.96139104e-19
1.9146271e-18
6.78700887e-22
-2.41574448e-18
-2.11123658e-18
-7.47225827e-18
-5.22671722e-18
-3.14643328e-18
-2.92607755e-19
-1.09068459e-18
-1.40245339e-18
-4.96346459e-19
-4.21740371e-19
-2.81494855e-18
-3.3889034e-18
-2.17263052e-18
-1.41974235e-18
-1.07570147e-18
-1.41276042e-18
-1.19790899e-18
-9.82995946e-19
-3.2824084e-19
5.5107814e-19
2.38741705e-18
2.6268863e-18
3.47439187e-18
5.64091211e-18
6.94641564e-18
8.48013981e-18
1.04232556e-17
1.1729986e-17
1.30303713e-17
1.49839424e-17
1.49909291e-17
1.56235504e-17
1.56015394e-17
1.47530152e-17
1.45911841e-17
1.45840087e-17
1.45807171e-17
1.3926346e-17
1.26380018e-17
1.08588101e-17
9.57577454e-18
8.38738657e-18
6.59145727e-18
6.06493206e-18
4.75260156e-18
2.58747062e-18
2.54014685e-18
1.32112216e-18
5.41041977e-19
-6.43055857e-19
-1.57662299e-18
-2.89715318e-18
-2.80831965e-18
-4.69260331e-18
-4.92425746e-18
-7.36578264e-18
-9.55072259e-18
-8.75623658e-18
-1.00816839e-17
-1.22162111e-17
-1.37174005e-17
-1.36706264e-17
-1.56131591e-17
-1.63759562e-17
-1.66396719e-17
-2.18256031e-17
-2.06519416e-17
-2.20308593e-17
-1.99197583e-17
-1.88881444e-17
-1.68442709e-17
-1.85850687e-17
-1.81804525e-17
-1.6050781e-17
-1.91706178e-17
-1.6969468e-17
-2.01517725e-17
-2.21850227e-17
-2.38284966e-17
-2.14948163e-17
-2.44817299e-17
-2.5522647e-17
-2.25035665e-17
-2.44687692e-17
-2.30457155e-17
-2.44608328e-17
-2.23533361e-17
-2.30675098e-17
-2.50743494e-17
-2.60435691e-17
-2.43946039e-17
-2.42048277e-17
-2.71703484e-17
-2.84572731e-17
-2.595459e-17
-2.6772974e-17
-2.89517348e-17
-3.06003176e-17
-3.01927407e-17
-3.30199993e-17
-3.53657888e-17
-3.46338485e-17
-3.44617956e-17
-3.74929814e-17
-3.62209243e-17
-3.49531786e-17
-3.52103307e-17
-3.34093235e-17
-3.21108337e-17
-3.17086267e-17
-3.49004857e-17
-3.42962544e-17
-3.73735822e-17
-3.71769318e-17
-3.57095521e-17
-3.52416375e-17
-3.80107488e-17
-3.89895607e-17
-3.93204447e-17
-3.88605047e-17
-3.70523333e-17
-3.7691846e-17
-3.74681278e-17
-3.73636465e-17
-3.91900111e-17
-3.80042192e-17
-3.78976788e-17
-3.77805415e-17
-3.54074668e-17
-3.69836783e-17
-3.96995625e-17
-3.98684022e-17
-3.98551106e-17
-3.84884569e-17
-4.16989899e-17
-4.30766092e-17
-4.45790183e-17
-4.33100295e-17
-4.36531687e-17
-4.22420625e-17
-4.33939237e-17
-4.25516158e-17
-4.35343614e-17
-4.48354495e-17
-4.79838079e-17
-4.94068348e-17
-4.90324765e-17
-5.13521535e-17
-5.07245548e-17
-5.43274138e-17
-5.39329223e-17
-5.75710482e-17
-6.04787586e-17
-5.7620094e-17
-5.57423321e-17
-5.35086727e-17
-5.52603774e-17
-5.32064902e-17
-5.21256423e-17
-5.21549055e-17
-5.41590515e-17
-5.06045284e-17
-5.33459562e-17
-5.54985978e-17
-5.33359522e-17
-5.23503288e-17
-4.88703595e-17
-5.15480932e-17
-5.33644797e-17
-5.35009428e-17
-5.34251579e-17
-5.20628016e-17
-4.90643975e-17
-5.19177146e-17
-5.15309227e-17
-5.16883403e-17
-4.98998512e-17
-4.94269936e-17
-4.79826606e-17
-5.11618858e-17
-5.13890803e-17
-4.89007255e-17
-5.31092512e-17
-5.09894836e-17
-5.19777729e-17
-5.019916e-17
-5.63023937e-17
-5.53617517e-17
-5.75006578e-17
-5.91195484e-17
-6.11895834e-17
-6.07076025e-17
-6.22886614e-17
-6.09320754e-17
-6.22885541e-17
-5.94121795e-17
-6.00397594e-17
-5.87632308e-17
-5.86792786e-17
-6.23123143e-17
-5.8436729e-17
-5.79646781e-17
-6.09704334e-17
-6.19276638e-17
-6.38725266e-17
-6.47677256e-17
-6.73317199e-17
-6.31131708e-17
-6.77862607e-17
-6.5887775e-17
-6.56019817e-17
-6.46255255e-17
-6.37682899e-17
-6.35432563e-17
-6.68355558e-17
-6.73819331e-17
-6.87304111e-17
-7.13816278e-17
-7.00218305e-17
-6.86264533e-17
-6.85822936e-17
-7.04726277e-17
-7.11629613e-17
-7.3556601e-17
-7.69581322e-17
-7.57575885e-17
-7.57919641e-17
-7.83273317e-17
-7.94655247e-17
-7.94027516e-17
-7.98074864e-17
-8.08285318e-17
-8.43252648e-17
-8.72524059e-17
-8.62859735e-17
-8.42280446e-17
-8.54647402e-17
-8.35122009e-17
-8.29835945e-17
-8.38318007e-17
-8.07676232e-17
-8.03805608e-17
-8.25454672e-17
-8.24672289e-17
-8.45149668e-17
-8.33179427e-17
-8.45133705e-17
-8.67135872e-17
-8.70602208e-17
-8.79618341e-17
-9.04981294e-17
-9.00012248e-17
-8.83449567e-17
-9.29757163e-17
-9.3990781e-17
-9.24600561e-17
-9.1747208e-17
-9.08550719e-17
-9.01817061e-17
-9.04328359e-17
-8.96282806e-17
-8.8704389e-17
-8.93561817e-17
-9.54914215e-17
-9.56045514e-17
-9.300549e-17
-9.2217412e-17
-9.06955628e-17
-9.42337336e-17
-9.67789995e-17
-9.54260934e-17
-9.51826733e-17
-9.70237582e-17
-9.47781197e-17
-9.4957743e-17
-9.29361112e-17
-9.39914567e-17
-9.40409381e-17
-9.75718638e-17
-9.35236184e-17
-9.69083103e-17
-9.16171636e-17
-9.46367399e-17
-9.33306055e-17
-9.60962302e-17
-9.54306398e-17
-9.48809031e-17
-9.78555014e-17
-9.47267833e-17
-9.14335685e-17
-9.61118556e-17
-9.54544557e-17
-9.88993082e-17
-1.000009e-16
-9.94140054e-17
-9.8859971e-17
-9.80716588e-17
-1.00574347e-16
-9.96582397e-17
-9.7454327e-17
-9.83575034e-17
-9.41104295e-17
-9.28027405e-17
-9.44072876e-17
-9.3948532e-17
-9.36400362e-17
-9.3251387e-17
-9.65671426e-17
-9.79504112e-17
-9.66402484e-17
-9.45507559e-17
-9.34051938e-17
-9.43036674e-17
-9.09645185e-17
-9.19959021e-17
-9.15802174e-17
-8.95256266e-17
-9.32809728e-17
-9.35864792e-17
-9.15368547e-17
-9.22519992e-17
-9.47067722e-17
-9.24711224e-17
-9.25731708e-17
-9.29764163e-17
-9.28316042e-17
-9.26731857e-17
-9.22863971e-17
-9.28808169e-17
-9.37983037e-17
-9.2432447e-17
-9.17895017e-17
-8.94165062e-17
-9.16420626e-17
-9.12547594e-17
-9.23840225e-17
-9.09507794e-17
-9.05778201e-17
-8.83714749e-17
-8.7398126e-17
-9.11008037e-17
-9.03510906e-17
-8.84910214e-17
-8.78008511e-17
-9.05149923e-17
-9.10253525e-17
-8.58768464e-17
-8.71069748e-17
-8.74724968e-17
-8.80209458e-17
-8.80532039e-17
-8.60001579e-17
-8.21806737e-17
-8.43061239e-17
-8.13299555e-17
-8.35103647e-17
-8.49726267e-17
-8.114924e-17
-7.93036553e-17
-7.68757982e-17
-7.87895131e-17
-7.57542471e-17
-7.41407688e-17
-7.33009765e-17
-6.45907796e-17
-6.89686166e-17
-6.81968978e-17
-6.63325137e-17
-6.75829452e-17
-6.4300816e-17
-6.95168237e-17
-6.42679798e-17
-6.55136222e-17
-6.81144344e-17
-6.63686586e-17
-6.9156429e-17
-7.046945e-17
-6.53438855e-17
-6.30516173e-17
-6.4906885e-17
-6.23177876e-17
-6.02298066e-17
-6.04981854e-17
-6.0094092e-17
-6.49822022e-17
-6.5857692e-17
-6.75980402e-17
-6.42382109e-17
-6.46162726e-17
-6.69561417e-17
-6.40805487e-17
-6.31679572e-17
-6.09919324e-17
-6.45286027e-17
-6.66704425e-17
-6.44920853e-17
-6.43767382e-17
-6.15308173e-17
-6.20113834e-17
-6.05677879e-17
-6.20150843e-17
-6.28439748e-17
-6.56800459e-17
-6.51500556e-17
-6.70793602e-17
-6.3455088e-17
-6.05908383e-17
-5.82183819e-17
-5.49677074e-17
-5.49597115e-17
-5.16973754e-17
-5.49424935e-17
-5.5462283e-17
-5.33377356e-17
-5.16233079e-17
-5.05960795e-17
-4.88585565e-17
-5.11229756e-17
-5.16661645e-17
-4.66669419e-17
-4.57479201e-17
-4.34755945e-17
-4.25985318e-17
-4.2711994e-17
-4.42895651e-17
-4.1853649e-17
-3.97903254e-17
-4.22494784e-17
-4.01961041e-17
-4.18935443e-17
-4.28216368e-17
-3.90573296e-17
-3.59941269e-17
-3.6139959e-17
-3.37645675e-17
-3.40963284e-17
-3.23918413e-17
-3.03712441e-17
-3.16013956e-17
-3.29606063e-17
-3.24029055e-17
-3.09880125e-17
-3.51240696e-17
-3.33626832e-17
-3.39188602e-17
-3.36134592e-17
-3.39570649e-17
-3.86476366e-17
-3.71553851e-17
-3.78418539e-17
-3.55492838e-17
-3.46242711e-17
-3.53768408e-17
-3.31936311e-17
-3.52745295e-17
-3.32194426e-17
-3.4444893e-17
-3.28009211e-17
-3.41048423e-17
-3.27908597e-17
-3.09544415e-17
-3.18288198e-17
-3.15473838e-17
-3.13130826e-17
-3.41670857e-17
-3.57245023e-17
-3.58920013e-17
-3.36207476e-17
-3.87740569e-17
-3.49237118e-17
-3.3037707e-17
-3.58180067e-17
-3.53031782e-17
-3.66850428e-17
-3.29131734e-17
-3.18902565e-17
-2.86937657e-17
-2.85048242e-17
-2.95646221e-17
-2.99444778e-17
-2.68065544e-17
-3.18607323e-17
-3.01078862e-17
-3.16919254e-17
-3.41237844e-17
-3.35291992e-17
-3.16919881e-17
-2.66724117e-17
-2.6174916e-17
-2.35120672e-17
-2.16060036e-17
-1.90787272e-17
-1.66239294e-17
-1.6756816e-17
-1.79989736e-17
-1.84688183e-17
-1.67875353e-17
-1.71696216e-17
-1.57810867e-17
-2.07935436e-17
-1.98479543e-17
-2.12365936e-17
-1.86887554e-17
-1.90295322e-17
-1.79027016e-17
-1.64787105e-17
-1.51245911e-17
-1.37280953e-17
-1.14685113e-17
-6.99840186e-18
-7.12023896e-18
-5.16640633e-18
-8.78114466e-18
-7.71947226e-18
-8.9967565e-18
-9.06617039e-18
-6.55303348e-18
-4.16155914e-18
-1.69055481e-18
-2.63647096e-18
-1.6094075e-18
-2.21034039e-18
-1.95080328e-18
-2.10984589e-18
-7.17862363e-19
3.67904723e-18
2.62847169e-18
-9.66139013e-19
-9.786441e-19
-2.59392672e-18
-6.088088e-18
-5.72703761e-18
-1.90390592e-18
-7.24345726e-19
-6.92746727e-19
-8.51375215e-19
-3.06674498e-18
-2.22075181e-18
-2.1328605e-19
-1.6873407e-18
-3.80963507e-19
1.16242613e-18
3.72639536e-18
4.14268428e-18
4.61001648e-18
5.51658159e-18
4.82098272e-18
4.43614807e-18
6.67424883e-18
1.01989756e-17
1.28940664e-17
1.1172465e-17
1.27594419e-17
1.26998602e-17
1.45203576e-17
1.78433113e-17
1.79642237e-17
1.85911681e-17
1.78834252e-17
1.89361717e-17
1.62572866e-17
1.8559579e-17
1.63954026e-17
1.4862282e-17
1.58298161e-17
1.40572209e-17
1.29758617e-17
1.22475887e-17
1.52503492e-17
1.41770674e-17
1.42840696e-17
1.249064e-17
1.5114385e-17
1.47428015e-17
1.32397756e-17
1.44456645e-17
1.88686177e-17
1.4331434e-17
1.47465849e-17
1.20032285e-17
1.22821248e-17
1.17068933e-17
1.55138418e-17
1.58070747e-17
1.79445922e-17
2.01347799e-17
2.09046887e-17
1.99973729e-17
2.34591175e-17
2.37111821e-17
2.26855825e-17
2.30238481e-17
1.98303674e-17
2.25183009e-17
1.92009916e-17
1.98811592e-17
2.32263045e-17
2.71804369e-17
2.398197e-17
2.36503865e-17
2.46933972e-17
2.2994063e-17
2.52074792e-17
2.62692706e-17
2.58608553e-17
3.00149761e-17
2.86946006e-17
2.85126491e-17
2.91371519e-17
3.02708453e-17
2.85416511e-17
3.05735504e-17
2.96046854e-17
3.44576415e-17
3.66851934e-17
3.76092011e-17
3.65063692e-17
3.94153454e-17
4.16580151e-17
4.09806324e-17
4.17315956e-17
4.07893266e-17
4.00411864e-17
3.97283827e-17
3.56875528e-17
3.72868548e-17
3.73391922e-17
3.77650566e-17
3.82715458e-17
3.29450806e-17
3.34985484e-17
3.39181894e-17
3.38614661e-17
3.24506019e-17
3.53956518e-17
3.92553921e-17
3.57891963e-17
3.52164223e-17
3.62427052e-17
3.59468266e-17
3.66461661e-17
3.91946759e-17
4.03517222e-17
3.77767763e-17
3.5587724e-17
3.61794059e-17
3.51376401e-17
3.69641603e-17
3.61990133e-17
3.84654117e-17
3.60130819e-17
3.64549158e-17
3.72674811e-17
3.99165534e-17
4.04962524e-17
4.111404e-17
4.02374458e-17
3.92810116e-17
3.90761736e-17
3.9778926e-17
4.24775143e-17
4.02226547e-17
3.8814617e-17
4.02323464e-17
3.81193536e-17
3.94053689e-17
4.00199123e-17
3.85522396e-17
3.84819878e-17
3.7476239e-17
3.64753845e-17
3.79759688e-17
3.74979648e-17
3.97865827e-17
4.02266577e-17
4.11866555e-17
4.23415677e-17
4.16766662e-17
4.1779406e-17
4.17537377e-17
4.24126755e-17
4.17708875e-17
4.28960557e-17
4.73491084e-17
4.44564894e-17
4.31669091e-17
4.43169493e-17
4.55610324e-17
4.09003322e-17
4.41823813e-17
4.24841731e-17
4.39880072e-17
4.2648559e-17
4.11141414e-17
4.1327229e-17
3.90674339e-17
3.51783723e-17
3.59333873e-17
3.37294806e-17
3.82411417e-17
3.75279836e-17
3.31119528e-17
3.36810279e-17
3.59194513e-17
3.54239795e-17
3.4294859e-17
3.52440051e-17
3.22155925e-17
3.23700973e-17
3.2686614e-17
2.99481151e-17
2.85604237e-17
2.95631354e-17
2.92307448e-17
3.11570141e-17
3.34918743e-17
3.57353139e-17
3.70924251e-17
3.78950066e-17
3.59922267e-17
3.73294167e-17
3.75938789e-17
3.64058577e-17
3.54843319e-17
3.63329727e-17
3.72688373e-17
3.82947558e-17
3.7498917e-17
3.64439141e-17
3.75263605e-17
3.80826293e-17
3.75290787e-17
4.05570959e-17
3.95592731e-17
3.83216766e-17
3.47060215e-17
3.49878988e-17
3.80232376e-17
3.50755339e-17
3.62135086e-17
3.6584587e-17
3.85953137e-17
3.55349953e-17
3.91367106e-17
4.20638452e-17
3.96173052e-17
3.70554922e-17
3.74673688e-17
3.93338989e-17
4.04194483e-17
3.93607618e-17
4.29566289e-17
4.20440618e-17
3.77519334e-17
3.78835329e-17
3.88168492e-17
3.79856477e-17
4.07203849e-17
3.90755195e-17
3.83130406e-17
3.95296709e-17
4.5876823e-17
4.12809726e-17
3.65171169e-17
3.48335932e-17
3.40875027e-17
3.18149663e-17
3.30028993e-17
3.25534171e-17
3.10169328e-17
3.38884989e-17
3.51973263e-17
3.7638825e-17
3.63207433e-17
3.80074118e-17
3.93458487e-17
3.55856806e-17
3.96970456e-17
3.79623306e-17
3.768823e-17
3.72648623e-17
3.94621681e-17
3.83964218e-17
3.88292213e-17
3.74471594e-17
3.91491848e-17
3.68505793e-17
3.46285791e-17
3.60932735e-17
3.72137109e-17
3.73177371e-17
3.40360387e-17
3.65516279e-17
3.51980603e-17
3.4855183e-17
3.65344605e-17
3.66594295e-17
3.75013846e-17
4.09349331e-17
4.09096408e-17
3.73306149e-17
3.55742232e-17
3.91803065e-17
3.94137902e-17
4.1964283e-17
4.20006715e-17
4.36416244e-17
4.27615034e-17
4.15279216e-17
4.49422702e-17
4.08732514e-17
4.10552834e-17
4.22012681e-17
4.32820323e-17
4.39320163e-17
4.51918763e-17
4.44588648e-17
4.70832335e-17
4.73366464e-17
4.65682086e-17
4.89673133e-17
5.11787827e-17
5.0358414e-17
5.10120543e-17
5.18783771e-17
5.21352006e-17
5.26133967e-17
5.08587842e-17
5.05424618e-17
5.28714746e-17
5.51918268e-17
5.31461144e-17
5.49494186e-17
5.41031675e-17
5.52600066e-17
5.35888358e-17
5.24592905e-17
5.18084934e-17
4.7678356e-17
4.89589259e-17
4.92006383e-17
4.90698847e-17
4.65428645e-17
4.88963756e-17
4.9438456e-17
4.72139489e-17
4.70121291e-17
4.38635923e-17
4.69525679e-17
4.47276906e-17
4.56358834e-17
4.60329906e-17
4.41774521e-17
4.19064808e-17
4.65975214e-17
4.78960085e-17
4.91763225e-17
5.03485155e-17
4.93252822e-17
4.87655347e-17
4.80758226e-17
4.85955625e-17
4.68451082e-17
4.52650423e-17
4.62323787e-17
4.57525902e-17
4.68116438e-17
4.84605091e-17
4.83835022e-17
4.95636559e-17
4.80991734e-17
4.96318435e-17
4.81364398e-17
4.89121141e-17
5.04067976e-17
5.04398025e-17
4.70792508e-17
4.72637797e-17
4.93307613e-17
5.05373458e-17
4.65654967e-17
4.67690317e-17
4.59487085e-17
4.53095723e-17
4.65741806e-17
4.52749024e-17
4.59990197e-17
4.60007046e-17
4.99019948e-17
4.80049771e-17
5.08292691e-17
4.99986977e-17
4.96070217e-17
5.00146787e-17
5.12473582e-17
5.06771627e-17
4.82191093e-17
4.82123335e-17
5.16816916e-17
4.97063556e-17
5.35762646e-17
5.38508315e-17
5.58698746e-17
5.82008106e-17
5.96153814e-17
5.93298623e-17
5.98236993e-17
6.11902736e-17
5.93719694e-17
5.89232492e-17
5.8112198e-17
5.71842413e-17
5.87881978e-17
5.8484027e-17
5.81387181e-17
5.82200908e-17
5.97645341e-17
5.83291061e-17
6.01815919e-17
5.99146733e-17
5.69809109e-17
5.69079124e-17
5.46643156e-17
5.56537181e-17
5.67336874e-17
5.76085259e-17
5.50138261e-17
5.78812651e-17
5.82452643e-17
5.91903022e-17
6.03360674e-17
6.29633187e-17
6.25399627e-17
6.21776382e-17
6.09445344e-17
6.35233213e-17
6.29395494e-17
6.52029194e-17
6.2915709e-17
6.01044862e-17
5.99985819e-17
5.76605815e-17
5.86540212e-17
5.80802528e-17
6.14476252e-17
5.86904938e-17
5.89632555e-17
5.65481941e-17
5.64537892e-17
5.66028919e-17
6.10627676e-17
5.98727259e-17
5.9860383e-17
5.50536995e-17
5.49371866e-17
5.51192225e-17
5.63362095e-17
5.24959982e-17
4.9207964e-17
4.91867191e-17
4.96454288e-17
4.55326829e-17
4.87209806e-17
4.81186016e-17
4.92955532e-17
5.26145865e-17
5.23475512e-17
5.1614253e-17
5.00498456e-17
5.11795867e-17
5.56680449e-17
5.10526485e-17
5.07350103e-17
5.30937228e-17
5.17669206e-17
5.25661962e-17
4.99233868e-17
4.81484351e-17
4.7656744e-17
4.37341928e-17
4.24245958e-17
4.32296181e-17
4.20206356e-17
4.155257e-17
4.13829905e-17
4.06528297e-17
3.99152818e-17
4.08507936e-17
3.76981854e-17
3.6458838e-17
3.60768335e-17
3.53726696e-17
3.41523885e-17
3.38386673e-17
3.17302397e-17
3.0216698e-17
2.91599405e-17
2.99697158e-17
3.00624442e-17
2.92310413e-17
2.47965639e-17
2.35114828e-17
2.27681521e-17
2.45953698e-17
1.94623305e-17
2.05605941e-17
1.76800896e-17
1.80161936e-17
1.75436341e-17
1.61072939e-17
1.32718779e-17
1.12770958e-17
1.33924327e-17
1.46333091e-17
1.4070139e-17
1.05517387e-17
1.28187465e-17
1.23873948e-17
1.30632727e-17
1.27113995e-17
1.17670809e-17
1.36560001e-17
1.09550519e-17
1.59683616e-17
1.21866132e-17
1.27593406e-17
1.39410417e-17
8.5770844e-18
1.04485122e-17
8.21072685e-18
1.04754229e-17
1.19248333e-17
1.17347671e-17
1.1039151e-17
1.36885203e-17
1.45093259e-17
1.27401668e-17
7.71005096e-18
7.69063248e-18
8.20674866e-18
8.39862037e-18
9.73442859e-18
1.36133541e-17
1.30442948e-17
9.11604614e-18
1.22092021e-17
9.33368264e-18
5.6416088e-18
5.70947162e-18
6.49410536e-18
6.72384291e-18
8.70620283e-18
8.19630838e-18
9.51479325e-18
5.03821651e-18
6.5301983e-18
5.04268588e-18
5.03952734e-18
1.80481473e-18
3.11909418e-18
3.65345363e-18
7.12271276e-19
-2.01901855e-18
6.73178943e-19
2.54433969e-18
-2.87811669e-18
-7.77034507e-19
-2.70409796e-18
-2.23047084e-18
-4.20588009e-18
-1.25530239e-18
-2.66937344e-18
-5.96680141e-18
-6.82607288e-18
-7.64775422e-18
-6.5566207e-18
-7.21884994e-18
-1.05242732e-17
-7.90464682e-18
-9.32793055e-18
-1.26502785e-17
-1.3493005e-17
-1.49091544e-17
-1.82875137e-17
-1.7471283e-17
-1.61232533e-17
-1.74432062e-17
-1.91361908e-17
-2.27167257e-17
-2.12309733e-17
-2.00784711e-17
-1.90320887e-17
-2.0162448e-17
-2.02792579e-17
-1.67683759e-17
-1.98330379e-17
-2.15029876e-17
-2.40341063e-17
-2.90691451e-17
-3.05838512e-17
-3.2251364e-17
-3.1270523e-17
-3.15444177e-17
-3.37999126e-17
-3.36803453e-17
-3.37664435e-17
-3.20970018e-17
-3.04341477e-17
-2.84628801e-17
-3.16904309e-17
-2.89348358e-17
-2.69047954e-17
-2.70252468e-17
-2.79384769e-17
-2.74809391e-17
-2.83315309e-17
-2.69936064e-17
-2.70284669e-17
-2.79831162e-17
-2.61537969e-17
-2.18741955e-17
-2.5044822e-17
-2.54103845e-17
-2.68143863e-17
-2.41170018e-17
-2.51700097e-17
-2.61119375e-17
-2.48234319e-17
-2.28505461e-17
-2.20513507e-17
-1.87961164e-17
-2.12202511e-17
-1.94949929e-17
-1.858859e-17
-1.95624313e-17
-1.83640346e-17
-2.16990735e-17
-2.1980018e-17
-2.23941829e-17
-2.45993538e-17
-2.25165868e-17
-2.54779911e-17
-2.76019476e-17
-2.91948094e-17
-3.03254334e-17
-3.05838164e-17
-2.69025208e-17
-2.77458567e-17
-2.87877213e-17
-3.02129832e-17
-3.05973027e-17
-3.24309266e-17
-2.87939177e-17
-3.37154671e-17
-3.0460452e-17
-3.26565245e-17
-3.28795821e-17
-3.47811033e-17
-3.61369586e-17
-3.27997164e-17
-3.50058404e-17
-3.17596048e-17
-3.82753529e-17
-3.56937813e-17
-4.06235782e-17
-4.06191844e-17
-3.95662031e-17
-3.72604365e-17
-4.16332804e-17
-4.24159192e-17
-4.38683999e-17
-3.91816126e-17
-4.10559822e-17
-3.76417792e-17
-3.93318954e-17
-3.69563142e-17
-3.66052948e-17
-3.74921175e-17
-3.83150456e-17
-3.74583338e-17
-3.51721261e-17
-3.83624942e-17
-3.91430356e-17
-3.81620288e-17
-4.35438717e-17
-4.14203613e-17
-4.21933797e-17
-4.11678441e-17
-3.95438735e-17
-3.95572883e-17
-3.66400394e-17
-3.40903461e-17
-3.67877442e-17
-3.40736622e-17
-3.87140308e-17
-4.05721995e-17
-4.05059852e-17
-4.19742155e-17
-4.13163543e-17
-3.92493048e-17
-3.75386387e-17
-3.57953762e-17
-3.58236797e-17
-3.76077721e-17
-3.7642477e-17
-3.89591355e-17
-3.67766301e-17
-3.92978946e-17
-3.83413262e-17
-3.85453527e-17
-3.89402545e-17
-3.78206525e-17
-3.91024418e-17
-4.11187465e-17
-4.23765111e-17
-4.05641514e-17
-4.03964022e-17
-4.28005736e-17
-3.96286271e-17
-3.75744312e-17
-3.57879277e-17
-3.52935757e-17
-3.6508315e-17
-3.63562707e-17
-3.57968535e-17
-3.52250861e-17
-3.52123402e-17
-3.85002657e-17
-3.58271631e-17
-3.65929649e-17
-3.82753169e-17
-3.85071381e-17
-4.0738285e-17
-4.13663626e-17
-4.27170344e-17
-3.87280786e-17
-4.56392987e-17
-4.26478155e-17
-4.15204163e-17
-4.49400249e-17
-4.41654918e-17
-4.25667842e-17
-4.5179795e-17
-4.0468571e-17
-4.36233865e-17
-4.30783997e-17
-4.7068093e-17
-5.00318865e-17
-4.78488684e-17
-4.91107532e-17
-4.83746681e-17
-4.70627138e-17
-5.43293867e-17
-5.25696508e-17
-5.6264328e-17
-5.5768318e-17
-5.28448331e-17
-5.39704729e-17
-5.29149249e-17
-5.49227823e-17
-5.40555323e-17
-5.32643776e-17
-5.37467132e-17
-5.54727321e-17
-5.35694786e-17
-5.22249207e-17
-5.62180671e-17
-5.41423348e-17
-5.43724789e-17
-5.80243345e-17
-5.85750159e-17
-5.79366728e-17
-5.87049686e-17
-5.89960226e-17
-6.22137344e-17
-6.23850693e-17
-6.10871529e-17
-5.92753689e-17
-6.22614192e-17
-6.32237244e-17
-6.11682866e-17
-5.95580974e-17
-6.35838233e-17
-6.07527856e-17
-6.48391769e-17
-6.04712419e-17
-5.97961145e-17
-6.13358352e-17
-5.9847234e-17
-6.40376499e-17
-6.39484772e-17
-6.15636447e-17
-5.932115e-17
-5.99144193e-17
-5.87121634e-17
-5.80107754e-17
-5.93655144e-17
-5.95193529e-17
-5.98750302e-17
-5.92681533e-17
-6.04315561e-17
-5.89696275e-17
-6.0404735e-17
-5.78643409e-17
-5.58817871e-17
-5.31357469e-17
-5.26099701e-17
-5.34168665e-17
-5.00255473e-17
-4.94150864e-17
-4.83209481e-17
-4.57192535e-17
-4.97702308e-17
-4.79539949e-17
-4.94303113e-17
-4.43093052e-17
-4.55632343e-17
-4.57117702e-17
-4.69962602e-17
-4.56103213e-17
-4.61317453e-17
-4.59417445e-17
-4.71547635e-17
-4.6630654e-17
-4.42346201e-17
-4.43250732e-17
-4.28577503e-17
-4.36337534e-17
-4.38455165e-17
-4.22136987e-17
-4.11836336e-17
-4.35668834e-17
-4.28534315e-17
-4.41343906e-17
-4.27751143e-17
-4.32405561e-17
-4.1526917e-17
-3.98126471e-17
-4.03695854e-17
-4.14154302e-17
-4.17239776e-17
-4.1684658e-17
-3.91279724e-17
-3.82914666e-17
-3.31575048e-17
-3.48747135e-17
-3.71605567e-17
-3.49036798e-17
-3.26596991e-17
-3.64148826e-17
-3.35824174e-17
-3.49914158e-17
-3.45393356e-17
-3.56724921e-17
-3.40151537e-17
-3.47277759e-17
-3.51754013e-17
-3.20922619e-17
-3.33787522e-17
-3.50264464e-17
-3.5013715e-17
-3.57257662e-17
-3.80617291e-17
-3.40736722e-17
-3.73073722e-17
-3.66881148e-17
-3.45038457e-17
-3.89416394e-17
-3.86642225e-17
-3.93756872e-17
-4.45015851e-17
-4.51291568e-17
-4.89447501e-17
-4.91691143e-17
-4.85164643e-17
-4.76751449e-17
-4.91889899e-17
-4.53997612e-17
-4.57899771e-17
-4.7433276e-17
-4.56755827e-17
-4.75262515e-17
-4.59425061e-17
-4.87622636e-17
-5.07452265e-17
-4.87612993e-17
-5.03412161e-17
-5.24831617e-17
-5.05738748e-17
-5.21821906e-17
-4.92095372e-17
-4.96354515e-17
-4.89765587e-17
-4.91212813e-17
-4.85567902e-17
-4.74147941e-17
-4.86985202e-17
-5.14449895e-17
-5.2232493e-17
-4.96280365e-17
-4.8917555e-17
-5.04817857e-17
-4.93550743e-17
-5.40908791e-17
-5.39615195e-17
-5.19921522e-17
-5.21907001e-17
-5.16097085e-17
-5.15762316e-17
-5.17502015e-17
-5.18214269e-17
-5.07939212e-17
-4.97733397e-17
-5.19013454e-17
-4.94687829e-17
-4.89951723e-17
-4.83426649e-17
-4.90062709e-17
-5.04618918e-17
-5.02990404e-17
-4.79302597e-17
-4.92197084e-17
-5.31976971e-17
-5.48764636e-17
-5.42591427e-17
-5.70715934e-17
-5.63631175e-17
-5.87113281e-17
-5.94294465e-17
-5.77712932e-17
-5.82004506e-17
-5.75822757e-17
-5.6344212e-17
-5.51942768e-17
-5.3920276e-17
-5.32161429e-17
-5.31036586e-17
-5.54583463e-17
-5.68390872e-17
-5.96576752e-17
-5.95506858e-17
-5.84857093e-17
-5.683145e-17
-5.3949065e-17
-5.62553526e-17
-5.5915739e-17
-5.56937016e-17
-5.48773245e-17
-5.37835396e-17
-5.22328443e-17
-5.18065655e-17
-5.25447481e-17
-4.90920983e-17
-4.88346268e-17
-4.94780041e-17
-5.3667935e-17
-4.95155077e-17
-5.14386498e-17
-5.13292725e-17
-5.13617575e-17
-5.11676673e-17
-5.33066531e-17
-5.11013997e-17
-5.03960792e-17
-5.1305663e-17
-5.42677227e-17
-5.17778759e-17
-4.89193345e-17
-4.82838137e-17
-4.55794393e-17
-4.64235824e-17
-4.3701245e-17
-4.21911526e-17
-4.24265998e-17
-3.89269235e-17
-3.7470825e-17
-4.07201141e-17
-4.02733942e-17
-3.8386993e-17
-4.15125907e-17
-3.92953088e-17
-3.72660268e-17
-3.57031117e-17
-3.52463283e-17
-3.50306795e-17
-3.33145556e-17
-3.40150356e-17
-2.98080086e-17
-3.29130919e-17
-3.22595871e-17
-3.06293696e-17
-3.03064404e-17
-3.32045885e-17
-3.03620341e-17
-3.02772677e-17
-3.12219854e-17
-3.29435e-17
-2.95363185e-17
-2.48718549e-17
-2.53553988e-17
-2.53390187e-17
-2.68969581e-17
-2.59458766e-17
-2.20120297e-17
-2.42003124e-17
-2.27895148e-17
-2.64223189e-17
-2.50514247e-17
-2.50617702e-17
-2.51151644e-17
-2.44169506e-17
-2.48902151e-17
-2.32522322e-17
-2.20538057e-17
-2.17101774e-17
-2.16237503e-17
-2.00730164e-17
-1.61117322e-17
-1.63023924e-17
-1.55422831e-17
-1.62271787e-17
-1.59451127e-17
-1.71850103e-17
-1.54873121e-17
-1.81468487e-17
-2.02591197e-17
-2.11857476e-17
-1.90908959e-17
-1.79158958e-17
-2.15461013e-17
-1.68167273e-17
-1.6500204e-17
-1.65037028e-17
-1.38759047e-17
-1.38440326e-17
-1.54342472e-17
-1.44812493e-17
-1.52141701e-17
-1.33829052e-17
-1.06920765e-17
-1.00702205e-17
-1.07034857e-17
-1.04034392e-17
-1.22456929e-17
-1.28040119e-17
-1.42014584e-17
-1.67903606e-17
-1.7563722e-17
-1.42677723e-17
-1.72727631e-17
-1.30804505e-17
-1.31513044e-17
-1.56734787e-17
-1.18495069e-17
-1.19999748e-17
-1.54539579e-17
-1.58871743e-17
-1.62867763e-17
-1.51965421e-17
-1.97274422e-17
-1.62812517e-17
-1.64120792e-17
-1.62376983e-17
-1.16831374e-17
-1.48596773e-17
-1.83236499e-17
-1.50988712e-17
-1.42998918e-17
-1.40848787e-17
-1.44276337e-17
-1.31754439e-17
-1.48303712e-17
-1.58059014e-17
-1.28508216e-17
-1.61604538e-17
-1.86723876e-17
-1.60439737e-17
-1.60793053e-17
-1.7576585e-17
-1.58785125e-17
-1.54464431e-17
-1.55319235e-17
-1.5746436e-17
-1.4494902e-17
-1.689549e-17
-1.59579341e-17
-1.42427438e-17
-1.12231711e-17
-1.09284709e-17
-9.77415522e-18
-1.19407326e-17
-1.14043093e-17
-8.3321187e-18
-7.49637473e-18
-1.00818445e-17
-9.87925974e-18
-1.06721237e-17
-1.09418895e-17
-9.70363418e-18
-1.20824531e-17
-9.25931797e-18
-6.82410382e-18
-9.6793439e-18
-1.0902377e-17
-1.12354016e-17
-9.35809031e-18
-6.97356864e-18
-9.61720627e-18
-7.32600608e-18
-8.7357705e-18
-6.10087354e-18
-1.38486551e-18
-5.23202089e-18
-2.74573633e-18
-6.48290082e-19
4.58460653e-19
1.82616813e-18
3.21786654e-18
7.99360819e-18
5.30211546e-18
4.3749154e-18
7.3111727e-18
3.65382978e-18
7.33033255e-18
4.23547285e-18
1.46177731e-18
5.54058454e-18
7.43082526e-18
1.18254429e-17
1.10027709e-17
1.16398157e-17
1.31467499e-17
1.28182559e-17
1.43592575e-17
1.41724574e-17
1.42159514e-17
1.27563697e-17
1.25164599e-17
1.32246838e-17
1.37922746e-17
1.2830232e-17
1.8572077e-17
1.42552734e-17
1.14652579e-17
1.05693414e-17
1.4264053e-17
1.65248888e-17
1.4172797e-17
1.85873121e-17
1.93696715e-17
1.94036657e-17
2.04844625e-17
2.02628797e-17
1.75419051e-17
1.86466999e-17
2.22590682e-17
2.01037427e-17
2.03598928e-17
1.88800418e-17
2.12234955e-17
2.13788635e-17
1.93848841e-17
2.5815763e-17
2.86934406e-17
2.6698268e-17
2.65822325e-17
2.54208786e-17
2.77796918e-17
2.52408221e-17
2.85927748e-17
2.8639352e-17
3.05768745e-17
2.89231786e-17
3.24248997e-17
3.06583961e-17
3.10859979e-17
3.18585917e-17
3.15475339e-17
3.33341471e-17
3.56827838e-17
3.57619149e-17
3.43025296e-17
3.74877645e-17
3.82248102e-17
3.42690486e-17
3.69752246e-17
3.90608052e-17
3.93444205e-17
3.76242973e-17
3.95184741e-17
3.82842894e-17
4.17961245e-17
4.18923824e-17
4.4275458e-17
4.38896168e-17
4.62476394e-17
4.77176014e-17
4.87064691e-17
4.51049527e-17
4.84122171e-17
4.66271694e-17
5.15444828e-17
5.07259097e-17
5.21749264e-17
5.39251481e-17
5.13964963e-17
5.46356374e-17
5.2842169e-17
5.14619783e-17
5.14865964e-17
5.4113425e-17
5.30449042e-17
5.4890876e-17
5.75203196e-17
5.57679963e-17
5.80368686e-17
5.68596911e-17
5.81255778e-17
5.81865197e-17
6.01213465e-17
6.27569098e-17
5.84089886e-17
5.81998944e-17
5.84050429e-17
5.86276012e-17
6.01909258e-17
5.97473856e-17
6.09828568e-17
6.4669836e-17
6.50737571e-17
6.66865632e-17
6.78956983e-17
6.86992245e-17
6.79212795e-17
6.7005071e-17
6.89089794e-17
7.06567058e-17
6.89917307e-17
7.08654121e-17
7.01948333e-17
7.16119588e-17
7.02154139e-17
6.96783386e-17
6.93410129e-17
7.04598416e-17
6.90390378e-17
6.90920188e-17
7.23947275e-17
6.95960808e-17
6.8730917e-17
6.82045993e-17
7.07635283e-17
7.15399208e-17
7.41463587e-17
6.93077982e-17
7.08949317e-17
7.11443282e-17
7.17264707e-17
7.37935557e-17
7.23000196e-17
7.0012242e-17
7.00023902e-17
7.04150186e-17
7.02643544e-17
7.17313241e-17
7.21033816e-17
6.96143521e-17
6.86444569e-17
7.108417e-17
7.13922264e-17
7.279775e-17
7.61693246e-17
7.4909667e-17
7.62382248e-17
7.86177352e-17
8.29135302e-17
8.34645051e-17
8.30489141e-17
8.34451715e-17
8.23256431e-17
8.4906278e-17
8.58251682e-17
8.53192063e-17
8.64214458e-17
8.73028334e-17
8.87388489e-17
8.98005685e-17
9.3076189e-17
9.39724161e-17
9.58793692e-17
9.63386138e-17
9.89526634e-17
9.99142653e-17
9.92984637e-17
9.48055365e-17
9.79678294e-17
9.68285619e-17
9.85003915e-17
9.61635151e-17
9.32803763e-17
9.41156917e-17
9.42518875e-17
9.53788715e-17
9.6512963e-17
9.99206066e-17
9.8138757e-17
1.00852458e-16
1.01023371e-16
1.01155415e-16
1.01751403e-16
1.0024743e-16
1.00547334e-16
9.79631366e-17
9.91109425e-17
9.8012703e-17
9.84350034e-17
9.75495491e-17
9.68242752e-17
9.40600174e-17
9.74857143e-17
9.79020717e-17
9.56705862e-17
9.65602781e-17
9.6660748e-17
9.75463373e-17
1.02908849e-16
1.02566e-16
9.90721408e-17
1.01402315e-16
9.95311198e-17
9.84329996e-17
1.01295862e-16
1.02851321e-16
1.04188678e-16
1.05901569e-16
1.01045145e-16
9.92134768e-17
1.00839031e-16
1.03801994e-16
1.05774205e-16
1.07606786e-16
1.08411002e-16
1.09516007e-16
1.11769488e-16
1.11569409e-16
1.12188284e-16
1.14701968e-16
1.19777e-16
1.21573647e-16