/*--------------------------------*- C++ -*----------------------------------*\
| =========                 |                                                 |
| \\      /  F ield         | OpenFOAM: The Open Source CFD Toolbox           |
|  \\    /   O peration     | Version:  2206                                  |
|   \\  /    A nd           | Website:  www.openfoam.com                      |
|    \\/     M anipulation  |                                                 |
\*---------------------------------------------------------------------------*/
FoamFile
{
    version     2.0;
    format      ascii;
    arch        "LSB;label=32;scalar=64";
    class       volScalarField;
    location    "1.04e-05";
    object      rho;
}
// * * * * * * * * * * * * * * * * * * * * * * * * * * * * * * * * * * * * * //

dimensions      [1 -3 0 0 0 0 0];

internalField   nonuniform List<scalar> 
3183
(
1.03926466
1.03926466
1.03926466
1.03926466
1.03926466
1.03926466
1.03926466
1.03926466
1.03926466
1.03926466
1.03926466
1.03926466
1.03926466
1.03926466
1.03926466
1.03926466
1.03926466
1.03926466
1.03926466
1.03926466
1.03926466
1.03926466
1.03926466
1.03926466
1.03926466
1.03926466
1.03926466
1.03926466
1.03926466
1.03926466
1.03926466
1.03926466
1.03926466
1.03926466
1.03926466
1.03926466
1.03926466
1.03926466
1.03926466
1.03926466
1.03926466
1.03926466
1.03926466
1.03926466
1.03926466
1.03926466
1.03926466
1.03926466
1.03926466
1.03926466
1.03926466
1.03926466
1.03926466
1.03926466
1.03926466
1.03926466
1.03926466
1.03926466
1.03926466
1.03926466
1.03926466
1.03926466
1.03926466
1.03926466
1.03926466
1.03926466
1.03926466
1.03926466
1.03926466
1.03926466
1.03926466
1.03926466
1.03926466
1.03926466
1.03926466
1.03926466
1.03926466
1.03926466
1.03926466
1.03926466
1.03926466
1.03926466
1.03926466
1.03926466
1.03926466
1.03926466
1.03926466
1.03926466
1.03926466
1.03926466
1.03926466
1.03926466
1.03926466
1.03926466
1.03926466
1.03926466
1.03926466
1.03926466
1.03926466
1.03926466
1.03926466
1.03926466
1.03926466
1.03926466
1.03926466
1.03926466
1.03926466
1.03926466
1.03926466
1.03926466
1.03926466
1.03926466
1.03926466
1.03926466
1.03926466
1.03926466
1.03926466
1.03926466
1.03926466
1.03926466
1.03926466
1.03926466
1.03926466
1.03926466
1.03926466
1.03926466
1.03926466
1.03926466
1.03926466
1.03926466
1.03926466
1.03926466
1.03926466
1.03926466
1.03926466
1.03926466
1.03926466
1.03926466
1.03926466
1.03926466
1.03926466
1.03926466
1.03926466
1.03926466
1.03926466
1.03926466
1.03926466
1.03926466
1.03926466
1.03926466
1.03926466
1.03926466
1.03926466
1.03926466
1.03926466
1.03926466
1.03926466
1.03926466
1.03926466
1.03926466
1.03926466
1.03926466
1.03926466
1.03926466
1.03926466
1.03926466
1.03926466
1.03926466
1.03926466
1.03926466
1.03926466
1.03926466
1.03926466
1.03926466
1.03926466
1.03926466
1.03926466
1.03926466
1.03926466
1.03926466
1.03926466
1.03926466
1.03926466
1.03926466
1.03926466
1.03926466
1.03926466
1.03926466
1.03926466
1.03926466
1.03926466
1.03926466
1.03926466
1.03926466
1.03926466
1.03926466
1.03926466
1.03926466
1.03926466
1.03926466
1.03926466
1.03926466
1.03926466
1.03926466
1.03926466
1.03926466
1.03926466
1.03926466
1.03926466
1.03926466
1.03926466
1.03926466
1.03926466
1.03926466
1.03926466
1.03926466
1.03926466
1.03926466
1.03926466
1.03926466
1.03926466
1.03926466
1.03926466
1.03926466
1.03926466
1.03926466
1.03926466
1.03926466
1.03926466
1.03926466
1.03926466
1.03926466
1.03926466
1.03926466
1.03926466
1.03926466
1.03926466
1.03926466
1.03926466
1.03926466
1.03926466
1.03926466
1.03926466
1.03926466
1.03926466
1.03926466
1.03926466
1.03926466
1.03926466
1.03926466
1.03926466
1.03926466
1.03926466
1.03926466
1.03926466
1.03926466
1.03926466
1.03926466
1.03926466
1.03926466
1.03926466
1.03926466
1.03926466
1.03926466
1.03926466
1.03926466
1.03926466
1.03926466
1.03926466
1.03926466
1.03926466
1.03926466
1.03926466
1.03926466
1.03926466
1.03926466
1.03926466
1.03926466
1.03926466
1.03926466
1.03926466
1.03926466
1.03926466
1.03926466
1.03926466
1.03926466
1.03926466
1.03926466
1.03926466
1.03926466
1.03926466
1.03926466
1.03926466
1.03926466
1.03926466
1.03926466
1.03926466
1.03926466
1.03926466
1.03926466
1.03926466
1.03926466
1.03926466
1.03926466
1.03926466
1.03926466
1.03926466
1.03926466
1.03926466
1.03926466
1.03926466
1.03926466
1.03926466
1.03926466
1.03926466
1.03926466
1.03926466
1.03926466
1.03926466
1.03926466
1.03926466
1.03926466
1.03926466
1.03926466
1.03926466
1.03926466
1.03926466
1.03926466
1.03926466
1.03926466
1.03926466
1.03926466
1.03926466
1.03926466
1.03926466
1.03926466
1.03926466
1.03926466
1.03926466
1.03926466
1.03926466
1.03926466
1.03926466
1.03926466
1.03926466
1.03926466
1.03926466
1.03926466
1.03926466
1.03926466
1.03926466
1.03926466
1.03926466
1.03926466
1.03926466
1.03926466
1.03926466
1.03926466
1.03926466
1.03926466
1.03926466
1.03926466
1.03926466
1.03926466
1.03926466
1.03926466
1.03926466
1.03926466
1.03926466
1.03926466
1.03926466
1.03926466
1.03926466
1.03926466
1.03926466
1.03926466
1.03926466
1.03926466
1.03926466
1.03926466
1.03926466
1.03926466
1.03926466
1.03926466
1.03926466
1.03926466
1.03926466
1.03926466
1.03926466
1.03926466
1.03926466
1.03926466
1.03926466
1.03926466
1.03926466
1.03926466
1.03926466
1.03926466
1.03926466
1.03926466
1.03926466
1.03926466
1.03926466
1.03926466
1.03926466
1.03926466
1.03926466
1.03926466
1.03926466
1.03926466
1.03926466
1.03926466
1.03926466
1.03926466
1.03926466
1.03926466
1.03926466
1.03926466
1.03926466
1.03926466
1.03926466
1.03926466
1.03926466
1.03926466
1.03926466
1.03926466
1.03926466
1.03926466
1.03926466
1.03926466
1.03926466
1.03926466
1.03926466
1.03926466
1.03926466
1.03926466
1.03926466
1.03926466
1.03926466
1.03926466
1.03926466
1.03926466
1.03926466
1.03926466
1.03926466
1.03926466
1.03926466
1.03926466
1.03926466
1.03926466
1.03926466
1.03926466
1.03926466
1.03926466
1.03926466
1.03926466
1.03926466
1.03926466
1.03926466
1.03926466
1.03926466
1.03926466
1.03926466
1.03926466
1.03926466
1.03926466
1.03926466
1.03926466
1.03926466
1.03926466
1.03926466
1.03926466
1.03926466
1.03926466
1.03926466
1.03926466
1.03926466
1.03926466
1.03926466
1.03926466
1.03926466
1.03926466
1.03926466
1.03926466
1.03926466
1.03926466
1.03926466
1.03926466
1.03926466
1.03926466
1.03926466
1.03926466
1.03926466
1.03926466
1.03926466
1.03926466
1.03926466
1.03926466
1.03926466
1.03926466
1.03926466
1.03926466
1.03926466
1.03926466
1.03926466
1.03926466
1.03926466
1.03926466
1.03926466
1.03926466
1.03926466
1.03926466
1.03926466
1.03926466
1.03926466
1.03926466
1.03926466
1.03926466
1.03926466
1.03926466
1.03926466
1.03926466
1.03926466
1.03926466
1.03926466
1.03926466
1.03926466
1.03926466
1.03926466
1.03926466
1.03926466
1.03926466
1.03926466
1.03926466
1.03926466
1.03926466
1.03926466
1.03926466
1.03926466
1.03926466
1.03926466
1.03926466
1.03926466
1.03926466
1.03926466
1.03926466
1.03926466
1.03926466
1.03926466
1.03926466
1.03926466
1.03926466
1.03926466
1.03926466
1.03926466
1.03926466
1.03926466
1.03926466
1.03926466
1.03926466
1.03926466
1.03926466
1.03926466
1.03926466
1.03926466
1.03926466
1.03926466
1.03926466
1.03926466
1.03926466
1.03926466
1.03926466
1.03926466
1.03926466
1.03926466
1.03926466
1.03926466
1.03926466
1.03926466
1.03926466
1.03926466
1.03926466
1.03926466
1.03926466
1.03926466
1.03926466
1.03926466
1.03926466
1.03926466
1.03926466
1.03926466
1.03926466
1.03926466
1.03926466
1.03926466
1.03926466
1.03926466
1.03926466
1.03926466
1.03926466
1.03926466
1.03926466
1.03926466
1.03926466
1.03926466
1.03926466
1.03926466
1.03926466
1.03926466
1.03926466
1.03926466
1.03926466
1.03926466
1.03926466
1.03926466
1.03926466
1.03926466
1.03926466
1.03926466
1.03926466
1.03926466
1.03926466
1.03926466
1.03926466
1.03926466
1.03926466
1.03926466
1.03926466
1.03926466
1.03926466
1.03926466
1.03926466
1.03926466
1.03926466
1.03926466
1.03926466
1.03926466
1.03926466
1.03926466
1.03926466
1.03926466
1.03926466
1.03926466
1.03926466
1.03926466
1.03926466
1.03926466
1.03926466
1.03926466
1.03926466
1.03926466
1.03926466
1.03926466
1.03926466
1.03926466
1.03926466
1.03926466
1.03926466
1.03926466
1.03926466
1.03926466
1.03926466
1.03926466
1.03926466
1.03926466
1.03926466
1.03926466
1.03926466
1.03926466
1.03926466
1.03926466
1.03926466
1.03926466
1.03926466
1.03926466
1.03926466
1.03926466
1.03926466
1.03926466
1.03926466
1.03926466
1.03926466
1.03926466
1.03926466
1.03926466
1.03926466
1.03926466
1.03926466
1.03926466
1.03926466
1.03926466
1.03926466
1.03926466
1.03926466
1.03926466
1.03926466
1.03926466
1.03926466
1.03926466
1.03926466
1.03926466
1.03926466
1.03926466
1.03926466
1.03926466
1.03926466
1.03926466
1.03926466
1.03926466
1.03926466
1.03926466
1.03926466
1.03926466
1.03926466
1.03926466
1.03926466
1.03926466
1.03926466
1.03926466
1.03926466
1.03926466
1.03926466
1.03926466
1.03926466
1.03926466
1.03926466
1.03926466
1.03926466
1.03926466
1.03926466
1.03926466
1.03926466
1.03926466
1.03926466
1.03926466
1.03926466
1.03926466
1.03926466
1.03926466
1.03926466
1.03926466
1.03926466
1.03926466
1.03926466
1.03926466
1.03926466
1.03926466
1.03926466
1.03926466
1.03926466
1.03926466
1.03926466
1.03926466
1.03926466
1.03926466
1.03926466
1.03926466
1.03926466
1.03926466
1.03926466
1.03926466
1.03926466
1.03926466
1.03926466
1.03926466
1.03926466
1.03926466
1.03926466
1.03926466
1.03926466
1.03926466
1.03926466
1.03926466
1.03926466
1.03926466
1.03926466
1.03926466
1.03926466
1.03926466
1.03926466
1.03926466
1.03926466
1.03926466
1.03926466
1.03926466
1.03926466
1.03926466
1.03926466
1.03926466
1.03926466
1.03926466
1.03926466
1.03926466
1.03926466
1.03926466
1.03926466
1.03926466
1.03926466
1.03926466
1.03926466
1.03926466
1.03926466
1.03926466
1.03926466
1.03926466
1.03926466
1.03926466
1.03926466
1.03926466
1.03926466
1.03926466
1.03926466
1.03926466
1.03926466
1.03926466
1.03926466
1.03926466
1.03926466
1.03926466
1.03926466
1.03926466
1.03926466
1.03926466
1.03926466
1.03926466
1.03926466
1.03926466
1.03926466
1.03926466
1.03926466
1.03926466
1.03926466
1.03926466
1.03926466
1.03926466
1.03926466
1.03926466
1.03926466
1.03926466
1.03926466
1.03926466
1.03926466
1.03926466
1.03926466
1.03926466
1.03926466
1.03926466
1.03926466
1.03926466
1.03926466
1.03926466
1.03926466
1.03926466
1.03926466
1.03926466
1.03926466
1.03926466
1.03926466
1.03926466
1.03926466
1.03926466
1.03926466
1.03926466
1.03926466
1.03926466
1.03926466
1.03926466
1.03926466
1.03926466
1.03926466
1.03926466
1.03926466
1.03926466
1.03926466
1.03926466
1.03926466
1.03926466
1.03926466
1.03926466
1.03926466
1.03926466
1.03926466
1.03926466
1.03926466
1.03926466
1.03926466
1.03926466
1.03926466
1.03926466
1.03926466
1.03926466
1.03926466
1.03926466
1.03926466
1.03926466
1.03926466
1.03926466
1.03926466
1.03926466
1.03926466
1.03926466
1.03926466
1.03926466
1.03926466
1.03926466
1.03926466
1.03926466
1.03926466
1.03926466
1.03926466
1.03926466
1.03926466
1.03926466
1.03926466
1.03926466
1.03926466
1.03926466
1.03926466
1.03926466
1.03926466
1.03926466
1.03926466
1.03926466
1.03926466
1.03926466
1.03926466
1.03926466
1.03926466
1.03926466
1.03926466
1.03926466
1.03926466
1.03926466
1.03926466
1.03926466
1.03926466
1.03926466
1.03926466
1.03926466
1.03926466
1.03926466
1.03926466
1.03926466
1.03926466
1.03926466
1.03926466
1.03926466
1.03926466
1.03926466
1.03926466
1.03926466
1.03926466
1.03926466
1.03926466
1.03926466
1.03926466
1.03926466
1.03926466
1.03926466
1.03926466
1.03926466
1.03926466
1.03926466
1.03926466
1.03926466
1.03926466
1.03926466
1.03926466
1.03926466
1.03926466
1.03926466
1.03926466
1.03926466
1.03926466
1.03926466
1.03926466
1.03926466
1.03926466
1.03926466
1.03926466
1.03926466
1.03926466
1.03926466
1.03926466
1.03926466
1.03926466
1.03926466
1.03926466
1.03926466
1.03926466
1.03926466
1.03926466
1.03926466
1.03926466
1.03926466
1.03926466
1.03926466
1.03926466
1.03926466
1.03926466
1.03926466
1.03926466
1.03926466
1.03926466
1.03926466
1.03926466
1.03926466
1.03926466
1.03926466
1.03926466
1.03926466
1.03926466
1.03926466
1.03926466
1.03926466
1.03926466
1.03926466
1.03926466
1.03926466
1.03926466
1.03926466
1.03926466
1.03926466
1.03926466
1.03926466
1.03926466
1.03926466
1.03926466
1.03926466
1.03926466
1.03926466
1.03926466
1.03926466
1.03926466
1.03926466
1.03926466
1.03926466
1.03926466
1.03926466
1.03926466
1.03926466
1.03926466
1.03926466
1.03926466
1.03926466
1.03926466
1.03926466
1.03926466
1.03926466
1.03926466
1.03926466
1.03926466
1.03926466
1.03926466
1.03926466
1.03926466
1.03926466
1.03926466
1.03926466
1.03926466
1.03926466
1.03926466
1.03926466
1.03926466
1.03926466
1.03926466
1.03926466
1.03926466
1.03926466
1.03926466
1.03926466
1.03926466
1.03926466
1.03926466
1.03926466
1.03926466
1.03926466
1.03926466
1.03926466
1.03926466
1.03926466
1.03926466
1.03926466
1.03926466
1.03926466
1.03926466
1.03926466
1.03926466
1.03926466
1.03926466
1.03926466
1.03926466
1.03926466
1.03926466
1.03926466
1.03926466
1.03926466
1.03926466
1.03926466
1.03926466
1.03926466
1.03926466
1.03926466
1.03926466
1.03926466
1.03926466
1.03926466
1.03926466
1.03926466
1.03926466
1.03926466
1.03926466
1.03926466
1.03926466
1.03926466
1.03926466
1.03926466
1.03926466
1.03926466
1.03926466
1.03926466
1.03926466
1.03926466
1.03926466
1.03926466
1.03926466
1.03926466
1.03926466
1.03926466
1.03926466
1.03926466
1.03926466
1.03926466
1.03926466
1.03926466
1.03926466
1.03926466
1.03926466
1.03926466
1.03926466
1.03926466
1.03926466
1.03926466
1.03926466
1.03926466
1.03926466
1.03926466
1.03926466
1.03926466
1.03926466
1.03926466
1.03926466
1.03926466
1.03926466
1.03926466
1.03926466
1.03926466
1.03926466
1.03926466
1.03926466
1.03926466
1.03926466
1.03926466
1.03926466
1.03926466
1.03926466
1.03926466
1.03926466
1.03926466
1.03926466
1.03926466
1.03926466
1.03926466
1.03926466
1.03926466
1.03926466
1.03926466
1.03926466
1.03926466
1.03926466
1.03926466
1.03926466
1.03926466
1.03926466
1.03926466
1.03926466
1.03926466
1.03926466
1.03926466
1.03926466
1.03926466
1.03926466
1.03926466
1.03926466
1.03926466
1.03926466
1.03926466
1.03926466
1.03926466
1.03926466
1.03926466
1.03926466
1.03926466
1.03926466
1.03926466
1.03926466
1.03926466
1.03926466
1.03926466
1.03926466
1.03926466
1.03926466
1.03926466
1.03926466
1.03926466
1.03926466
1.03926466
1.03926466
1.03926466
1.03926466
1.03926466
1.03926466
1.03926466
1.03926466
1.03926466
1.03926466
1.03926466
1.03926466
1.03926466
1.03926466
1.03926466
1.03926466
1.03926466
1.03926466
1.03926466
1.03926466
1.03926466
1.03926466
1.03926466
1.03926466
1.03926466
1.03926466
1.03926466
1.03926466
1.03926466
1.03926466
1.03926466
1.03926466
1.03926466
1.03926466
1.03926466
1.03926466
1.03926466
1.03926466
1.03926466
1.03926466
1.03926466
1.03926466
1.03926466
1.03926466
1.03926466
1.03926466
1.03926466
1.03926466
1.03926466
1.03926466
1.03926466
1.03926466
1.03926466
1.03926466
1.03926466
1.03926466
1.03926466
1.03926466
1.03926466
1.03926466
1.03926466
1.03926466
1.03926466
1.03926466
1.03926466
1.03926466
1.03926466
1.03926466
1.03926466
1.03926466
1.03926466
1.03926466
1.03926466
1.03926466
1.03926466
1.03926466
1.03926466
1.03926466
1.03926466
1.03926466
1.03926466
1.03926466
1.03926466
1.03926466
1.03926466
1.03926466
1.03926466
1.03926466
1.03926466
1.03926466
1.03926466
1.03926466
1.03926466
1.03926466
1.03926466
1.03926466
1.03926466
1.03926466
1.03926466
1.03926466
1.03926466
1.03926466
1.03926466
1.03926466
1.03926466
1.03926466
1.03926466
1.03926466
1.03926466
1.03926466
1.03926466
1.03926466
1.03926466
1.03926466
1.03926466
1.03926466
1.03926466
1.03926466
1.03926466
1.03926466
1.03926466
1.03926466
1.03926466
1.03926466
1.03926466
1.03926466
1.03926466
1.03926466
1.03926466
1.03926466
1.03926466
1.03926466
1.03926466
1.03926466
1.03926466
1.03926466
1.03926466
1.03926466
1.03926466
1.03926466
1.03926466
1.03926466
1.03926466
1.03926466
1.03926466
1.03926466
1.03926466
1.03926466
1.03926466
1.03926466
1.03926466
1.03926466
1.03926466
1.03926466
1.03926466
1.03926466
1.03926466
1.03926466
1.03926466
1.03926466
1.03926466
1.03926466
1.03926466
1.03926466
1.03926466
1.03926466
1.03926466
1.03926466
1.03926466
1.03926466
1.03926466
1.03926466
1.03926466
1.03926466
1.03926466
1.03926466
1.03926466
1.03926466
1.03926466
1.03926466
1.03926466
1.03926466
1.03926466
1.03926466
1.03926466
1.03926466
1.03926466
1.03926466
1.03926466
1.03926466
1.03926466
1.03926466
1.03926466
1.03926466
1.03926466
1.03926466
1.03926466
1.03926466
1.03926466
1.03926466
1.03926466
1.03926466
1.03926466
1.03926466
1.03926466
1.03926466
1.03926466
1.03926466
1.03926466
1.03926466
1.03926466
1.03926466
1.03926466
1.03926466
1.03926466
1.03926466
1.03926466
1.03926466
1.03926466
1.03926466
1.03926466
1.03926466
1.03926466
1.03926466
1.03926466
1.03926466
1.03926466
1.03926466
1.03926466
1.03926466
1.03926466
1.03926466
1.03926466
1.03926466
1.03926466
1.03926466
1.03926466
1.03926466
1.03926466
1.03926466
1.03926466
1.03926466
1.03926466
1.03926466
1.03926466
1.03926466
1.03926466
1.03926466
1.03926466
1.03926466
1.03926466
1.03926466
1.03926466
1.03926466
1.03926466
1.03926466
1.03926466
1.03926466
1.03926466
1.03926466
1.03926466
1.03926466
1.03926466
1.03926466
1.03926466
1.03926466
1.03926466
1.03926466
1.03926466
1.03926466
1.03926466
1.03926466
1.03926466
1.03926466
1.03926466
1.03926466
1.03926466
1.03926466
1.03926466
1.03926466
1.03926466
1.03926466
1.03926466
1.03926466
1.03926466
1.03926466
1.03926466
1.03926466
1.03926466
1.03926466
1.03926466
1.03926466
1.03926466
1.03926466
1.03926466
1.03926466
1.03926466
1.03926466
1.03926466
1.03926466
1.03926466
1.03926466
1.03926466
1.03926466
1.03926466
1.03926466
1.03926466
1.03926466
1.03926466
1.03926466
1.03926466
1.03926466
1.03926466
1.03926466
1.03926466
1.03926466
1.03926466
1.03926466
1.03926466
1.03926466
1.03926466
1.03926466
1.03926466
1.03926466
1.03926466
1.03926466
1.03926466
1.03926466
1.03926466
1.03926466
1.03926466
1.03926466
1.03926466
1.03926466
1.03926466
1.03926466
1.03926466
1.03926466
1.03926466
1.03926466
1.03926466
1.03926466
1.03926466
1.03926466
1.03926466
1.03926466
1.03926466
1.03926466
1.03926466
1.03926466
1.03926466
1.03926466
1.03926466
1.03926466
1.03926466
1.03926466
1.03926466
1.03926466
1.03926466
1.03926466
1.03926466
1.03926466
1.03926466
1.03926466
1.03926466
1.03926466
1.03926466
1.03926466
1.03926466
1.03926466
1.03926466
1.03926466
1.03926466
1.03926466
1.03926466
1.03926466
1.03926466
1.03926466
1.03926466
1.03926466
1.03926466
1.03926466
1.03926466
1.03926466
1.03926466
1.03926466
1.03926466
1.03926466
1.03926466
1.03926466
1.03926466
1.03926466
1.03926466
1.03926466
1.03926466
1.03926466
1.03926466
1.03926466
1.03926466
1.03926466
1.03926466
1.03926466
1.03926466
1.03926466
1.03926466
1.03926466
1.03926466
1.03926466
1.03926466
1.03926466
1.03926466
1.03926466
1.03926466
1.03926466
1.03926466
1.03926466
1.03926466
1.03926466
1.03926466
1.03926466
1.03926466
1.03926466
1.03926466
1.03926466
1.03926466
1.03926466
1.03926466
1.03926466
1.03926466
1.03926466
1.03926466
1.03926466
1.03926466
1.03926466
1.03926466
1.03926466
1.03926466
1.03926466
1.03926466
1.03926466
1.03926466
1.03926466
1.03926466
1.03926466
1.03926466
1.03926466
1.03926466
1.03926466
1.03926466
1.03926466
1.03926466
1.03926466
1.03926466
1.03926466
1.03926466
1.03926466
1.03926466
1.03926466
1.03926466
1.03926466
1.03926466
1.03926466
1.03926466
1.03926466
1.03926466
1.03926466
1.03926466
1.03926466
1.03926466
1.03926466
1.03926466
1.03926466
1.03926466
1.03926466
1.03926466
1.03926466
1.03926466
1.03926466
1.03926466
1.03926466
1.03926466
1.03926466
1.03926466
1.03926466
1.03926466
1.03926466
1.03926466
1.03926466
1.03926466
1.03926466
1.03926466
1.03926466
1.03926466
1.03926466
1.03926466
1.03926466
1.03926466
1.03926466
1.03926466
1.03926466
1.03926466
1.03926466
1.03926466
1.03926466
1.03926466
1.03926466
1.03926466
1.03926466
1.03926466
1.03926466
1.03926466
1.03926466
1.03926466
1.03926466
1.03926466
1.03926466
1.03926466
1.03926466
1.03926466
1.03926466
1.03926466
1.03926466
1.03926466
1.03926466
1.03926466
1.03926466
1.03926466
1.03926466
1.03926466
1.03926466
1.03926466
1.03926466
1.03926466
1.03926466
1.03926466
1.03926466
1.03926466
1.03926466
1.03926466
1.03926466
1.03926466
1.03926466
1.03926466
1.03926466
1.03926466
1.03926466
1.03926466
1.03926466
1.03926466
1.03926466
1.03926466
1.03926466
1.03926466
1.03926466
1.03926466
1.03926466
1.03926466
1.03926466
1.03926466
1.03926466
1.03926466
1.03926466
1.03926466
1.03926466
1.03926466
1.03926466
1.03926466
1.03926466
1.03926466
1.03926466
1.03926466
1.03926466
1.03926466
1.03926466
1.03926466
1.03926466
1.03926466
1.03926466
1.03926466
1.03926466
1.03926466
1.03926466
1.03926466
1.03926466
1.03926466
1.03926466
1.03926466
1.03926466
1.03926466
1.03926466
1.03926466
1.03926466
1.03926466
1.03926466
1.03926466
1.03926466
1.03926466
1.03926466
1.03926466
1.03926466
1.03926466
1.03926466
1.03926466
1.03926466
1.03926466
1.03926466
1.03926466
1.03926466
1.03926466
1.03926466
1.03926466
1.03926466
1.03926466
1.03926466
1.03926466
1.03926466
1.03926466
1.03926466
1.03926466
1.03926466
1.03926466
1.03926466
1.03926466
1.03926466
1.03926466
1.03926466
1.03926466
1.03926466
1.03926466
1.03926466
1.03926466
1.03926466
1.03926466
1.03926466
1.03926466
1.03926466
1.03926466
1.03926466
1.03926466
1.03926466
1.03926466
1.03926466
1.03926466
1.03926466
1.03926466
1.03926466
1.03926466
1.03926466
1.03926466
1.03926466
1.03926466
1.03926466
1.03926466
1.03926466
1.03926466
1.03926466
1.03926466
1.03926466
1.03926466
1.03926466
1.03926466
1.03926466
1.03926466
1.03926466
1.03926466
1.03926466
1.03926466
1.03926466
1.03926466
1.03926466
1.03926466
1.03926466
1.03926466
1.03926466
1.03926466
1.03926466
1.03926466
1.03926466
1.03926466
1.03926466
1.03926466
1.03926466
1.03926466
1.03926466
1.03926466
1.03926466
1.03926466
1.03926466
1.03926466
1.03926466
1.03926466
1.03926466
1.03926466
1.03926466
1.03926466
1.03926466
1.03926466
1.03926466
1.03926466
1.03926466
1.03926466
1.03926466
1.03926466
1.03926466
1.03926466
1.03926466
1.03926466
1.03926466
1.03926466
1.03926466
1.03926466
1.03926466
1.03926466
1.03926466
1.03926466
1.03926466
1.03926466
1.03926466
1.03926466
1.03926466
1.03926466
1.03926466
1.03926466
1.03926466
1.03926466
1.03926466
1.03926466
1.03926466
1.03926466
1.03926466
1.03926466
1.03926466
1.03926466
1.03926466
1.03926466
1.03926466
1.03926466
1.03926466
1.03926466
1.03926466
1.03926466
1.03926466
1.03926466
1.03926466
1.03926466
1.03926466
1.03926466
1.03926466
1.03926466
1.03926466
1.03926466
1.03926466
1.03926466
1.03926466
1.03926466
1.03926466
1.03926466
1.03926466
1.03926466
1.03926466
1.03926466
1.03926466
1.03926466
1.03926466
1.03926466
1.03926466
1.03926466
1.03926466
1.03926466
1.03926466
1.03926466
1.03926466
1.03926466
1.03926466
1.03926466
1.03926466
1.03926466
1.03926466
1.03926466
1.03926466
1.03926466
1.03926466
1.03926466
1.03926466
1.03926466
1.03926466
1.03926466
1.03926466
1.03926466
1.03926466
1.03926466
1.03926466
1.03926466
1.03926466
1.03926466
1.03926466
1.03926466
1.03926466
1.03926466
1.03926466
1.03926466
1.03926466
1.03926466
1.03926466
1.03926466
1.03926466
1.03926466
1.03926466
1.03926466
1.03926466
1.03926466
1.03926466
1.03926466
1.03926466
1.03926466
1.03926466
1.03926466
1.03926466
1.03926466
1.03926466
1.03926466
1.03926466
1.03926466
1.03926466
1.03926466
1.03926466
1.03926466
1.03926466
1.03926466
1.03926466
1.03926465
1.03926465
1.03926465
1.03926465
1.03926465
1.03926465
1.03926465
1.03926465
1.03926465
1.03926465
1.03926465
1.03926465
1.03926465
1.03926464
1.03926464
1.03926464
1.03926464
1.03926464
1.03926464
1.03926464
1.03926463
1.03926463
1.03926463
1.03926463
1.03926462
1.03926462
1.03926462
1.03926462
1.03926461
1.03926461
1.03926461
1.0392646
1.0392646
1.03926459
1.03926459
1.03926458
1.03926458
1.03926457
1.03926457
1.03926456
1.03926456
1.03926455
1.03926454
1.03926453
1.03926452
1.03926452
1.03926451
1.0392645
1.03926449
1.03926447
1.03926446
1.03926445
1.03926444
1.03926442
1.03926441
1.03926439
1.03926437
1.03926436
1.03926434
1.03926432
1.0392643
1.03926427
1.03926425
1.03926422
1.0392642
1.03926417
1.03926414
1.03926411
1.03926408
1.03926404
1.039264
1.03926396
1.03926392
1.03926388
1.03926383
1.03926379
1.03926373
1.03926368
1.03926362
1.03926356
1.0392635
1.03926344
1.03926337
1.03926329
1.03926321
1.03926313
1.03926305
1.03926296
1.03926286
1.03926276
1.03926266
1.03926255
1.03926243
1.03926231
1.03926219
1.03926205
1.03926191
1.03926176
1.03926161
1.03926145
1.03926128
1.0392611
1.03926091
1.03926072
1.03926052
1.0392603
1.03926008
1.03925984
1.0392596
1.03925934
1.03925908
1.0392588
1.0392585
1.0392582
1.03925788
1.03925755
1.0392572
1.03925684
1.03925646
1.03925606
1.03925565
1.03925522
1.03925478
1.03925431
1.03925383
1.03925332
1.0392528
1.03925225
1.03925169
1.0392511
1.03925048
1.03924984
1.03924918
1.0392485
1.03924778
1.03924704
1.03924627
1.03924548
1.03924465
1.03924379
1.03924291
1.03924199
1.03924103
1.03924005
1.03923903
1.03923798
1.03923689
1.03923576
1.03923459
1.03923339
1.03923215
1.03923087
1.03922955
1.03922818
1.03922677
1.03922532
1.03922383
1.03922229
1.03922071
1.03921907
1.0392174
1.03921567
1.0392139
1.03921207
1.0392102
1.03920828
1.0392063
1.03920428
1.0392022
1.03920007
1.03919789
1.03919565
1.03919336
1.03919102
1.03918862
1.03918616
1.03918366
1.0391811
1.03917848
1.03917581
1.03917308
1.0391703
1.03916747
1.03916458
1.03916164
1.03915864
1.03915559
1.03915249
1.03914934
1.03914613
1.03914288
1.03913958
1.03913622
1.03913282
1.03912938
1.03912589
1.03912235
1.03911878
1.03911516
1.0391115
1.03910781
1.03910408
1.03910031
1.03909651
1.03909268
1.03908883
1.03908495
1.03908104
1.03907711
1.03907316
1.0390692
1.03906522
1.03906123
1.03905723
1.03905322
1.03904921
1.0390452
1.0390412
1.0390372
1.0390332
1.03902922
1.03902526
1.03902131
1.03901738
1.03901348
1.03900961
1.03900577
1.03900196
1.03899819
1.03899446
1.03899078
1.03898714
1.03898356
1.03898003
1.03897656
1.03897315
1.0389698
1.03896652
1.03896331
1.03896018
1.03895712
1.03895415
1.03895125
1.03894844
1.03894572
1.03894309
1.03894055
1.03893811
1.03893577
1.03893353
1.03893138
1.03892935
1.03892741
1.03892559
1.03892387
1.03892227
1.03892077
1.03891939
1.03891812
1.03891697
1.03891593
1.038915
1.0389142
1.0389135
1.03891292
1.03891246
1.03891211
1.03891188
1.03891176
1.03891175
1.03891185
1.03891207
1.03891239
1.03891282
1.03891335
1.03891399
1.03891473
1.03891557
1.03891651
1.03891754
1.03891867
1.03891989
1.03892119
1.03892258
1.03892404
1.03892559
1.03892721
1.03892891
1.03893067
1.0389325
1.03893439
1.03893634
1.03893834
1.0389404
1.0389425
1.03894465
1.03894684
1.03894906
1.03895132
1.03895361
1.03895593
1.03895827
1.03896063
1.03896301
1.0389654
1.0389678
1.0389702
1.03897261
1.03897502
1.03897743
1.03897983
1.03898223
1.03898461
1.03898698
1.03898933
1.03899167
1.03899398
1.03899627
1.03899854
1.03900078
1.03900299
1.03900517
1.03900732
1.03900943
1.03901151
1.03901356
1.03901557
1.03901754
1.03901947
1.03902136
1.03902321
1.03902502
1.03902679
1.03902852
1.03903021
1.03903186
1.03903346
1.03903503
1.03903655
1.03903803
1.03903948
1.03904088
1.03904224
1.03904356
1.03904485
1.03904609
1.0390473
1.03904847
1.03904961
1.03905071
1.03905178
1.03905281
1.03905382
1.03905479
1.03905573
1.03905664
1.03905752
1.03905837
1.0390592
1.03906
1.03906077
1.03906152
1.03906225
1.03906295
1.03906364
1.0390643
1.03906494
1.03906556
1.03906616
1.03906674
1.03906731
1.03906786
1.03906839
1.03906891
1.03906941
1.0390699
1.03907037
1.03907083
1.03907128
1.03907171
1.03907214
1.03907255
1.03907295
1.03907335
1.03907373
1.0390741
1.03907447
1.03907483
1.03907518
1.03907553
1.03907586
1.0390762
1.03907653
1.03907685
1.03907717
1.03907749
1.03907781
1.03907812
1.03907843
1.03907875
1.03907906
1.03907938
1.0390797
1.03908002
1.03908034
1.03908067
1.03908101
1.03908134
1.03908169
1.03908204
1.0390824
1.03908277
1.03908315
1.03908354
1.03908394
1.03908434
1.03908476
1.03908519
1.03908563
1.03908608
1.03908654
1.03908701
1.0390875
1.039088
1.0390885
1.03908902
1.03908955
1.03909009
1.03909064
1.03909119
1.03909176
1.03909233
1.03909291
1.03909349
1.03909408
1.03909468
1.03909527
1.03909587
1.03909647
1.03909707
1.03909766
1.03909825
1.03909884
1.03909943
1.03910001
1.03910058
1.03910114
1.03910169
1.03910223
1.03910276
1.03910328
1.03910378
1.03910427
1.03910475
1.03910521
1.03910565
1.03910608
1.03910649
1.03910688
1.03910726
1.03910762
1.03910797
1.03910829
1.0391086
1.0391089
1.03910918
1.03910944
1.03910969
1.03910993
1.03911015
1.03911036
1.03911055
1.03911074
1.03911091
1.03911108
1.03911124
1.03911139
1.03911153
1.03911166
1.03911179
1.03911191
1.03911203
1.03911215
1.03911226
1.03911237
1.03911247
1.03911257
1.03911267
1.03911277
1.03911286
1.03911295
1.03911304
1.03911312
1.0391132
1.03911327
1.03911334
1.03911341
1.03911346
1.03911351
1.03911355
1.03911358
1.0391136
1.0391136
1.03911359
1.03911357
1.03911353
1.03911347
1.03911339
1.0391133
1.03911318
1.03911303
1.03911286
1.03911267
1.03911245
1.0391122
1.03911193
1.03911163
1.0391113
1.03911095
1.03911058
1.03911019
1.03910978
1.03910936
1.03910894
1.03910851
1.0391081
1.03910771
1.03910734
1.03910702
1.03910676
1.03910657
1.03910648
1.03910649
1.03910663
1.03910693
1.03910739
1.03910804
1.0391089
1.03910999
1.03911131
1.03911287
1.03911467
1.0391167
1.03911894
1.03912134
1.03912386
1.03912642
1.03912893
1.03913127
1.03913336
1.03913499
1.03913752
1.03913786
1.0391966
1.03919515
1.04099024
1.04099295
0.923193735
0.921849553
0.407758733
0.377417131
0.300854659
0.294354183
0.273457563
0.271813943
0.265219999
0.264897525
0.26323742
0.263197096
0.262862287
0.262859067
0.262801316
0.262800978
0.262792046
0.262791649
0.262790057
0.262789572
0.262788921
0.262788392
0.26278784
0.262787303
0.262786772
0.262786256
0.262785758
0.262785284
0.262784834
0.262784413
0.262784022
0.262783661
0.262783331
0.262783032
0.262782763
0.262782525
0.262782315
0.262782132
0.262781976
0.262781844
0.262781736
0.262781649
0.262781582
0.262781534