/*--------------------------------*- C++ -*----------------------------------*\
| =========                 |                                                 |
| \\      /  F ield         | OpenFOAM: The Open Source CFD Toolbox           |
|  \\    /   O peration     | Version:  2206                                  |
|   \\  /    A nd           | Website:  www.openfoam.com                      |
|    \\/     M anipulation  |                                                 |
\*---------------------------------------------------------------------------*/
FoamFile
{
    version     2.0;
    format      ascii;
    arch        "LSB;label=32;scalar=64";
    class       volVectorField;
    location    "1.04e-05";
    object      U;
}
// * * * * * * * * * * * * * * * * * * * * * * * * * * * * * * * * * * * * * //

dimensions      [0 1 -1 0 0 0 0];

internalField   nonuniform List<vector> 
3183
(
(2.84242849e-13 0 0)
(-7.20461606e-15 0 0)
(-1.82022506e-13 0 0)
(-1.29690614e-13 0 0)
(-1.11269462e-13 0 0)
(-4.68981535e-18 0 0)
(-3.70263754e-19 0 0)
(-2.37111638e-23 0 0)
(1.63005903e-23 0 0)
(2.55632349e-19 0 0)
(5.77776989e-18 0 0)
(1.1699219e-13 0 0)
(4.38606764e-13 0 0)
(9.62947612e-14 0 0)
(1.75113832e-14 0 0)
(8.09221042e-14 0 0)
(-1.3163697e-13 0 0)
(-4.11261106e-13 0 0)
(-7.19474408e-13 0 0)
(-3.1630166e-14 0 0)
(3.60310365e-13 0 0)
(1.05953369e-16 0 0)
(3.28323357e-17 0 0)
(2.0452663e-13 0 0)
(2.90817847e-13 0 0)
(3.97835879e-13 0 0)
(4.44080039e-13 0 0)
(4.13202968e-13 0 0)
(1.57295943e-13 0 0)
(3.29842136e-13 0 0)
(-2.12850511e-13 0 0)
(-2.32802449e-13 0 0)
(-7.60631295e-13 0 0)
(-9.47148189e-13 0 0)
(-5.80785929e-13 0 0)
(-2.24652942e-13 0 0)
(-2.24905457e-13 0 0)
(-2.92719804e-13 0 0)
(-1.07492386e-13 0 0)
(-8.78189752e-14 0 0)
(-3.93612009e-13 0 0)
(-4.27454088e-13 0 0)
(-1.32583036e-13 0 0)
(-5.04156059e-13 0 0)
(-1.61560763e-13 0 0)
(-1.70677075e-14 0 0)
(-2.68407418e-13 0 0)
(-1.69034393e-13 0 0)
(-1.96325427e-13 0 0)
(6.26377363e-14 0 0)
(2.18741589e-13 0 0)
(6.6608022e-13 0 0)
(3.17252679e-13 0 0)
(7.65807343e-13 0 0)
(1.14707851e-12 0 0)
(1.13443475e-12 0 0)
(1.51224784e-12 0 0)
(1.74923367e-12 0 0)
(1.94002178e-12 0 0)
(2.21238827e-12 0 0)
(2.36814603e-12 0 0)
(2.299236e-12 0 0)
(2.37385502e-12 0 0)
(2.04528222e-12 0 0)
(2.31942577e-12 0 0)
(2.48132485e-12 0 0)
(2.1324798e-12 0 0)
(2.23955554e-12 0 0)
(2.26743024e-12 0 0)
(1.4781536e-12 0 0)
(1.6816821e-12 0 0)
(1.45075421e-12 0 0)
(1.29828211e-12 0 0)
(1.10328555e-12 0 0)
(1.02451275e-12 0 0)
(3.57715452e-13 0 0)
(4.4235686e-13 0 0)
(2.97907897e-13 0 0)
(2.27193561e-15 0 0)
(1.05873187e-15 0 0)
(-3.91952323e-13 0 0)
(-4.4411402e-13 0 0)
(3.28039187e-14 0 0)
(-1.24373494e-12 0 0)
(-4.88698191e-13 0 0)
(-1.05195313e-12 0 0)
(-1.51762267e-12 0 0)
(-1.63528823e-12 0 0)
(-1.13938083e-12 0 0)
(-1.69968846e-12 0 0)
(-2.39374738e-12 0 0)
(-2.63340118e-12 0 0)
(-1.52124412e-12 0 0)
(-2.77771978e-12 0 0)
(-2.91129333e-12 0 0)
(-2.90114838e-12 0 0)
(-4.32582749e-12 0 0)
(-2.7278694e-12 0 0)
(-3.62537748e-12 0 0)
(-3.33551859e-12 0 0)
(-1.87725536e-12 0 0)
(-2.22972008e-12 0 0)
(-2.88568554e-12 0 0)
(-2.36158763e-12 0 0)
(-2.77584846e-12 0 0)
(-2.6076239e-12 0 0)
(-3.0766054e-12 0 0)
(-2.92066111e-12 0 0)
(-4.23553757e-12 0 0)
(-3.67338288e-12 0 0)
(-3.0638251e-12 0 0)
(-3.72377659e-12 0 0)
(-2.87839575e-12 0 0)
(-4.62159564e-12 0 0)
(-3.60513208e-12 0 0)
(-3.23678584e-12 0 0)
(-3.93045109e-12 0 0)
(-2.54394661e-12 0 0)
(-4.09803293e-12 0 0)
(-4.90820687e-12 0 0)
(-3.78440162e-12 0 0)
(-3.50560504e-12 0 0)
(-3.45969597e-12 0 0)
(-4.33956804e-12 0 0)
(-3.54967833e-12 0 0)
(-4.42999375e-12 0 0)
(-3.75717941e-12 0 0)
(-5.64327679e-12 0 0)
(-3.81006416e-12 0 0)
(-4.77431559e-12 0 0)
(-4.81156289e-12 0 0)
(-5.6848245e-12 0 0)
(-5.34774172e-12 0 0)
(-6.70919404e-12 0 0)
(-4.46501558e-12 0 0)
(-5.85954611e-12 0 0)
(-6.1017182e-12 0 0)
(-5.88549316e-12 0 0)
(-4.89253526e-12 0 0)
(-4.40589048e-12 0 0)
(-5.17016031e-12 0 0)
(-5.30538934e-12 0 0)
(-5.77674632e-12 0 0)
(-6.27402168e-12 0 0)
(-5.0932739e-12 0 0)
(-5.77396796e-12 0 0)
(-5.39376135e-12 0 0)
(-6.28327269e-12 0 0)
(-5.82675819e-12 0 0)
(-5.61385285e-12 0 0)
(-6.61838953e-12 0 0)
(-4.94295976e-12 0 0)
(-5.48630417e-12 0 0)
(-5.95003264e-12 0 0)
(-6.82728121e-12 0 0)
(-5.27366808e-12 0 0)
(-5.67477918e-12 0 0)
(-5.79136879e-12 0 0)
(-5.18632824e-12 0 0)
(-5.70619357e-12 0 0)
(-6.33674849e-12 0 0)
(-6.34718969e-12 0 0)
(-5.48193555e-12 0 0)
(-5.86735024e-12 0 0)
(-6.34728801e-12 0 0)
(-6.94503535e-12 0 0)
(-6.52441577e-12 0 0)
(-6.69992897e-12 0 0)
(-6.05962065e-12 0 0)
(-6.67319752e-12 0 0)
(-6.88140889e-12 0 0)
(-6.68750993e-12 0 0)
(-6.94480297e-12 0 0)
(-6.53653096e-12 0 0)
(-7.22016383e-12 0 0)
(-7.43211657e-12 0 0)
(-8.29378921e-12 0 0)
(-7.43187396e-12 0 0)
(-7.44881518e-12 0 0)
(-8.50616824e-12 0 0)
(-7.63317041e-12 0 0)
(-9.20101786e-12 0 0)
(-8.36375397e-12 0 0)
(-8.81480624e-12 0 0)
(-9.42699831e-12 0 0)
(-9.09516302e-12 0 0)
(-7.79470071e-12 0 0)
(-8.40680766e-12 0 0)
(-8.53253716e-12 0 0)
(-6.90744432e-12 0 0)
(-8.29679871e-12 0 0)
(-7.79857536e-12 0 0)
(-8.19196503e-12 0 0)
(-8.52647184e-12 0 0)
(-8.85716002e-12 0 0)
(-7.68577805e-12 0 0)
(-7.84308314e-12 0 0)
(-7.50370869e-12 0 0)
(-8.13503896e-12 0 0)
(-8.94146079e-12 0 0)
(-8.3684519e-12 0 0)
(-8.14431036e-12 0 0)
(-7.27150796e-12 0 0)
(-7.58892144e-12 0 0)
(-8.33742805e-12 0 0)
(-7.59651258e-12 0 0)
(-7.41798155e-12 0 0)
(-7.07145589e-12 0 0)
(-8.46211291e-12 0 0)
(-6.92986325e-12 0 0)
(-7.70378204e-12 0 0)
(-7.97005077e-12 0 0)
(-7.72578815e-12 0 0)
(-8.27738028e-12 0 0)
(-8.49587264e-12 0 0)
(-7.30895422e-12 0 0)
(-8.61363469e-12 0 0)
(-9.38798499e-12 0 0)
(-8.1618139e-12 0 0)
(-9.07898847e-12 0 0)
(-9.07649119e-12 0 0)
(-1.01145894e-11 0 0)
(-1.0550274e-11 0 0)
(-8.65266395e-12 0 0)
(-8.84438564e-12 0 0)
(-9.22549641e-12 0 0)
(-9.24150637e-12 0 0)
(-9.18862702e-12 0 0)
(-9.57419511e-12 0 0)
(-8.86444232e-12 0 0)
(-9.42348124e-12 0 0)
(-9.35679793e-12 0 0)
(-8.39245981e-12 0 0)
(-9.20492043e-12 0 0)
(-9.91913254e-12 0 0)
(-9.37863958e-12 0 0)
(-1.03069143e-11 0 0)
(-1.01085498e-11 0 0)
(-1.00388575e-11 0 0)
(-1.07652548e-11 0 0)
(-9.67368163e-12 0 0)
(-1.0803991e-11 0 0)
(-1.01527352e-11 0 0)
(-9.83560014e-12 0 0)
(-9.88214265e-12 0 0)
(-1.0663223e-11 0 0)
(-9.80572162e-12 0 0)
(-1.02791019e-11 0 0)
(-1.0740351e-11 0 0)
(-1.10748086e-11 0 0)
(-9.82298564e-12 0 0)
(-1.05123942e-11 0 0)
(-1.09965531e-11 0 0)
(-1.11701738e-11 0 0)
(-1.20049167e-11 0 0)
(-1.22956475e-11 0 0)
(-1.15863634e-11 0 0)
(-1.11718188e-11 0 0)
(-1.22914837e-11 0 0)
(-1.23070636e-11 0 0)
(-1.23575982e-11 0 0)
(-1.22096471e-11 0 0)
(-1.38228104e-11 0 0)
(-1.19193575e-11 0 0)
(-1.35332118e-11 0 0)
(-1.31129833e-11 0 0)
(-1.35975948e-11 0 0)
(-1.27345e-11 0 0)
(-1.32815743e-11 0 0)
(-1.23588291e-11 0 0)
(-1.23232873e-11 0 0)
(-1.22089329e-11 0 0)
(-1.25159787e-11 0 0)
(-1.26702141e-11 0 0)
(-1.35503231e-11 0 0)
(-1.22786485e-11 0 0)
(-1.31270122e-11 0 0)
(-1.40128119e-11 0 0)
(-1.34267651e-11 0 0)
(-1.23233485e-11 0 0)
(-1.35171076e-11 0 0)
(-1.48058307e-11 0 0)
(-1.40211406e-11 0 0)
(-1.39395695e-11 0 0)
(-1.37035044e-11 0 0)
(-1.49258712e-11 0 0)
(-1.34583692e-11 0 0)
(-1.39260645e-11 0 0)
(-1.45622794e-11 0 0)
(-1.44849815e-11 0 0)
(-1.35473383e-11 0 0)
(-1.35122884e-11 0 0)
(-1.34566319e-11 0 0)
(-1.47103867e-11 0 0)
(-1.40266009e-11 0 0)
(-1.4317882e-11 0 0)
(-1.45275085e-11 0 0)
(-1.36531807e-11 0 0)
(-1.39121597e-11 0 0)
(-1.51174199e-11 0 0)
(-1.52139142e-11 0 0)
(-1.47118513e-11 0 0)
(-1.48267248e-11 0 0)
(-1.4941531e-11 0 0)
(-1.50818962e-11 0 0)
(-1.46919154e-11 0 0)
(-1.37163626e-11 0 0)
(-1.47697218e-11 0 0)
(-1.5383953e-11 0 0)
(-1.39086436e-11 0 0)
(-1.52381019e-11 0 0)
(-1.46676736e-11 0 0)
(-1.39260466e-11 0 0)
(-1.37504724e-11 0 0)
(-1.41768497e-11 0 0)
(-1.44381491e-11 0 0)
(-1.58096135e-11 0 0)
(-1.50058247e-11 0 0)
(-1.40229169e-11 0 0)
(-1.4695519e-11 0 0)
(-1.46886647e-11 0 0)
(-1.43178096e-11 0 0)
(-1.51359518e-11 0 0)
(-1.53108319e-11 0 0)
(-1.57937893e-11 0 0)
(-1.45212917e-11 0 0)
(-1.5565636e-11 0 0)
(-1.48285319e-11 0 0)
(-1.54943406e-11 0 0)
(-1.55617096e-11 0 0)
(-1.41412348e-11 0 0)
(-1.59650672e-11 0 0)
(-1.42000361e-11 0 0)
(-1.42920363e-11 0 0)
(-1.31659978e-11 0 0)
(-1.5175445e-11 0 0)
(-1.40169216e-11 0 0)
(-1.57033206e-11 0 0)
(-1.48547433e-11 0 0)
(-1.43965302e-11 0 0)
(-1.4677408e-11 0 0)
(-1.48950101e-11 0 0)
(-1.45593301e-11 0 0)
(-1.30684085e-11 0 0)
(-1.42743243e-11 0 0)
(-1.44498617e-11 0 0)
(-1.46307019e-11 0 0)
(-1.34987313e-11 0 0)
(-1.43367575e-11 0 0)
(-1.4338079e-11 0 0)
(-1.35521485e-11 0 0)
(-1.49800374e-11 0 0)
(-1.4658696e-11 0 0)
(-1.40392412e-11 0 0)
(-1.3595615e-11 0 0)
(-1.4690913e-11 0 0)
(-1.48591032e-11 0 0)
(-1.40776303e-11 0 0)
(-1.47433717e-11 0 0)
(-1.43001289e-11 0 0)
(-1.35656952e-11 0 0)
(-1.43993924e-11 0 0)
(-1.45936532e-11 0 0)
(-1.41837043e-11 0 0)
(-1.32017861e-11 0 0)
(-1.45933543e-11 0 0)
(-1.36888176e-11 0 0)
(-1.44584717e-11 0 0)
(-1.41689498e-11 0 0)
(-1.3586563e-11 0 0)
(-1.31867964e-11 0 0)
(-1.4984196e-11 0 0)
(-1.36093541e-11 0 0)
(-1.30646278e-11 0 0)
(-1.38083516e-11 0 0)
(-1.44907832e-11 0 0)
(-1.38788627e-11 0 0)
(-1.29340891e-11 0 0)
(-1.38208749e-11 0 0)
(-1.33638418e-11 0 0)
(-1.34279997e-11 0 0)
(-1.35472391e-11 0 0)
(-1.29587707e-11 0 0)
(-1.30910682e-11 0 0)
(-1.25538835e-11 0 0)
(-1.34707488e-11 0 0)
(-1.26207966e-11 0 0)
(-1.26121006e-11 0 0)
(-1.24344023e-11 0 0)
(-1.17587112e-11 0 0)
(-1.24263028e-11 0 0)
(-1.18941074e-11 0 0)
(-1.15342015e-11 0 0)
(-1.16759251e-11 0 0)
(-1.04280311e-11 0 0)
(-1.04870478e-11 0 0)
(-1.08219947e-11 0 0)
(-1.09289287e-11 0 0)
(-9.96853569e-12 0 0)
(-1.03715911e-11 0 0)
(-9.42976475e-12 0 0)
(-1.07007723e-11 0 0)
(-9.86549435e-12 0 0)
(-1.09193912e-11 0 0)
(-1.01994167e-11 0 0)
(-9.66529838e-12 0 0)
(-1.0255865e-11 0 0)
(-1.1235107e-11 0 0)
(-1.00298277e-11 0 0)
(-9.77381827e-12 0 0)
(-1.05806777e-11 0 0)
(-8.98548137e-12 0 0)
(-8.8498557e-12 0 0)
(-1.02080822e-11 0 0)
(-9.83195807e-12 0 0)
(-9.13547032e-12 0 0)
(-9.76295012e-12 0 0)
(-1.06599568e-11 0 0)
(-1.01925408e-11 0 0)
(-1.0487118e-11 0 0)
(-9.74788592e-12 0 0)
(-9.36215585e-12 0 0)
(-9.03904217e-12 0 0)
(-9.39345389e-12 0 0)
(-1.06379229e-11 0 0)
(-1.01338361e-11 0 0)
(-9.93463027e-12 0 0)
(-9.4502196e-12 0 0)
(-1.00259139e-11 0 0)
(-8.22831833e-12 0 0)
(-9.05891e-12 0 0)
(-1.07743733e-11 0 0)
(-9.77166073e-12 0 0)
(-9.70861288e-12 0 0)
(-1.01855222e-11 0 0)
(-9.49092129e-12 0 0)
(-1.05719259e-11 0 0)
(-9.29475964e-12 0 0)
(-8.11712827e-12 0 0)
(-8.14095708e-12 0 0)
(-8.2566652e-12 0 0)
(-8.75052389e-12 0 0)
(-8.31763489e-12 0 0)
(-7.88926463e-12 0 0)
(-7.72940599e-12 0 0)
(-8.79637451e-12 0 0)
(-7.40602085e-12 0 0)
(-8.12995645e-12 0 0)
(-8.23617516e-12 0 0)
(-7.40029777e-12 0 0)
(-7.19103215e-12 0 0)
(-6.72531607e-12 0 0)
(-6.07206932e-12 0 0)
(-6.85938037e-12 0 0)
(-7.31111424e-12 0 0)
(-6.23101541e-12 0 0)
(-6.05649711e-12 0 0)
(-6.43829495e-12 0 0)
(-6.4735537e-12 0 0)
(-5.37198265e-12 0 0)
(-6.63086804e-12 0 0)
(-6.37012828e-12 0 0)
(-5.40902498e-12 0 0)
(-5.29995919e-12 0 0)
(-6.05469028e-12 0 0)
(-5.46868214e-12 0 0)
(-4.46003037e-12 0 0)
(-4.67133494e-12 0 0)
(-4.76975137e-12 0 0)
(-5.60260316e-12 0 0)
(-4.38481673e-12 0 0)
(-4.75479213e-12 0 0)
(-4.96110036e-12 0 0)
(-5.83644905e-12 0 0)
(-4.74374764e-12 0 0)
(-5.48754146e-12 0 0)
(-5.28989979e-12 0 0)
(-5.66976391e-12 0 0)
(-5.57752659e-12 0 0)
(-5.58835285e-12 0 0)
(-5.74724055e-12 0 0)
(-5.33594298e-12 0 0)
(-5.06069643e-12 0 0)
(-5.22334584e-12 0 0)
(-5.46952399e-12 0 0)
(-5.20270351e-12 0 0)
(-4.7501715e-12 0 0)
(-6.11010873e-12 0 0)
(-5.218411e-12 0 0)
(-5.16435093e-12 0 0)
(-4.78613034e-12 0 0)
(-4.96618976e-12 0 0)
(-5.49269273e-12 0 0)
(-3.98264848e-12 0 0)
(-5.21684171e-12 0 0)
(-5.98663735e-12 0 0)
(-4.63878154e-12 0 0)
(-5.3112019e-12 0 0)
(-5.07550873e-12 0 0)
(-6.4341262e-12 0 0)
(-5.35567423e-12 0 0)
(-5.65741588e-12 0 0)
(-5.08552201e-12 0 0)
(-5.49097469e-12 0 0)
(-4.74428184e-12 0 0)
(-5.5955339e-12 0 0)
(-4.72359014e-12 0 0)
(-4.3668362e-12 0 0)
(-4.04561471e-12 0 0)
(-5.81095346e-12 0 0)
(-3.51021897e-12 0 0)
(-5.17760796e-12 0 0)
(-4.18644507e-12 0 0)
(-4.45697216e-12 0 0)
(-5.0000633e-12 0 0)
(-5.30447166e-12 0 0)
(-5.03148577e-12 0 0)
(-4.03984799e-12 0 0)
(-4.01371584e-12 0 0)
(-3.83630971e-12 0 0)
(-3.58478529e-12 0 0)
(-3.12215292e-12 0 0)
(-2.58022736e-12 0 0)
(-2.44160663e-12 0 0)
(-3.69769194e-12 0 0)
(-2.19385198e-12 0 0)
(-3.01185786e-12 0 0)
(-2.83811735e-12 0 0)
(-1.94671995e-12 0 0)
(-2.95488376e-12 0 0)
(-3.39277782e-12 0 0)
(-3.06923753e-12 0 0)
(-3.73797863e-12 0 0)
(-3.19758997e-12 0 0)
(-2.4811618e-12 0 0)
(-2.75715814e-12 0 0)
(-2.41644726e-12 0 0)
(-1.38020612e-12 0 0)
(-2.38925768e-12 0 0)
(-1.5321462e-12 0 0)
(-9.80476621e-13 0 0)
(-1.11995893e-12 0 0)
(-1.50118699e-12 0 0)
(-1.11007041e-12 0 0)
(-9.13458241e-13 0 0)
(-2.19324991e-12 0 0)
(-6.37013389e-13 0 0)
(-4.5195036e-13 0 0)
(-9.88107994e-13 0 0)
(-6.16815433e-13 0 0)
(-6.41791288e-14 0 0)
(1.92051214e-13 0 0)
(7.54394754e-14 0 0)
(-4.73819756e-13 0 0)
(-7.69244166e-13 0 0)
(8.32342509e-13 0 0)
(6.39549374e-13 0 0)
(2.02012363e-13 0 0)
(1.38444453e-13 0 0)
(-4.65047774e-13 0 0)
(-4.57169258e-13 0 0)
(-1.37652783e-12 0 0)
(4.06646595e-13 0 0)
(-5.06795245e-13 0 0)
(-5.31960621e-13 0 0)
(6.88873448e-14 0 0)
(-3.90844375e-13 0 0)
(-4.57626611e-13 0 0)
(4.2137122e-13 0 0)
(3.42192581e-13 0 0)
(-3.96813737e-13 0 0)
(-9.59870858e-13 0 0)
(9.26920078e-13 0 0)
(1.01437529e-12 0 0)
(1.33960781e-12 0 0)
(-7.92992324e-14 0 0)
(3.97350939e-13 0 0)
(1.34164294e-12 0 0)
(3.8860005e-14 0 0)
(1.68975472e-12 0 0)
(1.15578039e-12 0 0)
(1.85870995e-12 0 0)
(2.45601195e-12 0 0)
(1.61121905e-12 0 0)
(2.02385645e-12 0 0)
(2.16599189e-12 0 0)
(3.50162233e-12 0 0)
(3.70871802e-12 0 0)
(2.176878e-12 0 0)
(2.20953488e-12 0 0)
(3.31201543e-12 0 0)
(2.34387456e-12 0 0)
(2.82719298e-12 0 0)
(2.69446261e-12 0 0)
(2.82797522e-12 0 0)
(2.14762658e-12 0 0)
(1.65825861e-12 0 0)
(2.24498219e-12 0 0)
(2.08669328e-12 0 0)
(3.28554247e-12 0 0)
(1.88623792e-12 0 0)
(1.21020124e-12 0 0)
(2.26967931e-12 0 0)
(2.17101221e-12 0 0)
(2.58280425e-12 0 0)
(2.47419126e-12 0 0)
(2.98866334e-12 0 0)
(2.12016558e-12 0 0)
(2.45920694e-12 0 0)
(1.75313178e-12 0 0)
(1.98329685e-12 0 0)
(2.23381792e-12 0 0)
(1.73431172e-12 0 0)
(2.39008798e-12 0 0)
(2.6352274e-12 0 0)
(2.90020841e-12 0 0)
(2.95399189e-12 0 0)
(3.48737664e-12 0 0)
(2.89832559e-12 0 0)
(4.01631626e-12 0 0)
(3.95373917e-12 0 0)
(2.870985e-12 0 0)
(2.77943297e-12 0 0)
(3.33181792e-12 0 0)
(3.22198186e-12 0 0)
(3.63091822e-12 0 0)
(2.8762975e-12 0 0)
(3.37987916e-12 0 0)
(3.93509542e-12 0 0)
(4.13220754e-12 0 0)
(4.31742112e-12 0 0)
(3.74197816e-12 0 0)
(3.3325721e-12 0 0)
(3.54478875e-12 0 0)
(3.97395034e-12 0 0)
(4.27956431e-12 0 0)
(4.59008816e-12 0 0)
(4.17436306e-12 0 0)
(4.44681285e-12 0 0)
(4.27376359e-12 0 0)
(3.98251593e-12 0 0)
(4.47020382e-12 0 0)
(5.29351415e-12 0 0)
(4.82045222e-12 0 0)
(5.82160841e-12 0 0)
(5.32907258e-12 0 0)
(6.00247473e-12 0 0)
(5.86946507e-12 0 0)
(6.21927217e-12 0 0)
(6.85998941e-12 0 0)
(6.78416275e-12 0 0)
(6.28360501e-12 0 0)
(5.24742157e-12 0 0)
(6.22251118e-12 0 0)
(5.85990327e-12 0 0)
(6.16346435e-12 0 0)
(5.27995855e-12 0 0)
(6.10139545e-12 0 0)
(5.41953352e-12 0 0)
(5.08537901e-12 0 0)
(4.73583291e-12 0 0)
(5.54057248e-12 0 0)
(5.1866022e-12 0 0)
(5.23651036e-12 0 0)
(4.80182127e-12 0 0)
(5.57845164e-12 0 0)
(5.9165832e-12 0 0)
(5.66087897e-12 0 0)
(5.82113069e-12 0 0)
(5.74861876e-12 0 0)
(6.00607619e-12 0 0)
(5.66195594e-12 0 0)
(6.16479469e-12 0 0)
(6.58738605e-12 0 0)
(5.50753685e-12 0 0)
(4.98488688e-12 0 0)
(5.34340301e-12 0 0)
(5.70518806e-12 0 0)
(5.58879225e-12 0 0)
(6.20603088e-12 0 0)
(5.78001497e-12 0 0)
(5.07158042e-12 0 0)
(5.93629306e-12 0 0)
(5.8994613e-12 0 0)
(5.68937497e-12 0 0)
(6.75185198e-12 0 0)
(6.24216596e-12 0 0)
(5.68477424e-12 0 0)
(6.16136685e-12 0 0)
(5.91794314e-12 0 0)
(6.65112736e-12 0 0)
(6.53861266e-12 0 0)
(6.11815337e-12 0 0)
(6.15915252e-12 0 0)
(5.96432451e-12 0 0)
(5.75689578e-12 0 0)
(6.25931749e-12 0 0)
(6.02058357e-12 0 0)
(5.49578593e-12 0 0)
(6.14806389e-12 0 0)
(5.2671179e-12 0 0)
(5.666793e-12 0 0)
(5.90989548e-12 0 0)
(6.18692544e-12 0 0)
(6.09009907e-12 0 0)
(6.63011649e-12 0 0)
(6.75236646e-12 0 0)
(5.97106457e-12 0 0)
(6.45186488e-12 0 0)
(6.36335309e-12 0 0)
(6.63581521e-12 0 0)
(6.02898492e-12 0 0)
(6.60009015e-12 0 0)
(7.36479967e-12 0 0)
(7.31081088e-12 0 0)
(6.58236665e-12 0 0)
(6.53104156e-12 0 0)
(6.57343033e-12 0 0)
(7.02024283e-12 0 0)
(6.43686667e-12 0 0)
(6.50180883e-12 0 0)
(6.38573435e-12 0 0)
(7.25336046e-12 0 0)
(6.58251638e-12 0 0)
(6.87244479e-12 0 0)
(5.30367662e-12 0 0)
(5.43101664e-12 0 0)
(5.42699078e-12 0 0)
(6.03624463e-12 0 0)
(5.61239757e-12 0 0)
(6.14545947e-12 0 0)
(4.76198604e-12 0 0)
(5.01436284e-12 0 0)
(5.63632361e-12 0 0)
(5.56438588e-12 0 0)
(5.25350251e-12 0 0)
(5.22132111e-12 0 0)
(5.42296097e-12 0 0)
(4.96785792e-12 0 0)
(4.63690478e-12 0 0)
(5.14195373e-12 0 0)
(4.48536956e-12 0 0)
(4.38578097e-12 0 0)
(4.49137548e-12 0 0)
(4.97423074e-12 0 0)
(5.14641135e-12 0 0)
(5.22951023e-12 0 0)
(5.84777009e-12 0 0)
(5.13257309e-12 0 0)
(6.19159726e-12 0 0)
(5.27496448e-12 0 0)
(6.4505269e-12 0 0)
(5.16556825e-12 0 0)
(6.22514918e-12 0 0)
(4.99911528e-12 0 0)
(5.64551215e-12 0 0)
(6.48965042e-12 0 0)
(5.54900156e-12 0 0)
(6.07074322e-12 0 0)
(5.42522552e-12 0 0)
(5.94244463e-12 0 0)
(5.74807827e-12 0 0)
(6.49643494e-12 0 0)
(6.19639856e-12 0 0)
(5.73649292e-12 0 0)
(5.24808011e-12 0 0)
(4.99982496e-12 0 0)
(6.16662345e-12 0 0)
(5.49563564e-12 0 0)
(5.35995023e-12 0 0)
(5.98946329e-12 0 0)
(6.12852889e-12 0 0)
(5.54944009e-12 0 0)
(6.72331641e-12 0 0)
(6.1370376e-12 0 0)
(5.71297988e-12 0 0)
(6.5052477e-12 0 0)
(5.35489538e-12 0 0)
(6.21529069e-12 0 0)
(6.39651608e-12 0 0)
(6.02451978e-12 0 0)
(6.01342749e-12 0 0)
(6.58386048e-12 0 0)
(6.37938758e-12 0 0)
(5.84280081e-12 0 0)
(5.99718805e-12 0 0)
(6.03682263e-12 0 0)
(5.4161519e-12 0 0)
(5.83056881e-12 0 0)
(5.51146157e-12 0 0)
(6.57658292e-12 0 0)
(6.85495432e-12 0 0)
(6.84526271e-12 0 0)
(5.5621618e-12 0 0)
(5.39392948e-12 0 0)
(5.06981839e-12 0 0)
(5.57987721e-12 0 0)
(5.09551714e-12 0 0)
(4.9990294e-12 0 0)
(4.99363941e-12 0 0)
(5.04181372e-12 0 0)
(5.56829444e-12 0 0)
(5.63149801e-12 0 0)
(5.7202931e-12 0 0)
(5.14627464e-12 0 0)
(5.51691765e-12 0 0)
(6.55805655e-12 0 0)
(6.15498346e-12 0 0)
(6.02430134e-12 0 0)
(5.44566601e-12 0 0)
(5.84250318e-12 0 0)
(5.99762613e-12 0 0)
(6.0834789e-12 0 0)
(5.87456876e-12 0 0)
(6.05156559e-12 0 0)
(5.48197866e-12 0 0)
(6.01046203e-12 0 0)
(5.83080485e-12 0 0)
(5.35854848e-12 0 0)
(5.23584972e-12 0 0)
(5.58873047e-12 0 0)
(6.05080052e-12 0 0)
(5.29531547e-12 0 0)
(5.51212459e-12 0 0)
(5.50933505e-12 0 0)
(5.3749406e-12 0 0)
(4.65170909e-12 0 0)
(6.37554663e-12 0 0)
(6.87286325e-12 0 0)
(6.19147427e-12 0 0)
(5.23108905e-12 0 0)
(6.27620033e-12 0 0)
(5.53711081e-12 0 0)
(6.86233812e-12 0 0)
(5.28397211e-12 0 0)
(6.56164013e-12 0 0)
(6.3072985e-12 0 0)
(7.26183682e-12 0 0)
(6.15697543e-12 0 0)
(7.20636035e-12 0 0)
(6.4721749e-12 0 0)
(6.114123e-12 0 0)
(6.59937311e-12 0 0)
(6.61656275e-12 0 0)
(5.92006987e-12 0 0)
(7.39512467e-12 0 0)
(7.04685105e-12 0 0)
(7.34808818e-12 0 0)
(5.8809127e-12 0 0)
(8.01548217e-12 0 0)
(7.9193386e-12 0 0)
(7.1632468e-12 0 0)
(7.72447561e-12 0 0)
(8.3895412e-12 0 0)
(8.02135442e-12 0 0)
(7.62697847e-12 0 0)
(7.33226377e-12 0 0)
(8.78426789e-12 0 0)
(7.6891396e-12 0 0)
(7.82597579e-12 0 0)
(7.79418314e-12 0 0)
(8.05639406e-12 0 0)
(9.1257745e-12 0 0)
(7.86939526e-12 0 0)
(8.73687939e-12 0 0)
(7.37614777e-12 0 0)
(8.94215924e-12 0 0)
(8.22663331e-12 0 0)
(8.03997097e-12 0 0)
(6.63442812e-12 0 0)
(7.03522409e-12 0 0)
(8.37480613e-12 0 0)
(7.31840829e-12 0 0)
(7.31020884e-12 0 0)
(7.51008487e-12 0 0)
(7.51085674e-12 0 0)
(7.63934361e-12 0 0)
(6.28198094e-12 0 0)
(7.49251581e-12 0 0)
(6.9296916e-12 0 0)
(6.96548633e-12 0 0)
(6.95440945e-12 0 0)
(6.58826554e-12 0 0)
(6.76738588e-12 0 0)
(6.74571853e-12 0 0)
(7.51362394e-12 0 0)
(7.35247245e-12 0 0)
(7.27682102e-12 0 0)
(8.42950487e-12 0 0)
(7.18837323e-12 0 0)
(7.17513201e-12 0 0)
(7.05259687e-12 0 0)
(7.3475371e-12 0 0)
(6.95604357e-12 0 0)
(6.92078672e-12 0 0)
(7.49682458e-12 0 0)
(7.41951589e-12 0 0)
(7.34428727e-12 0 0)
(7.17758896e-12 0 0)
(7.0414583e-12 0 0)
(7.58497531e-12 0 0)
(8.30232877e-12 0 0)
(7.71685332e-12 0 0)
(7.16536045e-12 0 0)
(7.45787266e-12 0 0)
(8.47783114e-12 0 0)
(7.41734967e-12 0 0)
(6.86084935e-12 0 0)
(8.44962029e-12 0 0)
(6.78146316e-12 0 0)
(7.22544747e-12 0 0)
(7.37676663e-12 0 0)
(7.31303558e-12 0 0)
(6.88790849e-12 0 0)
(6.27298998e-12 0 0)
(8.16025337e-12 0 0)
(7.23933375e-12 0 0)
(7.38444875e-12 0 0)
(7.57935685e-12 0 0)
(6.94787695e-12 0 0)
(7.78926682e-12 0 0)
(8.12271249e-12 0 0)
(7.02852368e-12 0 0)
(8.50824157e-12 0 0)
(8.04503261e-12 0 0)
(7.41577888e-12 0 0)
(7.33134753e-12 0 0)
(7.22161488e-12 0 0)
(7.86044807e-12 0 0)
(7.14236106e-12 0 0)
(8.22432229e-12 0 0)
(7.73854067e-12 0 0)
(9.07235384e-12 0 0)
(8.93548985e-12 0 0)
(8.26234137e-12 0 0)
(9.55978225e-12 0 0)
(9.21050891e-12 0 0)
(9.53887043e-12 0 0)
(8.5432845e-12 0 0)
(8.41105698e-12 0 0)
(1.00227162e-11 0 0)
(8.83601557e-12 0 0)
(9.52557206e-12 0 0)
(8.25911613e-12 0 0)
(9.48964143e-12 0 0)
(8.86574179e-12 0 0)
(8.98681918e-12 0 0)
(8.66352081e-12 0 0)
(9.38367483e-12 0 0)
(9.67719582e-12 0 0)
(8.31049895e-12 0 0)
(8.80679649e-12 0 0)
(9.30953582e-12 0 0)
(7.67157269e-12 0 0)
(8.97272222e-12 0 0)
(8.87027004e-12 0 0)
(9.4787866e-12 0 0)
(8.53054807e-12 0 0)
(8.69569575e-12 0 0)
(8.54609429e-12 0 0)
(8.87074779e-12 0 0)
(1.03952763e-11 0 0)
(9.62552731e-12 0 0)
(9.31894666e-12 0 0)
(9.88802499e-12 0 0)
(8.91778305e-12 0 0)
(9.88883657e-12 0 0)
(1.04312214e-11 0 0)
(1.02252032e-11 0 0)
(8.93464461e-12 0 0)
(9.40456761e-12 0 0)
(8.60047127e-12 0 0)
(1.03395364e-11 0 0)
(8.73560651e-12 0 0)
(9.1142039e-12 0 0)
(9.39550053e-12 0 0)
(8.92206663e-12 0 0)
(8.37696719e-12 0 0)
(8.5300798e-12 0 0)
(9.34196356e-12 0 0)
(8.95254408e-12 0 0)
(9.19949194e-12 0 0)
(8.74509128e-12 0 0)
(9.68932934e-12 0 0)
(8.60462206e-12 0 0)
(8.2588893e-12 0 0)
(8.15682016e-12 0 0)
(8.33285567e-12 0 0)
(8.52445855e-12 0 0)
(7.25911969e-12 0 0)
(7.46483739e-12 0 0)
(7.34334302e-12 0 0)
(7.40579379e-12 0 0)
(7.68548762e-12 0 0)
(6.93585796e-12 0 0)
(8.17695526e-12 0 0)
(7.92297696e-12 0 0)
(8.40048101e-12 0 0)
(7.34770021e-12 0 0)
(8.39155867e-12 0 0)
(7.96069613e-12 0 0)
(7.47444151e-12 0 0)
(7.9218516e-12 0 0)
(8.33492279e-12 0 0)
(8.33082054e-12 0 0)
(7.65283615e-12 0 0)
(8.20506602e-12 0 0)
(7.3053639e-12 0 0)
(7.13755996e-12 0 0)
(7.26991267e-12 0 0)
(7.23153681e-12 0 0)
(6.31542077e-12 0 0)
(6.80045984e-12 0 0)
(5.74145864e-12 0 0)
(6.51114204e-12 0 0)
(6.16527712e-12 0 0)
(6.53310001e-12 0 0)
(6.26313085e-12 0 0)
(6.59625075e-12 0 0)
(5.15273748e-12 0 0)
(5.9417377e-12 0 0)
(5.61044879e-12 0 0)
(5.09179047e-12 0 0)
(5.09971727e-12 0 0)
(4.88731629e-12 0 0)
(4.45953488e-12 0 0)
(4.93252843e-12 0 0)
(4.62708324e-12 0 0)
(3.96104742e-12 0 0)
(4.75396553e-12 0 0)
(4.07394868e-12 0 0)
(3.52016323e-12 0 0)
(3.40627176e-12 0 0)
(3.6214471e-12 0 0)
(4.24010997e-12 0 0)
(3.21404951e-12 0 0)
(3.50114037e-12 0 0)
(1.98337344e-12 0 0)
(2.54695778e-12 0 0)
(2.51755886e-12 0 0)
(2.19491904e-12 0 0)
(1.95682485e-12 0 0)
(1.87790116e-12 0 0)
(2.21787612e-12 0 0)
(1.97982319e-12 0 0)
(2.38614891e-12 0 0)
(1.51540952e-12 0 0)
(2.68139588e-12 0 0)
(1.70625991e-12 0 0)
(1.77511175e-12 0 0)
(2.73441568e-12 0 0)
(1.11541488e-12 0 0)
(2.00944332e-12 0 0)
(1.85191985e-12 0 0)
(2.42070299e-12 0 0)
(1.47893145e-12 0 0)
(2.34371503e-12 0 0)
(1.71523227e-12 0 0)
(2.21958285e-12 0 0)
(9.31785044e-13 0 0)
(1.71557659e-12 0 0)
(1.4571739e-12 0 0)
(1.4528719e-12 0 0)
(2.63766052e-12 0 0)
(1.13915403e-12 0 0)
(1.8411113e-12 0 0)
(2.52672683e-12 0 0)
(1.76679017e-12 0 0)
(1.12789909e-12 0 0)
(7.83887715e-13 0 0)
(2.31459062e-12 0 0)
(1.65575418e-12 0 0)
(1.80627746e-12 0 0)
(2.38545715e-12 0 0)
(1.61829427e-12 0 0)
(1.22865598e-12 0 0)
(1.62713534e-12 0 0)
(9.61431472e-13 0 0)
(1.24117283e-12 0 0)
(9.20386146e-13 0 0)
(5.99735462e-13 0 0)
(1.1102655e-12 0 0)
(1.02105357e-12 0 0)
(1.47292874e-12 0 0)
(1.52604035e-12 0 0)
(9.95150874e-13 0 0)
(2.40186531e-13 0 0)
(9.87735842e-13 0 0)
(9.42531782e-13 0 0)
(7.3850563e-13 0 0)
(7.38918135e-13 0 0)
(3.57991324e-13 0 0)
(-9.27749334e-13 0 0)
(2.12090351e-13 0 0)
(1.79089659e-13 0 0)
(-2.33452021e-13 0 0)
(-7.45832076e-13 0 0)
(5.19805258e-13 0 0)
(-4.6291938e-13 0 0)
(-4.45539344e-13 0 0)
(1.79907195e-13 0 0)
(-6.05381713e-13 0 0)
(-2.71142511e-13 0 0)
(-1.36660269e-12 0 0)
(-1.06475034e-12 0 0)
(-9.94488301e-13 0 0)
(-5.66723653e-13 0 0)
(-1.50377323e-12 0 0)
(-1.63790996e-12 0 0)
(-1.06116717e-12 0 0)
(-2.0096139e-12 0 0)
(-1.50513757e-12 0 0)
(-2.47868192e-12 0 0)
(-2.0881536e-12 0 0)
(-3.51180878e-12 0 0)
(-2.74985739e-12 0 0)
(-2.70492347e-12 0 0)
(-2.36534715e-12 0 0)
(-2.95956934e-12 0 0)
(-3.32356435e-12 0 0)
(-3.5785436e-12 0 0)
(-3.05187935e-12 0 0)
(-2.72418091e-12 0 0)
(-3.51735066e-12 0 0)
(-2.33470018e-12 0 0)
(-3.20074885e-12 0 0)
(-3.2851883e-12 0 0)
(-3.58769077e-12 0 0)
(-4.17918016e-12 0 0)
(-4.44647347e-12 0 0)
(-3.92449185e-12 0 0)
(-5.36306385e-12 0 0)
(-5.02177434e-12 0 0)
(-4.53032683e-12 0 0)
(-5.13798207e-12 0 0)
(-5.56883667e-12 0 0)
(-5.181525e-12 0 0)
(-4.43975953e-12 0 0)
(-4.2848064e-12 0 0)
(-4.65822497e-12 0 0)
(-4.719213e-12 0 0)
(-4.28696008e-12 0 0)
(-4.07056558e-12 0 0)
(-4.77073721e-12 0 0)
(-4.10456828e-12 0 0)
(-3.28274239e-12 0 0)
(-4.48225628e-12 0 0)
(-4.6321471e-12 0 0)
(-3.6490565e-12 0 0)
(-3.98362455e-12 0 0)
(-3.51867308e-12 0 0)
(-4.35206211e-12 0 0)
(-3.22951879e-12 0 0)
(-3.94251724e-12 0 0)
(-4.57499781e-12 0 0)
(-3.7444351e-12 0 0)
(-4.39034344e-12 0 0)
(-3.84527006e-12 0 0)
(-3.82098031e-12 0 0)
(-3.30596748e-12 0 0)
(-2.79641384e-12 0 0)
(-2.61017017e-12 0 0)
(-3.1955733e-12 0 0)
(-3.33123894e-12 0 0)
(-2.97099706e-12 0 0)
(-3.05700251e-12 0 0)
(-2.92351828e-12 0 0)
(-3.46997126e-12 0 0)
(-3.68160504e-12 0 0)
(-3.72765594e-12 0 0)
(-3.05719554e-12 0 0)
(-3.58756479e-12 0 0)
(-3.98073337e-12 0 0)
(-4.27584228e-12 0 0)
(-3.93362171e-12 0 0)
(-4.8233657e-12 0 0)
(-4.66915942e-12 0 0)
(-4.64694377e-12 0 0)
(-4.36785735e-12 0 0)
(-4.24895996e-12 0 0)
(-4.17669137e-12 0 0)
(-4.97788219e-12 0 0)
(-4.56697537e-12 0 0)
(-4.79119004e-12 0 0)
(-4.07985247e-12 0 0)
(-5.31512585e-12 0 0)
(-5.35697382e-12 0 0)
(-5.15718831e-12 0 0)
(-5.33295672e-12 0 0)
(-5.16661775e-12 0 0)
(-6.11519552e-12 0 0)
(-4.64033233e-12 0 0)
(-5.56346903e-12 0 0)
(-5.54069136e-12 0 0)
(-3.62156957e-12 0 0)
(-5.66752091e-12 0 0)
(-6.67607564e-12 0 0)
(-5.88413112e-12 0 0)
(-5.31584498e-12 0 0)
(-8.18592754e-12 0 0)
(-5.88516833e-12 0 0)
(-6.25261968e-12 0 0)
(-5.81403479e-12 0 0)
(-6.40604837e-12 0 0)
(-5.05648905e-12 0 0)
(-6.18665662e-12 0 0)
(-6.01085117e-12 0 0)
(-5.68204154e-12 0 0)
(-5.851749e-12 0 0)
(-5.92668849e-12 0 0)
(-5.3859801e-12 0 0)
(-5.3525518e-12 0 0)
(-5.38426115e-12 0 0)
(-6.80386267e-12 0 0)
(-6.00109957e-12 0 0)
(-5.9188882e-12 0 0)
(-6.36840051e-12 0 0)
(-7.17135851e-12 0 0)
(-6.07669789e-12 0 0)
(-6.11469889e-12 0 0)
(-5.69414706e-12 0 0)
(-4.95689754e-12 0 0)
(-5.12356915e-12 0 0)
(-5.54218377e-12 0 0)
(-6.0529447e-12 0 0)
(-6.17150453e-12 0 0)
(-6.05627035e-12 0 0)
(-6.39351624e-12 0 0)
(-6.32089204e-12 0 0)
(-5.94717543e-12 0 0)
(-5.82109565e-12 0 0)
(-5.65473909e-12 0 0)
(-5.34157039e-12 0 0)
(-5.87288249e-12 0 0)
(-6.08113598e-12 0 0)
(-5.69917184e-12 0 0)
(-6.19794801e-12 0 0)
(-6.05061003e-12 0 0)
(-5.72278497e-12 0 0)
(-5.31021015e-12 0 0)
(-5.8996688e-12 0 0)
(-6.47452851e-12 0 0)
(-5.91974605e-12 0 0)
(-6.50683707e-12 0 0)
(-6.42766264e-12 0 0)
(-6.25042783e-12 0 0)
(-5.83237262e-12 0 0)
(-6.50365787e-12 0 0)
(-6.62247107e-12 0 0)
(-5.91952582e-12 0 0)
(-5.32339551e-12 0 0)
(-5.39750723e-12 0 0)
(-5.67092746e-12 0 0)
(-5.75153357e-12 0 0)
(-5.59440997e-12 0 0)
(-5.24888807e-12 0 0)
(-5.0288867e-12 0 0)
(-6.71294325e-12 0 0)
(-5.85278092e-12 0 0)
(-5.17960858e-12 0 0)
(-5.55249158e-12 0 0)
(-5.86808901e-12 0 0)
(-6.4665274e-12 0 0)
(-6.30752783e-12 0 0)
(-6.10340953e-12 0 0)
(-6.69330499e-12 0 0)
(-6.25085042e-12 0 0)
(-6.64741118e-12 0 0)
(-6.14138733e-12 0 0)
(-6.52148459e-12 0 0)
(-7.90863117e-12 0 0)
(-6.60998148e-12 0 0)
(-6.73573982e-12 0 0)
(-6.33972975e-12 0 0)
(-6.36253865e-12 0 0)
(-6.58091821e-12 0 0)
(-7.07610088e-12 0 0)
(-6.9927221e-12 0 0)
(-8.085316e-12 0 0)
(-6.61374012e-12 0 0)
(-8.14494257e-12 0 0)
(-7.63767881e-12 0 0)
(-7.40334684e-12 0 0)
(-8.0655577e-12 0 0)
(-8.46224405e-12 0 0)
(-8.53988787e-12 0 0)
(-8.89986219e-12 0 0)
(-8.3278092e-12 0 0)
(-8.37214607e-12 0 0)
(-7.59449898e-12 0 0)
(-8.13542673e-12 0 0)
(-8.77403987e-12 0 0)
(-7.93111655e-12 0 0)
(-7.84111926e-12 0 0)
(-8.8285875e-12 0 0)
(-8.05430504e-12 0 0)
(-7.99857062e-12 0 0)
(-8.79604515e-12 0 0)
(-9.29281378e-12 0 0)
(-7.84838144e-12 0 0)
(-8.66660717e-12 0 0)
(-8.70474771e-12 0 0)
(-9.53647688e-12 0 0)
(-8.55284836e-12 0 0)
(-9.36328371e-12 0 0)
(-9.16657081e-12 0 0)
(-9.30490586e-12 0 0)
(-9.51202758e-12 0 0)
(-9.46325474e-12 0 0)
(-9.80855304e-12 0 0)
(-9.83383348e-12 0 0)
(-9.2946584e-12 0 0)
(-9.84548011e-12 0 0)
(-9.31963956e-12 0 0)
(-8.6687618e-12 0 0)
(-1.02771165e-11 0 0)
(-9.40374552e-12 0 0)
(-9.64457094e-12 0 0)
(-9.06297125e-12 0 0)
(-9.43161224e-12 0 0)
(-9.60647376e-12 0 0)
(-1.00559786e-11 0 0)
(-9.24766961e-12 0 0)
(-8.82254467e-12 0 0)
(-9.4851592e-12 0 0)
(-9.43171902e-12 0 0)
(-8.83155154e-12 0 0)
(-9.58536089e-12 0 0)
(-8.5542894e-12 0 0)
(-8.89875938e-12 0 0)
(-9.58379191e-12 0 0)
(-8.75251871e-12 0 0)
(-8.8986558e-12 0 0)
(-9.39524785e-12 0 0)
(-9.23095954e-12 0 0)
(-8.55795761e-12 0 0)
(-7.77742024e-12 0 0)
(-8.72298825e-12 0 0)
(-8.4160411e-12 0 0)
(-6.75097566e-12 0 0)
(-7.27372607e-12 0 0)
(-7.27049411e-12 0 0)
(-7.53146829e-12 0 0)
(-8.51808912e-12 0 0)
(-7.45833087e-12 0 0)
(-6.96333549e-12 0 0)
(-6.60912363e-12 0 0)
(-7.50309454e-12 0 0)
(-7.58169232e-12 0 0)
(-7.31777009e-12 0 0)
(-6.68464114e-12 0 0)
(-6.79978271e-12 0 0)
(-7.67723948e-12 0 0)
(-6.824755e-12 0 0)
(-6.14463838e-12 0 0)
(-7.80343439e-12 0 0)