/*--------------------------------*- C++ -*----------------------------------*\
| =========                 |                                                 |
| \\      /  F ield         | OpenFOAM: The Open Source CFD Toolbox           |
|  \\    /   O peration     | Version:  2206                                  |
|   \\  /    A nd           | Website:  www.openfoam.com                      |
|    \\/     M anipulation  |                                                 |
\*---------------------------------------------------------------------------*/
FoamFile
{
    version     2.0;
    format      ascii;
    arch        "LSB;label=32;scalar=64";
    class       surfaceScalarField;
    location    "1.48e-05";
    object      phi;
}
// * * * * * * * * * * * * * * * * * * * * * * * * * * * * * * * * * * * * * //

dimensions      [1 0 -1 0 0 0 0];

oriented        oriented;

internalField   nonuniform List<scalar> 
3182
(
5.27627428e-18
-2.30290183e-18
-1.86804937e-18
-2.01769002e-18
-5.9768683e-21
-3.3494502e-23
-2.37566161e-24
1.83135252e-26
3.98630434e-24
6.89762907e-23
6.34942619e-20
3.81687058e-18
3.58498654e-18
5.29570233e-19
1.44634193e-18
-1.12998742e-18
-4.16637069e-18
-4.91580365e-18
-4.40180091e-18
4.30488371e-18
6.64688664e-20
1.64044712e-21
1.06858777e-18
2.30788655e-18
4.02555146e-18
2.28292575e-18
7.70006864e-18
1.774312e-18
7.92142562e-20
1.03213548e-18
-1.15701656e-18
-2.55511195e-18
-5.54352534e-18
-6.38434448e-18
-5.9650899e-18
-5.5061379e-18
-4.30279579e-18
-4.93309107e-18
-6.84200805e-18
-5.21090792e-18
-3.78600812e-18
1.5233947e-20
1.84598668e-18
2.46274857e-18
2.41392392e-18
6.07224748e-18
7.25498218e-18
8.55701298e-18
1.02982345e-17
1.20519645e-17
1.18318823e-17
1.02337701e-17
1.02039379e-17
7.92722723e-18
5.86522451e-18
2.41267004e-18
2.33167407e-19
-3.01354471e-18
-4.98134456e-18
-6.94733498e-18
-9.10645655e-18
-1.19628291e-17
-1.30911631e-17
-1.60868556e-17
-1.84057227e-17
-2.05855148e-17
-2.29860307e-17
-2.51408281e-17
-2.68907058e-17
-2.82591728e-17
-2.95165703e-17
-3.15127142e-17
-3.11634078e-17
-3.22074327e-17
-3.39594052e-17
-3.43865353e-17
-3.40604592e-17
-3.40329099e-17
-3.44802875e-17
-3.4355637e-17
-3.44099908e-17
-3.38222323e-17
-3.60941487e-17
-3.69661673e-17
-3.57119724e-17
-3.52465658e-17
-3.75092417e-17
-3.76331294e-17
-3.89877343e-17
-3.79577398e-17
-3.92912139e-17
-4.13748537e-17
-4.09418956e-17
-4.08070755e-17
-4.05552181e-17
-4.03837468e-17
-4.44611813e-17
-4.55253155e-17
-4.22345235e-17
-4.21365603e-17
-4.41844353e-17
-4.68807763e-17
-4.42262726e-17
-4.55947885e-17
-4.70848837e-17
-4.24389414e-17
-4.43752973e-17
-4.39444019e-17
-4.61230685e-17
-4.67297304e-17
-4.89828232e-17
-5.08452951e-17
-4.77302949e-17
-5.18786993e-17
-5.08241403e-17
-5.20882338e-17
-5.21137212e-17
-5.46292031e-17
-5.38577177e-17
-5.43375487e-17
-5.44580358e-17
-5.11071573e-17
-5.47061184e-17
-5.54344298e-17
-5.64525994e-17
-5.53382516e-17
-5.61756888e-17
-5.47217061e-17
-5.40950808e-17
-5.55940749e-17
-5.559141e-17
-6.04352127e-17
-6.00022784e-17
-6.00649371e-17
-5.93448543e-17
-6.12775821e-17
-6.08660444e-17
-5.99616459e-17
-5.85364103e-17
-5.58324569e-17
-6.10383603e-17
-6.11175884e-17
-6.3560085e-17
-6.48757866e-17
-6.73116659e-17
-6.80010925e-17
-6.76898189e-17
-6.83369455e-17
-6.8819237e-17
-6.7732678e-17
-6.81770756e-17
-6.69703631e-17
-7.05811496e-17
-6.90569313e-17
-6.79394295e-17
-6.73441478e-17
-6.59165807e-17
-6.73518204e-17
-6.82491301e-17
-6.83867391e-17
-6.70302426e-17
-6.94461008e-17
-7.04921127e-17
-7.39280726e-17
-7.45718117e-17
-7.53232407e-17
-7.35985834e-17
-7.62706132e-17
-7.78667828e-17
-7.74275625e-17
-7.55753536e-17
-7.63574405e-17
-7.30368806e-17
-7.0927353e-17
-7.17198851e-17
-7.14560447e-17
-7.38742359e-17
-7.68491343e-17
-7.47611957e-17
-7.46747042e-17
-7.25478876e-17
-7.55192891e-17
-7.5734966e-17
-7.57311286e-17
-7.50084427e-17
-7.40826961e-17
-7.58964593e-17
-7.51042498e-17
-7.8304298e-17
-7.57600758e-17
-7.92679633e-17
-7.81765749e-17
-7.95434125e-17
-7.88880031e-17
-7.87729366e-17
-7.6259287e-17
-7.74240867e-17
-7.9206428e-17
-8.11215117e-17
-8.28143908e-17
-8.26124175e-17
-8.82337409e-17
-8.84619487e-17
-9.14595538e-17
-9.26660085e-17
-9.19364628e-17
-9.41654574e-17
-9.10438652e-17
-8.85050043e-17
-9.42335659e-17
-9.34670319e-17
-9.40096881e-17
-9.50046573e-17
-9.05934515e-17
-9.1270686e-17
-9.35415942e-17
-9.49900106e-17
-9.23916418e-17
-9.42415313e-17
-9.47604139e-17
-9.61615673e-17
-9.56835755e-17
-9.67897596e-17
-9.54622128e-17
-9.96766504e-17
-9.88597334e-17
-9.83854366e-17
-9.80945556e-17
-9.83636648e-17
-9.86927827e-17
-9.59769197e-17
-9.75547989e-17
-9.83175882e-17
-9.64480374e-17
-9.93373887e-17
-1.00089027e-16
-9.94007878e-17
-9.80876088e-17
-9.95150367e-17
-1.01736712e-16
-1.0098241e-16
-1.02724214e-16
-1.01131381e-16
-1.00479581e-16
-1.00843202e-16
-1.0305422e-16
-1.04027047e-16
-1.04703803e-16
-1.02735513e-16
-1.03980352e-16
-1.0642028e-16
-1.04883012e-16
-1.02693092e-16
-1.02227365e-16
-1.02907564e-16
-1.02737794e-16
-1.04759744e-16
-1.05200621e-16
-1.0540907e-16
-1.05216331e-16
-1.06396411e-16
-1.07720998e-16
-1.05909685e-16
-1.05456021e-16
-1.05656558e-16
-1.0635481e-16
-1.07966625e-16
-1.10240576e-16
-1.09009476e-16
-1.10693289e-16
-1.09181596e-16
-1.10582793e-16
-1.08468026e-16
-1.10848437e-16
-1.09025343e-16
-1.09125018e-16
-1.07056467e-16
-1.08111201e-16
-1.05253795e-16
-1.0705305e-16
-1.10298528e-16
-1.0974699e-16
-1.13409565e-16
-1.15354257e-16
-1.14284283e-16
-1.17227266e-16
-1.1444134e-16
-1.12640325e-16
-1.13919117e-16
-1.14131073e-16
-1.13719863e-16
-1.1653079e-16
-1.13423124e-16
-1.12449719e-16
-1.11118719e-16
-1.14017204e-16
-1.14619416e-16
-1.15194495e-16
-1.12161088e-16
-1.12265035e-16
-1.13105154e-16
-1.10262483e-16
-1.11009576e-16
-1.09652405e-16
-1.1205565e-16
-1.13676418e-16
-1.12992442e-16
-1.16053853e-16
-1.18013124e-16
-1.17383147e-16
-1.195584e-16
-1.20630374e-16
-1.22106266e-16
-1.18523828e-16
-1.20747293e-16
-1.19981944e-16
-1.18415552e-16
-1.19607955e-16
-1.22544661e-16
-1.24494365e-16
-1.2484666e-16
-1.25283638e-16
-1.25548551e-16
-1.23039956e-16
-1.23155515e-16
-1.2248997e-16
-1.21775722e-16
-1.21556611e-16
-1.26231762e-16
-1.23673583e-16
-1.21743359e-16
-1.24799765e-16
-1.20462793e-16
-1.14810616e-16
-1.13162946e-16
-1.13428072e-16
-1.14556297e-16
-1.1285635e-16
-1.16267685e-16
-1.16953797e-16
-1.15129799e-16
-1.1780714e-16
-1.14825916e-16
-1.14182864e-16
-1.14883993e-16
-1.17251361e-16
-1.16401964e-16
-1.17695152e-16
-1.1717017e-16
-1.15970225e-16
-1.17716448e-16
-1.15261035e-16
-1.16485945e-16
-1.14957787e-16
-1.11766945e-16
-1.12627062e-16
-1.13014374e-16
-1.14749021e-16
-1.12325976e-16
-1.10995911e-16
-1.10374395e-16
-1.09074325e-16
-1.12016289e-16
-1.13555495e-16
-1.1170702e-16
-1.11295637e-16
-1.11782872e-16
-1.10911751e-16
-1.09626554e-16
-1.14075602e-16
-1.11717355e-16
-1.10017633e-16
-1.07997078e-16
-1.08260455e-16
-1.07244408e-16
-1.08422353e-16
-1.07868204e-16
-1.09804697e-16
-1.07764009e-16
-1.11478074e-16
-1.09906386e-16
-1.11444736e-16
-1.15828733e-16
-1.15266007e-16
-1.14549499e-16
-1.15040899e-16
-1.14673335e-16
-1.15823003e-16
-1.13275599e-16
-1.15192415e-16
-1.16225375e-16
-1.11434887e-16
-1.15267244e-16
-1.1264099e-16
-1.11659085e-16
-1.12270009e-16
-1.06453093e-16
-1.14156819e-16
-1.11962083e-16
-1.10530748e-16
-1.10467981e-16
-1.1053095e-16
-1.10477388e-16
-1.07272866e-16
-1.06614387e-16
-1.06734685e-16
-1.04271976e-16
-1.057947e-16
-1.01830742e-16
-1.02348307e-16
-1.00406455e-16
-9.88187435e-17
-9.71651807e-17
-9.84204208e-17
-9.82224003e-17
-9.5755616e-17
-9.72288428e-17
-9.47275661e-17
-9.53558603e-17
-9.22382942e-17
-9.32029408e-17
-9.03512775e-17
-8.85864741e-17
-8.95208209e-17
-9.00477625e-17
-9.0281142e-17
-9.14739304e-17
-8.8053506e-17
-8.6954941e-17
-8.59747427e-17
-8.68620735e-17
-8.80952763e-17
-8.51154683e-17
-8.39163513e-17
-8.37489945e-17
-7.87420849e-17
-8.14162186e-17
-8.16726791e-17
-7.68514562e-17
-7.49987382e-17
-8.10871392e-17
-8.05815371e-17
-8.09834524e-17
-7.69528166e-17
-7.77178453e-17
-7.29945728e-17
-7.42741327e-17
-7.55727876e-17
-7.57333464e-17
-7.40759107e-17
-7.30297614e-17
-7.39017902e-17
-7.50749509e-17
-7.17762328e-17
-7.23182536e-17
-7.24257212e-17
-7.08201002e-17
-7.31121949e-17
-7.42088589e-17
-7.09786143e-17
-6.93076908e-17
-6.71596646e-17
-6.3280663e-17
-6.25519755e-17
-6.34358933e-17
-5.8935562e-17
-6.22102231e-17
-6.05048629e-17
-5.93625136e-17
-6.06184585e-17
-5.99510191e-17
-5.6132416e-17
-5.54551017e-17
-5.51301969e-17
-5.25527964e-17
-5.36471101e-17
-5.20623597e-17
-5.14173063e-17
-5.20070134e-17
-5.50555268e-17
-5.23163104e-17
-5.30891044e-17
-5.53801481e-17
-5.6253275e-17
-5.2350478e-17
-5.2246362e-17
-5.11862752e-17
-5.13887743e-17
-5.15910816e-17
-5.30415912e-17
-5.10943676e-17
-4.96185873e-17
-5.23342873e-17
-5.22871001e-17
-5.04326339e-17
-5.12583483e-17
-5.13793407e-17
-5.04847509e-17
-5.11880245e-17
-5.17188303e-17
-5.26751822e-17
-5.07123941e-17
-5.21643816e-17
-5.09104188e-17
-4.82176463e-17
-4.54296151e-17
-4.59471757e-17
-4.69412538e-17
-4.51450691e-17
-4.53810831e-17
-4.39069002e-17
-4.30713584e-17
-4.09504038e-17
-4.19516142e-17
-3.99458785e-17
-3.83292727e-17
-3.43531899e-17
-3.66191477e-17
-3.2935723e-17
-3.17285591e-17
-3.2274507e-17
-3.07281966e-17
-2.89370053e-17
-3.11349753e-17
-2.93004597e-17
-3.01695486e-17
-2.96194369e-17
-2.98462863e-17
-2.87725782e-17
-3.16401869e-17
-2.89513737e-17
-3.06019952e-17
-3.14762183e-17
-3.25190745e-17
-3.0950772e-17
-3.03868633e-17
-3.03899179e-17
-3.04818457e-17
-2.95204873e-17
-2.75730562e-17
-2.9529311e-17
-2.89407868e-17
-2.84597329e-17
-2.76546761e-17
-2.65618613e-17
-2.6695128e-17
-2.48023539e-17
-2.66156418e-17
-2.8899628e-17
-2.74497005e-17
-2.55059756e-17
-2.59299347e-17
-2.59915968e-17
-2.88238266e-17
-2.38850088e-17
-2.43875775e-17
-2.45285231e-17
-2.39001791e-17
-2.54294003e-17
-2.2893213e-17
-2.38240772e-17
-2.59939254e-17
-2.82411054e-17
-2.61387e-17
-2.71711202e-17
-2.52273081e-17
-2.41886608e-17
-2.18737815e-17
-1.9997975e-17
-1.8375091e-17
-1.4569524e-17
-1.53613022e-17
-1.31292995e-17
-1.5029321e-17
-1.76711622e-17
-1.52009665e-17
-1.47741429e-17
-1.87098894e-17
-1.63399414e-17
-1.73935482e-17
-1.37147537e-17
-1.25618894e-17
-1.65659036e-17
-1.53323126e-17
-1.50659855e-17
-1.55467801e-17
-1.2621741e-17
-8.48374602e-18
-8.65364777e-18
-8.38011647e-18
-8.44827921e-18
-1.06493942e-17
-8.69817469e-18
-7.88074035e-18
-9.06693229e-18
-8.45403752e-18
-3.25161687e-18
-1.01939752e-18
8.84873808e-20
-3.30381745e-18
-1.23232652e-18
-1.64324094e-18
8.39373265e-19
-1.63593749e-18
-3.44929903e-18
-2.1197267e-18
-2.49834787e-18
-7.06584675e-19
-9.38616132e-19
-3.04283466e-18
-1.3768389e-18
1.26350314e-18
2.36919136e-18
4.86870333e-18
4.2132323e-18
6.66033646e-18
4.85108921e-18
5.35350663e-18
3.85864489e-18
4.79922357e-18
4.44499689e-18
1.92881571e-18
4.92617001e-18
4.93701564e-18
6.05469268e-18
7.64462123e-18
7.48354778e-18
6.09859365e-18
7.14287014e-18
9.94728225e-18
7.74484773e-18
1.0561847e-17
1.06160888e-17
1.35974063e-17
1.23408129e-17
1.30241729e-17
1.6012102e-17
1.55483102e-17
1.50766298e-17
1.52899471e-17
1.72824966e-17
1.41430484e-17
1.39168469e-17
1.55917426e-17
1.34323033e-17
1.34790345e-17
1.50800176e-17
1.55817631e-17
1.68192775e-17
2.07581855e-17
2.02203569e-17
2.20728215e-17
2.19944087e-17
2.25672431e-17
2.26306738e-17
2.26015689e-17
2.74083018e-17
2.26057747e-17
2.19787581e-17
2.06468932e-17
2.22616593e-17
2.24526068e-17
2.09391002e-17
1.9471033e-17
2.30783043e-17
2.54550584e-17
2.76494229e-17
2.81728135e-17
2.98037298e-17
3.06100462e-17
3.16980151e-17
3.38072328e-17
3.43387772e-17
3.39723234e-17
3.1009633e-17
2.99129258e-17
3.02629605e-17
3.41777276e-17
3.67718116e-17
3.68325654e-17
3.31562214e-17
3.29581127e-17
3.29499541e-17
3.3790099e-17
3.46581307e-17
3.37406944e-17
3.78580743e-17
3.67261257e-17
3.67295365e-17
3.91723832e-17
3.90175016e-17
3.76176118e-17
3.40549479e-17
3.50527458e-17
3.64593061e-17
3.74882831e-17
3.67382785e-17
3.82182503e-17
4.2590931e-17
4.62157701e-17
4.58210215e-17
4.75940411e-17
4.9042003e-17
4.52451836e-17
5.00184643e-17
5.15708788e-17
5.24980348e-17
5.28039929e-17
5.31635128e-17
5.12874103e-17
5.22086718e-17
5.15329735e-17
5.23322243e-17
4.89820691e-17
5.20363984e-17
5.25983964e-17
5.5174215e-17
5.7811244e-17
5.62957163e-17
6.04229604e-17
5.95619726e-17
6.1510636e-17
6.10419171e-17
5.97056042e-17
6.08049565e-17
5.77353059e-17
5.84581549e-17
6.14242436e-17
6.14380423e-17
6.31191655e-17
6.42410675e-17
6.4418717e-17
6.32729498e-17
6.65819241e-17
6.79291273e-17
6.45460466e-17
6.64768358e-17
6.63699e-17
6.87718057e-17
6.80706083e-17
6.75156448e-17
6.56096641e-17
6.6015585e-17
6.10651316e-17
6.43861404e-17
6.53087841e-17
6.11356372e-17
6.28252758e-17
6.30370258e-17
6.25377684e-17
6.02334531e-17
6.30379826e-17
6.41191138e-17
6.46839733e-17
6.40823076e-17
5.97662253e-17
6.39775509e-17
6.2885789e-17
6.11948323e-17
5.82726314e-17
6.24617703e-17
6.34775841e-17
6.05856323e-17
6.61912597e-17
6.62812197e-17
6.63928136e-17
6.62467323e-17
6.87352269e-17
7.02797137e-17
6.61328728e-17
6.37381118e-17
6.8617389e-17
6.58290235e-17
6.67445471e-17
7.22937293e-17
7.50318709e-17
7.62750639e-17
7.53538656e-17
7.53803156e-17
7.47738099e-17
7.23851441e-17
7.195185e-17
7.32279277e-17
7.21707483e-17
7.12519722e-17
7.62438211e-17
7.38980232e-17
7.38219589e-17
7.48968101e-17
7.78395748e-17
7.35049498e-17
7.39781893e-17
7.22737174e-17
7.10310274e-17
7.61698152e-17
6.6805455e-17
6.83332959e-17
6.93777856e-17
6.79627892e-17
6.81224304e-17
6.59727245e-17
7.1056343e-17
6.88106643e-17
7.03948414e-17
7.27361472e-17
7.38059929e-17
7.54687396e-17
7.48580022e-17
7.24464272e-17
7.14210163e-17
7.26981928e-17
7.13214614e-17
7.30962176e-17
7.34417741e-17
7.08092373e-17
7.01995671e-17
6.88013686e-17
6.61020608e-17
6.61435901e-17
6.98585957e-17
7.19357868e-17
6.92127732e-17
7.25368591e-17
6.99542506e-17
6.98093206e-17
6.76439112e-17
7.19412161e-17
6.83339441e-17
6.53214698e-17
7.10116491e-17
7.16737188e-17
6.84760655e-17
7.12026934e-17
7.00616499e-17
6.79030085e-17
6.86266848e-17
6.76812301e-17
6.67045288e-17
6.57166772e-17
6.67227214e-17
6.54921678e-17
6.35113934e-17
6.25353165e-17
6.50603132e-17
6.40876912e-17
6.23858474e-17
6.44191283e-17
6.45230035e-17
6.61133896e-17
6.32127112e-17
6.0981425e-17
6.00578051e-17
5.88255297e-17
5.99590338e-17
5.87975592e-17
5.56823591e-17
5.68826604e-17
5.46854411e-17
5.84125828e-17
5.78718138e-17
5.81269858e-17
5.81626455e-17
5.78759052e-17
5.85566629e-17
5.90061881e-17
6.0479896e-17
5.9463132e-17
6.01255388e-17
5.89392482e-17
5.63787409e-17
6.01284813e-17
6.12099122e-17
5.94175553e-17
6.17497253e-17
5.90722084e-17
6.00132159e-17
5.89696341e-17
6.20558042e-17
6.12783156e-17
6.15202449e-17
6.07003265e-17
5.89621229e-17
6.00494089e-17
5.93574758e-17
6.05534629e-17
5.74910273e-17
6.13589488e-17
6.20980274e-17
6.13542849e-17
6.22727186e-17
6.01634033e-17
6.22221978e-17
5.99079094e-17
6.31329492e-17
5.91038702e-17
6.18368706e-17
6.4403552e-17
6.28485844e-17
6.42076765e-17
6.28990133e-17
6.45019416e-17
6.49050483e-17
6.49841602e-17
6.72659121e-17
6.15175625e-17
6.24019316e-17
6.25086545e-17
5.86092673e-17
6.25593218e-17
6.12237174e-17
5.67770705e-17
5.66846141e-17
5.93900612e-17
5.80581077e-17
5.87429499e-17
6.18861886e-17
5.84165653e-17
6.05404966e-17
6.26728121e-17
6.07782106e-17
5.8328306e-17
5.88109165e-17
6.11293275e-17
6.23373544e-17
6.54122547e-17
6.2464014e-17
6.19766092e-17
5.78679267e-17
6.07067172e-17
6.40262839e-17
6.12657217e-17
5.97198879e-17
6.22344033e-17
6.04581487e-17
5.90507808e-17
6.02648308e-17
6.13704428e-17
5.65398519e-17
5.73289379e-17
5.78068161e-17
5.60788391e-17
6.09509046e-17
5.9496444e-17
5.54297929e-17
5.51183573e-17
5.91289838e-17
5.92637433e-17
6.06117838e-17
6.17721166e-17
5.98589046e-17
5.81575113e-17
6.06048645e-17
5.36463747e-17
5.55222014e-17
5.48139272e-17
5.62238536e-17
5.79192569e-17
5.4125917e-17
5.21557409e-17
5.22781674e-17
5.00418783e-17
5.20103911e-17
5.36579838e-17
4.97880182e-17
5.04629606e-17
5.30019748e-17
5.46557698e-17
5.38439554e-17
5.74048013e-17
6.00105067e-17
6.24291878e-17
6.11341743e-17
6.16362101e-17
5.96782921e-17
5.71944278e-17
5.84841475e-17
5.80302024e-17
5.58661271e-17
5.53373746e-17
5.45415986e-17
5.46562686e-17
5.58990823e-17
5.68326541e-17
5.77050215e-17
5.65375447e-17
5.29187373e-17
5.26247923e-17
5.13400326e-17
5.4001323e-17
5.59474399e-17
5.5670513e-17
5.80357625e-17
5.55241259e-17
5.61675102e-17
5.53611885e-17
5.35484775e-17
5.37309813e-17
5.1200193e-17
5.03021769e-17
4.81070562e-17
5.0160884e-17
4.70135845e-17
4.9259688e-17
4.8784964e-17
5.10883356e-17
5.10131768e-17
5.37565529e-17
5.18800002e-17
5.09752147e-17
4.99868735e-17
4.89569612e-17
4.76931273e-17
4.40627538e-17
4.43268015e-17
4.24250117e-17
4.22704271e-17
4.30592107e-17
3.99245672e-17
3.8506346e-17
3.5728047e-17
3.91339851e-17
3.60181684e-17
3.61870432e-17
3.50940664e-17
3.61301704e-17
3.6431154e-17
3.59866963e-17
3.35520869e-17
3.38853088e-17
3.28477094e-17
3.08309671e-17
3.09837122e-17
3.19283703e-17
2.57221864e-17
2.20641838e-17
2.58656448e-17
2.71992017e-17
2.62335689e-17
2.29108079e-17
2.32345746e-17
2.34689e-17
2.33019928e-17
2.32280098e-17
2.51713425e-17
2.49167102e-17
2.46444662e-17
2.29552056e-17
2.30724034e-17
2.16596769e-17
2.30402364e-17
2.17819558e-17
2.29420199e-17
2.22171272e-17
2.10108784e-17
2.32298644e-17
2.15110427e-17
2.50512614e-17
2.41478502e-17
2.64918304e-17
2.72173501e-17
2.63607484e-17
2.78766678e-17
2.58318229e-17
2.64981085e-17
2.13675469e-17
2.27993383e-17
2.39538379e-17
2.33629733e-17
2.23105398e-17
2.30442799e-17
2.40387476e-17
2.54795168e-17
2.6576505e-17
2.8657744e-17
2.76860119e-17
2.87007168e-17
2.57494469e-17
2.39737577e-17
2.49620937e-17
2.47431395e-17
2.46845584e-17
2.5528375e-17
2.13933801e-17
1.77588671e-17
1.9874354e-17
1.73859295e-17
1.87718513e-17
1.81097553e-17
1.55544195e-17
1.70740219e-17
1.87091703e-17
2.01372715e-17
2.06386788e-17
1.98921525e-17
1.25717592e-17
1.52575109e-17
1.46123567e-17
1.44532233e-17
1.79575225e-17
1.41641627e-17
1.46515358e-17
1.40067361e-17
1.5197589e-17
9.94872496e-18
8.1568028e-18
1.05059024e-17
1.03834342e-17
1.23377272e-17
1.51048413e-17
1.07787822e-17
9.76129379e-18
1.21345611e-17
9.86304602e-18
9.4867487e-18
7.49363029e-18
9.23145928e-18
7.38696288e-18
5.09476975e-18
1.89783342e-18
-2.67645899e-19
-5.02912985e-19
-2.99664403e-18
-2.44164168e-18
-5.01963452e-18
-7.72035494e-18
-5.47085377e-18
-7.5604343e-18
-7.86740162e-18
-8.33275964e-18
-1.15730387e-17
-1.4513862e-17
-1.36596993e-17
-1.67855929e-17
-1.82272879e-17
-2.02161766e-17
-1.83515265e-17
-2.23277262e-17
-2.23605286e-17
-2.55574087e-17
-2.59963485e-17
-2.46511051e-17
-2.65570353e-17
-2.68923863e-17
-2.71584491e-17
-2.88814445e-17
-2.82395717e-17
-2.72027351e-17
-2.6529412e-17
-2.52984928e-17
-2.46479759e-17
-2.33651474e-17
-2.2447097e-17
-2.59933503e-17
-2.46696183e-17
-2.5916787e-17
-2.98546938e-17
-2.89023661e-17
-2.83449117e-17
-2.96182259e-17
-3.26473959e-17
-3.27352766e-17
-2.91909599e-17
-3.0511884e-17
-2.85710269e-17
-2.84109591e-17
-2.85362248e-17
-3.23292578e-17
-3.28681728e-17
-3.11034145e-17
-3.10103914e-17
-3.12330906e-17
-3.55872822e-17
-3.50044999e-17
-3.36710379e-17
-3.39295539e-17
-3.74232737e-17
-4.12483337e-17
-3.89404783e-17
-4.13197599e-17
-4.30814431e-17
-4.6754177e-17
-4.98728243e-17
-4.77340778e-17
-4.64506992e-17
-4.68474374e-17
-4.68001426e-17
-4.51028975e-17
-5.08946706e-17
-5.2675117e-17
-5.00732006e-17
-5.09008566e-17
-5.29915188e-17
-5.42552628e-17
-5.12550371e-17
-5.60013501e-17
-5.66519151e-17
-5.60084046e-17
-5.79195398e-17
-5.80815195e-17
-5.95346018e-17
-6.09798298e-17
-6.28566059e-17
-6.57280157e-17
-6.57620847e-17
-6.30048378e-17
-6.39088755e-17
-6.44591014e-17
-6.15125903e-17
-6.41528337e-17
-6.01789909e-17
-6.02288218e-17
-6.25301217e-17
-6.19251309e-17
-6.35188993e-17
-6.3921276e-17
-6.15401274e-17
-6.579213e-17
-6.28716216e-17
-6.39030078e-17
-6.40064927e-17
-6.74749081e-17
-6.56157669e-17
-6.34659624e-17
-6.24894232e-17
-6.14726299e-17
-6.08049655e-17
-6.38417876e-17
-6.58501608e-17
-6.56417336e-17
-6.0858945e-17
-6.36359475e-17
-6.34174848e-17
-6.44323807e-17
-6.7616746e-17
-6.70417797e-17
-6.47147884e-17
-6.36733024e-17
-6.67216325e-17
-6.65929145e-17
-6.70460503e-17
-6.87796118e-17
-6.68869606e-17
-6.49955543e-17
-6.70206399e-17
-6.48884385e-17
-6.80990524e-17
-6.62163201e-17
-6.46391963e-17
-6.21647241e-17
-6.31635945e-17
-6.3080457e-17
-6.41315242e-17
-6.52739559e-17
-6.53661282e-17
-6.5753611e-17
-6.38683872e-17
-5.96272523e-17
-6.21219459e-17
-6.36288468e-17
-6.51970879e-17
-6.50028517e-17
-6.27848668e-17
-6.40336359e-17
-6.40456791e-17
-6.25823611e-17
-6.73202304e-17
-6.65705144e-17
-6.43338353e-17
-6.65859658e-17
-6.64795489e-17
-6.9613676e-17
-6.69076699e-17
-6.87252117e-17
-6.51515304e-17
-6.55873759e-17
-6.91681872e-17
-6.8169139e-17
-6.79822729e-17
-7.26816627e-17
-7.17001451e-17
-7.39290281e-17
-7.23505827e-17
-7.78736382e-17
-7.40984734e-17
-7.50952724e-17
-7.69662554e-17
-7.58441867e-17
-7.53893038e-17
-7.69776417e-17
-7.68828624e-17
-7.55426865e-17
-7.59186252e-17
-7.36323385e-17
-7.15631342e-17
-7.20364792e-17
-7.26891675e-17
-7.17510411e-17
-7.16033381e-17
-7.06198056e-17
-7.19440499e-17
-6.98394257e-17
-7.11072822e-17
-7.09853633e-17
-7.26811424e-17
-7.21741121e-17
-7.24541163e-17
-7.30272717e-17
-7.25985462e-17
-7.03497059e-17
-7.14745678e-17
-7.18982981e-17
-7.05448812e-17
-7.52824513e-17
-7.47411957e-17
-7.54723589e-17
-7.80048907e-17
-7.61850848e-17
-7.90843053e-17
-7.54872716e-17
-7.6452035e-17
-7.72640182e-17
-7.42235837e-17
-7.46990166e-17
-7.55682389e-17
-7.64651302e-17
-7.49210936e-17
-7.30329366e-17
-7.07207217e-17
-6.87593298e-17
-7.11454937e-17
-7.30972891e-17
-7.42749418e-17
-7.0899898e-17
-7.08150342e-17
-7.20030315e-17
-7.44304315e-17
-7.33725262e-17
-7.20321039e-17
-7.05099355e-17
-6.90600207e-17
-6.86366058e-17
-6.68691779e-17
-6.57274748e-17
-6.96856989e-17
-6.92197984e-17
-6.97804765e-17
-6.75160688e-17
-6.84363194e-17
-6.86998161e-17
-6.82101404e-17
-6.61704978e-17
-6.6377913e-17
-6.71039317e-17
-6.48373371e-17
-6.27205508e-17
-6.29223486e-17
-6.22182248e-17
-6.09007767e-17
-6.51373318e-17
-6.61979904e-17
-6.49340741e-17
-6.73377992e-17
-6.48043249e-17
-6.31395971e-17
-6.26369959e-17
-6.52143569e-17
-6.42660937e-17
-6.13503811e-17
-6.39623914e-17
-6.34144173e-17
-6.23549108e-17
-6.18198802e-17
-6.13203373e-17
-6.26318478e-17
-6.05469166e-17
-6.58150268e-17
-5.96909175e-17
-6.4698962e-17
-6.32676453e-17
-6.39837602e-17
-6.32418786e-17
-6.50036744e-17
-6.72109482e-17
-6.71925853e-17
-6.71721543e-17
-6.79377392e-17
-6.70082177e-17
-6.71164857e-17
-6.77231918e-17
-6.61368427e-17
-6.25685709e-17
-6.4004537e-17
-6.21322592e-17
-6.39460645e-17
-6.64196597e-17
-6.54158788e-17
-6.61945056e-17
-6.90909223e-17
-6.9989661e-17
-7.11436216e-17
-6.96674612e-17
-7.02711696e-17
-7.04080419e-17
-7.07684844e-17
-6.87532541e-17
-6.87535746e-17
-7.00752847e-17
-6.77788234e-17
-6.59280172e-17
-6.75741636e-17
-7.08366097e-17
-7.20354848e-17
-7.15123822e-17
-7.42214938e-17
-7.10751346e-17
-7.17085749e-17
-7.43418094e-17
-7.87224036e-17
-7.86545542e-17
-7.79834591e-17
-7.65936516e-17
-7.68827672e-17
-7.45330977e-17
-7.99935053e-17
-7.855122e-17
-7.95178205e-17
-7.87037941e-17
-7.68713457e-17
-7.732256e-17
-7.48259478e-17
-7.47474247e-17
-7.59567678e-17
-7.37062887e-17
-7.27329769e-17
-7.24154111e-17
-7.3901591e-17
-7.25678637e-17
-6.9635502e-17
-6.94793424e-17
-7.12673922e-17
-7.2568344e-17
-7.05450117e-17
-7.25568384e-17
-6.91367398e-17
-6.9320638e-17
-6.89754978e-17
-7.09260208e-17
-7.05820934e-17
-6.88689334e-17
-6.6564965e-17
-6.6241847e-17
-6.89662141e-17
-6.97310442e-17
-6.98275753e-17
-7.13536748e-17
-6.96728209e-17
-6.93023672e-17
-6.73358084e-17
-6.55377783e-17
-6.31389092e-17
-6.56693534e-17
-6.50478329e-17
-6.46989639e-17
-6.19273452e-17
-5.96619826e-17
-6.02462253e-17
-5.85653121e-17
-5.95645992e-17
-6.03401388e-17
-5.91027614e-17
-5.97495738e-17
-6.05898977e-17
-5.72963587e-17
-5.63617208e-17
-5.674755e-17
-5.41506761e-17
-5.33808999e-17
-5.41681743e-17
-5.40594459e-17
-5.34357382e-17
-5.36825927e-17
-4.93913312e-17
-5.4309924e-17
-4.92363143e-17
-4.88091389e-17
-5.01015715e-17
-5.14483544e-17
-4.82477174e-17
-5.09262396e-17
-4.6566405e-17
-4.36550689e-17
-4.41938042e-17
-4.45221469e-17
-4.27323874e-17
-4.42679463e-17
-4.33142895e-17
-4.63756731e-17
-4.49128436e-17
-4.48062676e-17
-4.03053007e-17
-4.29151048e-17
-4.24084577e-17
-4.23482668e-17
-4.46322684e-17
-3.867525e-17
-4.2098636e-17
-3.89301207e-17
-3.83317639e-17
-3.82575542e-17
-4.09651544e-17
-3.7531793e-17
-3.90520177e-17
-3.51501034e-17
-3.32282405e-17
-3.40130335e-17
-3.14042964e-17
-3.35004043e-17
-3.34445296e-17
-3.69142013e-17
-3.48935369e-17
-3.12048261e-17
-3.1586541e-17
-3.21945495e-17
-3.0908561e-17
-2.86686424e-17
-3.08912277e-17
-2.85347598e-17
-2.89521441e-17
-2.89004509e-17
-2.87840794e-17
-2.93079858e-17
-3.32822618e-17
-2.7734151e-17
-2.46915604e-17
-2.36354635e-17
-2.22364134e-17
-2.18364544e-17
-2.06168602e-17
-2.28028512e-17
-2.22302768e-17
-2.21977429e-17
-2.13433926e-17
-2.03982045e-17
-2.01923252e-17
-2.08369967e-17
-1.83061264e-17
-2.04571271e-17
-2.12645409e-17
-1.99668647e-17
-1.96190762e-17
-1.95959946e-17
-1.74125513e-17
-1.68955095e-17
-1.75786805e-17
-1.65921788e-17
-1.78540565e-17
-1.69599344e-17
-1.4088654e-17
-1.83180509e-17
-1.78508677e-17
-1.96531395e-17
-1.93879481e-17
-1.98746227e-17
-1.97207074e-17
-2.15188126e-17
-1.97866997e-17
-1.93034547e-17
-2.022614e-17
-1.88483872e-17
-1.57707417e-17
-1.83421434e-17
-1.61093597e-17
-1.55428129e-17
-1.73866682e-17
-1.46600856e-17
-1.64771886e-17
-1.79485843e-17
-1.61968527e-17
-1.5951778e-17
-1.55637073e-17
-1.56032373e-17
-1.6141185e-17
-1.35770655e-17
-1.45328852e-17
-1.3401161e-17
-1.13944075e-17
-9.97829458e-18
-1.58212109e-17
-1.66886215e-17
-1.46151955e-17
-1.14766346e-17
-1.16366859e-17
-1.23846675e-17
-8.9796405e-18
-6.69470302e-18
-7.89687188e-18
-4.45430054e-18
-4.33310682e-18
-6.21792535e-18
-1.22899382e-18
-3.6513231e-18
4.44947936e-19
-4.24574184e-18
-5.20506734e-18
-1.76066401e-18
-2.29948224e-18
-3.11982818e-18
-1.6360767e-18
1.93430575e-21
-7.13550245e-19
4.04890328e-18
2.54836306e-18
3.67408866e-18
2.12673053e-18
1.76585703e-18
-4.1053849e-20
3.52020988e-18
1.40805768e-18
1.66461439e-18
2.43349705e-18
1.60399003e-18
3.94991412e-18
3.537658e-18
5.0518287e-18
6.92899404e-18
6.83850031e-18
9.12666671e-18
8.17900134e-18
7.74674751e-18
1.23588824e-17
1.52377589e-17
1.36938251e-17
1.38157043e-17
1.27482688e-17
1.32876296e-17
1.42651542e-17
1.06236636e-17
1.75858812e-17
1.49040984e-17
1.52939292e-17
2.25591032e-17
2.11670296e-17
2.15761464e-17
2.44699892e-17
2.83793567e-17
2.86912539e-17
3.38405816e-17
3.52738169e-17
3.46574756e-17
3.47305996e-17
3.32567615e-17
3.54514849e-17
3.43232429e-17
3.32537426e-17
3.3901399e-17
3.69688215e-17
3.56164614e-17
3.79334129e-17
3.78202959e-17
3.52524277e-17
3.90434926e-17
3.65165533e-17
3.54165869e-17
3.75549954e-17
3.80373065e-17
4.25456798e-17
4.01419614e-17
4.19075784e-17
4.12155646e-17
4.3986532e-17
4.32994941e-17
4.5356496e-17
4.59820856e-17
4.51776327e-17
4.67962697e-17
4.80150835e-17
5.10296271e-17
5.19755218e-17
5.31941165e-17
5.4405497e-17
5.50164872e-17
5.53307371e-17
5.89030387e-17
6.2499848e-17
6.24540875e-17
6.59189384e-17
6.78708362e-17
7.09334655e-17
7.61594713e-17
7.77047717e-17
8.11908981e-17
8.71928865e-17
8.86597061e-17
9.53147757e-17
9.86879654e-17
1.05637118e-16
1.07303587e-16
1.12387261e-16
1.15889796e-16
1.23289502e-16
1.28893601e-16
1.33997997e-16
1.44658034e-16
1.54260463e-16
1.62986066e-16
1.70793334e-16
1.81336174e-16
1.85981519e-16
1.96851732e-16
2.10229055e-16
2.23591615e-16
2.38257778e-16
2.51795696e-16
2.65213222e-16
2.8280798e-16
2.99126512e-16
3.17045669e-16
3.38440013e-16
3.62184242e-16
3.84207892e-16
4.08416733e-16
4.38024984e-16
4.70349387e-16
4.98882962e-16
5.37162513e-16
5.72410637e-16
6.13304907e-16
6.57673976e-16
7.0678417e-16
7.60288885e-16
8.12316608e-16
8.73036702e-16
9.35065818e-16
1.00529583e-15
1.07934297e-15
1.15976745e-15
1.24752395e-15
1.34143771e-15
1.44212596e-15
1.55356116e-15
1.67683133e-15
1.80020158e-15
1.93719081e-15
2.08755803e-15
2.24742626e-15
2.41877822e-15
2.60281003e-15
2.80735617e-15
3.01848255e-15
3.24975869e-15
3.49459905e-15
3.76178858e-15
4.04951861e-15
4.35538283e-15
4.69436343e-15
5.04880653e-15
5.43869484e-15
5.85107424e-15
6.29462043e-15
6.77574896e-15
7.29552406e-15
7.85015057e-15
8.44848968e-15
9.09091458e-15
9.78361337e-15
1.05292597e-14
1.13288509e-14
1.21879466e-14
1.31101972e-14
1.410403e-14
1.51744687e-14
1.63240155e-14
1.75582365e-14
1.88794433e-14
2.03024586e-14
2.18330676e-14
2.34754093e-14
2.5236055e-14
2.71283688e-14
2.91592242e-14
3.13401074e-14
3.3685974e-14
3.61982425e-14
3.88994791e-14
4.17930294e-14
4.48961524e-14
4.82272847e-14
5.18009836e-14
5.563513e-14
5.97463036e-14
6.41598524e-14
6.88891079e-14
7.39602084e-14
7.93944391e-14
8.52247958e-14
9.14706989e-14
9.8164922e-14
1.05335192e-13
1.13015833e-13
1.21244402e-13
1.30060116e-13
1.39502677e-13
1.49616855e-13
1.604393e-13
1.72040095e-13
1.84447249e-13
1.97734181e-13
2.11951152e-13
2.27169277e-13
2.43452499e-13
2.60874864e-13
2.79509009e-13
2.99441901e-13
3.20762743e-13
3.43560937e-13
3.6794377e-13
3.94012374e-13
4.21877141e-13
4.51662175e-13
4.83496229e-13
5.17511792e-13
5.5386158e-13
5.92693086e-13
6.3417632e-13
6.78484582e-13
7.25807977e-13
7.76339489e-13
8.3029516e-13
8.87896896e-13
9.49386142e-13
1.01501179e-12
1.08504791e-12
1.15977814e-12
1.23950955e-12
1.32456406e-12
1.41528809e-12
1.51205298e-12
1.61523351e-12
1.72525386e-12
1.8425467e-12
1.96757675e-12
2.1008354e-12
2.24284961e-12
2.3941738e-12
2.5553962e-12
2.72714679e-12
2.91008581e-12
3.10491348e-12
3.31237878e-12
3.53327756e-12
3.76844211e-12
4.01876179e-12
4.28516965e-12
4.56868335e-12
4.87034028e-12
5.19126524e-12
5.53264934e-12
5.89574154e-12
6.2818658e-12
6.69243814e-12
7.12893715e-12
7.59294608e-12
8.08612809e-12
8.61024675e-12
9.16716604e-12
9.75885157e-12
1.0387397e-11
1.10549977e-11
1.17639843e-11
1.25168248e-11
1.33161073e-11
1.41645838e-11
1.50651608e-11
1.60208989e-11
1.70350324e-11
1.81109794e-11
1.9252347e-11
2.04629319e-11
2.1746759e-11
2.31080554e-11