/*--------------------------------*- C++ -*----------------------------------*\
| =========                 |                                                 |
| \\      /  F ield         | OpenFOAM: The Open Source CFD Toolbox           |
|  \\    /   O peration     | Version:  2206                                  |
|   \\  /    A nd           | Website:  www.openfoam.com                      |
|    \\/     M anipulation  |                                                 |
\*---------------------------------------------------------------------------*/
FoamFile
{
    version     2.0;
    format      ascii;
    arch        "LSB;label=32;scalar=64";
    class       volScalarField;
    location    "1.48e-05";
    object      PVsourcePV;
}
// * * * * * * * * * * * * * * * * * * * * * * * * * * * * * * * * * * * * * //

dimensions      [1 -3 -1 0 0 0 0];

internalField   nonuniform List<scalar> 
3183
(
0
0
0
0
0
0
0
0
0
0
0
0
0
0
0
0
0
0
0
0
0
0
0
0
0
0
0
0
0
0
0
0
0
0
0
0
0
0
0
0
0
0
0
0
0
0
0
0
0
0
0
0
0
0
0
0
0
0
0
0
0
0
0
0
0
0
0
0
0
0
0
0
0
0
0
0
0
0
0
0
0
0
0
0
0
0
0
0
0
0
0
0
0
0
0
0
0
0
0
0
0
0
0
0
0
0
0
0
0
0
0
0
0
0
0
0
0
0
0
0
0
0
0
0
0
0
0
0
0
0
0
0
0
0
0
0
0
0
0
0
0
0
0
0
0
0
0
0
0
0
0
0
0
0
0
0
0
0
0
0
0
0
0
0
0
0
0
0
0
0
0
0
0
0
0
0
0
0
0
0
0
0
0
0
0
0
0
0
0
0
0
0
0
0
0
0
0
0
0
0
0
0
0
0
0
0
0
0
0
0
0
0
0
0
0
0
0
0
0
0
0
0
0
0
0
0
0
0
0
0
0
0
0
0
0
0
0
0
0
0
0
0
0
0
0
0
0
0
0
0
0
0
0
0
0
0
0
0
0
0
0
0
0
0
0
0
0
0
0
0
0
0
0
0
0
0
0
0
0
0
0
0
0
0
0
0
0
0
0
0
0
0
0
0
0
0
0
0
0
0
0
0
0
0
0
0
0
0
0
0
0
0
0
0
0
0
0
0
0
0
0
0
0
0
0
0
0
0
0
0
0
0
0
0
0
0
0
0
0
0
0
0
0
0
0
0
0
0
0
0
0
0
0
0
0
0
0
0
0
0
0
0
0
0
0
0
0
0
0
0
0
0
0
0
0
0
0
0
0
0
0
0
0
0
0
0
0
0
0
0
0
0
0
0
0
0
0
0
0
0
0
0
0
0
0
0
0
0
0
0
0
0
0
0
0
0
0
0
0
0
0
0
0
0
0
0
0
0
0
0
0
0
0
0
0
0
0
0
0
0
0
0
0
0
0
0
0
0
0
0
0
0
0
0
0
0
0
0
0
0
0
0
0
0
0
0
0
0
0
0
0
0
0
0
0
0
0
0
0
0
0
0
0
0
0
0
0
0
0
0
0
0
0
0
0
0
0
0
0
0
0
0
0
0
0
0
0
0
0
0
0
0
0
0
0
0
0
0
0
0
0
0
0
0
0
0
0
0
0
0
0
0
0
0
0
0
0
0
0
0
0
0
0
0
0
0
0
0
0
0
0
0
0
0
0
0
0
0
0
0
0
0
0
0
0
0
0
0
0
0
0
0
0
0
0
0
0
0
0
0
0
0
0
0
0
0
0
0
0
0
0
0
0
0
0
0
0
0
0
0
0
0
0
0
0
0
0
0
0
0
0
0
0
0
0
0
0
0
0
0
0
0
0
0
0
0
0
0
0
0
0
0
0
0
0
0
0
0
0
0
0
0
0
0
0
0
0
0
0
0
0
0
0
0
0
0
0
0
0
0
0
0
0
0
0
0
0
0
0
0
0
0
0
0
0
0
0
0
0
0
0
0
0
0
0
0
0
0
0
0
0
0
0
0
0
0
0
0
0
0
0
0
0
0
0
0
0
0
0
0
0
0
0
0
0
0
0
0
0
0
0
0
0
0
0
0
0
0
0
0
0
0
0
0
0
0
0
0
0
0
0
0
0
0
0
0
0
0
0
0
0
0
0
0
0
0
0
0
0
0
0
0
0
0
0
0
0
0
0
0
0
0
0
0
0
0
0
0
0
0
0
0
0
0
0
0
0
0
0
0
0
0
0
0
0
0
0
0
0
0
0
0
0
0
0
0
0
0
0
0
0
0
0
0
0
0
0
0
0
0
0
0
0
0
0
0
0
0
0
0
0
0
0
0
0
0
0
0
0
0
0
0
0
0
0
0
0
0
0
0
0
0
0
0
0
0
0
0
0
0
0
0
0
0
0
0
0
0
0
0
0
0
0
0
0
0
0
0
0
0
0
0
0
0
0
0
0
0
0
0
0
0
0
0
0
0
0
0
0
0
0
0
0
0
0
0
0
0
0
0
0
0
0
0
0
0
0
0
0
0
0
0
0
0
0
0
0
0
0
0
0
0
0
0
0
0
0
0
0
0
0
0
0
0
0
0
0
0
0
0
0
0
0
0
0
0
0
0
0
0
0
0
0
0
0
0
0
0
0
0
0
0
0
0
0
0
0
0
0
0
0
0
0
0
0
0
0
0
0
0
0
0
0
0
0
0
0
0
0
0
0
0
0
0
0
0
0
0
0
0
0
0
0
0
0
0
0
0
0
0
0
0
0
0
0
0
0
0
0
0
0
0
0
0
0
0
0
0
0
0
0
0
0
0
0
0
0
0
0
0
0
0
0
0
0
0
0
0
0
0
0
0
0
0
0
0
0
0
0
0
0
0
0
0
0
0
0
0
0
0
0
0
0
0
0
0
0
0
0
0
0
0
0
0
0
0
0
0
0
0
0
0
0
0
0
0
0
0
0
0
0
0
0
0
0
0
0
0
0
0
0
0
0
0
0
0
0
0
0
0
0
0
0
0
0
0
0
0
0
0
0
0
0
0
0
0
0
0
0
0
0
0
0
0
0
0
0
0
0
0
0
0
0
0
0
0
0
0
0
0
0
0
0
0
0
0
0
0
0
0
0
0
0
0
0
0
0
0
0
0
0
0
0
0
0
0
0
0
0
0
0
0
0
0
0
0
0
0
0
0
0
0
0
0
0
0
0
0
0
0
0
0
0
0
0
0
0
0
0
0
0
0
0
0
0
0
0
0
0
0
0
0
0
0
0
0
0
0
0
0
0
0
0
0
0
0
0
0
0
0
0
0
0
0
0
0
0
0
0
0
0
0
0
0
0
0
0
0
0
0
0
0
0
0
0
0
0
0
0
0
0
0
0
0
0
0
0
0
0
0
0
0
0
0
0
0
0
0
0
0
0
0
0
0
0
0
0
0
0
0
0
0
0
0
0
0
0
0
0
0
0
0
0
0
0
0
0
0
0
0
0
0
0
0
0
0
0
0
0
0
0
0
0
0
0
0
0
0
0
0
0
0
0
0
0
0
0
0
0
0
0
0
0
0
0
0
0
0
0
0
0
0
0
0
0
0
0
0
0
0
0
0
0
0
0
0
0
0
0
0
0
0
0
0
0
0
0
0
0
0
0
0
0
0
0
0
0
0
0
0
0
0
0
0
0
0
0
0
0
0
0
0
0
0
0
0
0
0
0
0
0
0
0
0
0
0
0
0
0
0
0
0
0
0
0
0
0
0
0
0
0
0
0
0
0
0
0
0
0
0
0
0
0
0
0
0
0
0
0
0
0
0
0
0
0
0
0
0
0
0
0
0
0
0
0
0
0
0
0
0
0
0
0
0
0
0
0
0
0
0
0
0
0
0
0
0
0
0
0
0
0
0
0
0
0
0
0
0
0
0
0
0
0
0
0
0
0
0
0
0
0
0
0
0
0
0
0
0
0
0
0
0
0
0
0
0
0
0
0
0
0
0
0
0
0
0
0
0
0
0
0
0
0
0
0
0
0
0
0
0
0
0
0
0
0
0
0
0
0
0
0
0
0
0
0
0
0
0
0
0
0
0
0
0
0
0
0
0
0
0
0
0
0
0
0
0
0
0
0
0
0
0
0
0
0
0
0
0
0
0
0
0
0
0
0
0
0
0
0
0
0
0
0
0
0
0
0
0
0
0
0
0
0
0
0
0
0
0
0
0
0
0
0
0
0
0
0
0
0
0
0
0
0
0
0
0
0
0
0
0
0
0
0
0
0
0
0
0
0
0
0
0
0
0
0
0
0
0
0
0
0
0
0
0
0
0
0
0
0
0
0
0
0
0
0
0
0
0
0
0
0
0
0
0
0
0
0
0
0
0
0
0
0
0
0
0
0
0
0
0
0
0
0
0
0
0
0
0
0
0
0
0
0
0
0
0
0
0
0
0
0
0
0
0
0
0
0
0
0
0
0
0
0
0
0
0
0
0
0
0
0
0
0
0
0
0
0
0
0
0
0
0
0
0
0
0
0
0
0
0
0
0
0
0
0
0
0
0
0
0
0
0
0
0
0
0
0
0
0
0
0
0
0
0
0
0
0
0
0
0
0
0
0
0
0
0
0
0
0
0
0
0
0
0
0
0
0
0
0
0
0
0
0
0
0
0
0
0
0
0
0
0
0
0
0
0
0
0
0
0
0
0
0
0
0
0
0
0
0
0
0
0
0
0
0
0
0
0
0
0
0
0
0
0
0
0
0
0
0
0
0
0
0
0
0
0
0
0
0
0
0
0
0
0
0
0
0
0
0
0
0
0
0
0
0
0
0
0
0
0
0
0
0
0
0
0
0
0
0
0
0
0
0
0
0
0
0
0
0
0
0
0
0
0
0
0
0
0
0
0
0
0
0
0
0
0
0
0
0
0
0
0
0
0
0
0
0
0
0
0
0
0
0
0
0
0
0
0
0
0
0
0
0
0
0
0
0
0
0
0
0
0
0
0
0
0
0
0
0
0
0
0
0
0
0
0
0
0
0
0
0
0
0
0
0
0
0
0
0
0
0
0
0
0
0
0
0
0
0
0
0
0
0
0
0
0
0
0
0
0
0
0
0
0
0
0
0
0
0
0
0
0
0
0
0
0
0
0
0
0
0
0
0
0
0
0
0
0
0
0
0
0
0
0
0
0
0
0
0
0
0
0
0
0
0
0
0
0
0
0
0
0
0
0
0
0
0
0
0
0
0
0
0
0
0
0
0
0
0
0
0
0
0
0
0
0
0
0
0
0
0
0
0
0
0
0
0
0
0
0
0
0
0
0
0
0
0
0
0
0
0
0
0
0
0
0
0
0
0
0
0
0
0
0
0
0
0
0
0
0
0
0
0
0
0
0
0
0
0
0
0
0
0
0
0
0
0
0
0
0
0
0
0
0
0
0
0
0
0
0
0
0
0
0
0
0
0
0
0
0
0
0
0
0
0
0
0
0
0
0
0
0
0
0
0
0
0
0
0
0
0
0
0
0
0
0
0
0
0
0
0
0
0
0
0
0
0
0
0
0
0
0
0
0
0
0
0
0
0
0
0
0
0
0
0
0
0
0
0
0
0
0
0
0
0
0
0
0
0
0
0
0
0
0
0
0
0
0
0
0
0
0
0
0
0
0
0
0
0
0
0
0
0
0
0
0
0
0
0
0
0
0
0
0
0
0
0
0
0
0
0
0
0
0
0
0
0
0
0
0
0
0
0
0
0
0
0
0
0
0
0
0
0
0
0
0
0
0
0
0
0
0
0
0
0
0
0
0
0
0
0
0
0
0
0
1.88213998e-299
7.25737589e-300
1.14756497e-296
4.49825338e-297
6.92195269e-294
2.75722971e-294
4.13059729e-291
1.67136052e-291
2.43857395e-288
1.0020012e-288
1.42430461e-285
5.94133377e-286
8.23034067e-283
3.48400312e-283
4.70526307e-280
2.02092467e-280
2.66135889e-277
1.15952633e-277
1.48928484e-274
6.57793818e-275
8.24531657e-272
3.69335859e-272
4.51639248e-269
2.05101622e-269
2.44753787e-266
1.12709451e-266
1.31225515e-263
6.12248308e-264
6.96073463e-261
3.28974254e-261
3.65288237e-258
1.74849099e-258
1.89650979e-255
9.1924431e-256
9.74108489e-253
4.78037827e-253
4.94977577e-250
2.45897349e-250
2.48818038e-247
1.25112594e-247
1.23733577e-244
6.29648202e-245
6.08685463e-242
3.13427901e-242
2.96201501e-239
1.5431634e-239
1.42580088e-236
7.5146958e-237
6.78883333e-234
3.61930868e-234
3.19729267e-231
1.72402236e-231
1.48938142e-228
8.12176394e-229
6.86198931e-226
3.78385073e-226
3.12678434e-223
1.74332582e-223
1.40906732e-220
7.94269033e-221
6.2796078e-218
3.57835603e-218
2.7674525e-215
1.59407016e-215
1.20601713e-212
7.0213261e-213
5.19672841e-210
3.05771691e-210
2.21404373e-207
1.31649473e-207
9.32603753e-205
5.60351673e-205
3.88362068e-202
2.35774351e-202
1.59873959e-199
9.80618421e-200
6.50565741e-197
4.03128032e-197
2.61665864e-194
1.63793189e-194
1.04019279e-191
6.576995e-192
4.08656594e-189
2.60978937e-189
1.5865238e-186
1.02328252e-186
6.08614131e-184
3.96425953e-184
2.30678534e-181
1.51728674e-181
8.63779179e-179
5.73684645e-179
3.19512349e-176
2.14258441e-176
1.16739847e-173
7.90349452e-174
4.21262204e-171
2.87920336e-171
1.50120914e-168
1.03574062e-168
5.28246551e-166
3.67880413e-166
1.83522062e-163
1.289997e-163
6.29423932e-161
4.46523509e-161
2.130819e-158
1.52552206e-158
7.11935832e-156
5.14344109e-156
2.34728777e-153
1.71115862e-153
7.63590781e-151
5.61649695e-151
2.45052356e-148
1.81850453e-148
7.75698909e-146
5.80722809e-146
2.4215469e-143
1.82876585e-143
7.45391192e-141
5.6781655e-141
2.26198831e-138
1.73796682e-138
6.76598256e-136
5.24297474e-136
1.99444456e-133
1.55859291e-133
5.79263369e-131
4.56476366e-131
1.65730207e-128
1.31686919e-128
4.66985231e-126
3.74118861e-126
1.29562844e-123
1.04645045e-123
3.53857989e-121
2.88114181e-121
9.51128512e-119
7.80615866e-119
2.51533778e-116
2.08075773e-116
6.54304772e-114
5.45501738e-114
1.67364905e-111
1.40615895e-111
4.20839867e-109
3.56289676e-109
1.03991659e-106
8.87080045e-107
2.52442904e-104
2.16953264e-104
6.01806882e-102
5.21025285e-102
1.408376e-99
1.22822493e-99
3.23427549e-97
2.84087426e-97
7.28538362e-95
6.44466303e-95
1.60899568e-92
1.43328153e-92
3.48243918e-90
3.12351767e-90
7.38288081e-88
6.6668998e-88
1.53234517e-85
1.39298032e-85
3.11198009e-83
2.84752094e-83
6.18034295e-81
5.69160269e-81
1.19953727e-78
1.11167138e-78
2.27380086e-76
2.12032857e-76
4.20650406e-74
3.94644445e-74
7.58912686e-72
7.16233666e-72
1.33417228e-69
1.26647219e-69
2.28351451e-67
2.17996268e-67
3.80155225e-65
3.64927313e-65
6.14957802e-63
5.93508386e-63
9.65568981e-61
9.36771487e-61
1.46981228e-58
1.43320698e-58
2.16632477e-56
2.12269488e-56
3.08717244e-54
3.03913007e-54
4.24726806e-52
4.19959439e-52
5.63172265e-50
5.59064854e-50
7.18378741e-48
7.15490602e-48
8.79751e-46
8.76199649e-46
1.03200832e-43
1.02587471e-43
1.15670578e-41
1.11061564e-41
1.23551465e-39
1.2338705e-39
1.25242511e-37
1.24687576e-37
1.20172827e-35
1.19156708e-35
1.0864697e-33
1.07476899e-33
9.21009125e-32
9.12248753e-32
7.27892158e-30
7.218516e-30
5.32755179e-28
5.23870605e-28
3.58263252e-26
3.57663119e-26
2.19087215e-24
2.18282935e-24
1.20431032e-22
1.19812839e-22
5.85732203e-21
5.82222937e-21
2.46966621e-19
2.44993036e-19
8.7794606e-18
8.77181329e-18
2.52690225e-16
2.52959027e-16
5.53055979e-15
5.55193157e-15
8.33151968e-11
8.41175553e-11
0.00496014286
0.0220258717
0.555952021
0.660486053
0.641264414
0.57095269
0.182833682
0.150066305
0.0286934328
0.0252759422
0.00618401632
0.00564956681
0.00117548908
0.001118645
0.000201301067
0.000198631519
3.24868698e-05
3.24701751e-05
5.34968635e-06
5.35582642e-06
1.30423621e-06
1.3062602e-06
7.48385689e-07
7.48471382e-07
6.7697153e-07
6.77000732e-07
6.68432141e-07
6.68436421e-07
6.67472603e-07
6.67473194e-07
6.67368913e-07
6.67370235e-07
6.67358859e-07
6.67360528e-07
6.67357055e-07
6.67359797e-07
6.6735763e-07
6.67357457e-07
6.6735789e-07
6.67356607e-07
6.67359023e-07
6.67357033e-07
6.67359331e-07
6.67356963e-07
6.67358688e-07
6.67358098e-07
6.67358289e-07
6.67358654e-07
6.67358645e-07
6.67358047e-07
6.67359072e-07
6.67358106e-07
6.67358719e-07
6.67358502e-07
6.6735866e-07
6.67358385e-07
6.67358087e-07
6.67360033e-07
6.6735716e-07
6.67358833e-07
6.67358493e-07
6.67359101e-07
6.67358176e-07
6.6735772e-07
6.67358307e-07
6.67358276e-07
6.67358123e-07
6.67358634e-07
6.67358092e-07
6.67358415e-07
6.67357522e-07
6.67357878e-07
6.67357367e-07
6.67358888e-07
6.6735734e-07
6.67358723e-07
6.67358711e-07
6.67358948e-07
6.67357873e-07
6.67359255e-07
6.67357826e-07
6.6735834e-07
6.67358102e-07
6.67358953e-07
6.67358405e-07
6.67357147e-07
6.67359416e-07
6.67357293e-07
6.67358857e-07
6.67356671e-07
6.67359605e-07
6.67357567e-07
6.67359191e-07
6.67357835e-07
6.67359254e-07
6.67357725e-07
6.67358799e-07
6.67358928e-07
6.67358813e-07
6.67358885e-07
6.67358127e-07
6.67358687e-07
6.67358855e-07
6.67358606e-07
6.67358567e-07
6.67358355e-07
6.67358818e-07
6.67358285e-07
6.67358646e-07
6.67358337e-07
6.67357659e-07
6.67358722e-07
6.67358076e-07
6.67358276e-07
6.67358267e-07
6.67357928e-07
6.67357603e-07
6.67359275e-07
6.67357444e-07
6.6735942e-07
6.6735805e-07
6.67359211e-07
6.67357022e-07
6.67358522e-07
6.6735858e-07
6.67358219e-07
6.67357683e-07
6.67359646e-07
6.67358184e-07
6.67359251e-07
6.67359064e-07
6.6735822e-07
6.67359636e-07
6.67358842e-07
6.67358453e-07
6.67359386e-07
6.67358457e-07
6.67358853e-07
6.67358575e-07
6.67358299e-07
6.67358106e-07
6.673589e-07
6.67357118e-07
6.67359309e-07
6.6735737e-07
6.67358389e-07
6.6735817e-07
6.67358084e-07
6.67359601e-07
6.6735767e-07
6.67359039e-07
6.67357609e-07
6.67359232e-07
6.67357827e-07
6.67359324e-07
6.67358744e-07
6.67358869e-07
6.67358489e-07
6.67358716e-07
6.6735811e-07
6.67360816e-07
6.6735717e-07
6.67360775e-07
6.67357217e-07
6.67360386e-07
6.67357853e-07
6.67359536e-07
6.6735875e-07
6.67358395e-07
6.67358298e-07
6.67357858e-07
6.67358551e-07
6.67357874e-07
6.67358986e-07
6.67358017e-07
6.67359047e-07
6.67359278e-07
6.67359414e-07
6.67359141e-07
6.67359323e-07
6.67359382e-07
6.67359997e-07
6.67358573e-07
6.67360039e-07
6.67358294e-07
6.67358194e-07
6.67359271e-07
6.67358311e-07
6.67359276e-07
6.67358911e-07
6.67359351e-07
6.67357847e-07
6.67359269e-07
6.67358835e-07
6.67359435e-07
6.67358508e-07
6.67358377e-07
6.67358414e-07
6.67359163e-07
6.67357967e-07
6.67360445e-07
6.67357386e-07
6.67360293e-07
6.67357807e-07
6.67359263e-07
6.67359048e-07
6.67358587e-07
6.67358712e-07
6.67360341e-07
6.67359255e-07
6.67359583e-07
6.67359304e-07
6.67359009e-07
6.67359007e-07
6.67359686e-07
6.67359073e-07
6.67358781e-07
6.6735866e-07
6.67358811e-07
6.67359479e-07
6.67358468e-07
6.67358827e-07
6.67359386e-07
6.67359221e-07
6.67359084e-07
6.67358817e-07
6.67360319e-07
6.67358002e-07
6.67359749e-07
6.67359229e-07
6.67359442e-07
6.67359063e-07
6.67358854e-07
6.67359139e-07
6.67358902e-07
6.67360176e-07
6.67358708e-07
6.67359909e-07
6.67359065e-07
6.67359828e-07
6.67359148e-07
6.67360657e-07
6.67357548e-07
6.67361411e-07
6.67357298e-07
6.67360586e-07
6.67358206e-07
6.67358718e-07
6.67359366e-07
6.67357574e-07
6.6735974e-07
6.67358504e-07
6.67359582e-07
6.67358398e-07
6.67359799e-07
6.67359091e-07
6.6735923e-07
6.6735948e-07
6.67359649e-07
6.67359591e-07
6.67359697e-07
6.67359155e-07
6.67359976e-07
6.67358913e-07
6.67359401e-07
6.67358212e-07
6.6735955e-07
6.67358695e-07
6.67359573e-07
6.67357854e-07
6.67360232e-07
6.67358097e-07
6.67359455e-07
6.67359268e-07
6.67359112e-07
6.67360056e-07
6.67359049e-07
6.67359341e-07
6.67359059e-07
6.67359235e-07
6.67359166e-07
6.67358984e-07
6.67359012e-07
6.67359189e-07
6.67358965e-07
6.67358936e-07
6.6735912e-07
6.67359624e-07
6.67359088e-07
6.67359458e-07
6.67359477e-07
6.67359134e-07
6.67359825e-07
6.6735791e-07
6.67358432e-07
6.67359745e-07
6.67358511e-07
6.67360254e-07
6.67359696e-07
6.67359701e-07
6.67359291e-07
6.67359318e-07
6.67360102e-07
6.67359338e-07
6.67359415e-07
6.67359497e-07
6.67359084e-07
6.67358954e-07
6.67358542e-07
6.67359659e-07
6.67358802e-07
6.67360332e-07
6.67358239e-07
6.67360804e-07
6.67359057e-07
6.67359489e-07
6.67359451e-07
6.67359719e-07
6.67359175e-07
6.67358241e-07
6.67360851e-07
6.67357937e-07
6.67360664e-07
6.6735821e-07
6.67360399e-07
6.67358825e-07
6.67358906e-07
6.67359835e-07
6.67358827e-07
6.67359913e-07
6.67359541e-07
6.67359593e-07
6.67359185e-07
6.67359886e-07
6.67358679e-07
6.67359788e-07
6.67359343e-07
6.67360154e-07
6.67358513e-07
6.67359715e-07
6.67359569e-07
6.67360184e-07
6.67359624e-07
6.67360317e-07
6.67359683e-07
6.67359747e-07
6.67358973e-07
6.67360075e-07
6.67359747e-07
6.67358813e-07
6.67360566e-07
6.67359304e-07
6.67359171e-07
6.67359438e-07
6.67359304e-07
6.67358857e-07
6.67360363e-07
6.67358962e-07
6.67360584e-07
6.67359434e-07
6.67359482e-07
6.67359607e-07
6.67359506e-07
6.6735972e-07
6.67360117e-07
6.67359199e-07
6.67359962e-07
6.67359843e-07
6.67360554e-07
6.67360145e-07
6.67360329e-07
6.67360102e-07
6.67360203e-07
6.67359571e-07
6.67360447e-07
6.67359354e-07
6.67360056e-07
6.67359412e-07
6.67360167e-07
6.67359634e-07
6.67360046e-07
6.67359825e-07
6.67359826e-07
6.67359352e-07
6.67359873e-07
6.6736022e-07
6.673589e-07
6.67360639e-07
6.67358219e-07
6.6736043e-07
6.67358778e-07
6.67360253e-07
6.67359034e-07
6.67359903e-07
6.67359659e-07
6.67359596e-07
6.67360165e-07
6.67359771e-07
6.67360035e-07
6.67359602e-07
6.67359634e-07
6.6735948e-07
6.67359255e-07
6.67360754e-07
6.67358386e-07
6.67361029e-07
6.6735884e-07
6.67360772e-07
6.67359389e-07
6.67359747e-07
6.67359751e-07
6.67360782e-07
6.67359818e-07
6.67360406e-07
6.67359867e-07
6.67359414e-07
6.67360176e-07
6.67360112e-07
6.6736024e-07
6.67360115e-07
6.67360473e-07
6.6736069e-07
6.67359342e-07
6.6736149e-07
6.67359726e-07
6.67360664e-07
6.67359627e-07
6.67360873e-07
6.6735978e-07
6.67361345e-07
6.67359507e-07
6.67361195e-07
6.67360321e-07
6.6735948e-07
6.67361058e-07
6.67360046e-07
6.67360662e-07
6.67360728e-07
6.67360085e-07
6.67360403e-07
6.67359924e-07
6.67360256e-07
6.67359806e-07
6.67360518e-07
6.67359524e-07
6.67360781e-07
6.67360238e-07
6.67360947e-07
6.67359988e-07
6.67360535e-07
6.67361022e-07
6.67359833e-07
6.67360961e-07
6.67359958e-07
6.67359804e-07
6.67360716e-07
6.67359557e-07
6.67360494e-07
6.67360553e-07
6.67359477e-07
6.67360801e-07
6.67360002e-07
6.67359561e-07
6.67360938e-07
6.6735935e-07
6.67361561e-07
6.67360409e-07
6.67360737e-07
6.67359903e-07
6.67360433e-07
6.6735993e-07
6.67359783e-07
6.67360079e-07
6.67359487e-07
6.67360378e-07
6.67360205e-07
6.67360206e-07
6.67360734e-07
6.67359478e-07
6.67360092e-07
6.67359813e-07
6.67360254e-07
6.67359354e-07
6.67360316e-07
6.67359639e-07
6.67360104e-07
6.67359922e-07
6.67359634e-07
6.67360462e-07
6.67359827e-07
6.67360625e-07
6.67359582e-07
6.67361499e-07
6.67359201e-07
6.67361389e-07
6.67357866e-07
6.67362057e-07
6.67358564e-07
6.67361259e-07
6.67358705e-07
6.67360181e-07
6.67359991e-07
6.67360352e-07
6.67360736e-07
6.6736106e-07
6.67359529e-07
6.67361262e-07
6.67360051e-07
6.67360179e-07
6.67360408e-07
6.67360507e-07
6.67360113e-07
6.67360533e-07
6.6736042e-07
6.67360685e-07
6.67360465e-07
6.67360431e-07
6.67360723e-07
6.67360401e-07
6.6736032e-07
6.67360715e-07
6.67360617e-07
6.67360646e-07
6.67360548e-07
6.67360665e-07
6.6736056e-07
6.67360706e-07
6.67360725e-07
6.67360766e-07
6.673608e-07
6.67360834e-07
6.67360944e-07
6.67361006e-07
6.67360967e-07
6.67361091e-07
6.67361176e-07
6.67361193e-07
6.67361292e-07
6.67361396e-07
6.67361536e-07
6.67361616e-07
6.67361735e-07
6.67361912e-07
6.67362043e-07
6.67362249e-07
6.67362472e-07
6.67362714e-07
6.67362923e-07
6.67363205e-07
6.67363446e-07
6.67363663e-07
6.67363869e-07
6.67364021e-07
6.67364125e-07
6.67364211e-07
6.67364247e-07
6.6736426e-07
6.67364241e-07
6.67364247e-07
6.67364286e-07
6.6736426e-07
6.67364275e-07
6.67364267e-07
6.67364262e-07
6.67364281e-07
6.67364278e-07
6.67364269e-07
6.67364289e-07
6.67364263e-07
6.67364275e-07
6.67364264e-07
6.67364269e-07
6.67364269e-07
6.67364268e-07
6.67364275e-07
6.67364262e-07
6.67364251e-07
6.67364287e-07
)
;

boundaryField
{
    closed
    {
        type            calculated;
        value           uniform 0;
    }
    open
    {
        type            calculated;
        value           uniform 0;
    }
    sides
    {
        type            empty;
    }
}


// ************************************************************************* //
