/*--------------------------------*- C++ -*----------------------------------*\
| =========                 |                                                 |
| \\      /  F ield         | OpenFOAM: The Open Source CFD Toolbox           |
|  \\    /   O peration     | Version:  2206                                  |
|   \\  /    A nd           | Website:  www.openfoam.com                      |
|    \\/     M anipulation  |                                                 |
\*---------------------------------------------------------------------------*/
FoamFile
{
    version     2.0;
    format      ascii;
    arch        "LSB;label=32;scalar=64";
    class       volScalarField;
    location    "1.48e-05";
    object      sourcePV;
}
// * * * * * * * * * * * * * * * * * * * * * * * * * * * * * * * * * * * * * //

dimensions      [1 -3 -1 0 0 0 0];

internalField   nonuniform List<scalar> 
3183
(
0
0
0
0
0
0
0
0
0
0
0
0
0
0
0
0
0
0
0
0
0
0
0
0
0
0
0
0
0
0
0
0
0
0
0
0
0
0
0
0
0
0
0
0
0
0
0
0
0
0
0
0
0
0
0
0
0
0
0
0
0
0
0
0
0
0
0
0
0
0
0
0
0
0
0
0
0
0
0
0
0
0
0
0
0
0
0
0
0
0
0
0
0
0
0
0
0
0
0
0
0
0
0
0
0
0
0
0
0
0
0
0
0
0
0
0
0
0
0
0
0
0
0
0
0
0
0
0
0
0
0
0
0
0
0
0
0
0
0
0
0
0
0
0
0
0
0
0
0
0
0
0
0
0
0
0
0
0
0
0
0
0
0
0
0
0
0
0
0
0
0
0
0
0
0
0
0
0
0
0
0
0
0
0
0
0
0
0
0
0
0
0
0
0
0
0
0
0
0
0
0
0
0
0
0
0
0
0
0
0
0
0
0
0
0
0
0
0
0
0
0
0
0
0
0
0
0
0
0
0
0
0
0
0
0
0
0
0
0
0
0
0
0
0
0
0
0
0
0
0
0
0
0
0
0
0
0
0
0
0
0
0
0
0
0
0
0
0
0
0
0
0
0
0
0
0
0
0
0
0
0
0
0
0
0
0
0
0
0
0
0
0
0
0
0
0
0
0
0
0
0
0
0
0
0
0
0
0
0
0
0
0
0
0
0
0
0
0
0
0
0
0
0
0
0
0
0
0
0
0
0
0
0
0
0
0
0
0
0
0
0
0
0
0
0
0
0
0
0
0
0
0
0
0
0
0
0
0
0
0
0
0
0
0
0
0
0
0
0
0
0
0
0
0
0
0
0
0
0
0
0
0
0
0
0
0
0
0
0
0
0
0
0
0
0
0
0
0
0
0
0
0
0
0
0
0
0
0
0
0
0
0
0
0
0
0
0
0
0
0
0
0
0
0
0
0
0
0
0
0
0
0
0
0
0
0
0
0
0
0
0
0
0
0
0
0
0
0
0
0
0
0
0
0
0
0
0
0
0
0
0
0
0
0
0
0
0
0
0
0
0
0
0
0
0
0
0
0
0
0
0
0
0
0
0
0
0
0
0
0
0
0
0
0
0
0
0
0
0
0
0
0
0
0
0
0
0
0
0
0
0
0
0
0
0
0
0
0
0
0
0
0
0
0
0
0
0
0
0
0
0
0
0
0
0
0
0
0
0
0
0
0
0
0
0
0
0
0
0
0
0
0
0
0
0
0
0
0
0
0
0
0
0
0
0
0
0
0
0
0
0
0
0
0
0
0
0
0
0
0
0
0
0
0
0
0
0
0
0
0
0
0
0
0
0
0
0
0
0
0
0
0
0
0
0
0
0
0
0
0
0
0
0
0
0
0
0
0
0
0
0
0
0
0
0
0
0
0
0
0
0
0
0
0
0
0
0
0
0
0
0
0
0
0
0
0
0
0
0
0
0
0
0
0
0
0
0
0
0
0
0
0
0
0
0
0
0
0
0
0
0
0
0
0
0
0
0
0
0
0
0
0
0
0
0
0
0
0
0
0
0
0
0
0
0
0
0
0
0
0
0
0
0
0
0
0
0
0
0
0
0
0
0
0
0
0
0
0
0
0
0
0
0
0
0
0
0
0
0
0
0
0
0
0
0
0
0
0
0
0
0
0
0
0
0
0
0
0
0
0
0
0
0
0
0
0
0
0
0
0
0
0
0
0
0
0
0
0
0
0
0
0
0
0
0
0
0
0
0
0
0
0
0
0
0
0
0
0
0
0
0
0
0
0
0
0
0
0
0
0
0
0
0
0
0
0
0
0
0
0
0
0
0
0
0
0
0
0
0
0
0
0
0
0
0
0
0
0
0
0
0
0
0
0
0
0
0
0
0
0
0
0
0
0
0
0
0
0
0
0
0
0
0
0
0
0
0
0
0
0
0
0
0
0
0
0
0
0
0
0
0
0
0
0
0
0
0
0
0
0
0
0
0
0
0
0
0
0
0
0
0
0
0
0
0
0
0
0
0
0
0
0
0
0
0
0
0
0
0
0
0
0
0
0
0
0
0
0
0
0
0
0
0
0
0
0
0
0
0
0
0
0
0
0
0
0
0
0
0
0
0
0
0
0
0
0
0
0
0
0
0
0
0
0
0
0
0
0
0
0
0
0
0
0
0
0
0
0
0
0
0
0
0
0
0
0
0
0
0
0
0
0
0
0
0
0
0
0
0
0
0
0
0
0
0
0
0
0
0
0
0
0
0
0
0
0
0
0
0
0
0
0
0
0
0
0
0
0
0
0
0
0
0
0
0
0
0
0
0
0
0
0
0
0
0
0
0
0
0
0
0
0
0
0
0
0
0
0
0
0
0
0
0
0
0
0
0
0
0
0
0
0
0
0
0
0
0
0
0
0
0
0
0
0
0
0
0
0
0
0
0
0
0
0
0
0
0
0
0
0
0
0
0
0
0
0
0
0
0
0
0
0
0
0
0
0
0
0
0
0
0
0
0
0
0
0
0
0
0
0
0
0
0
0
0
0
0
0
0
0
0
0
0
0
0
0
0
0
0
0
0
0
0
0
0
0
0
0
0
0
0
0
0
0
0
0
0
0
0
0
0
0
0
0
0
0
0
0
0
0
0
0
0
0
0
0
0
0
0
0
0
0
0
0
0
0
0
0
0
0
0
0
0
0
0
0
0
0
0
0
0
0
0
0
0
0
0
0
0
0
0
0
0
0
0
0
0
0
0
0
0
0
0
0
0
0
0
0
0
0
0
0
0
0
0
0
0
0
0
0
0
0
0
0
0
0
0
0
0
0
0
0
0
0
0
0
0
0
0
0
0
0
0
0
0
0
0
0
0
0
0
0
0
0
0
0
0
0
0
0
0
0
0
0
0
0
0
0
0
0
0
0
0
0
0
0
0
0
0
0
0
0
0
0
0
0
0
0
0
0
0
0
0
0
0
0
0
0
0
0
0
0
0
0
0
0
0
0
0
0
0
0
0
0
0
0
0
0
0
0
0
0
0
0
0
0
0
0
0
0
0
0
0
0
0
0
0
0
0
0
0
0
0
0
0
0
0
0
0
0
0
0
0
0
0
0
0
0
0
0
0
0
0
0
0
0
0
0
0
0
0
0
0
0
0
0
0
0
0
0
0
0
0
0
0
0
0
0
0
0
0
0
0
0
0
0
0
0
0
0
0
0
0
0
0
0
0
0
0
0
0
0
0
0
0
0
0
0
0
0
0
0
0
0
0
0
0
0
0
0
0
0
0
0
0
0
0
0
0
0
0
0
0
0
0
0
0
0
0
0
0
0
0
0
0
0
0
0
0
0
0
0
0
0
0
0
0
0
0
0
0
0
0
0
0
0
0
0
0
0
0
0
0
0
0
0
0
0
0
0
0
0
0
0
0
0
0
0
0
0
0
0
0
0
0
0
0
0
0
0
0
0
0
0
0
0
0
0
0
0
0
0
0
0
0
0
0
0
0
0
0
0
0
0
0
0
0
0
0
0
0
0
0
0
0
0
0
0
0
0
0
0
0
0
0
0
0
0
0
0
0
0
0
0
0
0
0
0
0
0
0
0
0
0
0
0
0
0
0
0
0
0
0
0
0
0
0
0
0
0
0
0
0
0
0
0
0
0
0
0
0
0
0
0
0
0
0
0
0
0
0
0
0
0
0
0
0
0
0
0
0
0
0
0
0
0
0
0
0
0
0
0
0
0
0
0
0
0
0
0
0
0
0
0
0
0
0
0
0
0
0
0
0
0
0
0
0
0
0
0
0
0
0
0
0
0
0
0
0
0
0
0
0
0
0
0
0
0
0
0
0
0
0
0
0
0
0
0
0
0
0
0
0
0
0
0
0
0
0
0
0
0
0
0
0
0
0
0
0
0
0
0
0
0
0
0
0
0
0
0
0
0
0
0
0
0
0
0
0
0
0
0
0
0
0
0
0
0
0
0
0
0
0
0
0
0
0
0
0
0
0
0
0
0
0
0
0
0
0
0
0
0
0
0
0
0
0
0
0
0
0
0
0
0
0
0
0
0
0
0
0
0
0
0
0
0
0
0
0
0
0
0
0
0
0
0
0
0
0
0
0
0
0
0
0
0
0
0
0
0
0
0
0
0
0
0
0
0
0
0
0
0
0
0
0
0
0
0
0
0
0
0
0
0
0
0
0
0
0
0
0
0
0
0
0
0
0
0
0
0
0
0
0
0
0
0
0
0
0
0
0
0
0
0
0
0
0
0
0
0
0
0
0
0
0
0
0
0
0
0
0
0
0
0
0
0
0
0
0
0
0
0
0
0
0
0
0
0
0
0
0
0
0
0
0
0
0
0
0
0
0
0
0
0
0
0
0
0
0
0
0
0
0
0
0
0
0
0
0
0
0
0
0
0
0
0
0
0
0
0
0
0
0
0
0
0
0
0
0
0
0
0
0
0
0
0
0
0
0
0
0
0
0
0
0
0
0
0
0
0
0
0
0
0
0
0
0
0
0
0
0
0
0
0
0
0
0
0
0
0
0
0
0
0
0
0
0
0
0
0
0
0
0
0
0
0
0
0
0
0
0
0
0
0
0
0
0
0
0
0
0
0
0
0
0
0
0
0
0
0
0
0
0
0
0
0
0
0
0
0
0
0
0
0
0
0
0
0
0
0
0
0
0
0
0
0
0
0
0
0
0
0
0
0
0
0
0
0
0
0
0
0
0
0
0
0
0
0
0
0
0
0
0
0
0
0
0
0
0
0
0
0
0
0
0
0
0
0
0
0
0
0
0
0
0
0
0
0
0
0
0
0
0
0
0
0
0
0
0
0
0
0
0
0
0
0
0
0
0
0
0
0
0
0
0
0
0
0
0
0
0
0
0
0
0
0
0
0
0
0
0
0
0
0
0
0
0
0
0
0
0
0
0
0
0
0
0
0
0
0
0
0
0
0
0
0
0
0
0
0
0
0
0
0
0
0
0
0
0
0
0
0
0
0
0
0
0
0
0
0
0
0
0
0
0
0
0
0
0
0
0
0
0
0
0
0
0
0
0
0
0
0
0
0
0
0
0
0
0
0
0
0
0
0
0
0
0
0
0
0
0
0
0
0
0
0
0
0
0
0
0
0
0
0
0
0
0
0
0
0
0
0
0
0
0
0
0
0
0
0
0
0
0
0
0
0
0
0
0
0
0
0
0
0
0
0
0
0
0
0
0
0
0
0
0
0
0
0
0
0
0
0
0
0
0
0
0
0
0
0
0
0
0
0
0
0
0
0
0
0
0
0
0
0
0
0
0
0
0
0
0
0
0
0
0
0
0
0
0
0
0
0
0
5.33167831e-299
2.02151776e-299
3.28602728e-296
1.26706491e-296
2.00353312e-293
7.85349842e-294
1.20850339e-290
4.81384602e-291
7.21160782e-288
2.91802753e-288
4.25750509e-285
1.74939341e-285
2.48669274e-282
1.03729718e-282
1.43693478e-279
6.08271937e-280
8.21491653e-277
3.52833141e-277
4.6464652e-274
2.02441647e-274
2.60014169e-271
1.14844191e-271
1.43954942e-268
6.44823299e-269
7.88516745e-266
3.58086823e-266
4.27315518e-263
1.96779377e-263
2.29106563e-260
1.06892403e-260
1.21527432e-257
5.74355992e-258
6.37756557e-255
3.05268958e-255
3.31111552e-252
1.6049082e-252
1.70069554e-249
8.34606012e-250
8.64181114e-247
4.29312063e-247
4.34411292e-244
2.18434018e-244
2.16026393e-241
1.09930249e-241
1.06270366e-238
5.47213621e-239
5.17138058e-236
2.69420823e-236
2.48930508e-233
1.31199038e-233
1.18526208e-230
6.31894928e-231
5.58215173e-228
3.00996981e-228
2.6003103e-225
1.41797838e-225
1.19803438e-222
6.60622316e-223
5.45905127e-220
3.04367171e-220
2.46008996e-217
1.38671392e-217
1.09635642e-214
6.24745008e-215
4.83169399e-212
2.78308633e-212
2.10558473e-209
1.22585299e-209
9.07296564e-207
5.33846648e-207
3.86549789e-204
2.29846751e-204
1.62823244e-201
9.78317716e-202
6.78041148e-199
4.11638327e-199
2.79123868e-196
1.71206123e-196
1.13582241e-193
7.03821038e-194
4.56842305e-191
2.85966449e-191
1.81607209e-188
1.14827724e-188
7.13473351e-186
4.55643e-186
2.76991113e-183
1.78654845e-183
1.06257912e-180
6.92119881e-181
4.02741541e-178
2.64903018e-178
1.50807165e-175
1.00159575e-175
5.57836456e-173
3.74073709e-173
2.03816043e-170
1.37987073e-170
7.35481478e-168
5.02679975e-168
2.62096031e-165
1.80829906e-165
9.22265399e-163
6.42282236e-163
3.20411081e-160
2.25220514e-160
1.09891094e-157
7.79585179e-158
3.72019586e-155
2.66340824e-155
1.24296843e-152
8.97993133e-153
4.09812858e-150
2.98751102e-150
1.33315278e-147
9.80583932e-148
4.27836791e-145
3.17492619e-145
1.35429235e-142
1.01388367e-142
4.22777756e-140
3.19284142e-140
1.30137812e-137
9.91350642e-138
3.94920429e-135
3.03431543e-135
1.18127257e-132
9.15370708e-133
3.48209979e-130
2.7211466e-130
1.01133564e-127
7.96961868e-128
2.89348288e-125
2.29912129e-125
8.1530929e-123
6.53173939e-123
2.26203707e-120
1.82699733e-120
6.17800493e-118
5.0301841e-118
1.66057481e-115
1.36287686e-115
4.39152702e-113
3.63279392e-113
1.14235039e-110
9.52391222e-111
2.92202308e-108
2.45501223e-108
7.34744122e-106
6.22045975e-106
1.81558987e-103
1.54875262e-103
4.40739944e-101
3.78778599e-101
1.05069435e-98
9.09657795e-99
2.45888297e-96
2.14435731e-96
5.64672003e-94
4.959881e-94
1.27195478e-91
1.12517341e-91
2.80914479e-89
2.50236553e-89
6.07998888e-87
5.45334799e-87
1.28897681e-84
1.16397371e-84
2.6753207e-82
2.43200367e-82
5.43320454e-80
4.97148544e-80
1.07902578e-77
9.9369664e-78
2.09427154e-75
1.94086653e-75
3.96982782e-73
3.70188063e-73
7.34413342e-71
6.89009546e-71
1.32498529e-68
1.25047201e-68
2.32933075e-66
2.21113319e-66
3.98678688e-64
3.80599579e-64
6.63712825e-62
6.37126419e-62
1.07365453e-59
1.03620601e-59
1.68578642e-57
1.63550889e-57
2.56614456e-55
2.50223537e-55
3.78218537e-53
3.70601196e-53
5.38989288e-51
5.30601573e-51
7.41530326e-49
7.33206983e-49
9.83242187e-47
9.76071059e-47
1.2542171e-44
1.2491747e-44
1.53595685e-42
1.52975654e-42
1.80178283e-40
1.79107416e-40
2.01949207e-38
1.93902332e-38
2.15708443e-36
2.15421391e-36
2.1866084e-34
2.1769198e-34
2.0980968e-32
2.0803564e-32
1.89686693e-30
1.87643866e-30
1.60798939e-28
1.59269466e-28
1.27082657e-26
1.26028036e-26
9.3013701e-25
9.14625436e-25
6.25491639e-23
6.24443867e-23
3.82504263e-21
3.81100071e-21
2.10260481e-19
2.09181177e-19
1.02262957e-17
1.01650274e-17
4.31178904e-16
4.27733224e-16
1.5328056e-14
1.53147046e-14
4.41171742e-13
4.41641044e-13
9.65580167e-12
9.69311465e-12
1.14883268e-08
1.15789893e-08
0.114206854
0.457497158
8.16731661
9.35378416
8.05450554
7.08771031
2.17874294
1.78376059
0.33700812
0.296869246
0.0726320772
0.0663548977
0.0138062692
0.013138628
0.00236430347
0.00233294928
0.000381558636
0.000381362554
6.2828864e-05
6.29009799e-05
1.53145226e-05
1.53382946e-05
8.78598548e-06
8.78699196e-06
7.94721684e-06
7.94755982e-06
7.84692059e-06
7.84697087e-06
7.83565069e-06
7.83565764e-06
7.83443284e-06
7.83444837e-06
7.83431476e-06
7.83433436e-06
7.83429357e-06
7.83432577e-06
7.83430032e-06
7.83429829e-06
7.83430338e-06
7.83428831e-06
7.83431669e-06
7.83429331e-06
7.83432031e-06
7.83429249e-06
7.83431275e-06
7.83430582e-06
7.83430806e-06
7.83431235e-06
7.83431225e-06
7.83430522e-06
7.83431726e-06
7.83430591e-06
7.83431312e-06
7.83431056e-06
7.83431242e-06
7.83430919e-06
7.83430569e-06
7.83432855e-06
7.8342948e-06
7.83431445e-06
7.83431046e-06
7.8343176e-06
7.83430674e-06
7.83430138e-06
7.83430828e-06
7.83430792e-06
7.83430612e-06
7.83431211e-06
7.83430576e-06
7.83430955e-06
7.83429905e-06
7.83430324e-06
7.83429724e-06
7.8343151e-06
7.83429691e-06
7.83431316e-06
7.83431302e-06
7.83431581e-06
7.83430318e-06
7.83431941e-06
7.83430262e-06
7.83430867e-06
7.83430586e-06
7.83431586e-06
7.83430943e-06
7.83429465e-06
7.8343213e-06
7.83429636e-06
7.83431474e-06
7.83428906e-06
7.83432352e-06
7.83429958e-06
7.83431866e-06
7.83430274e-06
7.8343194e-06
7.83430145e-06
7.83431406e-06
7.83431557e-06
7.83431422e-06
7.83431507e-06
7.83430616e-06
7.83431274e-06
7.83431472e-06
7.83431178e-06
7.83431133e-06
7.83430884e-06
7.83431428e-06
7.83430801e-06
7.83431226e-06
7.83430863e-06
7.83430066e-06
7.83431315e-06
7.83430557e-06
7.83430791e-06
7.8343078e-06
7.83430383e-06
7.8343e-06
7.83431964e-06
7.83429814e-06
7.83432135e-06
7.83430526e-06
7.83431889e-06
7.83429318e-06
7.8343108e-06
7.83431149e-06
7.83430724e-06
7.83430095e-06
7.834324e-06
7.83430684e-06
7.83431937e-06
7.83431716e-06
7.83430725e-06
7.83432389e-06
7.83431456e-06
7.83430999e-06
7.83432094e-06
7.83431003e-06
7.83431468e-06
7.83431142e-06
7.83430818e-06
7.83430591e-06
7.83431525e-06
7.83429431e-06
7.83432004e-06
7.83429727e-06
7.83430924e-06
7.83430667e-06
7.83430566e-06
7.83432347e-06
7.8343008e-06
7.83431688e-06
7.83430008e-06
7.83431914e-06
7.83430264e-06
7.83432022e-06
7.8343134e-06
7.83431487e-06
7.83431042e-06
7.83431307e-06
7.83430596e-06
7.83433774e-06
7.83429492e-06
7.83433726e-06
7.83429547e-06
7.83433269e-06
7.83430294e-06
7.83432271e-06
7.83431348e-06
7.8343093e-06
7.83430817e-06
7.834303e-06
7.83431115e-06
7.83430319e-06
7.83431625e-06
7.83430487e-06
7.83431697e-06
7.83431968e-06
7.83432128e-06
7.83431807e-06
7.83432021e-06
7.8343209e-06
7.83432812e-06
7.8343114e-06
7.83432862e-06
7.83430812e-06
7.83430695e-06
7.8343196e-06
7.83430832e-06
7.83431966e-06
7.83431537e-06
7.83432054e-06
7.83430288e-06
7.83431958e-06
7.83431447e-06
7.83432153e-06
7.83431064e-06
7.83430909e-06
7.83430954e-06
7.83431833e-06
7.83430428e-06
7.83433339e-06
7.83429746e-06
7.8343316e-06
7.8343024e-06
7.8343195e-06
7.83431698e-06
7.83431156e-06
7.83431303e-06
7.83433217e-06
7.83431941e-06
7.83432326e-06
7.83431998e-06
7.83431652e-06
7.8343165e-06
7.83432447e-06
7.83431727e-06
7.83431384e-06
7.83431242e-06
7.8343142e-06
7.83432205e-06
7.83431016e-06
7.83431439e-06
7.83432095e-06
7.83431902e-06
7.8343174e-06
7.83431427e-06
7.83433191e-06
7.8343047e-06
7.83432521e-06
7.8343191e-06
7.8343216e-06
7.83431715e-06
7.83431469e-06
7.83431804e-06
7.83431527e-06
7.83433022e-06
7.83431299e-06
7.83432709e-06
7.83431717e-06
7.83432614e-06
7.83431815e-06
7.83433588e-06
7.83429936e-06
7.83434473e-06
7.83429643e-06
7.83433504e-06
7.83430709e-06
7.83431311e-06
7.83432071e-06
7.83429967e-06
7.83432511e-06
7.83431059e-06
7.83432325e-06
7.83430935e-06
7.83432581e-06
7.83431748e-06
7.83431912e-06
7.83432206e-06
7.83432404e-06
7.83432336e-06
7.8343246e-06
7.83431823e-06
7.83432788e-06
7.83431539e-06
7.83432112e-06
7.83430715e-06
7.83432287e-06
7.83431283e-06
7.83432315e-06
7.83430296e-06
7.83433089e-06
7.83430581e-06
7.83432176e-06
7.83431957e-06
7.83431773e-06
7.83432882e-06
7.83431699e-06
7.83432041e-06
7.83431711e-06
7.83431917e-06
7.83431837e-06
7.83431623e-06
7.83431656e-06
7.83431863e-06
7.83431601e-06
7.83431566e-06
7.83431782e-06
7.83432374e-06
7.83431745e-06
7.83432179e-06
7.83432201e-06
7.83431799e-06
7.8343261e-06
7.83430362e-06
7.83430974e-06
7.83432517e-06
7.83431067e-06
7.83433114e-06
7.83432459e-06
7.83432465e-06
7.83431983e-06
7.83432015e-06
7.83432935e-06
7.83432038e-06
7.83432129e-06
7.83432226e-06
7.83431741e-06
7.83431587e-06
7.83431104e-06
7.83432415e-06
7.83431409e-06
7.83433206e-06
7.83430748e-06
7.8343376e-06
7.83431709e-06
7.83432216e-06
7.83432171e-06
7.83432486e-06
7.83431848e-06
7.8343075e-06
7.83433815e-06
7.83430393e-06
7.83433596e-06
7.83430713e-06
7.83433285e-06
7.83431436e-06
7.83431531e-06
7.83432622e-06
7.83431438e-06
7.83432714e-06
7.83432277e-06
7.83432338e-06
7.83431858e-06
7.83432682e-06
7.83431264e-06
7.83432567e-06
7.83432045e-06
7.83432997e-06
7.83431069e-06
7.83432481e-06
7.83432309e-06
7.83433032e-06
7.83432374e-06
7.83433188e-06
7.83432444e-06
7.83432519e-06
7.83431609e-06
7.83432905e-06
7.83432519e-06
7.83431422e-06
7.83433481e-06
7.83431999e-06
7.83431842e-06
7.83432156e-06
7.83431999e-06
7.83431474e-06
7.83433242e-06
7.83431597e-06
7.83433502e-06
7.83432152e-06
7.83432208e-06
7.83432355e-06
7.83432236e-06
7.83432487e-06
7.83432953e-06
7.83431875e-06
7.83432771e-06
7.83432631e-06
7.83433467e-06
7.83432986e-06
7.83433202e-06
7.83432936e-06
7.83433055e-06
7.83432313e-06
7.83433341e-06
7.83432057e-06
7.83432881e-06
7.83432125e-06
7.83433012e-06
7.83432387e-06
7.8343287e-06
7.8343261e-06
7.83432611e-06
7.83432055e-06
7.83432667e-06
7.83433074e-06
7.83431524e-06
7.83433567e-06
7.83430724e-06
7.83433321e-06
7.83431381e-06
7.83433113e-06
7.83431681e-06
7.83432702e-06
7.83432415e-06
7.83432341e-06
7.83433009e-06
7.83432547e-06
7.83432857e-06
7.83432349e-06
7.83432386e-06
7.83432206e-06
7.83431941e-06
7.83433702e-06
7.8343092e-06
7.83434025e-06
7.83431454e-06
7.83433723e-06
7.83432099e-06
7.83432519e-06
7.83432523e-06
7.83433734e-06
7.83432602e-06
7.83433293e-06
7.8343266e-06
7.83432128e-06
7.83433023e-06
7.83432948e-06
7.83433098e-06
7.83432951e-06
7.83433372e-06
7.83433626e-06
7.83432044e-06
7.83434566e-06
7.83432494e-06
7.83433596e-06
7.83432378e-06
7.83433841e-06
7.83432557e-06
7.83434396e-06
7.83432237e-06
7.8343422e-06
7.83433193e-06
7.83432206e-06
7.83434059e-06
7.8343287e-06
7.83433594e-06
7.83433671e-06
7.83432916e-06
7.83433289e-06
7.83432727e-06
7.83433116e-06
7.83432588e-06
7.83433425e-06
7.83432257e-06
7.83433733e-06
7.83433095e-06
7.83433929e-06
7.83432802e-06
7.83433445e-06
7.83434017e-06
7.8343262e-06
7.83433945e-06
7.83432767e-06
7.83432586e-06
7.83433657e-06
7.83432296e-06
7.83433396e-06
7.83433466e-06
7.83432201e-06
7.83433757e-06
7.83432819e-06
7.834323e-06
7.83433917e-06
7.83432053e-06
7.83434649e-06
7.83433296e-06
7.83433682e-06
7.83432702e-06
7.83433324e-06
7.83432734e-06
7.83432561e-06
7.83432909e-06
7.83432213e-06
7.8343326e-06
7.83433057e-06
7.83433058e-06
7.83433678e-06
7.83432203e-06
7.83432924e-06
7.83432596e-06
7.83433114e-06
7.83432057e-06
7.83433187e-06
7.83432392e-06
7.83432938e-06
7.83432725e-06
7.83432387e-06
7.83433359e-06
7.83432612e-06
7.83433551e-06
7.83432325e-06
7.83434577e-06
7.83431877e-06
7.83434448e-06
7.8343031e-06
7.83435231e-06
7.8343113e-06
7.83434294e-06
7.83431295e-06
7.83433029e-06
7.83432805e-06
7.8343323e-06
7.8343368e-06
7.83434061e-06
7.83432263e-06
7.83434298e-06
7.83432876e-06
7.83433026e-06
7.83433295e-06
7.83433412e-06
7.83432949e-06
7.83433442e-06
7.83433309e-06
7.83433621e-06
7.83433362e-06
7.83433322e-06
7.83433665e-06
7.83433287e-06
7.83433192e-06
7.83433656e-06
7.83433541e-06
7.83433575e-06
7.8343346e-06
7.83433597e-06
7.83433473e-06
7.83433645e-06
7.83433667e-06
7.83433716e-06
7.83433756e-06
7.83433795e-06
7.83433925e-06
7.83433998e-06
7.83433952e-06
7.83434097e-06
7.83434198e-06
7.83434217e-06
7.83434333e-06
7.83434455e-06
7.8343462e-06
7.83434714e-06
7.83434853e-06
7.83435062e-06
7.83435216e-06
7.83435457e-06
7.8343572e-06
7.83436004e-06
7.83436249e-06
7.83436581e-06
7.83436864e-06
7.83437118e-06
7.8343736e-06
7.83437538e-06
7.83437661e-06
7.83437762e-06
7.83437804e-06
7.8343782e-06
7.83437797e-06
7.83437804e-06
7.8343785e-06
7.83437819e-06
7.83437837e-06
7.83437827e-06
7.83437822e-06
7.83437844e-06
7.83437841e-06
7.83437829e-06
7.83437854e-06
7.83437823e-06
7.83437837e-06
7.83437824e-06
7.83437831e-06
7.83437829e-06
7.83437828e-06
7.83437837e-06
7.83437822e-06
7.83437808e-06
7.83437852e-06
)
;

boundaryField
{
    closed
    {
        type            calculated;
        value           uniform 0;
    }
    open
    {
        type            calculated;
        value           uniform 0;
    }
    sides
    {
        type            empty;
    }
}


// ************************************************************************* //
