/*--------------------------------*- C++ -*----------------------------------*\
| =========                 |                                                 |
| \\      /  F ield         | OpenFOAM: The Open Source CFD Toolbox           |
|  \\    /   O peration     | Version:  2206                                  |
|   \\  /    A nd           | Website:  www.openfoam.com                      |
|    \\/     M anipulation  |                                                 |
\*---------------------------------------------------------------------------*/
FoamFile
{
    version     2.0;
    format      ascii;
    arch        "LSB;label=32;scalar=64";
    class       volVectorField;
    location    "1.48e-05";
    object      U;
}
// * * * * * * * * * * * * * * * * * * * * * * * * * * * * * * * * * * * * * //

dimensions      [0 1 -1 0 0 0 0];

internalField   nonuniform List<vector> 
3183
(
(4.34912017e-13 0 0)
(1.51364196e-13 0 0)
(-3.07157455e-13 0 0)
(-3.491614e-13 0 0)
(-1.57457605e-13 0 0)
(-9.79304355e-18 0 0)
(-7.50536216e-19 0 0)
(-6.61451795e-23 0 0)
(5.56173684e-21 0 0)
(1.19165486e-18 0 0)
(1.14197042e-14 0 0)
(2.4896436e-13 0 0)
(6.49993658e-13 0 0)
(2.35791971e-13 0 0)
(1.57289966e-13 0 0)
(3.67654199e-14 0 0)
(-3.36709029e-13 0 0)
(-6.67737437e-13 0 0)
(-8.77858552e-13 0 0)
(-1.75924259e-13 0 0)
(3.60166684e-13 0 0)
(1.78533444e-16 0 0)
(1.05130479e-13 0 0)
(3.3714638e-13 0 0)
(4.18783806e-13 0 0)
(6.18136027e-13 0 0)
(7.98253597e-13 0 0)
(7.85761461e-13 0 0)
(1.36067269e-13 0 0)
(2.6958021e-13 0 0)
(4.1264257e-16 0 0)
(-1.49866817e-13 0 0)
(-6.81800586e-13 0 0)
(-8.82500929e-13 0 0)
(-9.19506172e-13 0 0)
(-8.97061505e-13 0 0)
(-8.25094833e-13 0 0)
(-8.11462973e-13 0 0)
(-9.26631664e-13 0 0)
(-1.01205506e-12 0 0)
(-7.61123575e-13 0 0)
(-2.05914427e-13 0 0)
(4.33785028e-13 0 0)
(7.90633059e-14 0 0)
(4.02181352e-13 0 0)
(8.4659599e-13 0 0)
(8.74109496e-13 0 0)
(1.2382486e-12 0 0)
(1.30589961e-12 0 0)
(1.8080266e-12 0 0)
(1.7730362e-12 0 0)
(1.95185012e-12 0 0)
(1.38618881e-12 0 0)
(1.5288448e-12 0 0)
(1.22575363e-12 0 0)
(6.83899943e-13 0 0)
(2.94448445e-13 0 0)
(-3.32148773e-14 0 0)
(-6.88276776e-13 0 0)
(-8.34940321e-13 0 0)
(-1.165499e-12 0 0)
(-1.79493283e-12 0 0)
(-1.94400053e-12 0 0)
(-2.44352085e-12 0 0)
(-2.63626293e-12 0 0)
(-2.8812473e-12 0 0)
(-3.5872511e-12 0 0)
(-3.48803256e-12 0 0)
(-3.81858338e-12 0 0)
(-4.54428957e-12 0 0)
(-4.38847437e-12 0 0)
(-4.60318558e-12 0 0)
(-4.47964556e-12 0 0)
(-4.61918351e-12 0 0)
(-5.57151409e-12 0 0)
(-5.34045123e-12 0 0)
(-5.08891869e-12 0 0)
(-5.15168862e-12 0 0)
(-5.18525401e-12 0 0)
(-5.391281e-12 0 0)
(-5.99781467e-12 0 0)
(-5.08209051e-12 0 0)
(-5.28819947e-12 0 0)
(-6.51195221e-12 0 0)
(-5.1990698e-12 0 0)
(-5.16020677e-12 0 0)
(-5.90725922e-12 0 0)
(-5.93592797e-12 0 0)
(-5.46503981e-12 0 0)
(-5.19863582e-12 0 0)
(-6.85973486e-12 0 0)
(-6.42696024e-12 0 0)
(-5.20860303e-12 0 0)
(-6.53375779e-12 0 0)
(-6.80173939e-12 0 0)
(-6.24601156e-12 0 0)
(-6.41577677e-12 0 0)
(-6.95677179e-12 0 0)
(-6.66924173e-12 0 0)
(-6.72044522e-12 0 0)
(-6.16892658e-12 0 0)
(-6.90698463e-12 0 0)
(-7.35332411e-12 0 0)
(-7.35775441e-12 0 0)
(-6.31801299e-12 0 0)
(-6.95405868e-12 0 0)
(-6.44018167e-12 0 0)
(-7.05164776e-12 0 0)
(-7.42236247e-12 0 0)
(-7.67029725e-12 0 0)
(-7.08387011e-12 0 0)
(-7.50315744e-12 0 0)
(-7.24580185e-12 0 0)
(-7.89911441e-12 0 0)
(-7.64215107e-12 0 0)
(-8.60113894e-12 0 0)
(-7.4809401e-12 0 0)
(-7.81060158e-12 0 0)
(-7.98058939e-12 0 0)
(-9.22593411e-12 0 0)
(-8.79177973e-12 0 0)
(-7.97677819e-12 0 0)
(-7.32384653e-12 0 0)
(-8.77114463e-12 0 0)
(-8.29550065e-12 0 0)
(-8.96304591e-12 0 0)
(-7.86677622e-12 0 0)
(-9.2308243e-12 0 0)
(-8.44229298e-12 0 0)
(-8.46911045e-12 0 0)
(-7.90438032e-12 0 0)
(-9.0457618e-12 0 0)
(-9.61479133e-12 0 0)
(-9.63585516e-12 0 0)
(-8.57010588e-12 0 0)
(-8.89282985e-12 0 0)
(-1.04477573e-11 0 0)
(-8.90039125e-12 0 0)
(-9.52805037e-12 0 0)
(-8.25404641e-12 0 0)
(-9.09898648e-12 0 0)
(-9.59672365e-12 0 0)
(-9.56456603e-12 0 0)
(-1.05537258e-11 0 0)
(-9.4237864e-12 0 0)
(-1.07057351e-11 0 0)
(-1.00860292e-11 0 0)
(-1.10537633e-11 0 0)
(-1.01646482e-11 0 0)
(-1.02070487e-11 0 0)
(-9.92111887e-12 0 0)
(-1.10104848e-11 0 0)
(-1.11993457e-11 0 0)
(-1.03445761e-11 0 0)
(-1.08750112e-11 0 0)
(-9.51498506e-12 0 0)
(-1.06877715e-11 0 0)
(-1.13703985e-11 0 0)
(-1.01017741e-11 0 0)
(-1.05714549e-11 0 0)
(-1.01953546e-11 0 0)
(-1.03003715e-11 0 0)
(-1.09233323e-11 0 0)
(-1.05756652e-11 0 0)
(-1.20951639e-11 0 0)
(-1.22133694e-11 0 0)
(-1.06417604e-11 0 0)
(-1.11665795e-11 0 0)
(-1.14437106e-11 0 0)
(-1.21595131e-11 0 0)
(-1.19210608e-11 0 0)
(-1.11648745e-11 0 0)
(-1.19643978e-11 0 0)
(-1.09198216e-11 0 0)
(-1.15693232e-11 0 0)
(-1.07263875e-11 0 0)
(-1.1340966e-11 0 0)
(-1.14697395e-11 0 0)
(-1.13339448e-11 0 0)
(-1.2138321e-11 0 0)
(-1.11628186e-11 0 0)
(-1.18661628e-11 0 0)
(-1.1119078e-11 0 0)
(-1.11786328e-11 0 0)
(-1.19197939e-11 0 0)
(-1.20081337e-11 0 0)
(-1.10508239e-11 0 0)
(-1.19051151e-11 0 0)
(-1.19382781e-11 0 0)
(-1.14030143e-11 0 0)
(-1.16947545e-11 0 0)
(-1.22227379e-11 0 0)
(-1.25861907e-11 0 0)
(-1.19145365e-11 0 0)
(-1.29059087e-11 0 0)
(-1.1714739e-11 0 0)
(-1.14298692e-11 0 0)
(-1.17956155e-11 0 0)
(-1.22893425e-11 0 0)
(-1.37791959e-11 0 0)
(-1.23157368e-11 0 0)
(-1.2882516e-11 0 0)
(-1.34108238e-11 0 0)
(-1.41894403e-11 0 0)
(-1.53227398e-11 0 0)
(-1.39387445e-11 0 0)
(-1.44360048e-11 0 0)
(-1.35449802e-11 0 0)
(-1.48585059e-11 0 0)
(-1.41308431e-11 0 0)
(-1.41728388e-11 0 0)
(-1.47673628e-11 0 0)
(-1.36588491e-11 0 0)
(-1.52413081e-11 0 0)
(-1.42417338e-11 0 0)
(-1.41896055e-11 0 0)
(-1.47244478e-11 0 0)
(-1.36742649e-11 0 0)
(-1.36399145e-11 0 0)
(-1.47370081e-11 0 0)
(-1.53896952e-11 0 0)
(-1.51242967e-11 0 0)
(-1.51948122e-11 0 0)
(-1.44782541e-11 0 0)
(-1.45983246e-11 0 0)
(-1.46708011e-11 0 0)
(-1.4781514e-11 0 0)
(-1.6086989e-11 0 0)
(-1.49321808e-11 0 0)
(-1.49195342e-11 0 0)
(-1.48445426e-11 0 0)
(-1.52923259e-11 0 0)
(-1.50051987e-11 0 0)
(-1.51465646e-11 0 0)
(-1.54994764e-11 0 0)
(-1.45896247e-11 0 0)
(-1.5132617e-11 0 0)
(-1.48528477e-11 0 0)
(-1.58656406e-11 0 0)
(-1.58290385e-11 0 0)
(-1.57814398e-11 0 0)
(-1.58029682e-11 0 0)
(-1.49649159e-11 0 0)
(-1.48351909e-11 0 0)
(-1.57871858e-11 0 0)
(-1.62544632e-11 0 0)
(-1.48187721e-11 0 0)
(-1.61723982e-11 0 0)
(-1.60847357e-11 0 0)
(-1.62649134e-11 0 0)
(-1.54864869e-11 0 0)
(-1.68645291e-11 0 0)
(-1.59376544e-11 0 0)
(-1.58754566e-11 0 0)
(-1.65469279e-11 0 0)
(-1.54993982e-11 0 0)
(-1.57976959e-11 0 0)
(-1.56744568e-11 0 0)
(-1.59352134e-11 0 0)
(-1.62484446e-11 0 0)
(-1.61184409e-11 0 0)
(-1.68267846e-11 0 0)
(-1.72514824e-11 0 0)
(-1.57360524e-11 0 0)
(-1.64651255e-11 0 0)
(-1.6659867e-11 0 0)
(-1.67110541e-11 0 0)
(-1.72613371e-11 0 0)
(-1.63078649e-11 0 0)
(-1.65797326e-11 0 0)
(-1.69999076e-11 0 0)
(-1.72844994e-11 0 0)
(-1.66305904e-11 0 0)
(-1.700736e-11 0 0)
(-1.64243235e-11 0 0)
(-1.64309723e-11 0 0)
(-1.68804856e-11 0 0)
(-1.79389328e-11 0 0)
(-1.56704389e-11 0 0)
(-1.60139574e-11 0 0)
(-1.64992756e-11 0 0)
(-1.69270428e-11 0 0)
(-1.73826008e-11 0 0)
(-1.79436385e-11 0 0)
(-1.69029437e-11 0 0)
(-1.81952961e-11 0 0)
(-1.71071988e-11 0 0)
(-1.79113273e-11 0 0)
(-1.77834733e-11 0 0)
(-1.7315797e-11 0 0)
(-1.78747635e-11 0 0)
(-1.76753023e-11 0 0)
(-1.75077552e-11 0 0)
(-1.71057681e-11 0 0)
(-1.67298184e-11 0 0)
(-1.68566819e-11 0 0)
(-1.79493404e-11 0 0)
(-1.79070708e-11 0 0)
(-1.73189482e-11 0 0)
(-1.73284483e-11 0 0)
(-1.74135592e-11 0 0)
(-1.68722258e-11 0 0)
(-1.71423178e-11 0 0)
(-1.71565909e-11 0 0)
(-1.74257769e-11 0 0)
(-1.78862907e-11 0 0)
(-1.71112276e-11 0 0)
(-1.67294213e-11 0 0)
(-1.89954191e-11 0 0)
(-1.84942891e-11 0 0)
(-1.79917786e-11 0 0)
(-1.85727148e-11 0 0)
(-1.82008334e-11 0 0)
(-1.85668019e-11 0 0)
(-1.83692585e-11 0 0)
(-1.84123924e-11 0 0)
(-1.84742612e-11 0 0)
(-1.91091066e-11 0 0)
(-1.76004295e-11 0 0)
(-1.99381182e-11 0 0)
(-1.91077525e-11 0 0)
(-1.87195195e-11 0 0)
(-1.95427419e-11 0 0)
(-1.87150472e-11 0 0)
(-1.92204665e-11 0 0)
(-1.89591195e-11 0 0)
(-1.89306111e-11 0 0)
(-1.9017554e-11 0 0)
(-1.86649523e-11 0 0)
(-1.97812078e-11 0 0)
(-1.84152151e-11 0 0)
(-1.92999292e-11 0 0)
(-1.96992147e-11 0 0)
(-1.76407339e-11 0 0)
(-1.72337764e-11 0 0)
(-1.67231354e-11 0 0)
(-1.7729406e-11 0 0)
(-1.8211374e-11 0 0)
(-1.74345002e-11 0 0)
(-1.848117e-11 0 0)
(-1.74095955e-11 0 0)
(-1.86468148e-11 0 0)
(-1.74209039e-11 0 0)
(-1.7177671e-11 0 0)
(-1.73482442e-11 0 0)
(-1.77099587e-11 0 0)
(-1.8693222e-11 0 0)
(-1.78847311e-11 0 0)
(-1.79420853e-11 0 0)
(-1.86208651e-11 0 0)
(-1.78341728e-11 0 0)
(-1.76872262e-11 0 0)
(-1.83401821e-11 0 0)
(-1.70389925e-11 0 0)
(-1.69377859e-11 0 0)
(-1.7522231e-11 0 0)
(-1.76876679e-11 0 0)
(-1.7465673e-11 0 0)
(-1.7877014e-11 0 0)
(-1.65903027e-11 0 0)
(-1.72695414e-11 0 0)
(-1.72115201e-11 0 0)
(-1.6916531e-11 0 0)
(-1.76387676e-11 0 0)
(-1.65879888e-11 0 0)
(-1.78251732e-11 0 0)
(-1.67958108e-11 0 0)
(-1.71973867e-11 0 0)
(-1.68001869e-11 0 0)
(-1.77043252e-11 0 0)
(-1.69397213e-11 0 0)
(-1.68863565e-11 0 0)
(-1.72600908e-11 0 0)
(-1.58986141e-11 0 0)
(-1.6779773e-11 0 0)
(-1.71537111e-11 0 0)
(-1.62247022e-11 0 0)
(-1.67379404e-11 0 0)
(-1.67460749e-11 0 0)
(-1.75916443e-11 0 0)
(-1.70304854e-11 0 0)
(-1.63477977e-11 0 0)
(-1.82078815e-11 0 0)
(-1.7401636e-11 0 0)
(-1.80424986e-11 0 0)
(-1.7860517e-11 0 0)
(-1.75399777e-11 0 0)
(-1.82396323e-11 0 0)
(-1.76282144e-11 0 0)
(-1.73206722e-11 0 0)
(-1.75907126e-11 0 0)
(-1.80086395e-11 0 0)
(-1.70526094e-11 0 0)
(-1.75218457e-11 0 0)
(-1.82935166e-11 0 0)
(-1.68392054e-11 0 0)
(-1.66038309e-11 0 0)
(-1.79637535e-11 0 0)
(-1.76368858e-11 0 0)
(-1.62473934e-11 0 0)
(-1.6616279e-11 0 0)
(-1.68088365e-11 0 0)
(-1.70700654e-11 0 0)
(-1.71546883e-11 0 0)
(-1.63738856e-11 0 0)
(-1.66302188e-11 0 0)
(-1.60260146e-11 0 0)
(-1.63151149e-11 0 0)
(-1.61275076e-11 0 0)
(-1.57020508e-11 0 0)
(-1.55428493e-11 0 0)
(-1.46465111e-11 0 0)
(-1.50708893e-11 0 0)
(-1.50835666e-11 0 0)
(-1.57334939e-11 0 0)
(-1.44634432e-11 0 0)
(-1.41367989e-11 0 0)
(-1.48353233e-11 0 0)
(-1.52294167e-11 0 0)
(-1.51620083e-11 0 0)
(-1.43667821e-11 0 0)
(-1.33968929e-11 0 0)
(-1.35259932e-11 0 0)
(-1.34721692e-11 0 0)
(-1.40741686e-11 0 0)
(-1.4391138e-11 0 0)
(-1.41960032e-11 0 0)
(-1.36345529e-11 0 0)
(-1.37352246e-11 0 0)
(-1.29835516e-11 0 0)
(-1.2691261e-11 0 0)
(-1.37720734e-11 0 0)
(-1.3490516e-11 0 0)
(-1.29210559e-11 0 0)
(-1.27337477e-11 0 0)
(-1.23639545e-11 0 0)
(-1.21524965e-11 0 0)
(-1.31143641e-11 0 0)
(-1.17022887e-11 0 0)
(-1.10069334e-11 0 0)
(-1.23143517e-11 0 0)
(-1.31048922e-11 0 0)
(-1.25652223e-11 0 0)
(-1.1823243e-11 0 0)
(-1.15324149e-11 0 0)
(-1.24226151e-11 0 0)
(-1.08191968e-11 0 0)
(-1.26061343e-11 0 0)
(-1.1612688e-11 0 0)
(-1.06889438e-11 0 0)
(-1.13106871e-11 0 0)
(-1.20160154e-11 0 0)
(-1.22700115e-11 0 0)
(-1.11563645e-11 0 0)
(-1.04700185e-11 0 0)
(-1.0730948e-11 0 0)
(-1.14983953e-11 0 0)
(-1.09210035e-11 0 0)
(-1.14951384e-11 0 0)
(-9.92945562e-12 0 0)
(-1.12822452e-11 0 0)
(-1.13363784e-11 0 0)
(-9.87703751e-12 0 0)
(-9.85603396e-12 0 0)
(-9.58879108e-12 0 0)
(-9.72590886e-12 0 0)
(-9.25102712e-12 0 0)
(-9.31384516e-12 0 0)
(-8.6539459e-12 0 0)
(-9.47822444e-12 0 0)
(-9.20457738e-12 0 0)
(-8.44611994e-12 0 0)
(-8.56561847e-12 0 0)
(-8.50366072e-12 0 0)
(-8.76249988e-12 0 0)
(-7.99276857e-12 0 0)
(-8.36119874e-12 0 0)
(-8.01089155e-12 0 0)
(-7.56787249e-12 0 0)
(-8.70397757e-12 0 0)
(-8.85716642e-12 0 0)
(-7.8619044e-12 0 0)
(-9.44895344e-12 0 0)
(-7.62675457e-12 0 0)
(-8.80274998e-12 0 0)
(-7.35042464e-12 0 0)
(-8.20834701e-12 0 0)
(-8.75389989e-12 0 0)
(-7.96321025e-12 0 0)
(-7.5707761e-12 0 0)
(-8.23161435e-12 0 0)
(-8.01728849e-12 0 0)
(-7.4533006e-12 0 0)
(-7.96942975e-12 0 0)
(-8.12042774e-12 0 0)
(-7.71626149e-12 0 0)
(-7.94605322e-12 0 0)
(-8.07144434e-12 0 0)
(-7.64524199e-12 0 0)
(-7.34357513e-12 0 0)
(-8.83841085e-12 0 0)
(-7.52920352e-12 0 0)
(-7.21906471e-12 0 0)
(-8.44614488e-12 0 0)
(-7.01240095e-12 0 0)
(-7.29751342e-12 0 0)
(-7.29106649e-12 0 0)
(-6.90305386e-12 0 0)
(-7.40152654e-12 0 0)
(-6.24089371e-12 0 0)
(-7.44024564e-12 0 0)
(-6.74192459e-12 0 0)
(-6.66024707e-12 0 0)
(-5.79036659e-12 0 0)
(-6.89658474e-12 0 0)
(-5.46481002e-12 0 0)
(-6.04599004e-12 0 0)
(-4.98426986e-12 0 0)
(-5.50115932e-12 0 0)
(-4.95452129e-12 0 0)
(-6.00669102e-12 0 0)
(-5.01568121e-12 0 0)
(-3.75507643e-12 0 0)
(-4.61632038e-12 0 0)
(-4.31662707e-12 0 0)
(-5.11887428e-12 0 0)
(-4.56957373e-12 0 0)
(-4.61964282e-12 0 0)
(-5.04831459e-12 0 0)
(-4.73574396e-12 0 0)
(-4.76607907e-12 0 0)
(-4.3881517e-12 0 0)
(-4.65322629e-12 0 0)
(-5.52371172e-12 0 0)
(-3.7465833e-12 0 0)
(-5.57460621e-12 0 0)
(-4.64630564e-12 0 0)
(-4.2832275e-12 0 0)
(-4.82327606e-12 0 0)
(-4.78099654e-12 0 0)
(-4.64748535e-12 0 0)
(-3.69297006e-12 0 0)
(-4.80382829e-12 0 0)
(-4.39031419e-12 0 0)
(-4.06932928e-12 0 0)
(-3.81755526e-12 0 0)
(-4.78332592e-12 0 0)
(-3.80231055e-12 0 0)
(-4.05238309e-12 0 0)
(-4.75898522e-12 0 0)
(-4.1088953e-12 0 0)
(-3.78869731e-12 0 0)
(-3.79871638e-12 0 0)
(-4.80013495e-12 0 0)
(-4.43290181e-12 0 0)
(-3.45756983e-12 0 0)
(-3.28366341e-12 0 0)
(-3.40287854e-12 0 0)
(-4.80119641e-12 0 0)
(-2.81008449e-12 0 0)
(-3.04837317e-12 0 0)
(-4.47961969e-12 0 0)
(-3.67061077e-12 0 0)
(-4.00092627e-12 0 0)
(-5.14413087e-12 0 0)
(-3.22165077e-12 0 0)
(-3.28291002e-12 0 0)
(-3.83906723e-12 0 0)
(-2.88683592e-12 0 0)
(-3.5940294e-12 0 0)
(-2.94992155e-12 0 0)
(-2.09801855e-12 0 0)
(-1.86066456e-12 0 0)
(-2.49019635e-12 0 0)
(-2.99342811e-12 0 0)
(-2.00740188e-12 0 0)
(-2.87589269e-12 0 0)
(-2.18303845e-12 0 0)
(-2.97129001e-12 0 0)
(-2.1070736e-12 0 0)
(-3.12834044e-12 0 0)
(-2.15766976e-12 0 0)
(-1.93438723e-12 0 0)
(-2.05352591e-12 0 0)
(-3.04520566e-12 0 0)
(-1.89414415e-12 0 0)
(-2.41931825e-12 0 0)
(-1.96971124e-12 0 0)
(-1.21661359e-12 0 0)
(-1.74928951e-12 0 0)
(-6.0523108e-13 0 0)
(-4.56770026e-13 0 0)
(-2.30437469e-12 0 0)
(-1.27887773e-12 0 0)
(-1.08596336e-12 0 0)
(-1.86521419e-12 0 0)
(-7.30456082e-13 0 0)
(1.84880557e-13 0 0)
(-6.65803175e-13 0 0)
(2.23463197e-13 0 0)
(-4.00398557e-13 0 0)
(-1.05212791e-12 0 0)
(3.27729728e-13 0 0)
(-5.95901194e-13 0 0)
(-3.47136025e-14 0 0)
(-2.62111504e-13 0 0)
(-6.77370226e-14 0 0)
(-1.74007698e-13 0 0)
(1.1082938e-14 0 0)
(-1.4219277e-12 0 0)
(3.50236052e-13 0 0)
(7.10265322e-13 0 0)
(-2.02432525e-13 0 0)
(-2.40708262e-14 0 0)
(9.15146358e-13 0 0)
(8.65638973e-13 0 0)
(7.76023084e-13 0 0)
(8.9311538e-13 0 0)
(7.47990629e-13 0 0)
(7.98023044e-13 0 0)
(1.28332003e-12 0 0)
(-4.17571147e-13 0 0)
(3.9385491e-13 0 0)
(1.28005519e-12 0 0)
(3.9991322e-13 0 0)
(1.66340565e-12 0 0)
(5.33805012e-13 0 0)
(1.21007201e-12 0 0)
(1.37060725e-12 0 0)
(1.81048895e-12 0 0)
(1.12614151e-12 0 0)
(4.61129643e-13 0 0)
(2.41044257e-12 0 0)
(1.98262776e-12 0 0)
(2.20005629e-12 0 0)
(1.34965636e-12 0 0)
(2.30240048e-12 0 0)
(2.71320165e-12 0 0)
(1.91348677e-12 0 0)
(2.51124632e-12 0 0)
(2.11630726e-12 0 0)
(2.86065421e-12 0 0)
(2.25692946e-12 0 0)
(2.44260958e-12 0 0)
(2.09782234e-12 0 0)
(1.86782632e-12 0 0)
(2.59058109e-12 0 0)
(2.68746564e-12 0 0)
(2.51924803e-12 0 0)
(3.17817565e-12 0 0)
(2.38422869e-12 0 0)
(4.12957789e-12 0 0)
(2.82935447e-12 0 0)
(3.28729281e-12 0 0)
(4.17497727e-12 0 0)
(3.89658262e-12 0 0)
(3.95942502e-12 0 0)
(3.22507445e-12 0 0)
(3.41864912e-12 0 0)
(3.37587049e-12 0 0)
(2.97905562e-12 0 0)
(4.35866155e-12 0 0)
(2.8677897e-12 0 0)
(2.32476083e-12 0 0)
(4.76749134e-12 0 0)
(3.42426047e-12 0 0)
(3.79787848e-12 0 0)
(4.22731877e-12 0 0)
(5.06091172e-12 0 0)
(4.29795125e-12 0 0)
(4.90015575e-12 0 0)
(5.35367373e-12 0 0)
(4.86950329e-12 0 0)
(4.7641393e-12 0 0)
(5.17968132e-12 0 0)
(4.4584379e-12 0 0)
(4.80378541e-12 0 0)
(5.15026576e-12 0 0)
(5.18349852e-12 0 0)
(5.89132058e-12 0 0)
(5.69958272e-12 0 0)
(5.32466611e-12 0 0)
(5.01969907e-12 0 0)
(5.07856227e-12 0 0)
(5.0146637e-12 0 0)
(4.97348092e-12 0 0)
(5.73372479e-12 0 0)
(5.44119303e-12 0 0)
(5.42747784e-12 0 0)
(5.89183158e-12 0 0)
(6.12125067e-12 0 0)
(5.76004838e-12 0 0)
(6.09862161e-12 0 0)
(4.59598051e-12 0 0)
(6.44280824e-12 0 0)
(6.05783031e-12 0 0)
(5.60762148e-12 0 0)
(5.22004629e-12 0 0)
(6.42414903e-12 0 0)
(7.43695523e-12 0 0)
(7.05102415e-12 0 0)
(6.30388881e-12 0 0)
(7.54772781e-12 0 0)
(7.548431e-12 0 0)
(7.84008744e-12 0 0)
(7.6324077e-12 0 0)
(8.42270791e-12 0 0)
(7.77345302e-12 0 0)
(7.86054225e-12 0 0)
(7.60892315e-12 0 0)
(8.64815554e-12 0 0)
(7.53486905e-12 0 0)
(7.93771068e-12 0 0)
(8.0739219e-12 0 0)
(7.69637197e-12 0 0)
(8.4208193e-12 0 0)
(8.1204133e-12 0 0)
(8.76417596e-12 0 0)
(8.82633537e-12 0 0)
(9.01623011e-12 0 0)
(8.73752199e-12 0 0)
(9.02554877e-12 0 0)
(9.78327578e-12 0 0)
(9.75714608e-12 0 0)
(9.36780698e-12 0 0)
(8.95882437e-12 0 0)
(9.0023742e-12 0 0)
(9.22604635e-12 0 0)
(9.30330669e-12 0 0)
(9.68438647e-12 0 0)
(9.90119184e-12 0 0)
(9.72865235e-12 0 0)
(1.0323002e-11 0 0)
(8.85622932e-12 0 0)
(9.91285727e-12 0 0)
(1.09677319e-11 0 0)
(1.01410471e-11 0 0)
(9.89317934e-12 0 0)
(1.0844827e-11 0 0)
(1.05216629e-11 0 0)
(1.04542948e-11 0 0)
(9.5159489e-12 0 0)
(1.0815055e-11 0 0)
(9.6333272e-12 0 0)
(9.62451495e-12 0 0)
(9.65312454e-12 0 0)
(9.73125698e-12 0 0)
(9.34855501e-12 0 0)
(9.96493346e-12 0 0)
(9.73092453e-12 0 0)
(9.28840033e-12 0 0)
(8.79075648e-12 0 0)
(1.08701822e-11 0 0)
(9.27328581e-12 0 0)
(9.33923872e-12 0 0)
(9.72692225e-12 0 0)
(9.86570505e-12 0 0)
(9.6515426e-12 0 0)
(8.88704753e-12 0 0)
(9.66569212e-12 0 0)
(9.91176113e-12 0 0)
(9.40273061e-12 0 0)
(9.1985146e-12 0 0)
(9.47748024e-12 0 0)
(1.02728e-11 0 0)
(1.08800888e-11 0 0)
(9.99004949e-12 0 0)
(1.03911094e-11 0 0)
(1.08317327e-11 0 0)
(1.03225671e-11 0 0)
(1.0746725e-11 0 0)
(9.86353497e-12 0 0)
(9.92298039e-12 0 0)
(1.00140081e-11 0 0)
(1.07784678e-11 0 0)
(1.20894864e-11 0 0)
(1.15534443e-11 0 0)
(1.16317896e-11 0 0)
(1.25123767e-11 0 0)
(1.10983308e-11 0 0)
(1.10579037e-11 0 0)
(1.09118698e-11 0 0)
(1.11343916e-11 0 0)
(1.17994389e-11 0 0)
(1.107977e-11 0 0)
(1.17292115e-11 0 0)
(1.1330407e-11 0 0)
(1.14448434e-11 0 0)
(1.07846727e-11 0 0)
(1.14927306e-11 0 0)
(1.15491402e-11 0 0)
(1.23095092e-11 0 0)
(1.06667779e-11 0 0)
(1.09643607e-11 0 0)
(1.09460432e-11 0 0)
(1.11803406e-11 0 0)
(1.0240207e-11 0 0)
(9.64178631e-12 0 0)
(1.09569095e-11 0 0)
(1.05273528e-11 0 0)
(1.03289815e-11 0 0)
(1.10772552e-11 0 0)
(1.08516091e-11 0 0)
(1.05597688e-11 0 0)
(1.09069708e-11 0 0)
(1.13752773e-11 0 0)
(1.18633729e-11 0 0)
(1.13829401e-11 0 0)
(1.1294707e-11 0 0)
(1.0513112e-11 0 0)
(1.2263239e-11 0 0)
(1.08606957e-11 0 0)
(1.09326847e-11 0 0)
(1.12829769e-11 0 0)
(1.09932935e-11 0 0)
(1.02675575e-11 0 0)
(1.1007659e-11 0 0)
(1.04723188e-11 0 0)
(9.82282451e-12 0 0)
(1.09596124e-11 0 0)
(1.04305028e-11 0 0)
(1.10283279e-11 0 0)
(1.07214908e-11 0 0)
(1.12536565e-11 0 0)
(1.13064899e-11 0 0)
(1.01972017e-11 0 0)
(1.01519685e-11 0 0)
(1.12475364e-11 0 0)
(1.07818823e-11 0 0)
(1.10139861e-11 0 0)
(1.02255035e-11 0 0)
(1.10629265e-11 0 0)
(1.03022172e-11 0 0)
(1.10097456e-11 0 0)
(1.069915e-11 0 0)
(1.04552789e-11 0 0)
(1.00664149e-11 0 0)
(1.01544889e-11 0 0)
(9.95455961e-12 0 0)
(1.02927722e-11 0 0)
(1.04294932e-11 0 0)
(9.55800397e-12 0 0)
(1.01703567e-11 0 0)
(9.69265121e-12 0 0)
(9.50189293e-12 0 0)
(1.01163045e-11 0 0)
(9.31394085e-12 0 0)
(1.04126761e-11 0 0)
(9.48284953e-12 0 0)
(9.90671171e-12 0 0)
(9.97886501e-12 0 0)
(9.77992219e-12 0 0)
(9.2342457e-12 0 0)
(8.61908556e-12 0 0)
(9.50694383e-12 0 0)
(8.37116993e-12 0 0)
(8.12901243e-12 0 0)
(9.32893328e-12 0 0)
(9.31690253e-12 0 0)
(8.07090493e-12 0 0)
(9.44011336e-12 0 0)
(8.42083523e-12 0 0)
(8.87940756e-12 0 0)
(9.49947902e-12 0 0)
(8.46508257e-12 0 0)
(9.26704401e-12 0 0)
(9.14911903e-12 0 0)
(9.38943712e-12 0 0)
(8.71541183e-12 0 0)
(9.10007375e-12 0 0)
(8.78661825e-12 0 0)
(9.50511892e-12 0 0)
(9.21018674e-12 0 0)
(8.71817181e-12 0 0)
(1.00431402e-11 0 0)
(8.1936581e-12 0 0)
(9.67440099e-12 0 0)
(9.5135478e-12 0 0)
(9.36706509e-12 0 0)
(9.46094023e-12 0 0)
(9.13070949e-12 0 0)
(9.26547288e-12 0 0)
(8.88577554e-12 0 0)
(9.35415277e-12 0 0)
(9.18964207e-12 0 0)
(9.22971779e-12 0 0)
(9.36793917e-12 0 0)
(9.2293642e-12 0 0)
(9.57546121e-12 0 0)
(9.65494548e-12 0 0)
(8.86461395e-12 0 0)
(9.39690509e-12 0 0)
(9.91421003e-12 0 0)
(9.42304329e-12 0 0)
(9.4148694e-12 0 0)
(9.14075536e-12 0 0)
(9.67007297e-12 0 0)
(1.04268562e-11 0 0)
(9.83868679e-12 0 0)
(9.15949024e-12 0 0)
(9.93373584e-12 0 0)
(1.0431997e-11 0 0)
(9.26626325e-12 0 0)
(9.95463108e-12 0 0)
(1.00722121e-11 0 0)
(9.90525867e-12 0 0)
(9.1840953e-12 0 0)
(9.1586919e-12 0 0)
(9.73670019e-12 0 0)
(9.24136528e-12 0 0)
(8.93985471e-12 0 0)
(8.48328048e-12 0 0)
(8.92756804e-12 0 0)
(9.13315857e-12 0 0)
(8.6467056e-12 0 0)
(9.29538078e-12 0 0)
(9.82159762e-12 0 0)
(9.25472706e-12 0 0)
(8.9130119e-12 0 0)
(9.47614195e-12 0 0)
(9.62671414e-12 0 0)
(8.45836007e-12 0 0)
(9.28809801e-12 0 0)
(1.01134485e-11 0 0)
(9.75871706e-12 0 0)
(9.92877906e-12 0 0)
(9.46668802e-12 0 0)
(9.22393702e-12 0 0)
(9.33887061e-12 0 0)
(8.89993655e-12 0 0)
(9.81745736e-12 0 0)
(9.16081856e-12 0 0)
(9.68954359e-12 0 0)
(9.22527691e-12 0 0)
(9.20831469e-12 0 0)
(9.56022434e-12 0 0)
(9.1808221e-12 0 0)
(8.82877765e-12 0 0)
(8.77667526e-12 0 0)
(8.41378985e-12 0 0)
(8.84972755e-12 0 0)
(9.10631591e-12 0 0)
(9.26295881e-12 0 0)
(8.88286532e-12 0 0)
(9.20411745e-12 0 0)
(8.66610084e-12 0 0)
(8.98422551e-12 0 0)
(9.15209084e-12 0 0)
(8.95655833e-12 0 0)
(1.02017673e-11 0 0)
(8.24739439e-12 0 0)
(9.4787552e-12 0 0)
(9.15831801e-12 0 0)
(8.62428833e-12 0 0)
(8.25142921e-12 0 0)
(8.74989231e-12 0 0)
(8.5628845e-12 0 0)
(8.53165086e-12 0 0)
(8.114322e-12 0 0)
(8.24125451e-12 0 0)
(7.60111428e-12 0 0)
(7.47202434e-12 0 0)
(8.88705482e-12 0 0)
(7.87527036e-12 0 0)
(8.25373965e-12 0 0)
(7.24101565e-12 0 0)
(8.68277979e-12 0 0)
(7.97811337e-12 0 0)
(9.39837395e-12 0 0)
(9.00621087e-12 0 0)
(9.40853528e-12 0 0)
(9.15267451e-12 0 0)
(9.96019969e-12 0 0)
(9.23298118e-12 0 0)
(9.17661756e-12 0 0)
(8.99965867e-12 0 0)
(8.47894514e-12 0 0)
(8.69225125e-12 0 0)
(8.62324947e-12 0 0)
(8.52657166e-12 0 0)
(8.57607829e-12 0 0)
(8.55141039e-12 0 0)
(8.1411406e-12 0 0)
(9.78024765e-12 0 0)
(8.6754941e-12 0 0)
(8.54463402e-12 0 0)
(7.5837795e-12 0 0)
(8.16805607e-12 0 0)
(8.66622851e-12 0 0)
(8.54387021e-12 0 0)
(7.7753571e-12 0 0)
(9.53502958e-12 0 0)
(8.21597429e-12 0 0)
(8.50901662e-12 0 0)
(8.65667232e-12 0 0)
(8.92122755e-12 0 0)
(7.95436116e-12 0 0)
(7.99266242e-12 0 0)
(7.65450618e-12 0 0)
(7.41919654e-12 0 0)
(8.21891985e-12 0 0)
(6.61895684e-12 0 0)
(7.43820125e-12 0 0)
(7.14179173e-12 0 0)
(8.66355786e-12 0 0)
(7.78175608e-12 0 0)
(7.56396961e-12 0 0)
(8.92606503e-12 0 0)
(7.24437956e-12 0 0)
(8.21255787e-12 0 0)
(7.59609304e-12 0 0)
(7.41567045e-12 0 0)
(7.12148369e-12 0 0)
(6.40062447e-12 0 0)
(7.21246898e-12 0 0)
(6.31872379e-12 0 0)
(6.28141245e-12 0 0)
(6.60479806e-12 0 0)
(6.59028749e-12 0 0)
(5.46992088e-12 0 0)
(6.26948775e-12 0 0)
(6.39782168e-12 0 0)
(5.03806255e-12 0 0)
(5.22061096e-12 0 0)
(5.69100928e-12 0 0)
(5.1930047e-12 0 0)
(5.69580787e-12 0 0)
(5.59927647e-12 0 0)
(5.39629525e-12 0 0)
(4.954206e-12 0 0)
(5.17803832e-12 0 0)
(4.46844624e-12 0 0)
(4.76634216e-12 0 0)
(4.82453068e-12 0 0)
(3.74028261e-12 0 0)
(3.53760262e-12 0 0)
(4.42698681e-12 0 0)
(4.61950385e-12 0 0)
(3.01322613e-12 0 0)
(3.07638157e-12 0 0)
(3.58303371e-12 0 0)
(3.87775326e-12 0 0)
(4.07637724e-12 0 0)
(2.91467746e-12 0 0)
(3.72017602e-12 0 0)
(3.86908576e-12 0 0)
(3.57392554e-12 0 0)
(4.10150539e-12 0 0)
(3.02671678e-12 0 0)
(3.94405111e-12 0 0)
(3.40854895e-12 0 0)
(3.07932003e-12 0 0)
(3.0256952e-12 0 0)
(3.69135285e-12 0 0)
(2.87860074e-12 0 0)
(3.80955714e-12 0 0)
(3.17746222e-12 0 0)
(4.19834251e-12 0 0)
(4.18113617e-12 0 0)
(3.87884927e-12 0 0)
(4.22104366e-12 0 0)
(3.56894167e-12 0 0)
(4.66189511e-12 0 0)
(4.4455805e-12 0 0)
(3.74693627e-12 0 0)
(2.82445249e-12 0 0)
(3.74981345e-12 0 0)
(3.56781046e-12 0 0)
(3.430375e-12 0 0)
(2.77990191e-12 0 0)
(3.60101814e-12 0 0)
(4.97087029e-12 0 0)
(3.88935708e-12 0 0)
(4.09309115e-12 0 0)
(4.32853253e-12 0 0)
(4.36643822e-12 0 0)
(3.98341751e-12 0 0)
(4.16024254e-12 0 0)
(4.32504027e-12 0 0)
(3.29204273e-12 0 0)
(2.76221655e-12 0 0)
(4.67410901e-12 0 0)
(3.60466787e-12 0 0)
(3.01274117e-12 0 0)
(2.45816164e-12 0 0)
(2.18707075e-12 0 0)
(2.4509303e-12 0 0)
(3.11225244e-12 0 0)
(2.60954142e-12 0 0)
(2.67056677e-12 0 0)
(2.470477e-12 0 0)
(2.95705045e-12 0 0)
(2.7012469e-12 0 0)
(3.05710566e-12 0 0)
(3.03949873e-12 0 0)
(1.3529925e-12 0 0)
(2.17286982e-12 0 0)
(2.56894492e-12 0 0)
(1.97762213e-12 0 0)
(2.68118182e-12 0 0)
(2.45869205e-12 0 0)
(2.23963318e-12 0 0)
(2.2503173e-12 0 0)
(1.76722006e-12 0 0)
(1.46136422e-12 0 0)
(1.13797062e-12 0 0)
(1.45942791e-12 0 0)
(1.58163408e-12 0 0)
(2.74796239e-12 0 0)
(2.08636997e-12 0 0)
(1.92120414e-12 0 0)
(1.19925284e-12 0 0)
(1.68592605e-12 0 0)
(1.80199396e-12 0 0)
(1.1964204e-12 0 0)
(1.47045352e-12 0 0)
(9.56478752e-13 0 0)
(7.83508282e-13 0 0)
(1.76869161e-14 0 0)
(9.11856029e-13 0 0)
(-4.59504628e-13 0 0)
(-6.40492832e-13 0 0)
(2.27597059e-13 0 0)
(-1.24384032e-12 0 0)
(1.448541e-13 0 0)
(-1.32472395e-12 0 0)
(-7.99993536e-13 0 0)
(-1.96252874e-12 0 0)
(-1.14173642e-12 0 0)
(-1.34914595e-12 0 0)
(-2.12043736e-12 0 0)
(-1.95295767e-12 0 0)
(-2.69129198e-12 0 0)
(-2.23761146e-12 0 0)
(-3.35233156e-12 0 0)
(-2.56164247e-12 0 0)
(-2.78294401e-12 0 0)
(-3.41990765e-12 0 0)
(-3.73725175e-12 0 0)
(-4.10468689e-12 0 0)
(-4.19500084e-12 0 0)
(-3.32097433e-12 0 0)
(-4.34564633e-12 0 0)
(-4.35238033e-12 0 0)
(-3.87883248e-12 0 0)
(-4.49322615e-12 0 0)
(-4.01240832e-12 0 0)
(-4.17665425e-12 0 0)
(-4.20777458e-12 0 0)
(-3.31898169e-12 0 0)
(-3.74120794e-12 0 0)
(-3.70694997e-12 0 0)
(-3.94336376e-12 0 0)
(-3.77143821e-12 0 0)
(-4.70073429e-12 0 0)
(-4.66569491e-12 0 0)
(-3.30731527e-12 0 0)
(-4.71939138e-12 0 0)
(-4.49317449e-12 0 0)
(-5.36973382e-12 0 0)
(-4.66270684e-12 0 0)
(-4.50027012e-12 0 0)
(-5.07697508e-12 0 0)
(-3.92559491e-12 0 0)
(-4.49615733e-12 0 0)
(-4.66316772e-12 0 0)
(-4.32685472e-12 0 0)
(-4.36666465e-12 0 0)
(-5.26927874e-12 0 0)
(-5.08987158e-12 0 0)
(-4.45639314e-12 0 0)
(-5.43298252e-12 0 0)
(-4.88674077e-12 0 0)
(-5.24556287e-12 0 0)
(-4.88766268e-12 0 0)
(-5.78170812e-12 0 0)
(-6.33587122e-12 0 0)
(-5.61700125e-12 0 0)
(-6.56720317e-12 0 0)
(-6.61980458e-12 0 0)
(-6.01618799e-12 0 0)
(-7.23621326e-12 0 0)
(-8.4196037e-12 0 0)
(-6.55633296e-12 0 0)
(-6.91562648e-12 0 0)
(-7.62194072e-12 0 0)
(-6.92896578e-12 0 0)
(-7.06119939e-12 0 0)
(-8.13085565e-12 0 0)
(-7.91542746e-12 0 0)
(-8.12598486e-12 0 0)
(-7.88637105e-12 0 0)
(-8.69696026e-12 0 0)
(-7.52376905e-12 0 0)
(-6.70688837e-12 0 0)
(-8.56284839e-12 0 0)
(-8.97650827e-12 0 0)
(-8.83847419e-12 0 0)
(-8.35249337e-12 0 0)
(-9.36647536e-12 0 0)
(-8.72445904e-12 0 0)
(-9.52525175e-12 0 0)
(-9.73518673e-12 0 0)
(-1.07020406e-11 0 0)
(-1.03985656e-11 0 0)
(-9.80008285e-12 0 0)
(-9.87747759e-12 0 0)
(-9.16722735e-12 0 0)
(-9.39210434e-12 0 0)
(-1.00621286e-11 0 0)
(-9.07580707e-12 0 0)
(-9.51090131e-12 0 0)
(-8.69426738e-12 0 0)
(-1.00664665e-11 0 0)
(-1.02785981e-11 0 0)
(-9.54862296e-12 0 0)
(-1.00446839e-11 0 0)
(-9.9734557e-12 0 0)
(-9.84853709e-12 0 0)
(-1.00027186e-11 0 0)
(-9.46330276e-12 0 0)
(-1.0562642e-11 0 0)
(-1.04476021e-11 0 0)
(-9.39734405e-12 0 0)
(-9.66033154e-12 0 0)
(-9.90197658e-12 0 0)
(-1.05097999e-11 0 0)
(-9.66473667e-12 0 0)
(-1.04590289e-11 0 0)
(-9.68313341e-12 0 0)
(-9.54734758e-12 0 0)
(-9.34013976e-12 0 0)
(-1.01376298e-11 0 0)
(-1.01004424e-11 0 0)
(-1.1110257e-11 0 0)
(-9.63583279e-12 0 0)
(-9.72475308e-12 0 0)
(-1.09502814e-11 0 0)
(-1.05775668e-11 0 0)
(-9.82551006e-12 0 0)
(-9.6665705e-12 0 0)
(-1.10942779e-11 0 0)
(-9.95799423e-12 0 0)
(-1.08168441e-11 0 0)
(-9.96897762e-12 0 0)
(-9.51280172e-12 0 0)
(-9.87331077e-12 0 0)
(-1.06468419e-11 0 0)
(-1.02449286e-11 0 0)
(-1.01835985e-11 0 0)
(-8.69575559e-12 0 0)
(-9.53069416e-12 0 0)
(-9.68640707e-12 0 0)
(-1.07481788e-11 0 0)
(-1.02705203e-11 0 0)
(-9.45047864e-12 0 0)
(-9.81092709e-12 0 0)
(-9.91697464e-12 0 0)
(-9.77543458e-12 0 0)
(-9.50658657e-12 0 0)
(-9.93137517e-12 0 0)
(-9.37438689e-12 0 0)
(-9.96968145e-12 0 0)
(-9.98603205e-12 0 0)
(-1.00468321e-11 0 0)
(-9.96830049e-12 0 0)
(-9.40134793e-12 0 0)
(-1.03161096e-11 0 0)
(-1.00617059e-11 0 0)
(-1.02411893e-11 0 0)
(-1.06535861e-11 0 0)
(-1.01193949e-11 0 0)
(-1.0624576e-11 0 0)
(-1.0718011e-11 0 0)
(-1.01436005e-11 0 0)
(-9.92991824e-12 0 0)
(-1.11019121e-11 0 0)
(-1.02011316e-11 0 0)
(-1.04480329e-11 0 0)
(-1.09367327e-11 0 0)
(-1.11042423e-11 0 0)
(-1.13280733e-11 0 0)
(-1.15827532e-11 0 0)
(-1.27731627e-11 0 0)
(-1.06795307e-11 0 0)
(-1.13491621e-11 0 0)
(-1.22984952e-11 0 0)
(-1.20334953e-11 0 0)
(-1.19251804e-11 0 0)
(-1.19051148e-11 0 0)
(-1.14291159e-11 0 0)
(-1.16886293e-11 0 0)
(-1.10124567e-11 0 0)
(-1.1616391e-11 0 0)
(-1.09446528e-11 0 0)
(-1.08411757e-11 0 0)
(-1.17302818e-11 0 0)
(-1.07219702e-11 0 0)
(-1.16017108e-11 0 0)
(-1.06060125e-11 0 0)
(-1.10210268e-11 0 0)
(-1.11760194e-11 0 0)
(-1.07384509e-11 0 0)
(-1.03955217e-11 0 0)
(-1.17295507e-11 0 0)
(-1.07149685e-11 0 0)
(-1.13445453e-11 0 0)
(-1.08645141e-11 0 0)
(-1.12766709e-11 0 0)
(-1.08991706e-11 0 0)
(-1.10777879e-11 0 0)
(-1.12050862e-11 0 0)
(-1.10710047e-11 0 0)
(-1.16654217e-11 0 0)
(-1.16300848e-11 0 0)
(-1.17343517e-11 0 0)
(-1.14145956e-11 0 0)
(-1.17010097e-11 0 0)
(-1.26642498e-11 0 0)
(-1.11490343e-11 0 0)
(-1.18898714e-11 0 0)
(-1.20465383e-11 0 0)
(-1.16397842e-11 0 0)
(-1.14845201e-11 0 0)
(-1.20083558e-11 0 0)
(-1.14628971e-11 0 0)
(-1.04695182e-11 0 0)
(-1.15651623e-11 0 0)
(-1.07060286e-11 0 0)
(-1.06221666e-11 0 0)
(-1.11869529e-11 0 0)
(-1.15363595e-11 0 0)
(-1.10285346e-11 0 0)
(-1.06138544e-11 0 0)
(-1.16837221e-11 0 0)
(-1.0498159e-11 0 0)
(-1.16236223e-11 0 0)
(-1.07648502e-11 0 0)
(-1.10705684e-11 0 0)
(-1.07983379e-11 0 0)
(-1.04572943e-11 0 0)
(-1.0863149e-11 0 0)
(-1.03875532e-11 0 0)
(-9.89731217e-12 0 0)
(-1.09822804e-11 0 0)
(-1.10068025e-11 0 0)
(-1.03000255e-11 0 0)
(-1.04196745e-11 0 0)
(-1.0840708e-11 0 0)
(-1.00380333e-11 0 0)
(-9.80790845e-12 0 0)
(-1.06916551e-11 0 0)
(-1.06695464e-11 0 0)
(-1.00792781e-11 0 0)