/*--------------------------------*- C++ -*----------------------------------*\
| =========                 |                                                 |
| \\      /  F ield         | OpenFOAM: The Open Source CFD Toolbox           |
|  \\    /   O peration     | Version:  2206                                  |
|   \\  /    A nd           | Website:  www.openfoam.com                      |
|    \\/     M anipulation  |                                                 |
\*---------------------------------------------------------------------------*/
FoamFile
{
    version     2.0;
    format      ascii;
    arch        "LSB;label=32;scalar=64";
    class       volScalarField;
    location    "5.6e-06";
    object      sourcePV;
}
// * * * * * * * * * * * * * * * * * * * * * * * * * * * * * * * * * * * * * //

dimensions      [1 -3 -1 0 0 0 0];

internalField   nonuniform List<scalar> 
3183
(
0
0
0
0
0
0
0
0
0
0
0
0
0
0
0
0
0
0
0
0
0
0
0
0
0
0
0
0
0
0
0
0
0
0
0
0
0
0
0
0
0
0
0
0
0
0
0
0
0
0
0
0
0
0
0
0
0
0
0
0
0
0
0
0
0
0
0
0
0
0
0
0
0
0
0
0
0
0
0
0
0
0
0
0
0
0
0
0
0
0
0
0
0
0
0
0
0
0
0
0
0
0
0
0
0
0
0
0
0
0
0
0
0
0
0
0
0
0
0
0
0
0
0
0
0
0
0
0
0
0
0
0
0
0
0
0
0
0
0
0
0
0
0
0
0
0
0
0
0
0
0
0
0
0
0
0
0
0
0
0
0
0
0
0
0
0
0
0
0
0
0
0
0
0
0
0
0
0
0
0
0
0
0
0
0
0
0
0
0
0
0
0
0
0
0
0
0
0
0
0
0
0
0
0
0
0
0
0
0
0
0
0
0
0
0
0
0
0
0
0
0
0
0
0
0
0
0
0
0
0
0
0
0
0
0
0
0
0
0
0
0
0
0
0
0
0
0
0
0
0
0
0
0
0
0
0
0
0
0
0
0
0
0
0
0
0
0
0
0
0
0
0
0
0
0
0
0
0
0
0
0
0
0
0
0
0
0
0
0
0
0
0
0
0
0
0
0
0
0
0
0
0
0
0
0
0
0
0
0
0
0
0
0
0
0
0
0
0
0
0
0
0
0
0
0
0
0
0
0
0
0
0
0
0
0
0
0
0
0
0
0
0
0
0
0
0
0
0
0
0
0
0
0
0
0
0
0
0
0
0
0
0
0
0
0
0
0
0
0
0
0
0
0
0
0
0
0
0
0
0
0
0
0
0
0
0
0
0
0
0
0
0
0
0
0
0
0
0
0
0
0
0
0
0
0
0
0
0
0
0
0
0
0
0
0
0
0
0
0
0
0
0
0
0
0
0
0
0
0
0
0
0
0
0
0
0
0
0
0
0
0
0
0
0
0
0
0
0
0
0
0
0
0
0
0
0
0
0
0
0
0
0
0
0
0
0
0
0
0
0
0
0
0
0
0
0
0
0
0
0
0
0
0
0
0
0
0
0
0
0
0
0
0
0
0
0
0
0
0
0
0
0
0
0
0
0
0
0
0
0
0
0
0
0
0
0
0
0
0
0
0
0
0
0
0
0
0
0
0
0
0
0
0
0
0
0
0
0
0
0
0
0
0
0
0
0
0
0
0
0
0
0
0
0
0
0
0
0
0
0
0
0
0
0
0
0
0
0
0
0
0
0
0
0
0
0
0
0
0
0
0
0
0
0
0
0
0
0
0
0
0
0
0
0
0
0
0
0
0
0
0
0
0
0
0
0
0
0
0
0
0
0
0
0
0
0
0
0
0
0
0
0
0
0
0
0
0
0
0
0
0
0
0
0
0
0
0
0
0
0
0
0
0
0
0
0
0
0
0
0
0
0
0
0
0
0
0
0
0
0
0
0
0
0
0
0
0
0
0
0
0
0
0
0
0
0
0
0
0
0
0
0
0
0
0
0
0
0
0
0
0
0
0
0
0
0
0
0
0
0
0
0
0
0
0
0
0
0
0
0
0
0
0
0
0
0
0
0
0
0
0
0
0
0
0
0
0
0
0
0
0
0
0
0
0
0
0
0
0
0
0
0
0
0
0
0
0
0
0
0
0
0
0
0
0
0
0
0
0
0
0
0
0
0
0
0
0
0
0
0
0
0
0
0
0
0
0
0
0
0
0
0
0
0
0
0
0
0
0
0
0
0
0
0
0
0
0
0
0
0
0
0
0
0
0
0
0
0
0
0
0
0
0
0
0
0
0
0
0
0
0
0
0
0
0
0
0
0
0
0
0
0
0
0
0
0
0
0
0
0
0
0
0
0
0
0
0
0
0
0
0
0
0
0
0
0
0
0
0
0
0
0
0
0
0
0
0
0
0
0
0
0
0
0
0
0
0
0
0
0
0
0
0
0
0
0
0
0
0
0
0
0
0
0
0
0
0
0
0
0
0
0
0
0
0
0
0
0
0
0
0
0
0
0
0
0
0
0
0
0
0
0
0
0
0
0
0
0
0
0
0
0
0
0
0
0
0
0
0
0
0
0
0
0
0
0
0
0
0
0
0
0
0
0
0
0
0
0
0
0
0
0
0
0
0
0
0
0
0
0
0
0
0
0
0
0
0
0
0
0
0
0
0
0
0
0
0
0
0
0
0
0
0
0
0
0
0
0
0
0
0
0
0
0
0
0
0
0
0
0
0
0
0
0
0
0
0
0
0
0
0
0
0
0
0
0
0
0
0
0
0
0
0
0
0
0
0
0
0
0
0
0
0
0
0
0
0
0
0
0
0
0
0
0
0
0
0
0
0
0
0
0
0
0
0
0
0
0
0
0
0
0
0
0
0
0
0
0
0
0
0
0
0
0
0
0
0
0
0
0
0
0
0
0
0
0
0
0
0
0
0
0
0
0
0
0
0
0
0
0
0
0
0
0
0
0
0
0
0
0
0
0
0
0
0
0
0
0
0
0
0
0
0
0
0
0
0
0
0
0
0
0
0
0
0
0
0
0
0
0
0
0
0
0
0
0
0
0
0
0
0
0
0
0
0
0
0
0
0
0
0
0
0
0
0
0
0
0
0
0
0
0
0
0
0
0
0
0
0
0
0
0
0
0
0
0
0
0
0
0
0
0
0
0
0
0
0
0
0
0
0
0
0
0
0
0
0
0
0
0
0
0
0
0
0
0
0
0
0
0
0
0
0
0
0
0
0
0
0
0
0
0
0
0
0
0
0
0
0
0
0
0
0
0
0
0
0
0
0
0
0
0
0
0
0
0
0
0
0
0
0
0
0
0
0
0
0
0
0
0
0
0
0
0
0
0
0
0
0
0
0
0
0
0
0
0
0
0
0
0
0
0
0
0
0
0
0
0
0
0
0
0
0
0
0
0
0
0
0
0
0
0
0
0
0
0
0
0
0
0
0
0
0
0
0
0
0
0
0
0
0
0
0
0
0
0
0
0
0
0
0
0
0
0
0
0
0
0
0
0
0
0
0
0
0
0
0
0
0
0
0
0
0
0
0
0
0
0
0
0
0
0
0
0
0
0
0
0
0
0
0
0
0
0
0
0
0
0
0
0
0
0
0
0
0
0
0
0
0
0
0
0
0
0
0
0
0
0
0
0
0
0
0
0
0
0
0
0
0
0
0
0
0
0
0
0
0
0
0
0
0
0
0
0
0
0
0
0
0
0
0
0
0
0
0
0
0
0
0
0
0
0
0
0
0
0
0
0
0
0
0
0
0
0
0
0
0
0
0
0
0
0
0
0
0
0
0
0
0
0
0
0
0
0
0
0
0
0
0
0
0
0
0
0
0
0
0
0
0
0
0
0
0
0
0
0
0
0
0
0
0
0
0
0
0
0
0
0
0
0
0
0
0
0
0
0
0
0
0
0
0
0
0
0
0
0
0
0
0
0
0
0
0
0
0
0
0
0
0
0
0
0
0
0
0
0
0
0
0
0
0
0
0
0
0
0
0
0
0
0
0
0
0
0
0
0
0
0
0
0
0
0
0
0
0
0
0
0
0
0
0
0
0
0
0
0
0
0
0
0
0
0
0
0
0
0
0
0
0
0
0
0
0
0
0
0
0
0
0
0
0
0
0
0
0
0
0
0
0
0
0
0
0
0
0
0
0
0
0
0
0
0
0
0
0
0
0
0
0
0
0
0
0
0
0
0
0
0
0
0
0
0
0
0
0
0
0
0
0
0
0
0
0
0
0
0
0
0
0
0
0
0
0
0
0
0
0
0
0
0
0
0
0
0
0
0
0
0
0
0
0
0
0
0
0
0
0
0
0
0
0
0
0
0
0
0
0
0
0
0
0
0
0
0
0
0
0
0
0
0
0
0
0
0
0
0
0
0
0
0
0
0
0
0
0
0
0
0
0
0
0
0
0
0
0
0
0
0
0
0
0
0
0
0
0
0
0
0
0
0
0
0
0
0
0
0
0
0
0
0
0
0
0
0
0
0
0
0
0
0
0
0
0
0
0
0
0
0
0
0
0
0
0
0
0
0
0
0
0
0
0
0
0
0
0
0
0
0
0
0
0
0
0
0
0
0
0
0
0
0
0
0
0
0
0
0
0
0
0
0
0
0
0
0
0
0
0
0
0
0
0
0
0
0
0
0
0
0
0
0
0
0
0
0
0
0
0
0
0
0
0
0
0
0
0
0
0
0
0
0
0
0
0
0
0
0
0
0
0
0
0
0
0
0
0
0
0
0
0
0
0
0
0
0
0
0
0
0
0
0
0
0
0
0
0
0
0
0
0
0
0
0
0
0
0
0
0
0
0
0
0
0
0
0
0
0
0
0
0
0
0
0
0
0
0
0
0
0
0
0
0
0
0
0
0
0
0
0
0
0
0
0
0
0
0
0
0
0
0
0
0
0
0
0
0
0
0
0
0
0
0
0
0
0
0
0
0
0
0
0
0
0
0
0
0
0
0
0
0
0
0
0
0
0
0
0
0
0
0
0
0
0
0
0
0
0
0
0
0
0
0
0
0
0
0
0
0
0
0
0
0
0
0
0
0
0
0
0
0
0
0
0
0
0
0
0
0
0
0
0
0
0
0
0
0
0
0
0
0
0
0
0
0
0
0
0
0
0
0
0
0
0
0
0
0
0
0
0
0
0
0
0
0
0
0
0
0
0
0
0
0
0
0
0
0
0
0
0
0
0
0
0
0
0
0
0
0
0
0
0
0
0
0
0
0
0
0
0
0
0
0
0
0
0
0
0
0
0
0
0
0
0
0
0
0
0
0
0
0
0
0
0
0
0
0
0
0
0
0
0
0
0
0
0
0
0
0
0
0
0
0
0
0
0
0
0
0
0
0
0
0
0
0
0
0
0
0
0
0
0
0
0
0
0
0
0
0
0
0
0
0
0
0
0
0
0
0
0
0
0
0
0
0
0
0
0
0
0
0
0
0
0
0
0
0
0
0
0
0
0
0
0
0
0
0
0
0
0
0
0
0
0
0
0
0
0
0
0
0
0
0
0
0
0
0
0
0
0
0
0
0
0
0
0
0
0
0
0
0
0
0
0
0
0
0
0
0
0
0
0
0
0
0
0
0
0
0
0
0
0
0
0
0
0
0
0
0
0
0
0
0
0
0
0
0
0
0
0
0
0
0
0
0
0
0
0
0
0
0
0
0
0
0
0
0
0
0
0
0
0
0
0
0
0
0
0
0
0
0
0
0
0
0
0
0
0
0
0
0
0
0
0
0
0
0
0
0
0
0
0
0
0
0
0
0
0
0
0
0
0
0
0
0
0
0
0
0
0
0
0
0
0
0
0
0
0
0
0
0
0
0
0
0
0
0
0
0
0
0
0
0
0
0
0
0
0
0
0
0
0
0
0
0
0
0
0
0
0
0
2.43517707e-300
0
1.67996327e-292
0
5.97012539e-285
0
1.09297871e-277
0
1.0309871e-270
0
5.01245963e-264
0
1.25686956e-257
0
1.62753725e-251
0
1.09108111e-245
0
3.80490006e-240
0
5.71345758e-236
0
4.51172435e-232
0
2.46880707e-228
0
1.0486783e-224
0
3.67701462e-221
0
1.10565934e-217
0
2.92568891e-214
0
6.93983937e-211
0
1.49621605e-207
0
2.96351041e-204
0
5.43835624e-201
0
9.31018294e-198
0
1.49531298e-194
0
2.26380379e-191
0
3.24347472e-188
0
4.41292371e-185
0
5.718215e-182
0
7.07486623e-179
0
8.37655029e-176
0
9.50931621e-173
0
1.03685646e-169
0
1.08751689e-166
0
1.09872877e-163
0
1.07055047e-160
0
1.00705906e-157
0
9.15489596e-155
0
8.04967293e-152
0
6.85118815e-149
1.83775496e-150
5.64829887e-146
3.11953128e-147
4.51339128e-143
3.69662226e-144
3.49753677e-140
3.74468152e-141
2.62971976e-137
3.44269209e-138
1.91926057e-134
2.94846154e-135
1.36019883e-131
2.38516279e-132
9.36397634e-129
1.83761894e-129
6.2637321e-126
1.35559831e-126
4.07218576e-123
9.61029727e-124
2.57354675e-120
6.56462719e-121
1.58131288e-117
4.32899956e-118
9.44798576e-115
2.75992724e-115
5.48951988e-112
1.70301289e-112
3.10188126e-109
1.01791805e-109
1.70458123e-106
5.89737459e-107
9.10965984e-104
3.31330709e-104
4.73426767e-101
1.80580066e-101
2.39236695e-98
9.54953119e-99
1.17535439e-95
4.9006624e-96
5.61307392e-93
2.44065532e-93
2.60513927e-90
1.17956244e-90
1.17475837e-87
5.53158963e-88
5.14545302e-85
2.5166023e-85
2.18829561e-82
1.11046836e-82
9.03283312e-80
4.75101793e-80
3.6172862e-77
1.97010008e-77
1.40463354e-74
7.91430746e-75
5.28588675e-72
3.07844087e-72
1.92650979e-69
1.158721e-69
6.79539336e-67
4.21753133e-67
2.31794765e-64
1.48330941e-64
7.63930842e-62
5.03639235e-62
2.430172e-59
1.64928387e-59
7.45372616e-57
5.20332424e-57
2.20154352e-54
1.57956999e-54
6.25313101e-52
4.60750229e-52
1.70533027e-49
1.28937936e-49
4.45756823e-47
3.45553857e-47
1.11455827e-44
8.85113555e-45
2.65974801e-42
2.16190916e-42
6.04208686e-40
5.02219735e-40
1.30270858e-37
1.10625992e-37
2.65655236e-35
2.30253235e-35
5.10316992e-33
4.50979842e-33
9.19028721e-31
8.27184998e-31
1.54272951e-28
1.41259284e-28
2.39711071e-26
2.23013636e-26
3.41798813e-24
3.22663806e-24
4.42378523e-22
4.23132884e-22
5.1239525e-20
4.95779349e-20
5.2113422e-18
5.09164725e-18
4.53168504e-16
4.46277648e-16
3.23830994e-14
3.21167866e-14
1.78284281e-12
1.7767772e-12
7.65844168e-10
7.72204132e-10
2.32075386
4.69310695
8.33068794
7.17988958
1.04072889
0.861052783
0.0994520506
0.0926988883
0.0107566795
0.0105852687
0.00104936698
0.00105106923
9.92685119e-05
9.92423737e-05
1.51487203e-05
1.52185884e-05
8.55839429e-06
8.5614137e-06
8.07987083e-06
8.0803979e-06
8.04847594e-06
8.0484764e-06
8.04650223e-06
8.04651118e-06
8.04639988e-06
8.0464011e-06
8.04638588e-06
8.04639883e-06
8.04638077e-06
8.04639612e-06
8.04638325e-06
8.04638903e-06
8.04638236e-06
8.04640205e-06
8.04637417e-06
8.04639481e-06
8.04638998e-06
8.04638584e-06
8.04638274e-06
8.04638632e-06
8.04639254e-06
8.04638597e-06
8.04639438e-06
8.04637547e-06
8.04639481e-06
8.04638526e-06
8.04639527e-06
8.04638636e-06
8.04639363e-06
8.04638031e-06
8.04639414e-06
8.04638812e-06
8.04638868e-06
8.04639062e-06
8.04639042e-06
8.04638417e-06
8.04638261e-06
8.04639038e-06
8.04639103e-06
8.04638002e-06
8.0463873e-06
8.04638932e-06
8.04638981e-06
8.04638707e-06
8.04638728e-06
8.04638394e-06
8.0463937e-06
8.04638053e-06
8.04639013e-06
8.04637492e-06
8.04639874e-06
8.04636762e-06
8.04639794e-06
8.04638386e-06
8.04638072e-06
8.04639988e-06
8.04638068e-06
8.04639168e-06
8.04639249e-06
8.04639768e-06
8.04638945e-06
8.0463892e-06
8.04639042e-06
8.04639035e-06
8.04639696e-06
8.04638565e-06
8.04639159e-06
8.04639045e-06
8.04639098e-06
8.04638383e-06
8.0463942e-06
8.04639127e-06
8.04638557e-06
8.04640742e-06
8.04639011e-06
8.0463927e-06
8.04639181e-06
8.04639667e-06
8.04639318e-06
8.04638722e-06
8.04640213e-06
8.04638999e-06
8.04639696e-06
8.04639326e-06
8.04639028e-06
8.04638538e-06
8.04639103e-06
8.04640334e-06
8.04639006e-06
8.04638418e-06
8.04639963e-06
8.04637293e-06
8.04639609e-06
8.04638531e-06
8.04639086e-06
8.04639052e-06
8.04639074e-06
8.046389e-06
8.04638776e-06
8.04639544e-06
8.04639278e-06
8.04639082e-06
8.04639204e-06
8.04639208e-06
8.04639633e-06
8.04638739e-06
8.04639263e-06
8.04639026e-06
8.04639973e-06
8.04639363e-06
8.04639043e-06
8.04638774e-06
8.04640235e-06
8.04640543e-06
8.04639025e-06
8.04640414e-06
8.04639096e-06
8.04638883e-06
8.04640266e-06
8.04638579e-06
8.0464019e-06
8.04639167e-06
8.0463908e-06
8.04639275e-06
8.04639183e-06
8.04640137e-06
8.04638871e-06
8.04639976e-06
8.046392e-06
8.046403e-06
8.04638718e-06
8.04639862e-06
8.0463978e-06
8.04639284e-06
8.04639922e-06
8.04639934e-06
8.04639672e-06
8.04640289e-06
8.04638903e-06
8.04639793e-06
8.04639942e-06
8.04639248e-06
8.04639797e-06
8.04639257e-06
8.04640429e-06
8.0464016e-06
8.04640614e-06
8.04639281e-06
8.04639969e-06
8.04639669e-06
8.04639767e-06
8.04639115e-06
8.04639369e-06
8.04639409e-06
8.04638583e-06
8.04640091e-06
8.04640254e-06
8.04640013e-06
8.04639415e-06
8.04641447e-06
8.04640218e-06
8.04640997e-06
8.04640148e-06
8.04640377e-06
8.04639432e-06
8.04640396e-06
8.04640073e-06
8.0463967e-06
8.04640855e-06
8.04639533e-06
8.04640109e-06
8.04640537e-06
8.04639658e-06
8.04640793e-06
8.04640278e-06
8.04639627e-06
8.04640927e-06
8.04639615e-06
8.04640868e-06
8.04638659e-06
8.04640514e-06
8.04639691e-06
8.04639849e-06
8.04640193e-06
8.04639831e-06
8.04639969e-06
8.04640181e-06
8.04640221e-06
8.0464095e-06
8.04639571e-06
8.04641717e-06
8.04638666e-06
8.04641618e-06
8.04639887e-06
8.04640642e-06
8.04640199e-06
8.04639947e-06
8.04640209e-06
8.0464052e-06
8.04641403e-06
8.04639313e-06
8.0464168e-06
8.0463968e-06
8.04640331e-06
8.04640439e-06
8.04639867e-06
8.04640873e-06
8.04640203e-06
8.04640732e-06
8.04640272e-06
8.04640808e-06
8.0464009e-06
8.046416e-06
8.04640459e-06
8.0464112e-06
8.04640393e-06
8.04640729e-06
8.04641334e-06
8.04639779e-06
8.04641745e-06
8.04640897e-06
8.0464041e-06
8.0464059e-06
8.04640543e-06
8.04640894e-06
8.0464101e-06
8.04639993e-06
8.04640683e-06
8.04640134e-06
8.04640576e-06
8.04640098e-06
8.04642037e-06
8.04640513e-06
8.04640698e-06
8.04640367e-06
8.04641297e-06
8.0464076e-06
8.04641086e-06
8.04641671e-06
8.04639765e-06
8.04642079e-06
8.04641481e-06
8.04641727e-06
8.04640525e-06
8.04642186e-06
8.04640913e-06
8.04640746e-06
8.04640459e-06
8.04640579e-06
8.04640587e-06
8.04641534e-06
8.0464113e-06
8.04641165e-06
8.04642567e-06
8.04640223e-06
8.04642237e-06
8.04640554e-06
8.04641765e-06
8.0464114e-06
8.04640896e-06
8.04642004e-06
8.04639972e-06
8.04641358e-06
8.04641532e-06
8.04642294e-06
8.04640902e-06
8.04640729e-06
8.04641438e-06
8.04640974e-06
8.04641426e-06
8.04640949e-06
8.04641268e-06
8.04641074e-06
8.04640855e-06
8.04641869e-06
8.04640523e-06
8.04641569e-06
8.04641754e-06
8.04642573e-06
8.04641429e-06
8.04642077e-06
8.0464122e-06
8.04641755e-06
8.04642068e-06
8.04641544e-06
8.04642163e-06
8.04642862e-06
8.04640969e-06
8.04642541e-06
8.04642042e-06
8.04641718e-06
8.04642111e-06
8.04640781e-06
8.04643021e-06
8.04641207e-06
8.04642229e-06
8.04642933e-06
8.04640728e-06
8.04641881e-06
8.04641715e-06
8.04642278e-06
8.04642556e-06
8.04641736e-06
8.04641659e-06
8.04641995e-06
8.04642314e-06
8.04642111e-06
8.04642147e-06
8.04641761e-06
8.04642035e-06
8.04642193e-06
8.04642378e-06
8.04641005e-06
8.0464156e-06
8.04642068e-06
8.04641355e-06
8.04642966e-06
8.04640969e-06
8.04642818e-06
8.04641361e-06
8.04642433e-06
8.04642479e-06
8.0464192e-06
8.04642714e-06
8.04641956e-06
8.04642748e-06
8.0464191e-06
8.04642918e-06
8.04642457e-06
8.04642129e-06
8.04641916e-06
8.04642684e-06
8.04641958e-06
8.04641472e-06
8.04643431e-06
8.04641389e-06
8.04643463e-06
8.04641644e-06
8.04642904e-06
8.04642104e-06
8.04642454e-06
8.04641629e-06
8.04642955e-06
8.04642006e-06
8.04642169e-06
8.04643127e-06
8.04642713e-06
8.04643449e-06
8.04642508e-06
8.04643022e-06
8.04642943e-06
8.04643388e-06
8.04642437e-06
8.04643277e-06
8.04642034e-06
8.04642999e-06
8.04642612e-06
8.04642158e-06
8.04642909e-06
8.04641869e-06
8.0464346e-06
8.04641925e-06
8.04642789e-06
8.0464244e-06
8.04642549e-06
8.04641894e-06
8.04642451e-06
8.04642495e-06
8.04642232e-06
8.04642858e-06
8.04642158e-06
8.04642934e-06
8.04642193e-06
8.04642837e-06
8.04641691e-06
8.04643723e-06
8.04643047e-06
8.0464281e-06
8.04642546e-06
8.04642611e-06
8.04642144e-06
8.04643151e-06
8.04642284e-06
8.04644092e-06
8.04642054e-06
8.04643608e-06
8.04640892e-06
8.04643754e-06
8.04642787e-06
8.04643627e-06
8.04643138e-06
8.04643401e-06
8.04642597e-06
8.04642361e-06
8.04643414e-06
8.04641904e-06
8.04643142e-06
8.04642986e-06
8.04642071e-06
8.04642944e-06
8.04642725e-06
8.04642605e-06
8.04642935e-06
8.04642576e-06
8.04643339e-06
8.04642341e-06
8.04642878e-06
8.04643397e-06
8.04642158e-06
8.04644498e-06
8.04642635e-06
8.0464396e-06
8.04642726e-06
8.04643245e-06
8.04643285e-06
8.04643598e-06
8.04642569e-06
8.04643786e-06
8.0464316e-06
8.0464309e-06
8.0464302e-06
8.04642878e-06
8.04642629e-06
8.04642798e-06
8.04643287e-06
8.04642772e-06
8.046434e-06
8.04643154e-06
8.04643122e-06
8.04644168e-06
8.04642198e-06
8.04642983e-06
8.04643253e-06
8.04641914e-06
8.04643747e-06
8.04643115e-06
8.04642869e-06
8.04642771e-06
8.04643255e-06
8.04642945e-06
8.04642042e-06
8.04643365e-06
8.04643134e-06
8.04642364e-06
8.0464255e-06
8.04642839e-06
8.046437e-06
8.04642141e-06
8.04644162e-06
8.04642517e-06
8.0464344e-06
8.04642505e-06
8.04642648e-06
8.04643385e-06
8.04642365e-06
8.0464343e-06
8.04643091e-06
8.04642975e-06
8.0464238e-06
8.04642974e-06
8.04642189e-06
8.04642855e-06
8.04642885e-06
8.04642971e-06
8.04642544e-06
8.04642308e-06
8.04643619e-06
8.04642767e-06
8.04642953e-06
8.04642713e-06
8.04642617e-06
8.04643744e-06
8.04642756e-06
8.04643292e-06
8.04643459e-06
8.04642561e-06
8.0464307e-06
8.04642427e-06
8.04643519e-06
8.0464205e-06
8.04644273e-06
8.04641619e-06
8.04643099e-06
8.0464308e-06
8.04642647e-06
8.04643562e-06
8.04643036e-06
8.04643029e-06
8.04642834e-06
8.04642601e-06
8.04643311e-06
8.04642573e-06
8.04643066e-06
8.04642814e-06
8.04643184e-06
8.0464307e-06
8.04642769e-06
8.04642843e-06
8.04642963e-06
8.04642749e-06
8.04642875e-06
8.04642955e-06
8.04642957e-06
8.04642833e-06
8.04642846e-06
8.04642788e-06
8.0464286e-06
8.0464289e-06
8.04642869e-06
8.04642896e-06
8.04642864e-06
8.04642864e-06
8.04642875e-06
8.04642863e-06
8.04642909e-06
8.04642884e-06
8.04642845e-06
8.04642856e-06
8.04642886e-06
8.04642877e-06
8.0464288e-06
8.04642879e-06
8.04642875e-06
8.04642877e-06
8.04642878e-06
8.04642874e-06
8.04642878e-06
8.04642854e-06
8.04642881e-06
8.04642864e-06
8.04642868e-06
8.04642869e-06
8.04642873e-06
8.04642869e-06
8.04642886e-06
8.04642868e-06
8.04642874e-06
8.04642861e-06
8.04642862e-06
8.04642879e-06
8.04642876e-06
8.04642877e-06
8.04642876e-06
8.04642855e-06
8.04642877e-06
8.04642875e-06
8.04642869e-06
8.04642879e-06
8.04642866e-06
8.04642887e-06
8.04642872e-06
8.04642881e-06
8.04642866e-06
8.04642867e-06
8.04642883e-06
8.04642863e-06
8.04642863e-06
8.04642877e-06
)
;

boundaryField
{
    closed
    {
        type            calculated;
        value           uniform 0;
    }
    open
    {
        type            calculated;
        value           uniform 0;
    }
    sides
    {
        type            empty;
    }
}


// ************************************************************************* //
