/*--------------------------------*- C++ -*----------------------------------*\
| =========                 |                                                 |
| \\      /  F ield         | OpenFOAM: The Open Source CFD Toolbox           |
|  \\    /   O peration     | Version:  2206                                  |
|   \\  /    A nd           | Website:  www.openfoam.com                      |
|    \\/     M anipulation  |                                                 |
\*---------------------------------------------------------------------------*/
FoamFile
{
    version     2.0;
    format      ascii;
    arch        "LSB;label=32;scalar=64";
    class       volVectorField;
    location    "5.6e-06";
    object      U;
}
// * * * * * * * * * * * * * * * * * * * * * * * * * * * * * * * * * * * * * //

dimensions      [0 1 -1 0 0 0 0];

internalField   nonuniform List<vector> 
3183
(
(1.21578168e-13 0 0)
(-5.40500909e-15 0 0)
(-7.58442064e-14 0 0)
(-5.58662226e-14 0 0)
(-5.87848812e-14 0 0)
(-1.36707448e-18 0 0)
(-1.07957593e-19 0 0)
(-3.87910789e-24 0 0)
(1.30978655e-24 0 0)
(3.83536892e-23 0 0)
(7.88880054e-19 0 0)
(1.00160758e-17 0 0)
(2.3036033e-13 0 0)
(1.16219326e-13 0 0)
(-1.46746222e-13 0 0)
(-1.47054462e-13 0 0)
(1.43114063e-13 0 0)
(-4.88819173e-14 0 0)
(-5.31139692e-13 0 0)
(2.70251863e-14 0 0)
(3.17752488e-13 0 0)
(3.94316756e-17 0 0)
(4.51855499e-18 0 0)
(7.2902868e-18 0 0)
(1.04709374e-13 0 0)
(2.32600073e-13 0 0)
(4.44172543e-13 0 0)
(2.10034995e-13 0 0)
(-2.56513616e-13 0 0)
(-2.1017251e-13 0 0)
(-4.02484617e-13 0 0)
(-9.98199962e-14 0 0)
(-1.76467644e-14 0 0)
(-2.11354473e-13 0 0)
(-3.87358299e-14 0 0)
(9.1423226e-14 0 0)
(-9.629911e-14 0 0)
(-1.57671593e-13 0 0)
(3.51982308e-14 0 0)
(-8.75446665e-14 0 0)
(-3.54455297e-13 0 0)
(-4.28141701e-13 0 0)
(-5.87184424e-14 0 0)
(-1.6821371e-13 0 0)
(8.02427733e-14 0 0)
(2.03585702e-13 0 0)
(3.91955575e-13 0 0)
(7.50137273e-14 0 0)
(-7.84635273e-14 0 0)
(-1.03685751e-13 0 0)
(-1.09914739e-13 0 0)
(-9.20492852e-14 0 0)
(-1.4435534e-13 0 0)
(-2.53406561e-14 0 0)
(3.19739074e-13 0 0)
(-1.1063146e-13 0 0)
(1.17733572e-13 0 0)
(3.13157041e-14 0 0)
(2.29694249e-13 0 0)
(2.75763191e-13 0 0)
(3.66239082e-13 0 0)
(4.97654615e-13 0 0)
(5.63944042e-13 0 0)
(4.25773194e-13 0 0)
(6.25232135e-13 0 0)
(7.03366063e-13 0 0)
(6.92649814e-13 0 0)
(6.77496495e-13 0 0)
(8.09236793e-13 0 0)
(3.0233068e-13 0 0)
(5.9842716e-13 0 0)
(1.01452308e-12 0 0)
(4.17847268e-13 0 0)
(8.96113053e-13 0 0)
(7.47307463e-13 0 0)
(6.42368273e-13 0 0)
(7.56749475e-13 0 0)
(1.35459275e-12 0 0)
(1.29617106e-12 0 0)
(1.52013511e-12 0 0)
(1.30699369e-12 0 0)
(1.79648315e-12 0 0)
(1.7034336e-12 0 0)
(1.05310795e-12 0 0)
(1.61240838e-12 0 0)
(1.50264517e-12 0 0)
(1.66894914e-12 0 0)
(1.38766324e-12 0 0)
(1.73037166e-12 0 0)
(1.95973981e-12 0 0)
(1.79118323e-12 0 0)
(1.75455441e-12 0 0)
(2.4204571e-12 0 0)
(1.59905515e-12 0 0)
(1.87514473e-12 0 0)
(2.55939451e-12 0 0)
(1.21134502e-12 0 0)
(2.3072184e-12 0 0)
(2.19098308e-12 0 0)
(1.81512631e-12 0 0)
(3.3602247e-12 0 0)
(2.62933927e-12 0 0)
(3.03544336e-12 0 0)
(2.54490985e-12 0 0)
(2.42940311e-12 0 0)
(3.02235288e-12 0 0)
(2.61950398e-12 0 0)
(2.90049921e-12 0 0)
(2.89125165e-12 0 0)
(2.69508155e-12 0 0)
(2.56335648e-12 0 0)
(2.33434893e-12 0 0)
(2.13904554e-12 0 0)
(3.29657656e-12 0 0)
(1.92835357e-12 0 0)
(2.51771272e-12 0 0)
(1.89240139e-12 0 0)
(2.18603524e-12 0 0)
(2.33608757e-12 0 0)
(2.09512574e-12 0 0)
(1.39881495e-12 0 0)
(1.04937386e-12 0 0)
(1.78743973e-12 0 0)
(9.51689823e-13 0 0)
(5.57694576e-13 0 0)
(6.11884926e-13 0 0)
(1.93004423e-12 0 0)
(5.70188092e-13 0 0)
(6.92844815e-13 0 0)
(4.30905259e-13 0 0)
(1.30950824e-14 0 0)
(9.00015005e-13 0 0)
(1.70770299e-14 0 0)
(-1.01673164e-13 0 0)
(8.97260219e-13 0 0)
(8.69207831e-13 0 0)
(2.21406373e-12 0 0)
(1.16754776e-12 0 0)
(1.11560417e-12 0 0)
(1.47301811e-12 0 0)
(1.54144611e-12 0 0)
(1.22116982e-12 0 0)
(7.7484832e-13 0 0)
(5.65481858e-13 0 0)
(9.11701695e-13 0 0)
(1.23861365e-12 0 0)
(1.30824362e-12 0 0)
(1.55502124e-12 0 0)
(9.59408767e-13 0 0)
(7.79798203e-13 0 0)
(1.1045642e-12 0 0)
(6.38569184e-13 0 0)
(4.76119819e-13 0 0)
(6.36418764e-13 0 0)
(-1.92938789e-13 0 0)
(4.68153951e-13 0 0)
(3.23497975e-13 0 0)
(2.17296792e-13 0 0)
(6.69705933e-13 0 0)
(-3.27344926e-13 0 0)
(-4.0399535e-13 0 0)
(3.2825329e-14 0 0)
(-6.64199968e-13 0 0)
(-1.13067909e-12 0 0)
(2.45660341e-14 0 0)
(-4.86802712e-15 0 0)
(-4.61403672e-13 0 0)
(-5.74881558e-13 0 0)
(-6.64812775e-14 0 0)
(-6.45795722e-13 0 0)
(-9.41076485e-13 0 0)
(-1.05257997e-13 0 0)
(-8.16806593e-13 0 0)
(-7.43570705e-13 0 0)
(-7.16134066e-13 0 0)
(-4.52371762e-13 0 0)
(-1.60584064e-12 0 0)
(-9.89265416e-13 0 0)
(-4.13821945e-13 0 0)
(-1.20167273e-12 0 0)
(-7.16921532e-14 0 0)
(-1.91013415e-12 0 0)
(-2.75015119e-13 0 0)
(-9.43653937e-13 0 0)
(-8.45581544e-13 0 0)
(-1.37016502e-12 0 0)
(-8.23672385e-13 0 0)
(-9.61261284e-13 0 0)
(-1.67690651e-12 0 0)
(-1.33780962e-12 0 0)
(-1.10248379e-12 0 0)
(-8.2423409e-13 0 0)
(-1.71393055e-12 0 0)
(-1.46824661e-12 0 0)
(-1.38583908e-12 0 0)
(-8.25326993e-13 0 0)
(-2.15458776e-12 0 0)
(-1.76353422e-12 0 0)
(-1.9737732e-12 0 0)
(-2.53344936e-12 0 0)
(-2.28281353e-12 0 0)
(-2.3052729e-12 0 0)
(-2.1919632e-12 0 0)
(-2.25673399e-12 0 0)
(-2.58168058e-12 0 0)
(-3.26592385e-12 0 0)
(-3.01910509e-12 0 0)
(-2.51670238e-12 0 0)
(-3.26233646e-12 0 0)
(-3.12511039e-12 0 0)
(-3.61989942e-12 0 0)
(-3.88184085e-12 0 0)
(-3.3428149e-12 0 0)
(-5.39183588e-12 0 0)
(-3.91704275e-12 0 0)
(-4.39530068e-12 0 0)
(-3.32675004e-12 0 0)
(-5.11991357e-12 0 0)
(-2.52434777e-12 0 0)
(-3.71211103e-12 0 0)
(-5.36850734e-12 0 0)
(-4.10857013e-12 0 0)
(-3.8100258e-12 0 0)
(-3.72862192e-12 0 0)
(-4.10534128e-12 0 0)
(-2.94699142e-12 0 0)
(-3.95250538e-12 0 0)
(-4.21859545e-12 0 0)
(-4.47096868e-12 0 0)
(-3.51382611e-12 0 0)
(-4.60887577e-12 0 0)
(-4.0081541e-12 0 0)
(-4.29294219e-12 0 0)
(-5.21646126e-12 0 0)
(-4.21416623e-12 0 0)
(-4.34560617e-12 0 0)
(-5.49134898e-12 0 0)
(-4.54440455e-12 0 0)
(-4.88697104e-12 0 0)
(-4.96765389e-12 0 0)
(-5.42152082e-12 0 0)
(-5.49949016e-12 0 0)
(-5.18337472e-12 0 0)
(-4.94355646e-12 0 0)
(-5.34417307e-12 0 0)
(-6.10323706e-12 0 0)
(-5.32879046e-12 0 0)
(-4.78915982e-12 0 0)
(-5.52267888e-12 0 0)
(-6.06679908e-12 0 0)
(-4.88685001e-12 0 0)
(-4.98029903e-12 0 0)
(-5.31910593e-12 0 0)
(-5.78222682e-12 0 0)
(-5.61626941e-12 0 0)
(-5.48078737e-12 0 0)
(-5.56018355e-12 0 0)
(-4.9743175e-12 0 0)
(-5.18971221e-12 0 0)
(-5.5934104e-12 0 0)
(-4.96484116e-12 0 0)
(-6.23780308e-12 0 0)
(-5.8524824e-12 0 0)
(-4.70464274e-12 0 0)
(-5.57650977e-12 0 0)
(-5.1474716e-12 0 0)
(-5.99522132e-12 0 0)
(-5.70119236e-12 0 0)
(-5.2982259e-12 0 0)
(-5.42111172e-12 0 0)
(-4.46163641e-12 0 0)
(-6.09090901e-12 0 0)
(-5.98825517e-12 0 0)
(-5.63241718e-12 0 0)
(-6.74603084e-12 0 0)
(-5.83937868e-12 0 0)
(-6.4760147e-12 0 0)
(-6.43109446e-12 0 0)
(-6.22166066e-12 0 0)
(-5.39891337e-12 0 0)
(-5.9716628e-12 0 0)
(-6.736339e-12 0 0)
(-6.6406338e-12 0 0)
(-6.20702884e-12 0 0)
(-6.27988294e-12 0 0)
(-7.41372772e-12 0 0)
(-6.45445767e-12 0 0)
(-7.21505672e-12 0 0)
(-7.13273624e-12 0 0)
(-7.00586961e-12 0 0)
(-7.21870956e-12 0 0)
(-6.9262045e-12 0 0)
(-7.18157828e-12 0 0)
(-7.85196259e-12 0 0)
(-7.11401312e-12 0 0)
(-7.38797063e-12 0 0)
(-8.203621e-12 0 0)
(-8.41839488e-12 0 0)
(-8.03558085e-12 0 0)
(-9.21191094e-12 0 0)
(-7.91511321e-12 0 0)
(-8.67245977e-12 0 0)
(-8.13950387e-12 0 0)
(-8.91545457e-12 0 0)
(-8.81138721e-12 0 0)
(-9.98687989e-12 0 0)
(-7.55327804e-12 0 0)
(-8.81309613e-12 0 0)
(-9.67013364e-12 0 0)
(-8.13910506e-12 0 0)
(-9.7873052e-12 0 0)
(-8.63185934e-12 0 0)
(-7.94417646e-12 0 0)
(-8.33026058e-12 0 0)
(-8.57095163e-12 0 0)
(-9.91425765e-12 0 0)
(-1.01429395e-11 0 0)
(-8.89581638e-12 0 0)
(-8.46334251e-12 0 0)
(-9.99417469e-12 0 0)
(-8.92630551e-12 0 0)
(-9.79723878e-12 0 0)
(-9.57544229e-12 0 0)
(-8.43628246e-12 0 0)
(-9.43712991e-12 0 0)
(-8.12298458e-12 0 0)
(-1.01487049e-11 0 0)
(-8.82565845e-12 0 0)
(-9.21048661e-12 0 0)
(-9.38860226e-12 0 0)
(-7.5200804e-12 0 0)
(-9.02869908e-12 0 0)
(-8.09809637e-12 0 0)
(-7.09607251e-12 0 0)
(-7.17441135e-12 0 0)
(-7.56266887e-12 0 0)
(-6.8906941e-12 0 0)
(-8.96745296e-12 0 0)
(-7.83576779e-12 0 0)
(-7.46616847e-12 0 0)
(-7.68521899e-12 0 0)
(-7.95745202e-12 0 0)
(-7.72332886e-12 0 0)
(-7.47840089e-12 0 0)
(-7.49787925e-12 0 0)
(-7.75056315e-12 0 0)
(-7.8509753e-12 0 0)
(-6.88862189e-12 0 0)
(-7.41191635e-12 0 0)
(-7.68816455e-12 0 0)
(-7.42229967e-12 0 0)
(-6.9982008e-12 0 0)
(-8.65848694e-12 0 0)
(-7.60866359e-12 0 0)
(-6.36557849e-12 0 0)
(-7.22235557e-12 0 0)
(-8.35693414e-12 0 0)
(-8.56127993e-12 0 0)
(-8.33328448e-12 0 0)
(-7.02177283e-12 0 0)
(-7.90281825e-12 0 0)
(-7.10625235e-12 0 0)
(-7.62059906e-12 0 0)
(-8.08318274e-12 0 0)
(-7.30339689e-12 0 0)
(-7.10385962e-12 0 0)
(-6.42948154e-12 0 0)
(-7.84690537e-12 0 0)
(-7.14915162e-12 0 0)
(-7.57439326e-12 0 0)
(-6.97736825e-12 0 0)
(-8.31077606e-12 0 0)
(-7.7058076e-12 0 0)
(-7.67056387e-12 0 0)
(-7.56504557e-12 0 0)
(-7.84755484e-12 0 0)
(-7.21149934e-12 0 0)
(-6.19530193e-12 0 0)
(-6.80478855e-12 0 0)
(-7.53319966e-12 0 0)
(-7.3669843e-12 0 0)
(-6.56055651e-12 0 0)
(-7.76480103e-12 0 0)
(-7.63685448e-12 0 0)
(-6.82809819e-12 0 0)
(-7.53685553e-12 0 0)
(-8.11507907e-12 0 0)
(-6.29497354e-12 0 0)
(-7.16556975e-12 0 0)
(-5.83258262e-12 0 0)
(-6.74588869e-12 0 0)
(-6.94963231e-12 0 0)
(-6.34106894e-12 0 0)
(-7.31907952e-12 0 0)
(-5.90332311e-12 0 0)
(-5.71430391e-12 0 0)
(-6.26980455e-12 0 0)
(-6.4168779e-12 0 0)
(-5.5670967e-12 0 0)
(-4.8997444e-12 0 0)
(-4.21884911e-12 0 0)
(-5.22435415e-12 0 0)
(-5.0211937e-12 0 0)
(-5.36212926e-12 0 0)
(-5.04398344e-12 0 0)
(-4.57803564e-12 0 0)
(-4.01217837e-12 0 0)
(-4.75125332e-12 0 0)
(-5.13097343e-12 0 0)
(-4.51560047e-12 0 0)
(-3.95277305e-12 0 0)
(-3.23041485e-12 0 0)
(-3.23070334e-12 0 0)
(-4.34983985e-12 0 0)
(-4.5886599e-12 0 0)
(-3.96637181e-12 0 0)
(-3.95906866e-12 0 0)
(-3.97753103e-12 0 0)
(-4.3208597e-12 0 0)
(-3.97770653e-12 0 0)
(-3.95103652e-12 0 0)
(-3.16558055e-12 0 0)
(-4.23740955e-12 0 0)
(-3.6159466e-12 0 0)
(-4.79255693e-12 0 0)
(-3.87614403e-12 0 0)
(-3.02124852e-12 0 0)
(-3.87953057e-12 0 0)
(-3.73971782e-12 0 0)
(-2.50836217e-12 0 0)
(-2.49974538e-12 0 0)
(-3.36132577e-12 0 0)
(-3.03246451e-12 0 0)
(-2.87080247e-12 0 0)
(-2.60729954e-12 0 0)
(-2.73779363e-12 0 0)
(-2.31140647e-12 0 0)
(-2.10138709e-12 0 0)
(-2.22576548e-12 0 0)
(-3.62330314e-12 0 0)
(-2.1772085e-12 0 0)
(-3.86046255e-12 0 0)
(-3.01391849e-12 0 0)
(-2.05665808e-12 0 0)
(-2.01440202e-12 0 0)
(-2.38166608e-12 0 0)
(-2.48909736e-12 0 0)
(-2.10512524e-12 0 0)
(-2.6838277e-12 0 0)
(-1.67784039e-12 0 0)
(-2.39032557e-12 0 0)
(-1.92590351e-12 0 0)
(-2.08673619e-12 0 0)
(-2.73429405e-12 0 0)
(-2.21673119e-12 0 0)
(-1.3046733e-12 0 0)
(-1.83178434e-12 0 0)
(-1.84830444e-12 0 0)
(-2.28763527e-12 0 0)
(-1.43273859e-12 0 0)
(-1.70163393e-12 0 0)
(-1.40220423e-12 0 0)
(-1.37472526e-12 0 0)
(-4.80988501e-13 0 0)
(-1.38964537e-12 0 0)
(-4.90712811e-13 0 0)
(-1.12966297e-12 0 0)
(-7.35831537e-13 0 0)
(-8.64185001e-13 0 0)
(-1.29993214e-12 0 0)
(3.11021629e-14 0 0)
(3.35629202e-13 0 0)
(-5.14895874e-13 0 0)
(-6.82430857e-13 0 0)
(-5.63116946e-13 0 0)
(-2.68482516e-13 0 0)
(-1.19756963e-12 0 0)
(-8.46371131e-13 0 0)
(-8.32233632e-13 0 0)
(-1.16253949e-12 0 0)
(-3.80438964e-13 0 0)
(-2.4163486e-15 0 0)
(-6.20244668e-13 0 0)
(-5.87017829e-13 0 0)
(2.28499581e-13 0 0)
(5.3997137e-13 0 0)
(3.89324243e-13 0 0)
(1.38536513e-12 0 0)
(6.67207721e-13 0 0)
(-4.62969528e-13 0 0)
(-4.35421905e-13 0 0)
(5.43396576e-14 0 0)
(-8.81217151e-14 0 0)
(2.72375434e-13 0 0)
(-9.7382853e-16 0 0)
(-4.21317395e-13 0 0)
(-3.68271866e-13 0 0)
(-1.51278991e-13 0 0)
(-4.95540096e-13 0 0)
(-6.36201897e-13 0 0)
(-5.56053216e-13 0 0)
(6.73202817e-13 0 0)
(2.25294065e-13 0 0)
(-5.85111775e-13 0 0)
(-2.49165708e-13 0 0)
(-1.23502369e-12 0 0)
(4.36488866e-14 0 0)
(-4.50463567e-13 0 0)
(-3.69081e-13 0 0)
(-8.98499986e-14 0 0)
(-5.78366206e-14 0 0)
(4.88213319e-14 0 0)
(-3.83074359e-13 0 0)
(3.96249537e-13 0 0)
(-6.21096299e-13 0 0)
(3.51560782e-14 0 0)
(2.97359112e-15 0 0)
(-7.53003209e-14 0 0)
(8.13448414e-13 0 0)
(7.46170059e-13 0 0)
(6.67781534e-13 0 0)
(6.56533661e-13 0 0)
(4.77602767e-15 0 0)
(1.351634e-12 0 0)
(1.45226882e-12 0 0)
(1.28175805e-12 0 0)
(1.46328943e-12 0 0)
(1.61683505e-12 0 0)
(1.00730689e-12 0 0)
(-3.1361211e-13 0 0)
(7.78924516e-13 0 0)
(2.96543968e-13 0 0)
(6.43142971e-13 0 0)
(2.00190346e-13 0 0)
(1.09884664e-13 0 0)
(5.40527828e-13 0 0)
(1.26829649e-12 0 0)
(1.08579664e-12 0 0)
(1.21033918e-12 0 0)
(2.18855934e-12 0 0)
(8.57662198e-13 0 0)
(1.27433128e-12 0 0)
(2.3160611e-12 0 0)
(1.90277526e-12 0 0)
(1.7945138e-12 0 0)
(1.87740318e-12 0 0)
(5.62530524e-13 0 0)
(1.38002087e-12 0 0)
(2.08346863e-12 0 0)
(1.62896083e-12 0 0)
(1.20064802e-12 0 0)
(1.33855423e-12 0 0)
(7.35699995e-13 0 0)
(1.93760944e-12 0 0)
(1.37181874e-12 0 0)
(1.4768624e-12 0 0)
(1.60331083e-12 0 0)
(1.29937421e-12 0 0)
(7.18820795e-13 0 0)
(8.77997997e-13 0 0)
(1.28418737e-12 0 0)
(-5.01756029e-13 0 0)
(8.80267634e-13 0 0)
(1.56358186e-13 0 0)
(4.29074746e-13 0 0)
(6.03078157e-13 0 0)
(1.22783941e-12 0 0)
(1.88143118e-12 0 0)
(2.23736136e-12 0 0)
(2.22825132e-12 0 0)
(1.79190844e-12 0 0)
(2.06125016e-12 0 0)
(1.5677991e-12 0 0)
(2.56608742e-12 0 0)
(2.08398705e-12 0 0)
(2.31737292e-12 0 0)
(1.29091352e-12 0 0)
(1.21851663e-12 0 0)
(2.65308073e-12 0 0)
(2.05589814e-12 0 0)
(1.23952702e-12 0 0)
(1.61974331e-12 0 0)
(2.16867551e-12 0 0)
(2.29809044e-12 0 0)
(2.33245609e-12 0 0)
(1.81469345e-12 0 0)
(2.16058835e-12 0 0)
(2.31775867e-12 0 0)
(9.67714344e-13 0 0)
(2.73120267e-12 0 0)
(2.20989831e-12 0 0)
(1.65859485e-12 0 0)
(2.53236982e-12 0 0)
(1.97326221e-12 0 0)
(3.0787904e-12 0 0)
(2.85102036e-12 0 0)
(2.29740242e-12 0 0)
(2.75597885e-12 0 0)
(2.99875511e-12 0 0)
(2.52712844e-12 0 0)
(2.64487758e-12 0 0)
(3.67867389e-12 0 0)
(2.79459584e-12 0 0)
(2.35726802e-12 0 0)
(3.28639143e-12 0 0)
(3.08363058e-12 0 0)
(3.56038504e-12 0 0)
(3.6183789e-12 0 0)
(3.4681937e-12 0 0)
(2.83895511e-12 0 0)
(2.96944842e-12 0 0)
(2.21833977e-12 0 0)
(3.61057804e-12 0 0)
(2.40198349e-12 0 0)
(3.28793107e-12 0 0)
(2.88997732e-12 0 0)
(3.58920442e-12 0 0)
(2.89833721e-12 0 0)
(3.01262808e-12 0 0)
(2.88512297e-12 0 0)
(2.86390541e-12 0 0)
(2.37835031e-12 0 0)
(2.09163504e-12 0 0)
(1.90907086e-12 0 0)
(2.38919001e-12 0 0)
(3.02748999e-12 0 0)
(2.01422355e-12 0 0)
(2.70198924e-12 0 0)
(2.51636883e-12 0 0)
(2.17113744e-12 0 0)
(1.58001344e-12 0 0)
(2.30321993e-12 0 0)
(2.73152753e-12 0 0)
(1.51739676e-12 0 0)
(2.35075631e-12 0 0)
(2.35525405e-12 0 0)
(1.85611987e-12 0 0)
(2.07970466e-12 0 0)
(2.73126243e-12 0 0)
(1.32641301e-12 0 0)
(9.96087448e-13 0 0)
(1.78574399e-12 0 0)
(2.59056915e-12 0 0)
(1.23911954e-12 0 0)
(2.06245479e-12 0 0)
(1.46720793e-12 0 0)
(1.86079009e-12 0 0)
(1.19020315e-12 0 0)
(1.6512802e-12 0 0)
(2.37527763e-12 0 0)
(1.5915998e-12 0 0)
(9.0540474e-13 0 0)
(1.88080038e-12 0 0)
(1.29720083e-12 0 0)
(8.44479023e-13 0 0)
(1.58649234e-12 0 0)
(1.54184272e-12 0 0)
(1.34374144e-12 0 0)
(8.8506815e-13 0 0)
(1.21917152e-12 0 0)
(1.08805115e-12 0 0)
(1.18136405e-12 0 0)
(1.85270826e-12 0 0)
(1.19554827e-12 0 0)
(1.12692194e-12 0 0)
(1.57715266e-12 0 0)
(1.60705701e-12 0 0)
(1.41002375e-12 0 0)
(9.48366062e-13 0 0)
(1.91970897e-12 0 0)
(3.54365723e-13 0 0)
(1.97532354e-12 0 0)
(1.15935984e-12 0 0)
(9.4932903e-13 0 0)
(9.92224665e-13 0 0)
(2.43198926e-14 0 0)
(8.87476823e-13 0 0)
(8.50220584e-13 0 0)
(1.70335062e-12 0 0)
(1.42107026e-12 0 0)
(2.03673889e-12 0 0)
(1.02996815e-12 0 0)
(1.74251325e-12 0 0)
(2.11089848e-12 0 0)
(2.83762985e-12 0 0)
(2.93898564e-12 0 0)
(2.15185927e-12 0 0)
(1.72295882e-12 0 0)
(2.30990856e-12 0 0)
(3.10606636e-12 0 0)
(2.61663819e-12 0 0)
(2.35822194e-12 0 0)
(2.66428049e-12 0 0)
(2.2406859e-12 0 0)
(2.24276421e-12 0 0)
(2.54399365e-12 0 0)
(1.75075378e-12 0 0)
(2.43232002e-12 0 0)
(1.48431339e-12 0 0)
(2.13378563e-12 0 0)
(2.9250141e-12 0 0)
(2.83289503e-12 0 0)
(1.76499591e-12 0 0)
(2.38070657e-12 0 0)
(2.84584906e-12 0 0)
(2.03174826e-12 0 0)
(2.5781611e-12 0 0)
(2.5494763e-12 0 0)
(2.18224102e-12 0 0)
(1.75185379e-12 0 0)
(1.76524272e-12 0 0)
(3.26840072e-12 0 0)
(2.36788766e-12 0 0)
(2.44955759e-12 0 0)
(2.08717641e-12 0 0)
(3.13663471e-12 0 0)
(2.45249181e-12 0 0)
(2.54502539e-12 0 0)
(2.20161751e-12 0 0)
(2.22429451e-12 0 0)
(1.78304528e-12 0 0)
(1.88441627e-12 0 0)
(2.95861217e-12 0 0)
(1.30073697e-12 0 0)
(1.73008498e-12 0 0)
(2.57990332e-12 0 0)
(2.11766091e-12 0 0)
(1.69435872e-12 0 0)
(2.57587897e-12 0 0)
(1.90619993e-12 0 0)
(9.92151322e-13 0 0)
(2.1184167e-12 0 0)
(1.47354691e-12 0 0)
(2.0112479e-12 0 0)
(2.54705727e-12 0 0)
(1.52790115e-12 0 0)
(2.30431901e-12 0 0)
(1.66504627e-12 0 0)
(1.62438963e-12 0 0)
(1.82032766e-12 0 0)
(1.41989491e-12 0 0)
(1.03247986e-12 0 0)
(2.07907325e-12 0 0)
(1.7404475e-12 0 0)
(2.27448939e-12 0 0)
(1.97948953e-12 0 0)
(2.12095546e-12 0 0)
(1.42262608e-12 0 0)
(1.48065348e-12 0 0)
(2.46126043e-12 0 0)
(1.51419457e-12 0 0)
(2.80472991e-12 0 0)
(2.74147584e-12 0 0)
(2.44006053e-12 0 0)
(2.84394523e-12 0 0)
(1.86357819e-12 0 0)
(3.99219164e-12 0 0)
(2.24356137e-12 0 0)
(2.02261265e-12 0 0)
(1.83746278e-12 0 0)
(1.88865416e-12 0 0)
(2.43119621e-12 0 0)
(1.85495991e-12 0 0)
(2.4485331e-12 0 0)
(2.57273236e-12 0 0)
(2.05503556e-12 0 0)
(2.75774615e-12 0 0)
(1.92344671e-12 0 0)
(2.12421285e-12 0 0)
(2.26645735e-12 0 0)
(2.52173752e-12 0 0)
(1.64658653e-12 0 0)
(2.20968207e-12 0 0)
(2.6997114e-12 0 0)
(2.14221417e-12 0 0)
(2.64469299e-12 0 0)
(1.94003368e-12 0 0)
(2.42829184e-12 0 0)
(2.48166578e-12 0 0)
(1.9337419e-12 0 0)
(2.21626348e-12 0 0)
(2.35708341e-12 0 0)
(2.40890723e-12 0 0)
(2.56282307e-12 0 0)
(2.57348091e-12 0 0)
(2.38731169e-12 0 0)
(2.21975724e-12 0 0)
(2.74813258e-12 0 0)
(3.43597958e-12 0 0)
(2.64518537e-12 0 0)
(2.56782421e-12 0 0)
(2.97697104e-12 0 0)
(3.70527719e-12 0 0)
(2.67123983e-12 0 0)
(1.62802937e-12 0 0)
(1.5026067e-12 0 0)
(2.07609909e-12 0 0)
(2.40068475e-12 0 0)
(2.41967916e-12 0 0)
(2.46939195e-12 0 0)
(1.93582524e-12 0 0)
(3.26413351e-12 0 0)
(2.44512167e-12 0 0)
(1.64465302e-12 0 0)
(2.50123304e-12 0 0)
(2.23212622e-12 0 0)
(3.27869987e-12 0 0)
(2.08145464e-12 0 0)
(2.69594525e-12 0 0)
(2.99200262e-12 0 0)
(3.37124269e-12 0 0)
(2.63643305e-12 0 0)
(1.89114713e-12 0 0)
(2.35092368e-12 0 0)
(2.33260586e-12 0 0)
(2.76026088e-12 0 0)
(2.22260077e-12 0 0)
(1.71703394e-12 0 0)
(1.07875108e-12 0 0)
(1.75139621e-12 0 0)
(2.06093471e-12 0 0)
(2.558032e-12 0 0)
(2.4503627e-12 0 0)
(2.00739304e-12 0 0)
(1.06822517e-12 0 0)
(1.91363074e-12 0 0)
(1.23551412e-12 0 0)
(1.58653546e-12 0 0)
(1.56857425e-12 0 0)
(9.03243572e-13 0 0)
(2.56707806e-12 0 0)
(2.05245703e-12 0 0)
(7.99438842e-13 0 0)
(2.24994409e-12 0 0)
(2.36916437e-12 0 0)
(1.16047153e-12 0 0)
(1.15743295e-12 0 0)
(2.52981129e-12 0 0)
(8.93585666e-13 0 0)
(1.48686667e-12 0 0)
(4.23994508e-13 0 0)
(4.92203691e-13 0 0)
(1.32138639e-12 0 0)
(6.68380834e-13 0 0)
(1.18968956e-12 0 0)
(8.04034631e-13 0 0)
(1.64697557e-12 0 0)
(8.11326306e-13 0 0)
(5.51391583e-13 0 0)
(1.44587497e-12 0 0)
(1.05010909e-12 0 0)
(1.34640131e-12 0 0)
(1.25394911e-12 0 0)
(1.92230768e-12 0 0)
(1.61481439e-12 0 0)
(9.98567744e-13 0 0)
(5.75113459e-13 0 0)
(2.04214856e-12 0 0)
(7.9684344e-13 0 0)
(1.48860509e-12 0 0)
(1.41863489e-12 0 0)
(9.28727983e-13 0 0)
(1.5306574e-12 0 0)
(1.58060681e-12 0 0)
(2.22607793e-12 0 0)
(1.33117143e-12 0 0)
(2.83583317e-12 0 0)
(1.22240696e-12 0 0)
(1.99861806e-12 0 0)
(1.26878709e-12 0 0)
(1.85358678e-12 0 0)
(1.45990985e-12 0 0)
(8.2428651e-13 0 0)
(1.59335406e-12 0 0)
(1.48258989e-12 0 0)
(1.52058375e-12 0 0)
(1.63548024e-12 0 0)
(4.26090505e-13 0 0)
(1.11527142e-12 0 0)
(2.26159928e-12 0 0)
(1.25059957e-12 0 0)
(1.57754467e-12 0 0)
(1.69395669e-12 0 0)
(2.88628569e-12 0 0)
(2.90376339e-12 0 0)
(1.36195074e-12 0 0)
(1.87533483e-12 0 0)
(1.30703348e-12 0 0)
(2.14823129e-12 0 0)
(1.34252281e-12 0 0)
(2.12954401e-12 0 0)
(1.15675751e-12 0 0)
(8.13323813e-13 0 0)
(2.20772111e-12 0 0)
(2.25767289e-12 0 0)
(2.10693572e-12 0 0)
(1.74925794e-12 0 0)
(1.62241475e-12 0 0)
(2.00847568e-12 0 0)
(1.41022257e-12 0 0)
(1.3159019e-12 0 0)
(1.51091769e-12 0 0)
(2.06224172e-12 0 0)
(1.31253793e-12 0 0)
(2.24959663e-12 0 0)
(1.21604161e-12 0 0)
(2.55706801e-12 0 0)
(2.06341222e-12 0 0)
(2.15233335e-12 0 0)
(1.99034539e-12 0 0)
(1.26537547e-12 0 0)
(1.91199883e-12 0 0)
(1.95975991e-12 0 0)
(2.23277816e-12 0 0)
(1.33259079e-12 0 0)
(2.54261123e-12 0 0)
(2.77108351e-12 0 0)
(1.32487923e-12 0 0)
(2.07269337e-12 0 0)
(2.91344013e-12 0 0)
(3.00777328e-12 0 0)
(3.70441307e-12 0 0)
(4.02634734e-12 0 0)
(2.95759189e-12 0 0)
(2.94776065e-12 0 0)
(4.25592562e-12 0 0)
(4.18911586e-12 0 0)
(3.44146618e-12 0 0)
(4.09209581e-12 0 0)
(3.4635559e-12 0 0)
(3.24914833e-12 0 0)
(3.33622973e-12 0 0)
(3.95501132e-12 0 0)
(3.17152306e-12 0 0)
(4.12998771e-12 0 0)
(3.48028389e-12 0 0)
(4.26220368e-12 0 0)
(4.63150458e-12 0 0)
(3.68739215e-12 0 0)
(3.34414307e-12 0 0)
(3.44018058e-12 0 0)
(4.2998756e-12 0 0)
(4.75210634e-12 0 0)
(3.94317844e-12 0 0)
(4.95262839e-12 0 0)
(4.23296508e-12 0 0)
(4.96354796e-12 0 0)
(4.66039548e-12 0 0)
(4.41831463e-12 0 0)
(3.76412176e-12 0 0)
(4.18109863e-12 0 0)
(4.66271276e-12 0 0)
(4.20550391e-12 0 0)
(4.64306286e-12 0 0)
(4.28799619e-12 0 0)
(4.00645991e-12 0 0)
(4.75480286e-12 0 0)
(3.73123358e-12 0 0)
(3.87922341e-12 0 0)
(3.16958919e-12 0 0)
(3.84584219e-12 0 0)
(4.44252023e-12 0 0)
(4.02137419e-12 0 0)
(3.50372603e-12 0 0)
(3.39402813e-12 0 0)
(4.12483307e-12 0 0)
(5.11315806e-12 0 0)
(4.15596805e-12 0 0)
(4.88010781e-12 0 0)
(5.32602287e-12 0 0)
(4.67183515e-12 0 0)
(5.50371492e-12 0 0)
(5.43632696e-12 0 0)
(4.71611697e-12 0 0)
(4.82742271e-12 0 0)
(4.55261687e-12 0 0)
(4.20805176e-12 0 0)
(5.14460669e-12 0 0)
(4.79265009e-12 0 0)
(4.56768474e-12 0 0)
(4.06245104e-12 0 0)
(4.23638588e-12 0 0)
(4.5588004e-12 0 0)
(5.29699126e-12 0 0)
(4.23535915e-12 0 0)
(4.26427803e-12 0 0)
(4.55773004e-12 0 0)
(5.14786894e-12 0 0)
(4.50152302e-12 0 0)
(4.62504063e-12 0 0)
(4.30172615e-12 0 0)
(5.38051074e-12 0 0)
(5.98324996e-12 0 0)
(4.40113712e-12 0 0)
(4.43819827e-12 0 0)
(4.92501608e-12 0 0)
(4.71085675e-12 0 0)
(4.4374988e-12 0 0)
(4.21715801e-12 0 0)
(4.84655107e-12 0 0)
(4.98078288e-12 0 0)
(4.68816309e-12 0 0)
(5.08512236e-12 0 0)
(5.02112578e-12 0 0)
(5.06154306e-12 0 0)
(5.99928239e-12 0 0)
(4.78848522e-12 0 0)
(5.15776834e-12 0 0)
(5.10982825e-12 0 0)
(5.40385061e-12 0 0)
(6.10317884e-12 0 0)
(4.60516511e-12 0 0)
(5.10111228e-12 0 0)
(4.74488474e-12 0 0)
(4.11414114e-12 0 0)
(4.76327637e-12 0 0)
(5.03406525e-12 0 0)
(4.90713609e-12 0 0)
(4.63537515e-12 0 0)
(5.00659881e-12 0 0)
(3.44480043e-12 0 0)
(3.15514348e-12 0 0)
(4.48530475e-12 0 0)
(3.79765399e-12 0 0)
(3.38500345e-12 0 0)
(3.14404961e-12 0 0)
(3.83783658e-12 0 0)
(2.77160309e-12 0 0)
(2.71868165e-12 0 0)
(3.31866548e-12 0 0)
(2.08039386e-12 0 0)
(2.80651975e-12 0 0)
(3.05199435e-12 0 0)
(2.50259885e-12 0 0)
(2.58789717e-12 0 0)
(2.7438097e-12 0 0)
(2.15309771e-12 0 0)
(2.30656438e-12 0 0)
(1.53231167e-12 0 0)
(1.41674383e-12 0 0)
(1.55276584e-12 0 0)
(1.60662887e-12 0 0)
(2.12253051e-12 0 0)
(1.70550733e-12 0 0)
(2.0192457e-12 0 0)
(2.58612183e-12 0 0)
(2.06618047e-12 0 0)
(2.05917634e-12 0 0)
(2.53318432e-12 0 0)
(2.34262712e-12 0 0)
(2.38429227e-12 0 0)
(2.76536756e-12 0 0)
(2.34220963e-12 0 0)
(2.90268473e-12 0 0)
(1.8998167e-12 0 0)
(2.24030995e-12 0 0)
(2.67438633e-12 0 0)
(3.15567889e-12 0 0)
(2.61427354e-12 0 0)
(2.93377033e-12 0 0)
(2.76211934e-12 0 0)
(1.68447292e-12 0 0)
(2.80469494e-12 0 0)
(3.74779672e-12 0 0)
(2.33360826e-12 0 0)
(2.6264666e-12 0 0)
(3.45260079e-12 0 0)
(2.85773924e-12 0 0)
(3.80930991e-12 0 0)
(3.18097905e-12 0 0)
(3.55611872e-12 0 0)
(3.7756239e-12 0 0)
(3.17747333e-12 0 0)
(5.29670522e-12 0 0)
(3.91326694e-12 0 0)
(4.44168296e-12 0 0)
(4.49659683e-12 0 0)
(4.3673505e-12 0 0)
(3.65082453e-12 0 0)
(3.62006799e-12 0 0)
(3.43290084e-12 0 0)
(4.23175008e-12 0 0)
(3.54166032e-12 0 0)
(3.50408146e-12 0 0)
(3.28064852e-12 0 0)
(3.57302795e-12 0 0)
(3.12185904e-12 0 0)
(3.49798918e-12 0 0)
(3.06210093e-12 0 0)
(2.90639072e-12 0 0)
(2.75595171e-12 0 0)
(4.36290826e-12 0 0)
(2.39009085e-12 0 0)
(2.4407576e-12 0 0)
(2.45835242e-12 0 0)
(1.5848755e-12 0 0)
(2.12593364e-12 0 0)
(1.34693863e-12 0 0)
(2.22329509e-12 0 0)
(1.25148083e-12 0 0)
(1.7859279e-12 0 0)
(1.3204777e-12 0 0)
(2.34690882e-12 0 0)
(5.95138802e-13 0 0)
(6.08683608e-13 0 0)
(1.12713554e-12 0 0)
(2.49811437e-13 0 0)
(5.18122952e-13 0 0)
(3.94189152e-13 0 0)
(9.41898676e-13 0 0)
(-1.49272306e-13 0 0)
(-2.03426733e-13 0 0)
(2.71937923e-13 0 0)
(-5.81586281e-13 0 0)
(-2.69180348e-13 0 0)
(-1.39397063e-12 0 0)
(-1.44381264e-12 0 0)
(-9.34843367e-13 0 0)
(-1.60363649e-12 0 0)
(-1.41091896e-12 0 0)
(-1.4541877e-12 0 0)
(-1.94478435e-12 0 0)
(-1.67530265e-12 0 0)
(-1.37329553e-12 0 0)
(-2.7070059e-12 0 0)
(-2.7139569e-12 0 0)
(-2.62587897e-12 0 0)
(-2.2939307e-12 0 0)
(-2.40943546e-12 0 0)
(-3.86322248e-12 0 0)
(-2.85819877e-12 0 0)
(-2.64828595e-12 0 0)
(-3.07235109e-12 0 0)
(-3.68380915e-12 0 0)
(-3.70847205e-12 0 0)
(-3.7783614e-12 0 0)
(-3.6708602e-12 0 0)
(-3.36107029e-12 0 0)
(-3.70956793e-12 0 0)
(-3.40693606e-12 0 0)
(-4.20380808e-12 0 0)
(-3.28877233e-12 0 0)
(-3.73754293e-12 0 0)
(-4.04896097e-12 0 0)
(-3.42729723e-12 0 0)
(-4.1445244e-12 0 0)
(-4.99037137e-12 0 0)
(-6.13671779e-12 0 0)
(-4.69651709e-12 0 0)
(-3.07582145e-12 0 0)
(-3.59499492e-12 0 0)
(-4.01826528e-12 0 0)
(-4.13716416e-12 0 0)
(-3.75534732e-12 0 0)
(-4.05267696e-12 0 0)
(-3.18215913e-12 0 0)
(-3.34260336e-12 0 0)
(-4.14149097e-12 0 0)
(-3.04648251e-12 0 0)
(-4.03705872e-12 0 0)
(-4.21475667e-12 0 0)
(-3.40813812e-12 0 0)
(-4.27868271e-12 0 0)
(-5.05559751e-12 0 0)
(-4.45761709e-12 0 0)
(-4.37238955e-12 0 0)
(-4.0660079e-12 0 0)
(-4.0275987e-12 0 0)
(-5.55131959e-12 0 0)
(-4.91571333e-12 0 0)
(-3.91460687e-12 0 0)
(-4.81835761e-12 0 0)
(-4.415018e-12 0 0)
(-4.45956901e-12 0 0)
(-4.89994126e-12 0 0)
(-5.52818393e-12 0 0)
(-6.48039211e-12 0 0)
(-5.55396065e-12 0 0)
(-4.67842948e-12 0 0)
(-5.48720227e-12 0 0)
(-6.04302911e-12 0 0)
(-4.94604338e-12 0 0)
(-5.88404475e-12 0 0)
(-4.91043479e-12 0 0)
(-5.3302681e-12 0 0)
(-6.03775204e-12 0 0)
(-4.34971072e-12 0 0)
(-5.34753433e-12 0 0)
(-5.64744448e-12 0 0)
(-5.1330515e-12 0 0)
(-4.97831924e-12 0 0)
(-5.74738157e-12 0 0)
(-6.16508909e-12 0 0)
(-4.46035992e-12 0 0)
(-3.34319971e-12 0 0)
(-4.93084056e-12 0 0)
(-5.58972789e-12 0 0)
(-4.62053877e-12 0 0)
(-4.48775233e-12 0 0)
(-5.83383442e-12 0 0)
(-4.73245148e-12 0 0)
(-4.8307276e-12 0 0)
(-5.88037317e-12 0 0)
(-5.24241121e-12 0 0)
(-5.39720321e-12 0 0)
(-5.44938975e-12 0 0)
(-5.10804534e-12 0 0)
(-5.38303356e-12 0 0)
(-5.85407792e-12 0 0)
(-4.42705334e-12 0 0)
(-5.26740476e-12 0 0)
(-6.02589297e-12 0 0)
(-4.68512125e-12 0 0)
(-5.48388069e-12 0 0)
(-4.4815602e-12 0 0)
(-4.77183033e-12 0 0)
(-4.36678219e-12 0 0)
(-5.41331588e-12 0 0)
(-5.44213934e-12 0 0)
(-3.91096086e-12 0 0)
(-4.22338956e-12 0 0)
(-4.43570445e-12 0 0)
(-5.74742006e-12 0 0)
(-4.86719717e-12 0 0)
(-4.57549486e-12 0 0)
(-4.82326792e-12 0 0)
(-4.69337409e-12 0 0)
(-5.50861812e-12 0 0)
(-5.51205076e-12 0 0)
(-4.52009313e-12 0 0)
(-5.56914079e-12 0 0)
(-5.20018908e-12 0 0)
(-4.50090212e-12 0 0)
(-4.61009904e-12 0 0)
(-6.02101831e-12 0 0)
(-5.40613118e-12 0 0)
(-4.65875759e-12 0 0)
(-4.25094076e-12 0 0)
(-4.96174309e-12 0 0)
(-4.60213627e-12 0 0)
(-5.12059053e-12 0 0)
(-4.10181691e-12 0 0)
(-3.93489294e-12 0 0)
(-4.39998208e-12 0 0)
(-3.5744368e-12 0 0)
(-3.72095248e-12 0 0)
(-3.10047745e-12 0 0)
(-3.91425431e-12 0 0)
(-2.86558113e-12 0 0)
(-3.16079852e-12 0 0)
(-2.07580138e-12 0 0)
(-2.76217037e-12 0 0)
(-3.23288033e-12 0 0)
(-3.58128927e-12 0 0)
(-3.41511107e-12 0 0)
(-2.27296877e-12 0 0)
(-2.7292344e-12 0 0)
(-4.23510144e-12 0 0)
(-3.42348237e-12 0 0)
(-3.24632506e-12 0 0)
(-3.81939198e-12 0 0)
(-3.82620619e-12 0 0)
(-3.72087163e-12 0 0)
(-3.34249321e-12 0 0)
(-3.36382251e-12 0 0)
(-3.27720014e-12 0 0)
(-3.26231467e-12 0 0)
(-4.25430784e-12 0 0)
(-2.19251354e-12 0 0)
(-3.1136825e-12 0 0)
(-3.30226526e-12 0 0)
(-3.31394457e-12 0 0)
(-2.67011699e-12 0 0)
(-3.06972644e-12 0 0)
(-3.11482926e-12 0 0)
(-2.76686817e-12 0 0)
(-2.26183037e-12 0 0)
(-3.00864321e-12 0 0)
(-1.71482334e-12 0 0)
(-1.94099883e-12 0 0)
(-3.0739277e-12 0 0)
(-2.68242502e-12 0 0)
(-1.17607625e-12 0 0)
(-1.9309167e-12 0 0)
(-1.73488462e-12 0 0)
(-1.33818128e-12 0 0)
(-1.88654672e-12 0 0)
(-1.69821285e-12 0 0)
(-1.90390743e-12 0 0)
(-2.24924868e-12 0 0)
(-2.48513493e-12 0 0)
(-1.60094445e-12 0 0)
(-1.81123206e-12 0 0)
(-1.94209937e-12 0 0)
(-2.62814997e-12 0 0)
(-2.76691964e-12 0 0)
(-2.76433112e-12 0 0)
(-1.90153659e-12 0 0)
(-2.80685816e-12 0 0)
(-2.1642262e-12 0 0)
(-3.50439712e-12 0 0)
(-2.68448525e-12 0 0)
(-4.36481849e-12 0 0)
(-2.82134191e-12 0 0)
(-4.04031906e-12 0 0)
(-2.60024045e-12 0 0)
(-3.02348225e-12 0 0)
(-3.49949587e-12 0 0)
(-2.21342417e-12 0 0)
(-1.74856464e-12 0 0)
(-2.15793096e-12 0 0)
(-3.19103191e-12 0 0)
(-2.74625333e-12 0 0)
(-3.42995879e-12 0 0)
(-2.72646251e-12 0 0)
(-2.9658546e-12 0 0)
(-1.82855038e-12 0 0)
(-2.92251791e-12 0 0)
(-1.53930644e-12 0 0)
(-1.53443277e-12 0 0)
(-2.33574129e-12 0 0)
(-2.27312063e-12 0 0)
(-2.16740964e-12 0 0)
(-2.2778541e-12 0 0)
(-2.05165145e-12 0 0)
(-1.9804556e-12 0 0)
(-1.72829524e-12 0 0)
(-1.84583499e-12 0 0)
(-2.33710868e-12 0 0)
(-1.68495175e-12 0 0)
(-1.77091689e-12 0 0)
(-2.24594429e-12 0 0)
(-1.99743112e-12 0 0)
(-1.4536803e-12 0 0)
(-1.50711545e-12 0 0)
(-1.61913767e-12 0 0)
(-1.7158348e-12 0 0)
(-8.36886943e-13 0 0)
(-2.00269547e-12 0 0)
(-5.76848226e-13 0 0)
(-5.98076634e-13 0 0)
(-7.89008134e-13 0 0)
(-1.66968392e-12 0 0)
(-1.34372988e-12 0 0)
(-1.52790007e-12 0 0)
(-2.67784314e-13 0 0)
(-8.25305951e-13 0 0)
(-1.18726253e-12 0 0)
(-3.10808795e-13 0 0)
(-1.08800407e-12 0 0)
(-2.6600916e-13 0 0)
(-1.18203965e-12 0 0)
(-1.36631159e-12 0 0)
(-3.01900158e-13 0 0)
(-5.54827588e-13 0 0)
(-3.69025491e-13 0 0)
(-6.33617071e-14 0 0)
(-8.04296559e-13 0 0)
(-3.42505815e-13 0 0)
(-8.24551652e-13 0 0)
(-5.75689573e-13 0 0)
(-5.57704247e-13 0 0)