/*--------------------------------*- C++ -*----------------------------------*\
| =========                 |                                                 |
| \\      /  F ield         | OpenFOAM: The Open Source CFD Toolbox           |
|  \\    /   O peration     | Version:  2206                                  |
|   \\  /    A nd           | Website:  www.openfoam.com                      |
|    \\/     M anipulation  |                                                 |
\*---------------------------------------------------------------------------*/
FoamFile
{
    version     2.0;
    format      ascii;
    arch        "LSB;label=32;scalar=64";
    class       volScalarField;
    location    "6.2e-06";
    object      p;
}
// * * * * * * * * * * * * * * * * * * * * * * * * * * * * * * * * * * * * * //

dimensions      [1 -1 -2 0 0 0 0];

internalField   nonuniform List<scalar> 
3183
(
101325
101325
101325
101325
101325
101325
101325
101325
101325
101325
101325
101325
101325
101325
101325
101325
101325
101325
101325
101325
101325
101325
101325
101325
101325
101325
101325
101325
101325
101325
101325
101325
101325
101325
101325
101325
101325
101325
101325
101325
101325
101325
101325
101325
101325
101325
101325
101325
101325
101325
101325
101325
101325
101325
101325
101325
101325
101325
101325
101325
101325
101325
101325
101325
101325
101325
101325
101325
101325
101325
101325
101325
101325
101325
101325
101325
101325
101325
101325
101325
101325
101325
101325
101325
101325
101325
101325
101325
101325
101325
101325
101325
101325
101325
101325
101325
101325
101325
101325
101325
101325
101325
101325
101325
101325
101325
101325
101325
101325
101325
101325
101325
101325
101325
101325
101325
101325
101325
101325
101325
101325
101325
101325
101325
101325
101325
101325
101325
101325
101325
101325
101325
101325
101325
101325
101325
101325
101325
101325
101325
101325
101325
101325
101325
101325
101325
101325
101325
101325
101325
101325
101325
101325
101325
101325
101325
101325
101325
101325
101325
101325
101325
101325
101325
101325
101325
101325
101325
101325
101325
101325
101325
101325
101325
101325
101325
101325
101325
101325
101325
101325
101325
101325
101325
101325
101325
101325
101325
101325
101325
101325
101325
101325
101325
101325
101325
101325
101325
101325
101325
101325
101325
101325
101325
101325
101325
101325
101325
101325
101325
101325
101325
101325
101325
101325
101325
101325
101325
101325
101325
101325
101325
101325
101325
101325
101325
101325
101325
101325
101325
101325
101325
101325
101325
101325
101325
101325
101325
101325
101325
101325
101325
101325
101325
101325
101325
101325
101325
101325
101325
101325
101325
101325
101325
101325
101325
101325
101325
101325
101325
101325
101325
101325
101325
101325
101325
101325
101325
101325
101325
101325
101325
101325
101325
101325
101325
101325
101325
101325
101325
101325
101325
101325
101325
101325
101325
101325
101325
101325
101325
101325
101325
101325
101325
101325
101325
101325
101325
101325
101325
101325
101325
101325
101325
101325
101325
101325
101325
101325
101325
101325
101325
101325
101325
101325
101325
101325
101325
101325
101325
101325
101325
101325
101325
101325
101325
101325
101325
101325
101325
101325
101325
101325
101325
101325
101325
101325
101325
101325
101325
101325
101325
101325
101325
101325
101325
101325
101325
101325
101325
101325
101325
101325
101325
101325
101325
101325
101325
101325
101325
101325
101325
101325
101325
101325
101325
101325
101325
101325
101325
101325
101325
101325
101325
101325
101325
101325
101325
101325
101325
101325
101325
101325
101325
101325
101325
101325
101325
101325
101325
101325
101325
101325
101325
101325
101325
101325
101325
101325
101325
101325
101325
101325
101325
101325
101325
101325
101325
101325
101325
101325
101325
101325
101325
101325
101325
101325
101325
101325
101325
101325
101325
101325
101325
101325
101325
101325
101325
101325
101325
101325
101325
101325
101325
101325
101325
101325
101325
101325
101325
101325
101325
101325
101325
101325
101325
101325
101325
101325
101325
101325
101325
101325
101325
101325
101325
101325
101325
101325
101325
101325
101325
101325
101325
101325
101325
101325
101325
101325
101325
101325
101325
101325
101325
101325
101325
101325
101325
101325
101325
101325
101325
101325
101325
101325
101325
101325
101325
101325
101325
101325
101325
101325
101325
101325
101325
101325
101325
101325
101325
101325
101325
101325
101325
101325
101325
101325
101325
101325
101325
101325
101325
101325
101325
101325
101325
101325
101325
101325
101325
101325
101325
101325
101325
101325
101325
101325
101325
101325
101325
101325
101325
101325
101325
101325
101325
101325
101325
101325
101325
101325
101325
101325
101325
101325
101325
101325
101325
101325
101325
101325
101325
101325
101325
101325
101325
101325
101325
101325
101325
101325
101325
101325
101325
101325
101325
101325
101325
101325
101325
101325
101325
101325
101325
101325
101325
101325
101325
101325
101325
101325
101325
101325
101325
101325
101325
101325
101325
101325
101325
101325
101325
101325
101325
101325
101325
101325
101325
101325
101325
101325
101325
101325
101325
101325
101325
101325
101325
101325
101325
101325
101325
101325
101325
101325
101325
101325
101325
101325
101325
101325
101325
101325
101325
101325
101325
101325
101325
101325
101325
101325
101325
101325
101325
101325
101325
101325
101325
101325
101325
101325
101325
101325
101325
101325
101325
101325
101325
101325
101325
101325
101325
101325
101325
101325
101325
101325
101325
101325
101325
101325
101325
101325
101325
101325
101325
101325
101325
101325
101325
101325
101325
101325
101325
101325
101325
101325
101325
101325
101325
101325
101325
101325
101325
101325
101325
101325
101325
101325
101325
101325
101325
101325
101325
101325
101325
101325
101325
101325
101325
101325
101325
101325
101325
101325
101325
101325
101325
101325
101325
101325
101325
101325
101325
101325
101325
101325
101325
101325
101325
101325
101325
101325
101325
101325
101325
101325
101325
101325
101325
101325
101325
101325
101325
101325
101325
101325
101325
101325
101325
101325
101325
101325
101325
101325
101325
101325
101325
101325
101325
101325
101325
101325
101325
101325
101325
101325
101325
101325
101325
101325
101325
101325
101325
101325
101325
101325
101325
101325
101325
101325
101325
101325
101325
101325
101325
101325
101325
101325
101325
101325
101325
101325
101325
101325
101325
101325
101325
101325
101325
101325
101325
101325
101325
101325
101325
101325
101325
101325
101325
101325
101325
101325
101325
101325
101325
101325
101325
101325
101325
101325
101325
101325
101325
101325
101325
101325
101325
101325
101325
101325
101325
101325
101325
101325
101325
101325
101325
101325
101325
101325
101325
101325
101325
101325
101325
101325
101325
101325
101325
101325
101325
101325
101325
101325
101325
101325
101325
101325
101325
101325
101325
101325
101325
101325
101325
101325
101325
101325
101325
101325
101325
101325
101325
101325
101325
101325
101325
101325
101325
101325
101325
101325
101325
101325
101325
101325
101325
101325
101325
101325
101325
101325
101325
101325
101325
101325
101325
101325
101325
101325
101325
101325
101325
101325
101325
101325
101325
101325
101325
101325
101325
101325
101325
101325
101325
101325
101325
101325
101325
101325
101325
101325
101325
101325
101325
101325
101325
101325
101325
101325
101325
101325
101325
101325
101325
101325
101325
101325
101325
101325
101325
101325
101325
101325
101325
101325
101325
101325
101325
101325
101325
101325
101325
101325
101325
101325
101325
101325
101325
101325
101325
101325
101325
101325
101325
101325
101325
101325
101325
101325
101325
101325
101325
101325
101325
101325
101325
101325
101325
101325
101325
101325
101325
101325
101325
101325
101325
101325
101325
101325
101325
101325
101325
101325
101325
101325
101325
101325
101325
101325
101325
101325
101325
101325
101325
101325
101325
101325
101325
101325
101325
101325
101325
101325
101325
101325
101325
101325
101325
101325
101325
101325
101325
101325
101325
101325
101325
101325
101325
101325
101325
101325
101325
101325
101325
101325
101325
101325
101325
101325
101325
101325
101325
101325
101325
101325
101325
101325
101325
101325
101325
101325
101325
101325
101325
101325
101325
101325
101325
101325
101325
101325
101325
101325
101325
101325
101325
101325
101325
101325
101325
101325
101325
101325
101325
101325
101325
101325
101325
101325
101325
101325
101325
101325
101325
101325
101325
101325
101325
101325
101325
101325
101325
101325
101325
101325
101325
101325
101325
101325
101325
101325
101325
101325
101325
101325
101325
101325
101325
101325
101325
101325
101325
101325
101325
101325
101325
101325
101325
101325
101325
101325
101325
101325
101325
101325
101325
101325
101325
101325
101325
101325
101325
101325
101325
101325
101325
101325
101325
101325
101325
101325
101325
101325
101325
101325
101325
101325
101325
101325
101325
101325
101325
101325
101325
101325
101325
101325
101325
101325
101325
101325
101325
101325
101325
101325
101325
101325
101325
101325
101325
101325
101325
101325
101325
101325
101325
101325
101325
101325
101325
101325
101325
101325
101325
101325
101325
101325
101325
101325
101325
101325
101325
101325
101325
101325
101325
101325
101325
101325
101325
101325
101325
101325
101325
101325
101325
101325
101325
101325
101325
101325
101325
101325
101325
101325
101325
101325
101325
101325
101325
101325
101325
101325
101325
101325
101325
101325
101325
101325
101325
101325
101325
101325
101325
101325
101325
101325
101325
101325
101325
101325
101325
101325
101325
101325
101325
101325
101325
101325
101325
101325
101325
101325
101325
101325
101325
101325
101325
101325
101325
101325
101325
101325
101325
101325
101325
101325
101325
101325
101325
101325
101325
101325
101325
101325
101325
101325
101325
101325
101325
101325
101325
101325
101325
101325
101325
101325
101325
101325
101325
101325
101325
101325
101325
101325
101325
101325
101325
101325
101325
101325
101325
101325
101325
101325
101325
101325
101325
101325
101325
101325
101325
101325
101325
101325
101325
101325
101325
101325
101325
101325
101325
101325
101325
101325
101325
101325
101325
101325
101325
101325
101325
101325
101325
101325
101325
101325
101325
101325
101325
101325
101325
101325
101325
101325
101325
101325
101325
101325
101325
101325
101325
101325
101325
101325
101325
101325
101325
101325
101325
101325
101325
101325
101325
101325
101325
101325
101325
101325
101325
101325
101325
101325
101325
101325
101325
101325
101325
101325
101325
101325
101325
101325
101325
101325
101325
101325
101325
101325
101325
101325
101325
101325
101325
101325
101325
101325
101325
101325
101325
101325
101325
101325
101325
101325
101325
101325
101325
101325
101325
101325
101325
101325
101325
101325
101325
101325
101325
101325
101325
101325
101325
101325
101325
101325
101325
101325
101325
101325
101325
101325
101325
101325
101325
101325
101325
101325
101325
101325
101325
101325
101325
101325
101325
101325
101325
101325
101325
101325
101325
101325
101325
101325
101325
101325
101325
101325
101325
101325
101325
101325
101325
101325
101325
101325
101325
101325
101325
101325
101325
101325
101325
101325
101325
101325
101325
101325
101325
101325
101325
101325
101325
101325
101325
101325
101325
101325
101325
101325
101325
101325
101325
101325
101325
101325
101325
101325
101325
101325
101325
101325
101325
101325
101325
101325
101325
101325
101325
101325
101325
101325
101325
101325
101325
101325
101325
101325
101325
101325
101325
101325
101325
101325
101325
101325
101325
101325
101325
101325
101325
101325
101325
101325
101325
101325
101325
101325
101325
101325
101325
101325
101325
101325
101325
101325
101325
101325
101325
101325
101325
101325
101325
101325
101325
101325
101325
101325
101325
101325
101325
101325
101325
101325
101325
101325
101325
101325
101325
101325
101325
101325
101325
101325
101325
101325
101325
101325
101325
101325
101325
101325
101325
101325
101325
101325
101325
101325
101325
101325
101325
101325
101325
101325
101325
101325
101325
101325
101325
101325
101325
101325
101325
101325
101325
101325
101325
101325
101325
101325
101325
101325
101325
101325
101325
101325
101325
101325
101325
101325
101325
101325
101325
101325
101325
101325
101325
101325
101325
101325
101325
101325
101325
101325
101325
101325
101325
101325
101325
101325
101325
101325
101325
101325
101325
101325
101325
101325
101325
101325
101325
101325
101325
101325
101325
101325
101325
101325
101325
101325
101325
101325
101325
101325
101325
101325
101325
101325
101325
101325
101325
101325
101325
101325
101325
101325
101325
101325
101325
101325
101325
101325
101325
101325
101325
101325
101325
101325
101325
101325
101325
101325
101325
101325
101325
101325
101325
101325
101325
101325
101325
101325
101325
101325
101325
101325
101325
101325
101325
101325
101325
101325
101325
101325
101325
101325
101325
101325
101325
101325
101325
101325
101325
101325
101325
101325
101325
101325
101325
101325
101325
101325
101325
101325
101325
101325
101325
101325
101325
101325
101325
101325
101325
101325
101325
101325
101325
101325
101325
101325
101325
101325
101325
101325
101325
101325
101325
101325
101325
101325
101325
101325
101325
101325
101325
101325
101325
101325
101325
101325
101325
101325
101325
101325
101325
101325
101325
101325
101325
101325
101325
101325
101325
101325
101325
101325
101325
101325
101325
101325
101325
101325
101325
101325
101325
101325
101325
101325
101325
101325
101325
101325
101325
101325
101325
101325
101325
101325
101325
101325
101325
101325
101325
101325
101325
101325
101325
101325
101325
101325
101325
101325
101325
101325
101325
101325
101325
101325
101325
101325
101325
101325
101325
101325
101325
101325
101325
101325
101325
101325
101325
101325
101325
101325
101325
101325
101325
101325
101325
101325
101325
101325
101325
101325
101325
101325
101325
101325
101325
101325
101325
101325
101325
101325
101325
101325
101325
101325
101325
101325
101325
101325
101325
101325
101325
101325
101325
101325
101325
101325
101325
101325
101325
101325
101325
101325
101325
101325
101325
101325
101325
101325
101325
101325
101325
101325
101325
101325
101325
101325
101325
101325
101325
101325
101325
101325
101325
101325
101325
101325
101325
101325
101325
101325
101325
101325
101325
101325
101325
101325
101325
101325
101325
101325
101325
101325
101325
101325
101325
101325
101325
101325
101325
101325
101325
101325
101325
101325
101325
101325
101325
101325
101325
101325
101325
101325
101325
101325
101325
101325
101325
101325
101325
101325
101325
101325
101325
101325
101325
101325
101325
101325
101325
101325
101325
101325
101325
101325
101325
101325
101325
101325
101325
101325
101325
101325
101325
101325
101325
101325
101325
101325
101325
101325
101325
101325
101325
101325
101325
101325
101325
101325
101325
101325
101325
101325
101325
101325
101325
101325
101325
101325
101325
101325
101325
101325
101325
101325
101325
101325
101325
101325
101325
101325
101325
101325
101325
101325
101325
101325
101325
101325
101325
101325
101325
101325
101325
101325
101325
101325
101325
101325
101325
101325
101325
101325
101325
101325
101325
101325
101325
101325
101325
101325
101325
101325
101325
101325
101325
101325
101325
101325
101325
101325
101325
101325
101325
101325
101325
101325
101325
101325
101325
101325
101325
101325
101325
101325
101325
101325
101325
101325
101325
101325
101325
101325
101325
101325
101325
101325
101325
101325
101325
101325
101325
101325
101325
101325
101325
101325
101325
101325
101325
101325
101325
101325
101325
101325
101325
101325
101325
101325
101325
101325
101325
101325
101325
101325
101325
101325
101325
101325
101325
101325
101325
101325
101325
101325
101325
101325
101325
101325
101325
101325
101325
101325
101325
101325
101325
101325
101325
101325
101325
101325
101325
101325
101325
101325
101325
101325
101325
101325
101325
101325
101325
101325
101325
101325
101325
101325
101325
101325
101325
101325
101325
101325
101325
101325
101325
101325
101325
101325
101325
101325
101325
101325
101325
101325
101325
101325
101325
101325
101325
101325
101325
101325
101325
101325
101325
101325
101325
101325
101325
101325
101325
101325
101325
101325
101325
101325
101325
101325
101325
101325
101325
101325
101325
101325
101325
101325
101325
101325
101325
101325
101325
101325
101325
101325
101325
101325
101325
101325
101325
101325
101325
101325
101325
101325
101325
101325
101325
101325
101325
101325
101325
101325
101324.999
101324.999
101324.999
101324.999
101324.999
101324.999
101324.999
101324.999
101324.999
101324.999
101324.999
101324.999
101324.999
101324.998
101324.998
101324.998
101324.998
101324.998
101324.998
101324.997
101324.997
101324.997
101324.997
101324.997
101324.996
101324.996
101324.996
101324.995
101324.995
101324.994
101324.994
101324.994
101324.993
101324.992
101324.992
101324.991
101324.99
101324.99
101324.989
101324.988
101324.987
101324.986
101324.985
101324.984
101324.983
101324.981
101324.98
101324.978
101324.977
101324.975
101324.973
101324.971
101324.969
101324.966
101324.964
101324.961
101324.958
101324.955
101324.952
101324.948
101324.944
101324.94
101324.936
101324.931
101324.926
101324.921
101324.915
101324.909
101324.902
101324.896
101324.888
101324.88
101324.872
101324.863
101324.853
101324.843
101324.833
101324.821
101324.809
101324.796
101324.782
101324.767
101324.752
101324.735
101324.718
101324.699
101324.679
101324.659
101324.636
101324.613
101324.588
101324.561
101324.534
101324.504
101324.473
101324.44
101324.405
101324.368
101324.329
101324.288
101324.244
101324.198
101324.15
101324.099
101324.046
101323.989
101323.93
101323.867
101323.801
101323.732
101323.659
101323.583
101323.503
101323.419
101323.33
101323.238
101323.14
101323.039
101322.932
101322.821
101322.704
101322.582
101322.455
101322.321
101322.182
101322.037
101321.886
101321.728
101321.563
101321.392
101321.213
101321.028
101320.835
101320.634
101320.425
101320.209
101319.984
101319.751
101319.51
101319.259
101319
101318.732
101318.455
101318.168
101317.872
101317.567
101317.251
101316.926
101316.591
101316.246
101315.892
101315.527
101315.151
101314.766
101314.371
101313.966
101313.55
101313.124
101312.689
101312.244
101311.789
101311.324
101310.85
101310.367
101309.874
101309.373
101308.863
101308.346
101307.82
101307.286
101306.746
101306.199
101305.645
101305.085
101304.52
101303.95
101303.376
101302.797
101302.216
101301.632
101301.046
101300.458
101299.87
101299.282
101298.695
101298.11
101297.526
101296.946
101296.37
101295.798
101295.232
101294.672
101294.119
101293.575
101293.039
101292.513
101291.997
101291.493
101291.001
101290.522
101290.057
101289.606
101289.17
101288.751
101288.349
101287.964
101287.597
101287.249
101286.92
101286.611
101286.323
101286.056
101285.81
101285.586
101285.384
101285.204
101285.047
101284.913
101284.802
101284.714
101284.65
101284.608
101284.59
101284.594
101284.621
101284.671
101284.743
101284.836
101284.951
101285.088
101285.244
101285.421
101285.617
101285.832
101286.065
101286.315
101286.583
101286.865
101287.163
101287.476
101287.801
101288.139
101288.489
101288.849
101289.219
101289.598
101289.985
101290.379
101290.779
101291.184
101291.593
101292.005
101292.419
101292.835
101293.252
101293.668
101294.083
101294.497
101294.907
101295.314
101295.717
101296.115
101296.507
101296.893
101297.272
101297.644
101298.008
101298.363
101298.71
101299.047
101299.375
101299.693
101300
101300.296
101300.582
101300.857
101301.12
101301.372
101301.612
101301.841
101302.059
101302.265
101302.46
101302.643
101302.815
101302.976
101303.127
101303.267
101303.397
101303.517
101303.628
101303.73
101303.823
101303.908
101303.985
101304.056
101304.12
101304.178
101304.231
101304.28
101304.325
101304.366
101304.405
101304.442
101304.479
101304.514
101304.55
101304.587
101304.626
101304.667
101304.71
101304.757
101304.808
101304.864
101304.924
101304.989
101305.06
101305.136
101305.218
101305.305
101305.399
101305.498
101305.602
101305.712
101305.826
101305.945
101306.067
101306.192
101306.32
101306.449
101306.579
101306.708
101306.836
101306.962
101307.084
101307.201
101307.314
101307.419
101307.516
101307.605
101307.684
101307.751
101307.807
101307.851
101307.88
101307.896
101307.897
101307.882
101307.852
101307.806
101307.744
101307.666
101307.572
101307.462
101307.337
101307.196
101307.042
101306.874
101306.693
101306.501
101306.299
101306.087
101305.868
101305.644
101305.417
101305.188
101304.961
101304.738
101304.523
101304.317
101304.124
101303.946
101303.785
101303.641
101303.513
101303.394
101303.276
101303.142
101302.967
101302.713
101302.324
101301.723
101300.804
101299.415
101297.345
101294.295
101290.553
101286.416
101290.907
101291.876
101294.027
101296.178
101298.319
101299.926
101301.284
101302.27
101302.995
101303.484
101303.802
101303.985
101304.073
101304.093
101304.07
101304.02
101303.957
101303.891
101303.83
101303.779
101303.741
101303.717
101303.709
101303.716
101303.739
101303.775
101303.826
101303.888
101303.961
101304.044
101304.134
101304.231
101304.335
101304.442
101304.553
101304.667
101304.783
101304.9
101305.017
101305.134
101305.25
101305.366
101305.48
101305.592
101305.703
101305.811
101305.917
101306.02
101306.12
101306.218
101306.312
101306.404
101306.492
101306.578
101306.66
101306.739
101306.814
101306.886
101306.955
101307.02
101307.082
101307.14
101307.195
101307.245
101307.293
101307.336
101307.376
101307.412
101307.445
101307.473
101307.498
101307.519
101307.537
101307.55
101307.56
101307.566
101307.568
101307.567
101307.562
101307.554
101307.542
101307.527
101307.508
101307.486
101307.461
101307.432
101307.401
101307.367
101307.33
101307.29
101307.248
101307.203
101307.155
101307.106
101307.054
101307.001
101306.946
101306.889
101306.83
101306.77
101306.709
101306.646
101306.583
101306.519
101306.454
101306.388
101306.322
101306.256
101306.19
101306.123
101306.057
101305.99
101305.924
101305.859
101305.794
101305.729
101305.665
101305.602
101305.54
101305.479
101305.419
101305.36
101305.302
101305.245
101305.19
101305.136
101305.083
101305.031
101304.981
101304.933
101304.886
101304.84
101304.796
101304.753
101304.712
101304.672
101304.634
101304.597
101304.561
101304.527
101304.494
101304.463
101304.432
101304.403
101304.375
101304.349
101304.323
101304.298
101304.274
101304.251
101304.229
101304.208
101304.187
101304.167
101304.148
101304.128
101304.11
101304.091
101304.073
101304.055
101304.037
101304.019
101304
101303.982
101303.963
101303.944
101303.925
101303.904
101303.884
101303.863
101303.84
101303.817
101303.794
101303.769
101303.743
101303.715
101303.687
101303.657
101303.625
101303.591
101303.555
101303.519
101303.48
101303.441
101303.4
101303.357
101303.312
101303.266
101303.217
101303.166
101303.113
101303.058
101303.001
101302.941
101302.879
101302.815
101302.748
101302.679
101302.607
101302.533
101302.456
101302.377
101302.295
101302.21
101302.123
101302.033
101301.94
101301.844
101301.746
101301.645
101301.541
101301.435
101301.325
101301.213
101301.098
101300.98
101300.859
101300.736
101300.609
101300.48
101300.348
101300.213
101300.075
101299.935
101299.792
101299.646
101299.497
101299.345
101299.191
101299.034
101298.874
101298.712
101298.547
101298.38
101298.21
101298.037
101297.862
101297.685
101297.505
101297.323
101297.138
101296.951
101296.763
101296.571
101296.378
101296.183
101295.986
101295.787
101295.586
101295.383
101295.179
101294.973
101294.766
101294.557
101294.346
101294.135
101293.922
101293.708
101293.493
101293.277
101293.06
101292.842
101292.624
101292.405
101292.186
101291.966
101291.746
101291.526
101291.306
101291.086
101290.866
101290.647
101290.427
101290.209
101289.991
101289.774
101289.558
101289.342
101289.128
101288.916
101288.704
101288.494
101288.286
101288.079
101287.875
101287.672
101287.472
101287.274
101287.078
101286.885
101286.694
101286.506
101286.321
101286.139
101285.961
101285.785
101285.613
101285.444
101285.279
101285.118
101284.961
101284.807
101284.658
101284.513
101284.372
101284.236
101284.104
101283.977
101283.854
101283.737
101283.624
101283.516
101283.413
101283.316
101283.223
101283.136
101283.055
101282.979
101282.908
101282.843
101282.784
101282.731
101282.683
101282.641
101282.605
101282.575
101282.552
101282.534
101282.522
101282.516
101282.516
101282.523
101282.536
101282.555
101282.58
101282.611
101282.648
101282.692
101282.742
101282.798
101282.861
101282.929
101283.004
101283.085
101283.172
101283.265
101283.364
101283.469
101283.58
101283.697
101283.819
101283.948
101284.083
101284.223
101284.369
101284.52
101284.677
101284.84
101285.008
101285.181
101285.359
101285.543
101285.732
101285.925
101286.124
101286.328
101286.536
101286.749
101286.966
101287.188
101287.415
101287.645
101287.88
101288.119
101288.361
101288.608
101288.858
101289.112
101289.37
101289.631
101289.895
101290.163
101290.433
101290.707
101290.983
101291.262
101291.544
101291.828
101292.115
101292.404
101292.695
101292.988
101293.283
101293.581
101293.879
101294.18
101294.482
101294.785
101295.089
101295.395
101295.702
101296.01
101296.318
101296.628
101296.938
101297.248
101297.559
101297.87
101298.182
101298.493
101298.805
101299.117
101299.428
101299.739
101300.05
101300.36
101300.67
101300.98
101301.288
101301.596
101301.903
101302.209
101302.514
101302.818
101303.121
101303.422
101303.722
101304.021
101304.318
101304.614
101304.908
101305.201
101305.492
101305.781
101306.068
101306.354
101306.637
101306.919
101307.198
101307.475
101307.751
101308.024
101308.295
101308.564
101308.83
101309.094
101309.356
101309.615
101309.872
101310.127
101310.379
101310.628
101310.875
101311.12
101311.362
101311.601
101311.838
101312.072
101312.303
101312.532
101312.758
101312.982
101313.203
101313.421
101313.637
101313.849
101314.059
101314.267
101314.471
101314.673
101314.873
101315.069
101315.263
101315.454
101315.643
101315.829
101316.012
101316.192
101316.37
101316.545
101316.718
101316.888
101317.055
101317.22
101317.382
101317.542
101317.699
101317.854
101318.006
101318.155
101318.303
101318.447
101318.59
101318.73
101318.868
101319.003
101319.136
101319.267
101319.396
101319.522
101319.646
101319.773
101319.905
101320.044
101320.189
101320.34
101320.498
101320.662
101320.833
101321.009
101321.191
101321.379
101321.571
101321.768
101321.968
101322.17
101322.374
101322.578
101322.782
101322.984
101323.182
101323.375
101323.561
101323.74
101323.909
101324.068
101324.214
101324.348
101324.467
101324.573
101324.665
101324.742
101324.807
101324.859
101324.9
101324.931
101324.955
101324.971
101324.982
101324.99
101324.994
101324.997
101324.999
101325
101325
101325
101325
101325
101325
101325
101325
101325
101325
101325
101325
101325
101325
101325
101325
101325
101325
101325
101325
101325
101325
101325
101325
101325
101325
101325
101325
101325
101325
101325
101325
101325
101325
101325
)
;

boundaryField
{
    closed
    {
        type            zeroGradient;
    }
    open
    {
        type            waveTransmissive;
        gamma           1.25;
        fieldInf        101325;
        lInf            1;
        value           uniform 101325;
    }
    sides
    {
        type            empty;
    }
}


// ************************************************************************* //
