/*--------------------------------*- C++ -*----------------------------------*\
| =========                 |                                                 |
| \\      /  F ield         | OpenFOAM: The Open Source CFD Toolbox           |
|  \\    /   O peration     | Version:  2206                                  |
|   \\  /    A nd           | Website:  www.openfoam.com                      |
|    \\/     M anipulation  |                                                 |
\*---------------------------------------------------------------------------*/
FoamFile
{
    version     2.0;
    format      ascii;
    arch        "LSB;label=32;scalar=64";
    class       volScalarField;
    location    "6.2e-06";
    object      PVsourcePV;
}
// * * * * * * * * * * * * * * * * * * * * * * * * * * * * * * * * * * * * * //

dimensions      [1 -3 -1 0 0 0 0];

internalField   nonuniform List<scalar> 
3183
(
0
0
0
0
0
0
0
0
0
0
0
0
0
0
0
0
0
0
0
0
0
0
0
0
0
0
0
0
0
0
0
0
0
0
0
0
0
0
0
0
0
0
0
0
0
0
0
0
0
0
0
0
0
0
0
0
0
0
0
0
0
0
0
0
0
0
0
0
0
0
0
0
0
0
0
0
0
0
0
0
0
0
0
0
0
0
0
0
0
0
0
0
0
0
0
0
0
0
0
0
0
0
0
0
0
0
0
0
0
0
0
0
0
0
0
0
0
0
0
0
0
0
0
0
0
0
0
0
0
0
0
0
0
0
0
0
0
0
0
0
0
0
0
0
0
0
0
0
0
0
0
0
0
0
0
0
0
0
0
0
0
0
0
0
0
0
0
0
0
0
0
0
0
0
0
0
0
0
0
0
0
0
0
0
0
0
0
0
0
0
0
0
0
0
0
0
0
0
0
0
0
0
0
0
0
0
0
0
0
0
0
0
0
0
0
0
0
0
0
0
0
0
0
0
0
0
0
0
0
0
0
0
0
0
0
0
0
0
0
0
0
0
0
0
0
0
0
0
0
0
0
0
0
0
0
0
0
0
0
0
0
0
0
0
0
0
0
0
0
0
0
0
0
0
0
0
0
0
0
0
0
0
0
0
0
0
0
0
0
0
0
0
0
0
0
0
0
0
0
0
0
0
0
0
0
0
0
0
0
0
0
0
0
0
0
0
0
0
0
0
0
0
0
0
0
0
0
0
0
0
0
0
0
0
0
0
0
0
0
0
0
0
0
0
0
0
0
0
0
0
0
0
0
0
0
0
0
0
0
0
0
0
0
0
0
0
0
0
0
0
0
0
0
0
0
0
0
0
0
0
0
0
0
0
0
0
0
0
0
0
0
0
0
0
0
0
0
0
0
0
0
0
0
0
0
0
0
0
0
0
0
0
0
0
0
0
0
0
0
0
0
0
0
0
0
0
0
0
0
0
0
0
0
0
0
0
0
0
0
0
0
0
0
0
0
0
0
0
0
0
0
0
0
0
0
0
0
0
0
0
0
0
0
0
0
0
0
0
0
0
0
0
0
0
0
0
0
0
0
0
0
0
0
0
0
0
0
0
0
0
0
0
0
0
0
0
0
0
0
0
0
0
0
0
0
0
0
0
0
0
0
0
0
0
0
0
0
0
0
0
0
0
0
0
0
0
0
0
0
0
0
0
0
0
0
0
0
0
0
0
0
0
0
0
0
0
0
0
0
0
0
0
0
0
0
0
0
0
0
0
0
0
0
0
0
0
0
0
0
0
0
0
0
0
0
0
0
0
0
0
0
0
0
0
0
0
0
0
0
0
0
0
0
0
0
0
0
0
0
0
0
0
0
0
0
0
0
0
0
0
0
0
0
0
0
0
0
0
0
0
0
0
0
0
0
0
0
0
0
0
0
0
0
0
0
0
0
0
0
0
0
0
0
0
0
0
0
0
0
0
0
0
0
0
0
0
0
0
0
0
0
0
0
0
0
0
0
0
0
0
0
0
0
0
0
0
0
0
0
0
0
0
0
0
0
0
0
0
0
0
0
0
0
0
0
0
0
0
0
0
0
0
0
0
0
0
0
0
0
0
0
0
0
0
0
0
0
0
0
0
0
0
0
0
0
0
0
0
0
0
0
0
0
0
0
0
0
0
0
0
0
0
0
0
0
0
0
0
0
0
0
0
0
0
0
0
0
0
0
0
0
0
0
0
0
0
0
0
0
0
0
0
0
0
0
0
0
0
0
0
0
0
0
0
0
0
0
0
0
0
0
0
0
0
0
0
0
0
0
0
0
0
0
0
0
0
0
0
0
0
0
0
0
0
0
0
0
0
0
0
0
0
0
0
0
0
0
0
0
0
0
0
0
0
0
0
0
0
0
0
0
0
0
0
0
0
0
0
0
0
0
0
0
0
0
0
0
0
0
0
0
0
0
0
0
0
0
0
0
0
0
0
0
0
0
0
0
0
0
0
0
0
0
0
0
0
0
0
0
0
0
0
0
0
0
0
0
0
0
0
0
0
0
0
0
0
0
0
0
0
0
0
0
0
0
0
0
0
0
0
0
0
0
0
0
0
0
0
0
0
0
0
0
0
0
0
0
0
0
0
0
0
0
0
0
0
0
0
0
0
0
0
0
0
0
0
0
0
0
0
0
0
0
0
0
0
0
0
0
0
0
0
0
0
0
0
0
0
0
0
0
0
0
0
0
0
0
0
0
0
0
0
0
0
0
0
0
0
0
0
0
0
0
0
0
0
0
0
0
0
0
0
0
0
0
0
0
0
0
0
0
0
0
0
0
0
0
0
0
0
0
0
0
0
0
0
0
0
0
0
0
0
0
0
0
0
0
0
0
0
0
0
0
0
0
0
0
0
0
0
0
0
0
0
0
0
0
0
0
0
0
0
0
0
0
0
0
0
0
0
0
0
0
0
0
0
0
0
0
0
0
0
0
0
0
0
0
0
0
0
0
0
0
0
0
0
0
0
0
0
0
0
0
0
0
0
0
0
0
0
0
0
0
0
0
0
0
0
0
0
0
0
0
0
0
0
0
0
0
0
0
0
0
0
0
0
0
0
0
0
0
0
0
0
0
0
0
0
0
0
0
0
0
0
0
0
0
0
0
0
0
0
0
0
0
0
0
0
0
0
0
0
0
0
0
0
0
0
0
0
0
0
0
0
0
0
0
0
0
0
0
0
0
0
0
0
0
0
0
0
0
0
0
0
0
0
0
0
0
0
0
0
0
0
0
0
0
0
0
0
0
0
0
0
0
0
0
0
0
0
0
0
0
0
0
0
0
0
0
0
0
0
0
0
0
0
0
0
0
0
0
0
0
0
0
0
0
0
0
0
0
0
0
0
0
0
0
0
0
0
0
0
0
0
0
0
0
0
0
0
0
0
0
0
0
0
0
0
0
0
0
0
0
0
0
0
0
0
0
0
0
0
0
0
0
0
0
0
0
0
0
0
0
0
0
0
0
0
0
0
0
0
0
0
0
0
0
0
0
0
0
0
0
0
0
0
0
0
0
0
0
0
0
0
0
0
0
0
0
0
0
0
0
0
0
0
0
0
0
0
0
0
0
0
0
0
0
0
0
0
0
0
0
0
0
0
0
0
0
0
0
0
0
0
0
0
0
0
0
0
0
0
0
0
0
0
0
0
0
0
0
0
0
0
0
0
0
0
0
0
0
0
0
0
0
0
0
0
0
0
0
0
0
0
0
0
0
0
0
0
0
0
0
0
0
0
0
0
0
0
0
0
0
0
0
0
0
0
0
0
0
0
0
0
0
0
0
0
0
0
0
0
0
0
0
0
0
0
0
0
0
0
0
0
0
0
0
0
0
0
0
0
0
0
0
0
0
0
0
0
0
0
0
0
0
0
0
0
0
0
0
0
0
0
0
0
0
0
0
0
0
0
0
0
0
0
0
0
0
0
0
0
0
0
0
0
0
0
0
0
0
0
0
0
0
0
0
0
0
0
0
0
0
0
0
0
0
0
0
0
0
0
0
0
0
0
0
0
0
0
0
0
0
0
0
0
0
0
0
0
0
0
0
0
0
0
0
0
0
0
0
0
0
0
0
0
0
0
0
0
0
0
0
0
0
0
0
0
0
0
0
0
0
0
0
0
0
0
0
0
0
0
0
0
0
0
0
0
0
0
0
0
0
0
0
0
0
0
0
0
0
0
0
0
0
0
0
0
0
0
0
0
0
0
0
0
0
0
0
0
0
0
0
0
0
0
0
0
0
0
0
0
0
0
0
0
0
0
0
0
0
0
0
0
0
0
0
0
0
0
0
0
0
0
0
0
0
0
0
0
0
0
0
0
0
0
0
0
0
0
0
0
0
0
0
0
0
0
0
0
0
0
0
0
0
0
0
0
0
0
0
0
0
0
0
0
0
0
0
0
0
0
0
0
0
0
0
0
0
0
0
0
0
0
0
0
0
0
0
0
0
0
0
0
0
0
0
0
0
0
0
0
0
0
0
0
0
0
0
0
0
0
0
0
0
0
0
0
0
0
0
0
0
0
0
0
0
0
0
0
0
0
0
0
0
0
0
0
0
0
0
0
0
0
0
0
0
0
0
0
0
0
0
0
0
0
0
0
0
0
0
0
0
0
0
0
0
0
0
0
0
0
0
0
0
0
0
0
0
0
0
0
0
0
0
0
0
0
0
0
0
0
0
0
0
0
0
0
0
0
0
0
0
0
0
0
0
0
0
0
0
0
0
0
0
0
0
0
0
0
0
0
0
0
0
0
0
0
0
0
0
0
0
0
0
0
0
0
0
0
0
0
0
0
0
0
0
0
0
0
0
0
0
0
0
0
0
0
0
0
0
0
0
0
0
0
0
0
0
0
0
0
0
0
0
0
0
0
0
0
0
0
0
0
0
0
0
0
0
0
0
0
0
0
0
0
0
0
0
0
0
0
0
0
0
0
0
0
0
0
0
0
0
0
0
0
0
0
0
0
0
0
0
0
0
0
0
0
0
0
0
0
0
0
0
0
0
0
0
0
0
0
0
0
0
0
0
0
0
0
0
0
0
0
0
0
0
0
0
0
0
0
0
0
0
0
0
0
0
0
0
0
0
0
0
0
0
0
0
0
0
0
0
0
0
0
0
0
0
0
0
0
0
0
0
0
0
0
0
0
0
0
0
0
0
0
0
0
0
0
0
0
0
0
0
0
0
0
0
0
0
0
0
0
0
0
0
0
0
0
0
0
0
0
0
0
0
0
0
0
0
0
0
0
0
0
0
0
0
0
0
0
0
0
0
0
0
0
0
0
0
0
0
0
0
0
0
0
0
0
0
0
0
0
0
0
0
0
0
0
0
0
0
0
0
0
0
0
0
0
0
0
0
0
0
0
0
0
0
0
0
0
0
0
0
0
0
0
0
0
0
0
0
0
0
0
0
0
0
0
0
0
0
0
0
0
0
0
0
0
0
0
0
0
0
0
0
0
0
0
0
0
0
0
0
0
0
0
0
0
0
0
0
0
0
0
0
0
0
0
0
0
0
0
0
0
0
0
0
0
0
0
0
0
0
0
0
0
0
0
0
0
0
0
0
0
0
0
0
0
0
0
0
0
0
0
0
0
0
0
0
0
0
0
0
0
0
0
0
0
0
0
0
0
0
0
0
0
0
0
0
0
0
0
0
0
0
0
0
0
0
0
0
0
0
0
0
0
0
0
0
0
0
0
0
0
0
0
0
0
0
0
0
0
0
0
0
0
0
0
0
0
0
0
0
0
0
0
0
0
0
0
0
0
0
0
0
0
0
0
0
0
0
0
0
0
0
0
0
0
0
0
0
0
0
0
0
0
0
0
0
0
0
0
0
0
0
0
0
0
0
0
0
0
0
0
0
0
0
0
0
0
0
0
0
0
0
0
0
0
0
0
0
0
0
0
0
0
0
1.14665477e-298
0
5.57280246e-292
0
1.39711035e-285
0
1.80936864e-279
0
1.21385364e-273
0
4.24078392e-268
0
7.03364098e-264
0
6.12312957e-260
0
3.68334956e-256
0
1.71547761e-252
0
6.58043268e-249
0
2.16069663e-245
0
6.23390285e-242
0
1.61032997e-238
0
3.77725951e-235
0
8.13360763e-232
0
1.62179814e-228
0
3.01556393e-225
0
5.25914044e-222
0
8.64451481e-219
0
1.34470994e-215
0
1.98656933e-212
0
2.79564642e-209
0
3.75758743e-206
0
4.83489286e-203
0
5.96758455e-200
0
7.07825234e-197
0
8.08098728e-194
0
8.89271398e-191
0
9.444775e-188
0
9.6924959e-185
0
9.62090599e-182
0
9.24566834e-179
0
8.60932705e-176
0
7.77392341e-173
0
6.81163914e-170
6.93247545e-172
5.79528891e-167
2.16637155e-168
4.79023246e-164
3.01604409e-165
3.84873949e-161
3.35256231e-162
3.00719528e-158
3.30754067e-159
2.28595006e-155
3.01180184e-156
1.69120449e-152
2.57977102e-153
1.21813328e-149
2.10096599e-150
8.54459785e-147
1.63770646e-147
5.83848474e-144
1.22734244e-144
3.88704408e-141
8.87086686e-142
2.52194067e-138
6.1976566e-139
1.5948447e-135
4.19269492e-136
9.83171624e-133
2.74999856e-133
5.90900758e-130
1.75060082e-130
3.46265156e-127
1.08243848e-127
1.97849483e-124
6.50507065e-125
1.10231069e-121
3.80141289e-122
5.98846415e-119
2.16095072e-119
3.17217298e-116
1.19528907e-116
1.63834007e-113
6.43451018e-114
8.24937111e-111
3.37153586e-111
4.04910276e-108
1.71963964e-108
1.93712175e-105
8.53781803e-106
9.0311114e-103
4.12605569e-103
4.10226896e-100
1.94070176e-100
1.81511472e-97
8.88287321e-98
7.82104102e-95
3.95579338e-95
3.28075208e-92
1.71353494e-92
1.33931208e-89
7.21779221e-90
5.31891502e-87
2.95542022e-87
2.05405224e-84
1.17589035e-84
7.70975884e-82
4.54415575e-82
2.81113952e-79
1.70474706e-79
9.95138431e-77
6.20500904e-77
3.41794275e-74
2.18991755e-74
1.13819811e-71
7.48880432e-72
3.6719961e-69
2.47947372e-69
1.14667857e-66
7.94135813e-67
3.46274423e-64
2.45812038e-64
1.01013143e-61
7.34553651e-62
2.84317309e-59
2.11662111e-59
7.71131938e-57
5.8734135e-57
2.01242977e-54
1.56721159e-54
5.04511221e-52
4.01457123e-52
1.21278278e-49
9.85419078e-50
2.78971037e-47
2.31294207e-47
6.12604522e-45
5.17892465e-45
1.28080616e-42
1.10323625e-42
2.5417474e-40
2.22894266e-40
4.77066766e-38
4.25563171e-38
8.43362207e-36
7.64597709e-36
1.39733112e-33
1.28630304e-33
2.15713517e-31
2.01423034e-31
3.08066262e-29
2.9146939e-29
4.03427788e-27
3.86296874e-27
4.7907776e-25
4.63672428e-25
5.08513199e-23
4.96769277e-23
4.73229925e-21
4.65932795e-21
3.75836843e-19
3.72346611e-19
2.4473998e-17
2.43568612e-17
1.22475816e-15
1.19898766e-15
3.79288345e-12
3.75480678e-12
0.0908793099
0.240837788
0.708659842
0.633197781
0.119090819
0.0965831082
0.0115840751
0.0106341705
0.00135859803
0.00132282589
0.00014297586
0.000142604694
1.415241e-05
1.41627391e-05
1.8338216e-06
1.83603283e-06
7.73790453e-07
7.73972588e-07
6.90617484e-07
6.90662557e-07
6.84645337e-07
6.84650841e-07
6.8424942e-07
6.84249716e-07
6.8422458e-07
6.84224882e-07
6.84223043e-07
6.84223363e-07
6.84222137e-07
6.84223364e-07
6.84222153e-07
6.84222883e-07
6.8422235e-07
6.8422389e-07
6.84221431e-07
6.84223526e-07
6.84222302e-07
6.84222575e-07
6.84222806e-07
6.84222555e-07
6.84223251e-07
6.84222175e-07
6.84223477e-07
6.84221945e-07
6.84223165e-07
6.84222175e-07
6.84223508e-07
6.84222526e-07
6.84223422e-07
6.8422234e-07
6.84222833e-07
6.84222685e-07
6.84222994e-07
6.84222884e-07
6.84222954e-07
6.84222585e-07
6.84222264e-07
6.84222947e-07
6.84223207e-07
6.84222273e-07
6.84222682e-07
6.84223106e-07
6.84222655e-07
6.84222231e-07
6.84222881e-07
6.8422209e-07
6.84223284e-07
6.8422205e-07
6.84222719e-07
6.8422158e-07
6.84223522e-07
6.84221329e-07
6.84223035e-07
6.84222731e-07
6.84221612e-07
6.84223825e-07
6.84222366e-07
6.84222887e-07
6.8422356e-07
6.84223314e-07
6.84222734e-07
6.84222927e-07
6.84222838e-07
6.84223078e-07
6.84223144e-07
6.84222789e-07
6.84222914e-07
6.8422303e-07
6.84222714e-07
6.84222556e-07
6.84223359e-07
6.84222884e-07
6.84222635e-07
6.84224082e-07
6.84222735e-07
6.84223229e-07
6.84222627e-07
6.84223578e-07
6.84223214e-07
6.842228e-07
6.84223522e-07
6.84223108e-07
6.84223753e-07
6.84223142e-07
6.84222875e-07
6.84222409e-07
6.84222895e-07
6.84223945e-07
6.84222134e-07
6.84222322e-07
6.84223714e-07
6.84221519e-07
6.84223228e-07
6.84222443e-07
6.84222755e-07
6.84222514e-07
6.84223629e-07
6.8422284e-07
6.84222871e-07
6.84223452e-07
6.8422269e-07
6.84223163e-07
6.8422266e-07
6.84223362e-07
6.84223263e-07
6.84222576e-07
6.84222764e-07
6.84222676e-07
6.84223465e-07
6.84223166e-07
6.84223042e-07
6.84222586e-07
6.84224059e-07
6.84224163e-07
6.8422297e-07
6.84223891e-07
6.84223385e-07
6.84222681e-07
6.8422361e-07
6.84222536e-07
6.84223767e-07
6.84222622e-07
6.84223135e-07
6.84222722e-07
6.84223081e-07
6.84223606e-07
6.84222607e-07
6.8422365e-07
6.84222775e-07
6.84223971e-07
6.84223086e-07
6.84223466e-07
6.8422354e-07
6.84223438e-07
6.84223331e-07
6.84223921e-07
6.84223485e-07
6.8422376e-07
6.84222791e-07
6.84223757e-07
6.8422359e-07
6.84223027e-07
6.84223767e-07
6.8422283e-07
6.84224812e-07
6.84223204e-07
6.84224133e-07
6.84223301e-07
6.84223551e-07
6.84222917e-07
6.84223652e-07
6.84222801e-07
6.84223194e-07
6.84223258e-07
6.84222744e-07
6.84223542e-07
6.84224083e-07
6.84223573e-07
6.84223261e-07
6.8422446e-07
6.84224127e-07
6.84224437e-07
6.84223571e-07
6.84224234e-07
6.84223194e-07
6.84224211e-07
6.84223927e-07
6.84223242e-07
6.84224031e-07
6.84223601e-07
6.84223647e-07
6.8422419e-07
6.84223784e-07
6.84224313e-07
6.8422435e-07
6.84222928e-07
6.84224729e-07
6.84223239e-07
6.84224581e-07
6.8422306e-07
6.84224346e-07
6.8422332e-07
6.84223615e-07
6.84223486e-07
6.84223683e-07
6.84223554e-07
6.84223946e-07
6.84224011e-07
6.84224471e-07
6.84223364e-07
6.84224985e-07
6.84222514e-07
6.84224935e-07
6.8422358e-07
6.84223863e-07
6.84223882e-07
6.84223737e-07
6.84224044e-07
6.8422382e-07
6.84224258e-07
6.84223339e-07
6.84224876e-07
6.84223479e-07
6.84223607e-07
6.84224202e-07
6.84223327e-07
6.84224592e-07
6.84223576e-07
6.84224193e-07
6.84223851e-07
6.8422455e-07
6.8422376e-07
6.84224881e-07
6.84224152e-07
6.84224356e-07
6.84223893e-07
6.84224189e-07
6.84224739e-07
6.84223398e-07
6.84225065e-07
6.84224425e-07
6.84223873e-07
6.84224087e-07
6.84223903e-07
6.84224357e-07
6.84224609e-07
6.8422396e-07
6.84223976e-07
6.84223893e-07
6.84223348e-07
6.84224089e-07
6.84225125e-07
6.84223627e-07
6.84224446e-07
6.84223789e-07
6.84224452e-07
6.84224625e-07
6.84224107e-07
6.84225015e-07
6.84223609e-07
6.84225176e-07
6.84225102e-07
6.84225072e-07
6.84224224e-07
6.84225343e-07
6.8422396e-07
6.84224365e-07
6.84223692e-07
6.84223988e-07
6.84223969e-07
6.84224588e-07
6.84224643e-07
6.84224543e-07
6.84225506e-07
6.84223983e-07
6.84225313e-07
6.84224001e-07
6.84224765e-07
6.84224515e-07
6.84224088e-07
6.84225099e-07
6.84223292e-07
6.84225183e-07
6.84224503e-07
6.84225292e-07
6.84223899e-07
6.84224396e-07
6.84223997e-07
6.84224357e-07
6.84224785e-07
6.84224364e-07
6.84224551e-07
6.84224326e-07
6.84224395e-07
6.8422474e-07
6.84223882e-07
6.84224765e-07
6.84225092e-07
6.84225286e-07
6.84224638e-07
6.84225174e-07
6.84224468e-07
6.84224731e-07
6.8422545e-07
6.84224436e-07
6.84225201e-07
6.84225608e-07
6.84224171e-07
6.84225919e-07
6.84225126e-07
6.842253e-07
6.84225037e-07
6.84224438e-07
6.84225955e-07
6.84224092e-07
6.84225585e-07
6.84225757e-07
6.84224036e-07
6.84225276e-07
6.84224892e-07
6.84225513e-07
6.84225442e-07
6.84225241e-07
6.84224555e-07
6.84224914e-07
6.84225361e-07
6.84225257e-07
6.84225104e-07
6.84224954e-07
6.84225043e-07
6.84225255e-07
6.84225319e-07
6.84224528e-07
6.84224828e-07
6.84225345e-07
6.84224563e-07
6.84225806e-07
6.84224445e-07
6.84225937e-07
6.84224845e-07
6.84225523e-07
6.84225609e-07
6.84224826e-07
6.84226258e-07
6.84224747e-07
6.84226292e-07
6.84225111e-07
6.84225713e-07
6.84225524e-07
6.84225393e-07
6.84225841e-07
6.84225768e-07
6.84225e-07
6.84224991e-07
6.84226472e-07
6.84224836e-07
6.84226298e-07
6.84225043e-07
6.84225971e-07
6.84225572e-07
6.84225225e-07
6.84225432e-07
6.84226198e-07
6.8422516e-07
6.84225358e-07
6.8422605e-07
6.84225978e-07
6.84226535e-07
6.84225383e-07
6.84226149e-07
6.84226111e-07
6.84226288e-07
6.84225929e-07
6.8422651e-07
6.84225054e-07
6.84226404e-07
6.84225356e-07
6.84225506e-07
6.842262e-07
6.84225554e-07
6.84226308e-07
6.84225487e-07
6.84225992e-07
6.8422576e-07
6.84225941e-07
6.84224946e-07
6.84226256e-07
6.84225631e-07
6.84225321e-07
6.84226004e-07
6.84225896e-07
6.84225865e-07
6.8422565e-07
6.84226021e-07
6.84225275e-07
6.84226746e-07
6.84226087e-07
6.84226307e-07
6.84225792e-07
6.84225584e-07
6.8422571e-07
6.84226086e-07
6.84225963e-07
6.84226833e-07
6.84225698e-07
6.84226607e-07
6.8422465e-07
6.84226923e-07
6.84226083e-07
6.84226424e-07
6.84226467e-07
6.84226651e-07
6.84225966e-07
6.8422585e-07
6.84226387e-07
6.84225567e-07
6.84226419e-07
6.84225953e-07
6.84225785e-07
6.84226025e-07
6.84226301e-07
6.84225864e-07
6.84225898e-07
6.84226379e-07
6.84226754e-07
6.84226176e-07
6.84226011e-07
6.84226596e-07
6.84225597e-07
6.84227239e-07
6.84226069e-07
6.84226974e-07
6.84226261e-07
6.84226688e-07
6.84226647e-07
6.842269e-07
6.84226232e-07
6.84227668e-07
6.84226142e-07
6.84226395e-07
6.84226347e-07
6.84226254e-07
6.84225922e-07
6.84225769e-07
6.8422691e-07
6.84226201e-07
6.84226253e-07
6.84226729e-07
6.84226231e-07
6.84227292e-07
6.84225671e-07
6.84226243e-07
6.84226691e-07
6.84225676e-07
6.84226766e-07
6.84226262e-07
6.84226397e-07
6.84225797e-07
6.84226724e-07
6.84226088e-07
6.8422597e-07
6.84226642e-07
6.8422631e-07
6.84226146e-07
6.84225771e-07
6.84226506e-07
6.84227254e-07
6.84225768e-07
6.84227015e-07
6.84226425e-07
6.84226511e-07
6.84226438e-07
6.84225962e-07
6.84227237e-07
6.84225365e-07
6.8422704e-07
6.84226165e-07
6.84226448e-07
6.84225682e-07
6.84226189e-07
6.84225845e-07
6.84226315e-07
6.84226102e-07
6.84226167e-07
6.84226176e-07
6.84226035e-07
6.84227018e-07
6.84226185e-07
6.84226479e-07
6.8422614e-07
6.84225964e-07
6.84227386e-07
6.8422614e-07
6.84226656e-07
6.84227249e-07
6.84225515e-07
6.84226882e-07
6.84225706e-07
6.84227206e-07
6.84225462e-07
6.8422743e-07
6.842253e-07
6.84226543e-07
6.84226245e-07
6.84226224e-07
6.84226865e-07
6.84226534e-07
6.84226518e-07
6.84226405e-07
6.84226044e-07
6.84226691e-07
6.84226116e-07
6.84226482e-07
6.84226414e-07
6.84226678e-07
6.84226509e-07
6.8422629e-07
6.84226369e-07
6.8422641e-07
6.84226258e-07
6.84226392e-07
6.8422642e-07
6.84226437e-07
6.84226355e-07
6.8422635e-07
6.84226309e-07
6.84226375e-07
6.84226383e-07
6.84226377e-07
6.84226414e-07
6.84226365e-07
6.84226392e-07
6.8422639e-07
6.84226367e-07
6.8422641e-07
6.84226396e-07
6.84226359e-07
6.84226369e-07
6.84226391e-07
6.84226391e-07
6.84226389e-07
6.84226387e-07
6.8422639e-07
6.84226389e-07
6.84226387e-07
6.84226386e-07
6.84226391e-07
6.84226368e-07
6.84226395e-07
6.84226375e-07
6.84226382e-07
6.84226384e-07
6.84226385e-07
6.84226384e-07
6.84226396e-07
6.84226382e-07
6.84226387e-07
6.84226372e-07
6.84226373e-07
6.84226393e-07
6.84226386e-07
6.84226388e-07
6.84226385e-07
6.8422637e-07
6.84226387e-07
6.84226387e-07
6.84226385e-07
6.84226392e-07
6.84226379e-07
6.842264e-07
6.84226382e-07
6.84226393e-07
6.84226382e-07
6.84226382e-07
6.84226395e-07
6.84226376e-07
6.84226377e-07
6.84226392e-07
)
;

boundaryField
{
    closed
    {
        type            calculated;
        value           uniform 0;
    }
    open
    {
        type            calculated;
        value           uniform 0;
    }
    sides
    {
        type            empty;
    }
}


// ************************************************************************* //
