/*--------------------------------*- C++ -*----------------------------------*\
| =========                 |                                                 |
| \\      /  F ield         | OpenFOAM: The Open Source CFD Toolbox           |
|  \\    /   O peration     | Version:  2206                                  |
|   \\  /    A nd           | Website:  www.openfoam.com                      |
|    \\/     M anipulation  |                                                 |
\*---------------------------------------------------------------------------*/
FoamFile
{
    version     2.0;
    format      ascii;
    arch        "LSB;label=32;scalar=64";
    class       volScalarField;
    location    "1.58e-05";
    object      p;
}
// * * * * * * * * * * * * * * * * * * * * * * * * * * * * * * * * * * * * * //

dimensions      [1 -1 -2 0 0 0 0];

internalField   nonuniform List<scalar> 
3183
(
101325
101325
101325
101325
101325
101325
101325
101325
101325
101325
101325
101325
101325
101325
101325
101325
101325
101325
101325
101325
101325
101325
101325
101325
101325
101325
101325
101325
101325
101325
101325
101325
101325
101325
101325
101325
101325
101325
101325
101325
101325
101325
101325
101325
101325
101325
101325
101325
101325
101325
101325
101325
101325
101325
101325
101325
101325
101325
101325
101325
101325
101325
101325
101325
101325
101325
101325
101325
101325
101325
101325
101325
101325
101325
101325
101325
101325
101325
101325
101325
101325
101325
101325
101325
101325
101325
101325
101325
101325
101325
101325
101325
101325
101325
101325
101325
101325
101325
101325
101325
101325
101325
101325
101325
101325
101325
101325
101325
101325
101325
101325
101325
101325
101325
101325
101325
101325
101325
101325
101325
101325
101325
101325
101325
101325
101325
101325
101325
101325
101325
101325
101325
101325
101325
101325
101325
101325
101325
101325
101325
101325
101325
101325
101325
101325
101325
101325
101325
101325
101325
101325
101325
101325
101325
101325
101325
101325
101325
101325
101325
101325
101325
101325
101325
101325
101325
101325
101325
101325
101325
101325
101325
101325
101325
101325
101325
101325
101325
101325
101325
101325
101325
101325
101325
101325
101325
101325
101325
101325
101325
101325
101325
101325
101325
101325
101325
101325
101325
101325
101325
101325
101325
101325
101325
101325
101325
101325
101325
101325
101325
101325
101325
101325
101325
101325
101325
101325
101325
101325
101325
101325
101325
101325
101325
101325
101325
101325
101325
101325
101325
101325
101325
101325
101325
101325
101325
101325
101325
101325
101325
101325
101325
101325
101325
101325
101325
101325
101325
101325
101325
101325
101325
101325
101325
101325
101325
101325
101325
101325
101325
101325
101325
101325
101325
101325
101325
101325
101325
101325
101325
101325
101325
101325
101325
101325
101325
101325
101325
101325
101325
101325
101325
101325
101325
101325
101325
101325
101325
101325
101325
101325
101325
101325
101325
101325
101325
101325
101325
101325
101325
101325
101325
101325
101325
101325
101325
101325
101325
101325
101325
101325
101325
101325
101325
101325
101325
101325
101325
101325
101325
101325
101325
101325
101325
101325
101325
101325
101325
101325
101325
101325
101325
101325
101325
101325
101325
101325
101325
101325
101325
101325
101325
101325
101325
101325
101325
101325
101325
101325
101325
101325
101325
101325
101325
101325
101325
101325
101325
101325
101325
101325
101325
101325
101325
101325
101325
101325
101325
101325
101325
101325
101325
101325
101325
101325
101325
101325
101325
101325
101325
101325
101325
101325
101325
101325
101325
101325
101325
101325
101325
101325
101325
101325
101325
101325
101325
101325
101325
101325
101325
101325
101325
101325
101325
101325
101325
101325
101325
101325
101325
101325
101325
101325
101325
101325
101325
101325
101325
101325
101325
101325
101325
101325
101325
101325
101325
101325
101325
101325
101325
101325
101325
101325
101325
101325
101325
101325
101325
101325
101325
101325
101325
101325
101325
101325
101325
101325
101325
101325
101325
101325
101325
101325
101325
101325
101325
101325
101325
101325
101325
101325
101325
101325
101325
101325
101325
101325
101325
101325
101325
101325
101325
101325
101325
101325
101325
101325
101325
101325
101325
101325
101325
101325
101325
101325
101325
101325
101325
101325
101325
101325
101325
101325
101325
101325
101325
101325
101325
101325
101325
101325
101325
101325
101325
101325
101325
101325
101325
101325
101325
101325
101325
101325
101325
101325
101325
101325
101325
101325
101325
101325
101325
101325
101325
101325
101325
101325
101325
101325
101325
101325
101325
101325
101325
101325
101325
101325
101325
101325
101325
101325
101325
101325
101325
101325
101325
101325
101325
101325
101325
101325
101325
101325
101325
101325
101325
101325
101325
101325
101325
101325
101325
101325
101325
101325
101325
101325
101325
101325
101325
101325
101325
101325
101325
101325
101325
101325
101325
101325
101325
101325
101325
101325
101325
101325
101325
101325
101325
101325
101325
101325
101325
101325
101325
101325
101325
101325
101325
101325
101325
101325
101325
101325
101325
101325
101325
101325
101325
101325
101325
101325
101325
101325
101325
101325
101325
101325
101325
101325
101325
101325
101325
101325
101325
101325
101325
101325
101325
101325
101325
101325
101325
101325
101325
101325
101325
101325
101325
101325
101325
101325
101325
101325
101325
101325
101325
101325
101325
101325
101325
101325
101325
101325
101325
101325
101325
101325
101325
101325
101325
101325
101325
101325
101325
101325
101325
101325
101325
101325
101325
101325
101325
101325
101325
101325
101325
101325
101325
101325
101325
101325
101325
101325
101325
101325
101325
101325
101325
101325
101325
101325
101325
101325
101325
101325
101325
101325
101325
101325
101325
101325
101325
101325
101325
101325
101325
101325
101325
101325
101325
101325
101325
101325
101325
101325
101325
101325
101325
101325
101325
101325
101325
101325
101325
101325
101325
101325
101325
101325
101325
101325
101325
101325
101325
101325
101325
101325
101325
101325
101325
101325
101325
101325
101325
101325
101325
101325
101325
101325
101325
101325
101325
101325
101325
101325
101325
101325
101325
101325
101325
101325
101325
101325
101325
101325
101325
101325
101325
101325
101325
101325
101325
101325
101325
101325
101325
101325
101325
101325
101325
101325
101325
101325
101325
101325
101325
101325
101325
101325
101325
101325
101325
101325
101325
101325
101325
101325
101325
101325
101325
101325
101325
101325
101325
101325
101325
101325
101325
101325
101325
101325
101325
101325
101325
101325
101325
101325
101325
101325
101325
101325
101325
101325
101325
101325
101325
101325
101325
101325
101325
101325
101325
101325
101325
101325
101325
101325
101325
101325
101325
101325
101325
101325
101325
101325
101325
101325
101325
101325
101325
101325
101325
101325
101325
101325
101325
101325
101325
101325
101325
101325
101325
101325
101325
101325
101325
101325
101325
101325
101325
101325
101325
101325
101325
101325
101325
101325
101325
101325
101325
101325
101325
101325
101325
101325
101325
101325
101325
101325
101325
101325
101325
101325
101325
101325
101325
101325
101325
101325
101325
101325
101325
101325
101325
101325
101325
101325
101325
101325
101325
101325
101325
101325
101325
101325
101325
101325
101325
101325
101325
101325
101325
101325
101325
101325
101325
101325
101325
101325
101325
101325
101325
101325
101325
101325
101325
101325
101325
101325
101325
101325
101325
101325
101325
101325
101325
101325
101325
101325
101325
101325
101325
101325
101325
101325
101325
101325
101325
101325
101325
101325
101325
101325
101325
101325
101325
101325
101325
101325
101325
101325
101325
101325
101325
101325
101325
101325
101325
101325
101325
101325
101325
101325
101325
101325
101325
101325
101325
101325
101325
101325
101325
101325
101325
101325
101325
101325
101325
101325
101325
101325
101325
101325
101325
101325
101325
101325
101325
101325
101325
101325
101325
101325
101325
101325
101325
101325
101325
101325
101325
101325
101325
101325
101325
101325
101325
101325
101325
101325
101325
101325
101325
101325
101325
101325
101325
101325
101325
101325
101325
101325
101325
101325
101325
101325
101325
101325
101325
101325
101325
101325
101325
101325
101325
101325
101325
101325
101325
101325
101325
101325
101325
101325
101325
101325
101325
101325
101325
101325
101325
101325
101325
101325
101325
101325
101325
101325
101325
101325
101325
101325
101325
101325
101325
101325
101325
101325
101325
101325
101325
101325
101325
101325
101325
101325
101325
101325
101325
101325
101325
101325
101325
101325
101325
101325
101325
101325
101325
101325
101325
101325
101325
101325
101325
101325
101325
101325
101325
101325
101325
101325
101325
101325
101325
101325
101325
101325
101325
101325
101325
101325
101325
101325
101325
101325
101325
101325
101325
101325
101325
101325
101325
101325
101325
101325
101325
101325
101325
101325
101325
101325
101325
101325
101325
101325
101325
101325
101325
101325
101325
101325
101325
101325
101325
101325
101325
101325
101325
101325
101325
101325
101325
101325
101325
101325
101325
101325
101325
101325
101325
101325
101325
101325
101325
101325
101325
101325
101325
101325
101325
101325
101325
101325
101325
101325
101325
101325
101325
101325
101325
101325
101325
101325
101325
101325
101325
101325
101325
101325
101325
101325
101325
101325
101325
101325
101325
101325
101325
101325
101325
101325
101325
101325
101325
101325
101325
101325
101325
101325
101325
101325
101325
101325
101325
101325
101325
101325
101325
101325
101325
101325
101325
101325
101325
101325
101325
101325
101325
101325
101325
101325
101325
101325
101325
101325
101325
101325
101325
101325
101325
101325
101325
101325
101325
101325
101325
101325
101325
101325
101325
101325
101325
101325
101325
101325
101325
101325
101325
101325
101325
101325
101325
101325
101325
101325
101325
101325
101325
101325
101325
101325
101325
101325
101325
101325
101325
101325
101325
101325
101325
101325
101325
101325
101325
101325
101325
101325
101325
101325
101325
101325
101325
101325
101325
101325
101325
101325
101325
101325
101325
101325
101325
101325
101325
101325
101325
101325
101325
101325
101325
101325
101325
101325
101325
101325
101325
101325
101325
101325
101325
101325
101325
101325
101325
101325
101325
101325
101325
101325
101325
101325
101325
101325
101325
101325
101325
101325
101325
101325
101325
101325
101325
101325
101325
101325
101325
101325
101325
101325
101325
101325
101325
101325
101325
101325
101325
101325
101325
101325
101325
101325
101325
101325
101325
101325
101325
101325
101325
101325
101325
101325
101325
101325
101325
101325
101325
101325
101325
101325
101325
101325
101325
101325
101325
101325
101325
101325
101325
101325
101325
101325
101325
101325
101325
101325
101325
101325
101325
101325
101325
101325
101325
101325
101325
101325
101325
101325
101325
101325
101325
101325
101325
101325
101325
101325
101325
101325
101325
101325
101325
101325
101325
101325
101325
101325
101325
101325
101325
101325
101325
101325
101325
101325
101325
101325
101325
101325
101325
101325
101325
101325
101325
101325
101325
101325
101325
101325
101325
101325
101325
101325
101325
101325
101325
101325
101325
101325
101325
101325
101325
101325
101325
101325
101325
101325
101325
101325
101325
101325
101325
101325
101325
101325
101325
101325
101325
101325
101325
101325
101325
101325
101325
101325
101325
101325
101325
101325
101325
101325
101325
101325
101325
101325
101325
101325
101325
101325
101325
101325
101325
101325
101325
101325
101325
101325
101325
101325
101325
101325
101325
101325
101325
101325
101325
101325
101325
101325
101325
101325
101325
101325
101325
101325
101325
101325
101325
101325
101325
101325
101325
101325
101325
101325
101325
101325
101325
101325
101325
101325
101325
101325
101325
101325
101325
101325
101325
101325
101325
101325
101325
101325
101325
101325
101325
101325
101325
101325
101325
101325
101325
101325
101325
101325
101325
101325
101325
101325
101325
101325
101325
101325
101325
101325
101325
101325
101325
101325
101325
101325
101325
101325
101325
101325
101325
101325
101325
101325
101325
101325
101325
101325
101325
101325
101325
101325
101325
101325
101325
101325
101325
101325
101325
101325
101325
101325
101325
101325
101325
101325
101325
101325
101325
101325
101325
101325
101325
101325
101325
101325
101325
101325
101325
101325
101325
101325
101325
101325
101325
101325
101325
101325
101325
101325
101325
101325
101325
101325
101325
101325
101325
101325
101325
101325
101325
101325
101325
101325
101325
101325
101325
101325
101325
101325
101325
101325
101325
101325
101325
101325
101325
101325
101325
101325
101325
101325
101325
101325
101325
101325
101325
101325
101325
101325
101325
101325
101325
101325
101325
101325
101325
101325
101325
101325
101325
101325
101325
101325
101325
101325
101325
101325
101325
101325
101325
101325
101325
101325
101325
101325
101325
101325
101325
101325
101325
101325
101325
101325
101325
101325
101325
101325
101325
101325
101325
101325
101325
101325
101325
101325
101325
101325
101325
101325
101325
101325
101325
101325
101325
101325
101325
101325
101325
101325
101325
101325
101325
101325
101325
101325
101325
101325
101325
101325
101325
101325
101325
101325
101325
101325
101325
101325
101325
101325
101325
101325
101325
101325
101325
101325
101325
101325
101325
101325
101325
101325
101325
101325
101325
101325
101325
101325
101325
101325
101325
101325
101325
101325
101325
101325
101325
101325
101325
101325
101325
101325
101325
101325
101325
101325
101325
101325
101325
101325
101325
101325
101325
101325
101325
101325
101325
101325
101325
101325
101325
101325
101325
101325
101324.999
101324.999
101324.999
101324.999
101324.999
101324.999
101324.999
101324.999
101324.999
101324.999
101324.999
101324.999
101324.999
101324.999
101324.999
101324.999
101324.999
101324.999
101324.999
101324.998
101324.998
101324.998
101324.998
101324.998
101324.998
101324.998
101324.998
101324.998
101324.997
101324.997
101324.997
101324.997
101324.997
101324.997
101324.996
101324.996
101324.996
101324.996
101324.995
101324.995
101324.995
101324.995
101324.994
101324.994
101324.994
101324.993
101324.993
101324.992
101324.992
101324.992
101324.991
101324.991
101324.99
101324.989
101324.989
101324.988
101324.988
101324.987
101324.986
101324.985
101324.985
101324.984
101324.983
101324.982
101324.981
101324.98
101324.979
101324.978
101324.977
101324.976
101324.974
101324.973
101324.971
101324.97
101324.968
101324.967
101324.965
101324.963
101324.961
101324.959
101324.957
101324.955
101324.953
101324.95
101324.948
101324.945
101324.942
101324.94
101324.937
101324.933
101324.93
101324.927
101324.923
101324.919
101324.915
101324.911
101324.907
101324.902
101324.897
101324.893
101324.887
101324.882
101324.876
101324.871
101324.864
101324.858
101324.851
101324.844
101324.837
101324.83
101324.822
101324.813
101324.805
101324.796
101324.787
101324.777
101324.767
101324.756
101324.745
101324.734
101324.722
101324.71
101324.697
101324.684
101324.67
101324.655
101324.64
101324.625
101324.609
101324.592
101324.574
101324.556
101324.537
101324.518
101324.498
101324.477
101324.455
101324.432
101324.409
101324.384
101324.359
101324.333
101324.306
101324.278
101324.249
101324.219
101324.188
101324.156
101324.123
101324.088
101324.053
101324.016
101323.978
101323.938
101323.898
101323.856
101323.812
101323.768
101323.721
101323.674
101323.624
101323.574
101323.521
101323.467
101323.412
101323.354
101323.295
101323.234
101323.171
101323.107
101323.04
101322.972
101322.901
101322.829
101322.754
101322.677
101322.598
101322.517
101322.434
101322.349
101322.261
101322.171
101322.078
101321.983
101321.886
101321.786
101321.683
101321.578
101321.471
101321.36
101321.247
101321.132
101321.013
101320.892
101320.768
101320.641
101320.511
101320.378
101320.242
101320.104
101319.962
101319.817
101319.67
101319.519
101319.365
101319.208
101319.048
101318.885
101318.719
101318.549
101318.377
101318.201
101318.022
101317.84
101317.654
101317.466
101317.274
101317.079
101316.881
101316.68
101316.476
101316.269
101316.058
101315.845
101315.629
101315.409
101315.187
101314.961
101314.733
101314.502
101314.268
101314.031
101313.792
101313.55
101313.305
101313.058
101312.808
101312.556
101312.301
101312.045
101311.786
101311.525
101311.261
101310.996
101310.73
101310.461
101310.191
101309.919
101309.646
101309.371
101309.095
101308.818
101308.54
101308.261
101307.982
101307.701
101307.421
101307.139
101306.858
101306.576
101306.295
101306.013
101305.732
101305.451
101305.171
101304.891
101304.613
101304.335
101304.058
101303.783
101303.509
101303.237
101302.967
101302.698
101302.432
101302.167
101301.906
101301.646
101301.389
101301.135
101300.884
101300.636
101300.392
101300.15
101299.913
101299.679
101299.448
101299.222
101299
101298.782
101298.568
101298.359
101298.154
101297.955
101297.76
101297.57
101297.385
101297.205
101297.03
101296.861
101296.697
101296.539
101296.387
101296.24
101296.099
101295.964
101295.834
101295.711
101295.594
101295.483
101295.377
101295.278
101295.186
101295.099
101295.019
101294.945
101294.877
101294.815
101294.76
101294.711
101294.668
101294.631
101294.6
101294.576
101294.558
101294.545
101294.539
101294.539
101294.544
101294.555
101294.572
101294.595
101294.624
101294.657
101294.697
101294.741
101294.791
101294.846
101294.906
101294.97
101295.04
101295.114
101295.193
101295.276
101295.363
101295.455
101295.55
101295.649
101295.753
101295.859
101295.969
101296.083
101296.2
101296.319
101296.442
101296.567
101296.695
101296.825
101296.958
101297.092
101297.229
101297.367
101297.508
101297.649
101297.792
101297.937
101298.082
101298.229
101298.376
101298.525
101298.673
101298.822
101298.972
101299.122
101299.271
101299.421
101299.571
101299.72
101299.869
101300.018
101300.166
101300.313
101300.46
101300.605
101300.75
101300.894
101301.036
101301.178
101301.318
101301.457
101301.595
101301.731
101301.865
101301.998
101302.13
101302.26
101302.388
101302.515
101302.639
101302.762
101302.883
101303.003
101303.12
101303.236
101303.35
101303.462
101303.572
101303.68
101303.786
101303.89
101303.993
101304.093
101304.192
101304.289
101304.384
101304.477
101304.569
101304.658
101304.746
101304.833
101304.917
101305
101305.081
101305.161
101305.239
101305.315
101305.39
101305.463
101305.535
101305.606
101305.675
101305.743
101305.81
101305.875
101305.939
101306.002
101306.064
101306.124
101306.184
101306.243
101306.3
101306.357
101306.412
101306.467
101306.521
101306.574
101306.627
101306.678
101306.729
101306.779
101306.829
101306.878
101306.927
101306.974
101307.022
101307.069
101307.115
101307.161
101307.206
101307.252
101307.296
101307.341
101307.385
101307.429
101307.472
101307.515
101307.558
101307.601
101307.643
101307.685
101307.727
101307.769
101307.811
101307.852
101307.893
101307.934
101307.975
101308.016
101308.056
101308.097
101308.137
101308.177
101308.217
101308.256
101308.296
101308.335
101308.374
101308.413
101308.452
101308.49
101308.529
101308.567
101308.605
101308.642
101308.68
101308.717
101308.753
101308.79
101308.826
101308.862
101308.898
101308.933
101308.968
101309.003
101309.037
101309.071
101309.104
101309.137
101309.17
101309.202
101309.234
101309.266
101309.297
101309.327
101309.357
101309.387
101309.416
101309.445
101309.473
101309.5
101309.528
101309.554
101309.581
101309.606
101309.632
101309.656
101309.68
101309.704
101309.727
101309.75
101309.773
101309.794
101309.816
101309.837
101309.857
101309.877
101309.897
101309.916
101309.935
101309.953
101309.971
101309.989
101310.006
101310.023
101310.04
101310.056
101310.072
101310.088
101310.103
101310.119
101310.134
101310.149
101310.163
101310.178
101310.192
101310.207
101310.221
101310.235
101310.249
101310.264
101310.278
101310.292
101310.306
101310.32
101310.334
101310.349
101310.363
101310.378
101310.393
101310.408
101310.423
101310.438
101310.453
101310.469
101310.485
101310.501
101310.517
101310.534
101310.551
101310.568
101310.585
101310.603
101310.621
101310.639
101310.657
101310.676
101310.695
101310.714
101310.734
101310.754
101310.774
101310.794
101310.815
101310.836
101310.857
101310.878
101310.899
101310.921
101310.943
101310.965
101310.987
101311.009
101311.031
101311.053
101311.076
101311.098
101311.12
101311.143
101311.165
101311.188
101311.21
101311.232
101311.254
101311.276
101311.298
101311.32
101311.341
101311.363
101311.384
101311.405
101311.425
101311.446
101311.466
101311.486
101311.505
101311.524
101311.543
101311.562
101311.58
101311.598
101311.616
101311.633
101311.65
101311.667
101311.683
101311.699
101311.715
101311.73
101311.745
101311.76
101311.774
101311.788
101311.802
101311.816
101311.829
101311.842
101311.855
101311.868
101311.88
101311.892
101311.904
101311.916
101311.928
101311.939
101311.951
101311.962
101311.973
101311.984
101311.995
101312.006
101312.016
101312.027
101312.038
101312.048
101312.059
101312.069
101312.08
101312.09
101312.101
101312.111
101312.122
101312.132
101312.142
101312.153
101312.163
101312.173
101312.184
101312.194
101312.204
101312.215
101312.225
101312.235
101312.245
101312.255
101312.266
101312.276
101312.286
101312.296
101312.305
101312.315
101312.325
101312.334
101312.344
101312.353
101312.363
101312.372
101312.381
101312.39
101312.399
101312.408
101312.416
101312.425
101312.433
101312.441
101312.45
101312.458
101312.466
101312.473
101312.481
101312.489
101312.496
101312.504
101312.511
101312.519
101312.526
101312.533
101312.541
101312.548
101312.555
101312.563
101312.57
101312.578
101312.586
101312.593
101312.601
101312.61
101312.618
101312.627
101312.635
101312.644
101312.654
101312.663
101312.673
101312.683
101312.693
101312.703
101312.714
101312.725
101312.736
101312.747
101312.758
101312.77
101312.781
101312.793
101312.805
101312.816
101312.828
101312.839
101312.85
101312.861
101312.872
101312.882
101312.892
101312.901
101312.91
101312.918
101312.925
101312.932
101312.938
101312.943
101312.947
101312.95
101312.952
101312.952
101312.951
101312.949
101312.945
101312.94
101312.932
101312.923
101312.913
101312.901
101312.888
101312.872
101312.84
101312.792
101313.097
101313.239
101313.153
101312.639
101312.557
101312.545
101312.644
101312.696
101312.791
101312.838
101312.901
101312.928
101312.957
101312.967
101312.976
101312.979
101312.982
101312.982
101312.982
101312.982
101312.981
101312.98
101312.979
101312.978
101312.977
101312.975
101312.973
101312.971
101312.969
101312.966
101312.964
101312.961
101312.958
101312.955
101312.952
101312.949
101312.946
101312.942
101312.938
101312.935
101312.931
101312.927
101312.922
101312.918
101312.914
101312.909
101312.904
101312.899
101312.895
101312.89
101312.884
101312.879
101312.874
101312.869
101312.863
101312.858
101312.852
101312.846
101312.841
101312.835
101312.829
101312.823
101312.818
101312.812
101312.806
101312.8
101312.794
101312.788
101312.782
101312.776
101312.771
101312.765
101312.759
101312.753
101312.747
101312.742
101312.736
101312.731
101312.725
101312.72
101312.714
101312.709
101312.703
101312.698
101312.693
101312.688
101312.683
101312.678
101312.673
101312.668
101312.663
101312.658
101312.654
101312.649
101312.645
101312.64
101312.636
101312.631
101312.627
101312.623
101312.619
101312.615
101312.611
101312.606
101312.603
101312.599
101312.595
101312.591
101312.587
101312.583
101312.579
101312.576
101312.572
101312.568
101312.564
101312.561
101312.557
101312.553
101312.55
101312.546
101312.543
101312.539
101312.535
101312.532
101312.528
101312.524
101312.521
101312.517
101312.513
101312.51
101312.506
101312.502
101312.498
101312.495
101312.491
101312.487
101312.483
101312.479
101312.475
101312.471
101312.467
101312.463
101312.459
101312.455
101312.451
101312.447
101312.443
101312.439
101312.435
101312.43
101312.426
101312.422
101312.417
101312.413
101312.408
101312.404
101312.399
101312.395
101312.39
101312.386
101312.381
101312.376
101312.372
101312.367
101312.362
101312.357
101312.353
101312.348
101312.343
101312.338
101312.333
101312.328
101312.323
101312.318
101312.313
101312.308
101312.303
101312.298
101312.293
101312.288
101312.282
101312.277
101312.272
101312.266
101312.261
101312.256
101312.25
101312.245
101312.24
101312.234
101312.229
101312.224
101312.218
101312.213
101312.208
101312.202
101312.197
101312.191
101312.186
101312.18
101312.175
101312.169
101312.164
101312.158
101312.153
101312.147
101312.142
101312.136
101312.13
101312.125
101312.119
101312.114
101312.108
101312.102
101312.097
101312.091
101312.085
101312.08
101312.074
101312.068
101312.063
101312.057
101312.051
101312.045
101312.04
101312.034
101312.028
101312.022
101312.016
101312.011
101312.005
101311.999
101311.993
101311.987
101311.981
101311.975
101311.969
101311.963
101311.957
101311.951
101311.945
101311.939
101311.933
101311.926
101311.92
101311.914
101311.908
101311.901
101311.895
101311.889
101311.882
101311.876
101311.869
101311.862
101311.856
101311.849
101311.842
101311.836
101311.829
101311.822
101311.815
101311.808
101311.801
101311.794
101311.786
101311.779
101311.772
101311.764
101311.757
101311.749
101311.742
101311.734
101311.726
101311.719
101311.711
101311.703
101311.695
101311.687
101311.679
101311.67
101311.662
101311.654
101311.645
101311.636
101311.628
101311.619
101311.61
101311.601
101311.592
101311.583
101311.574
101311.565
101311.556
101311.546
101311.537
101311.527
101311.518
101311.508
101311.498
101311.489
101311.479
101311.469
101311.459
101311.449
101311.438
101311.428
101311.418
101311.407
101311.397
101311.387
101311.376
101311.365
101311.355
101311.344
101311.333
101311.322
101311.311
101311.3
101311.29
101311.278
101311.267
101311.256
101311.245
101311.234
101311.223
101311.212
101311.2
101311.189
101311.178
101311.166
101311.155
101311.144
101311.132
101311.121
101311.109
101311.098
101311.087
101311.075
101311.064
101311.052
101311.041
101311.03
101311.018
101311.007
101310.995
101310.984
101310.973
101310.962
101310.95
101310.939
101310.928
101310.917
101310.905
101310.894
101310.883
101310.872
101310.861
101310.85
101310.839
101310.828
101310.818
101310.807
101310.796
101310.785
101310.775
101310.764
101310.754
101310.743
101310.733
101310.722
101310.712
101310.702
101310.692
101310.682
101310.672
101310.662
101310.652
101310.642
101310.632
101310.622
101310.613
101310.603
101310.593
101310.584
101310.574
101310.565
101310.556
101310.546
101310.537
101310.528
101310.519
101310.51
101310.501
101310.492
101310.483
101310.475
101310.466
101310.457
101310.448
101310.44
101310.431
101310.423
101310.414
101310.406
101310.398
101310.389
101310.381
101310.373
101310.365
101310.357
101310.348
101310.34
101310.332
101310.324
101310.316
101310.308
101310.3
101310.292
101310.284
101310.276
101310.269
101310.261
101310.253
101310.245
101310.237
101310.229
101310.221
101310.214
101310.206
101310.198
101310.19
101310.182
101310.174
101310.166
101310.158
101310.15
101310.142
101310.134
101310.126
101310.118
101310.11
101310.102
101310.094
101310.085
101310.077
101310.069
101310.06
101310.052
101310.044
101310.035
101310.027
101310.018
101310.009
101310
101309.992
101309.983
101309.974
101309.965
101309.956
101309.946
101309.937
101309.928
101309.918
101309.909
101309.899
101309.89
101309.88
101309.87
101309.86
101309.85
101309.84
101309.83
101309.819
101309.809
101309.798
101309.788
101309.777
101309.766
101309.755
101309.744
101309.733
101309.721
101309.71
101309.698
101309.687
101309.675
101309.663
101309.651
101309.639
101309.627
101309.615
101309.602
101309.59
101309.577
101309.564
101309.551
101309.538
101309.525
101309.512
101309.498
101309.485
101309.471
101309.457
101309.443
101309.427
101309.41
101309.392
101309.372
101309.351
101309.328
101309.302
101309.275
101309.245
101309.213
101309.177
101309.139
101309.097
101309.052
101309.002
101308.948
101308.889
101308.824
101308.754
101308.677
101308.594
101308.503
101308.404
101308.296
101308.179
101308.051
101307.913
101307.763
101307.599
101307.421
101307.226
101307.011
101306.773
101306.503
101306.194
101305.832
101305.399
101304.869
101304.212
101303.387
101302.355
101301.078
101299.546
101297.8
101295.967
101294.303
101293.195
101293.119
101294.518
101297.61
101302.219
101307.725
101313.217
101317.846
101321.162
101323.188
101324.249
101324.727
101324.913
101324.976
101324.994
101324.999
101325
101325.001
101325.001
101325.001
101325.001
101325.001
101325.001
101325.001
101325.001
101325.001
101325.001
101325
101325
101325
)
;

boundaryField
{
    closed
    {
        type            zeroGradient;
    }
    open
    {
        type            waveTransmissive;
        gamma           1.25;
        fieldInf        101325;
        lInf            1;
        value           uniform 101325;
    }
    sides
    {
        type            empty;
    }
}


// ************************************************************************* //
