/*--------------------------------*- C++ -*----------------------------------*\
| =========                 |                                                 |
| \\      /  F ield         | OpenFOAM: The Open Source CFD Toolbox           |
|  \\    /   O peration     | Version:  2206                                  |
|   \\  /    A nd           | Website:  www.openfoam.com                      |
|    \\/     M anipulation  |                                                 |
\*---------------------------------------------------------------------------*/
FoamFile
{
    version     2.0;
    format      ascii;
    arch        "LSB;label=32;scalar=64";
    class       surfaceScalarField;
    location    "1.58e-05";
    object      phi;
}
// * * * * * * * * * * * * * * * * * * * * * * * * * * * * * * * * * * * * * //

dimensions      [1 0 -1 0 0 0 0];

oriented        oriented;

internalField   nonuniform List<scalar> 
3182
(
5.62380166e-18
-2.15281848e-18
-2.34255422e-18
-2.15253898e-18
-7.26660389e-21
-3.84339796e-23
-2.70654091e-24
8.20964169e-26
5.76922832e-24
1.01693632e-22
1.3475659e-19
4.21911665e-18
3.65048609e-18
9.38268289e-19
1.30776986e-18
-1.26547115e-18
-4.70322073e-18
-4.78065333e-18
-4.93760105e-18
4.23662343e-18
7.22389294e-20
2.4978158e-21
1.34028387e-18
2.44359561e-18
4.15965697e-18
3.82362417e-18
7.29048219e-18
2.16027468e-18
-2.38286775e-19
5.62897588e-20
-8.83618729e-19
-1.41823098e-18
-5.8126214e-18
-6.9212275e-18
-3.42087604e-18
-5.72305509e-18
-6.90780299e-18
-6.83329871e-18
-8.03194366e-18
-5.15840807e-18
-2.91655987e-18
-5.21277413e-19
2.71307873e-18
5.60389164e-18
6.6512019e-18
8.02451998e-18
1.00724679e-17
1.1266067e-17
1.14900485e-17
1.11811507e-17
9.9867414e-18
7.41457074e-18
4.12954869e-18
1.31369898e-18
-1.94187295e-18
-4.96030818e-18
-7.7917003e-18
-1.08190888e-17
-1.36607543e-17
-1.6277404e-17
-1.97402395e-17
-2.17360761e-17
-2.39519328e-17
-2.67247031e-17
-2.83989596e-17
-2.94874815e-17
-3.08031958e-17
-3.25168676e-17
-3.42678529e-17
-3.47842439e-17
-3.6032657e-17
-3.66976323e-17
-3.59449066e-17
-3.65653851e-17
-3.78840943e-17
-3.83047709e-17
-3.88176546e-17
-3.79495939e-17
-3.80124826e-17
-3.83297681e-17
-3.84175969e-17
-3.82884944e-17
-3.8726057e-17
-4.1360637e-17
-4.1891271e-17
-4.22321647e-17
-4.35837023e-17
-4.28846492e-17
-4.4312693e-17
-4.59236006e-17
-4.88969137e-17
-5.10927457e-17
-4.98521805e-17
-4.97699245e-17
-4.96436098e-17
-5.13103163e-17
-5.16627997e-17
-5.57020584e-17
-5.64187405e-17
-5.49463741e-17
-5.51340509e-17
-5.96353367e-17
-5.86327729e-17
-6.07138529e-17
-6.32578696e-17
-6.29114958e-17
-6.3507011e-17
-6.35005327e-17
-5.98946229e-17
-6.2323596e-17
-6.00557391e-17
-5.82763154e-17
-6.07424346e-17
-5.97918449e-17
-6.60753913e-17
-6.31075488e-17
-6.46289983e-17
-6.2346444e-17
-6.3412427e-17
-6.74797563e-17
-6.88830243e-17
-6.49296675e-17
-6.4153519e-17
-6.5048779e-17
-6.48723511e-17
-6.26987332e-17
-6.37570099e-17
-6.57195274e-17
-6.37821365e-17
-6.44986818e-17
-6.69094041e-17
-6.75997292e-17
-6.91016087e-17
-6.93139968e-17
-7.03383585e-17
-7.24724574e-17
-7.23469965e-17
-7.63843205e-17
-7.69887305e-17
-7.46795748e-17
-7.77676916e-17
-7.31674492e-17
-7.26426112e-17
-7.41338248e-17
-7.1561587e-17
-7.0110654e-17
-7.21303775e-17
-7.08968178e-17
-7.14781105e-17
-7.03526706e-17
-7.08386052e-17
-7.0983918e-17
-7.16721203e-17
-7.5857258e-17
-7.51187974e-17
-7.68405582e-17
-7.5053333e-17
-7.36812207e-17
-7.42888853e-17
-7.53181801e-17
-7.79351523e-17
-7.64040387e-17
-7.64540219e-17
-7.29211743e-17
-7.29910518e-17
-7.26543903e-17
-7.7566634e-17
-7.63177554e-17
-7.96037908e-17
-7.95192384e-17
-7.77354469e-17
-8.14769298e-17
-8.24156858e-17
-8.10572675e-17
-8.50926913e-17
-8.32173031e-17
-8.29625663e-17
-8.11134124e-17
-8.56677021e-17
-8.74415737e-17
-8.71928349e-17
-8.92844774e-17
-8.60735324e-17
-8.77229959e-17
-8.7252236e-17
-8.66649519e-17
-8.85147345e-17
-8.33332502e-17
-8.52388078e-17
-8.12155736e-17
-8.11941397e-17
-8.41494021e-17
-8.63982317e-17
-9.19764362e-17
-8.83607225e-17
-9.11879837e-17
-9.33097244e-17
-9.21151487e-17
-8.86302535e-17
-8.80180674e-17
-8.62204233e-17
-8.47129697e-17
-8.35481302e-17
-8.30286467e-17
-8.38658527e-17
-8.32171112e-17
-8.50987341e-17
-8.38485926e-17
-8.50678369e-17
-8.51848994e-17
-8.70195613e-17
-8.48133681e-17
-8.80004017e-17
-8.94145258e-17
-9.01147965e-17
-9.33107e-17
-9.60727613e-17
-9.20586463e-17
-9.22388089e-17
-8.98289534e-17
-8.8418824e-17
-8.73899964e-17
-9.00667111e-17
-9.04796042e-17
-9.19590462e-17
-9.37001884e-17
-9.12837798e-17
-9.2949694e-17
-9.50159063e-17
-9.48847045e-17
-9.76632448e-17
-9.88974946e-17
-1.02309186e-16
-1.05005707e-16
-1.04441474e-16
-1.05595932e-16
-1.08360003e-16
-1.0538494e-16
-1.07487859e-16
-1.05626129e-16
-1.09531664e-16
-1.09299647e-16
-1.1128209e-16
-1.12549446e-16
-1.13045222e-16
-1.12458947e-16
-1.1155361e-16
-1.13452437e-16
-1.12014961e-16
-1.13576644e-16
-1.15853386e-16
-1.1447031e-16
-1.12941885e-16
-1.13501206e-16
-1.17662107e-16
-1.16893111e-16
-1.14546822e-16
-1.15133241e-16
-1.18791227e-16
-1.18838832e-16
-1.16900847e-16
-1.19170016e-16
-1.18151659e-16
-1.20089864e-16
-1.21792279e-16
-1.21286985e-16
-1.17137456e-16
-1.19032314e-16
-1.18053973e-16
-1.20062601e-16
-1.18669254e-16
-1.20591131e-16
-1.20241762e-16
-1.21640016e-16
-1.18383193e-16
-1.17618871e-16
-1.17099512e-16
-1.16985267e-16
-1.15215843e-16
-1.14709682e-16
-1.15695406e-16
-1.17480193e-16
-1.17430048e-16
-1.15927287e-16
-1.15574789e-16
-1.16698624e-16
-1.16440841e-16
-1.18205582e-16
-1.20150784e-16
-1.18584215e-16
-1.19129555e-16
-1.20156685e-16
-1.24669467e-16
-1.24217015e-16
-1.26638554e-16
-1.24696023e-16
-1.27259689e-16
-1.2630673e-16
-1.27120438e-16
-1.28474279e-16
-1.26266717e-16
-1.25182605e-16
-1.21413738e-16
-1.25495896e-16
-1.24137716e-16
-1.25236491e-16
-1.2629606e-16
-1.25081505e-16
-1.26977232e-16
-1.23262705e-16
-1.23017184e-16
-1.183396e-16
-1.21979686e-16
-1.22386768e-16
-1.22885764e-16
-1.20612961e-16
-1.22236377e-16
-1.25759854e-16
-1.25561113e-16
-1.23293213e-16
-1.22520763e-16
-1.25451171e-16
-1.27662662e-16
-1.25405502e-16
-1.26963233e-16
-1.26557453e-16
-1.25292754e-16
-1.25089662e-16
-1.27060269e-16
-1.24685116e-16
-1.20432335e-16
-1.1917857e-16
-1.17234588e-16
-1.15417004e-16
-1.13309096e-16
-1.13919547e-16
-1.1793986e-16
-1.20128959e-16
-1.21005947e-16
-1.20319252e-16
-1.20414767e-16
-1.22272796e-16
-1.23328278e-16
-1.19774243e-16
-1.18945408e-16
-1.21249492e-16
-1.21924983e-16
-1.23559671e-16
-1.17672137e-16
-1.17034943e-16
-1.15901382e-16
-1.18404021e-16
-1.19269403e-16
-1.20649426e-16
-1.19185731e-16
-1.22987596e-16
-1.2073303e-16
-1.21721712e-16
-1.2464871e-16
-1.24017777e-16
-1.23294855e-16
-1.22941284e-16
-1.26563217e-16
-1.26445362e-16
-1.24269043e-16
-1.236331e-16
-1.22809989e-16
-1.21935919e-16
-1.18869418e-16
-1.2042894e-16
-1.15409262e-16
-1.18587587e-16
-1.18321355e-16
-1.19300029e-16
-1.19907379e-16
-1.19690549e-16
-1.21475782e-16
-1.19816617e-16
-1.18004282e-16
-1.16311182e-16
-1.16134197e-16
-1.1575961e-16
-1.17660075e-16
-1.17462743e-16
-1.16493317e-16
-1.15274207e-16
-1.14368358e-16
-1.11794077e-16
-1.10970843e-16
-1.14014513e-16
-1.12225943e-16
-1.10942749e-16
-1.06775652e-16
-1.03896992e-16
-1.01339516e-16
-9.86400674e-17
-1.01701876e-16
-1.01101679e-16
-1.01086827e-16
-9.80775505e-17
-1.00594498e-16
-9.98538519e-17
-9.74635146e-17
-9.37785028e-17
-9.58535641e-17
-9.27787695e-17
-9.45757847e-17
-9.28174265e-17
-9.09329657e-17
-8.92985111e-17
-9.10601836e-17
-8.96616173e-17
-9.17763102e-17
-9.45740054e-17
-9.76035448e-17
-9.38097429e-17
-9.31812015e-17
-9.46550162e-17
-9.23700974e-17
-9.07810232e-17
-9.39634803e-17
-9.20541665e-17
-9.05043244e-17
-8.77945102e-17
-9.0137599e-17
-9.36139133e-17
-9.29832273e-17
-9.02447728e-17
-9.04719394e-17
-9.1805554e-17
-9.19646128e-17
-9.30460308e-17
-9.42199245e-17
-9.08338794e-17
-9.23103243e-17
-8.822728e-17
-8.83946616e-17
-8.5327443e-17
-8.14975862e-17
-7.96674834e-17
-8.17817571e-17
-8.09865623e-17
-8.19480263e-17
-8.20111298e-17
-8.08714542e-17
-8.01315853e-17
-8.02370054e-17
-8.22049894e-17
-8.10236713e-17
-8.32224502e-17
-7.92425387e-17
-7.84959763e-17
-7.89118712e-17
-7.88965529e-17
-8.04949799e-17
-7.87878605e-17
-7.59946778e-17
-7.61388272e-17
-7.52806779e-17
-7.48222084e-17
-7.3061745e-17
-6.9867342e-17
-7.00157279e-17
-6.82015706e-17
-7.03763591e-17
-6.78366912e-17
-6.86761254e-17
-7.08606299e-17
-6.79778078e-17
-6.6079626e-17
-6.77563099e-17
-6.91387656e-17
-6.84501031e-17
-6.81388935e-17
-6.58372516e-17
-6.63874289e-17
-6.50068759e-17
-6.58658132e-17
-6.18221007e-17
-6.28067441e-17
-5.93931689e-17
-6.31477601e-17
-6.18025364e-17
-6.20488176e-17
-5.95891461e-17
-6.02516637e-17
-6.22548534e-17
-6.22001365e-17
-6.07473135e-17
-5.8564262e-17
-5.85325193e-17
-5.74647356e-17
-5.82057622e-17
-5.82223314e-17
-5.63417985e-17
-5.8562997e-17
-5.6897809e-17
-5.41775085e-17
-5.15812141e-17
-5.17012364e-17
-5.06538176e-17
-4.79932163e-17
-4.84690973e-17
-4.90682394e-17
-4.68277072e-17
-4.52662333e-17
-4.41768625e-17
-4.66827239e-17
-4.4410414e-17
-4.69010635e-17
-4.90708299e-17
-4.98797087e-17
-4.84460987e-17
-4.85327305e-17
-4.85747629e-17
-4.75851463e-17
-4.7291383e-17
-4.40465002e-17
-3.98532889e-17
-4.07890663e-17
-4.26377008e-17
-3.78020826e-17
-4.11246089e-17
-4.06124812e-17
-4.11003833e-17
-3.99320631e-17
-4.10355555e-17
-3.97082811e-17
-3.85276093e-17
-3.73621842e-17
-3.81035906e-17
-3.78988428e-17
-3.44246616e-17
-3.62112075e-17
-3.66593681e-17
-3.56905197e-17
-3.73170772e-17
-3.74177106e-17
-3.7121015e-17
-3.56545149e-17
-3.37008729e-17
-3.470407e-17
-3.41941884e-17
-3.48315906e-17
-3.09857356e-17
-3.41589752e-17
-3.11926901e-17
-3.25999103e-17
-3.24570633e-17
-2.92492867e-17
-3.31124019e-17
-2.95431958e-17
-2.96962196e-17
-2.85724018e-17
-2.52051803e-17
-2.38516579e-17
-2.24756139e-17
-2.30566975e-17
-2.12533541e-17
-2.28411319e-17
-2.68664963e-17
-2.30498985e-17
-2.20502664e-17
-2.29954906e-17
-2.35457786e-17
-2.28867984e-17
-1.79283274e-17
-1.47751453e-17
-1.49920995e-17
-1.56469112e-17
-1.53478096e-17
-1.21311141e-17
-1.0013295e-17
-9.7752989e-18
-1.2325362e-17
-1.28675077e-17
-1.21276704e-17
-1.40261122e-17
-1.03478499e-17
-1.32852773e-17
-1.17171046e-17
-1.1100546e-17
-9.87763876e-18
-8.20990278e-18
-7.9441783e-18
-5.43867756e-18
-5.45754607e-18
-3.9648429e-18
-5.30959371e-18
-2.89067588e-18
-1.50515487e-18
-2.72202063e-18
-4.12154948e-18
-4.08596392e-18
-4.75678279e-18
-6.02668969e-18
-3.42322146e-18
-3.53215673e-18
-4.77338419e-19
-1.02738147e-18
-2.28805093e-18
-2.26737637e-19
-5.27066957e-18
-6.6536136e-18
-5.19896918e-18
-8.77506439e-18
-8.01382485e-18
-6.8085422e-18
-4.65857419e-18
-2.9355923e-18
-2.93306646e-18
-5.27684844e-18
-8.07500706e-19
1.23081086e-18
8.34275562e-20
2.77222044e-18
1.08666901e-18
3.7201173e-18
2.02300802e-18
2.94579934e-18
6.0484909e-18
7.30869667e-18
6.41390398e-18
1.00667901e-17
8.32179604e-18
5.75041216e-18
7.58585442e-18
9.6043029e-18
7.35849938e-18
7.81578437e-18
9.43925099e-18
1.01226682e-17
1.17779781e-17
1.00499679e-17
1.07542906e-17
1.42091251e-17
1.14240314e-17
1.25773183e-17
1.2317484e-17
1.4543895e-17
1.28852979e-17
1.39834711e-17
1.2290241e-17
1.32760323e-17
1.19112243e-17
1.02291837e-17
1.02469487e-17
1.48607958e-17
1.69071735e-17
1.69907046e-17
1.65371982e-17
1.61914243e-17
1.78076543e-17
1.69488267e-17
1.93477647e-17
1.56114825e-17
1.82017917e-17
1.39209844e-17
1.50663452e-17
1.44101984e-17
1.66038091e-17
1.53479858e-17
1.6883913e-17
1.32639685e-17
1.50088147e-17
1.4484059e-17
1.70228671e-17
1.61367746e-17
1.62480481e-17
1.82950337e-17
1.75066683e-17
1.7377669e-17
1.92808266e-17
2.0305617e-17
1.82454438e-17
2.23835017e-17
2.48918636e-17
2.8616875e-17
2.96885207e-17
2.98411319e-17
3.16337506e-17
3.49473307e-17
3.47597614e-17
3.68301467e-17
3.76032504e-17
3.88101683e-17
4.20627983e-17
4.21459249e-17
4.51430902e-17
4.37342119e-17
4.47090844e-17
4.34671265e-17
4.35140938e-17
4.47696951e-17
4.945407e-17
5.22637858e-17
5.30995922e-17
5.58562837e-17
5.85308931e-17
5.68243434e-17
5.6947305e-17
5.82209329e-17
5.60234361e-17
5.61347389e-17
5.41301803e-17
5.51438448e-17
5.92802082e-17
5.62689952e-17
5.54999155e-17
5.45835104e-17
5.76032169e-17
5.62020067e-17
5.97229469e-17
5.90116101e-17
6.03372308e-17
6.37313704e-17
6.09283598e-17
5.89838366e-17
5.93966127e-17
5.6149674e-17
5.69028038e-17
5.72966401e-17
5.7169337e-17
5.47759156e-17
5.36321694e-17
5.41097254e-17
5.60645846e-17
5.5371966e-17
5.57408295e-17
5.50395044e-17
5.82689923e-17
5.45553809e-17
5.38497269e-17
5.55278178e-17
5.66192904e-17
5.42997525e-17
5.63794279e-17
5.77571574e-17
5.46588758e-17
5.87044179e-17
5.6687955e-17
5.73380621e-17
5.88261049e-17
6.10096326e-17
6.03421328e-17
6.11307367e-17
6.06742719e-17
6.23823687e-17
5.98109999e-17
5.93666027e-17
6.22514651e-17
6.26198401e-17
6.01461322e-17
6.10477912e-17
6.19933651e-17
6.12317407e-17
5.97524712e-17
6.22022973e-17
6.11673694e-17
5.87112301e-17
5.71500622e-17
5.28688478e-17
5.52509991e-17
5.37025141e-17
5.34071195e-17
5.51648007e-17
5.69466603e-17
5.91297715e-17
5.58314904e-17
6.03907758e-17
6.1726354e-17
6.26179805e-17
6.27830156e-17
6.07666278e-17
6.25203776e-17
6.36708533e-17
6.72381706e-17
6.39573662e-17
6.30683721e-17
6.37796104e-17
6.27367625e-17
6.14849954e-17
6.06177768e-17
6.14732653e-17
6.2268333e-17
6.36023891e-17
6.60396607e-17
6.57753077e-17
6.70140165e-17
6.97397624e-17
6.61592352e-17
6.45956697e-17
6.12383807e-17
6.13581649e-17
5.95680033e-17
6.08471769e-17
5.9114272e-17
6.01618175e-17
6.11522366e-17
6.04071024e-17
6.09984988e-17
6.44572925e-17
6.21409263e-17
6.32318357e-17
6.50797514e-17
6.43129063e-17
6.89608849e-17
6.84305948e-17
6.66517837e-17
6.7893774e-17
6.91216795e-17
6.87447103e-17
6.46218188e-17
6.66455936e-17
6.63629667e-17
6.77394338e-17
6.93866064e-17
6.72131468e-17
6.94083236e-17
7.06261019e-17
7.31990643e-17
7.35547273e-17
7.36434002e-17
7.51584921e-17
7.59909516e-17
7.92132761e-17
7.63527511e-17
7.85222589e-17
7.89572681e-17
7.80216155e-17
7.65025143e-17
7.22685436e-17
7.34714562e-17
7.35167914e-17
7.23714058e-17
7.22473846e-17
7.61932353e-17
7.19684261e-17
7.17388923e-17
7.10217741e-17
7.18650115e-17
6.77726084e-17
6.79984526e-17
7.02559375e-17
7.10399484e-17
7.30946332e-17
7.14866969e-17
6.95165908e-17
7.11315076e-17
6.86508264e-17
6.75468856e-17
6.74391649e-17
7.08594483e-17
6.83756862e-17
6.91463196e-17
7.19857227e-17
6.9399497e-17
7.06259926e-17
6.80072286e-17
6.81036545e-17
6.82090726e-17
7.05640095e-17
6.3572091e-17
6.75779985e-17
6.45451051e-17
6.36934107e-17
6.06377914e-17
6.35326734e-17
6.2594951e-17
6.03317047e-17
5.87841985e-17
5.77610954e-17
5.97647606e-17
5.94168476e-17
5.72193762e-17
5.69380094e-17
5.91033241e-17
5.7526296e-17
5.50965694e-17
5.2305838e-17
5.41495151e-17
5.46411477e-17
5.31311088e-17
5.45898347e-17
5.21143028e-17
5.54709478e-17
5.37089227e-17
5.47072656e-17
5.57423019e-17
5.65214852e-17
5.49974585e-17
5.47051415e-17
5.47299116e-17
5.56216172e-17
5.37372886e-17
5.43867314e-17
5.54682943e-17
5.60382968e-17
5.81534102e-17
5.99234235e-17
6.25252442e-17
6.11469681e-17
6.26374579e-17
5.95237837e-17
6.14618222e-17
5.91649425e-17
6.10510924e-17
6.03212484e-17
5.91835363e-17
6.09821951e-17
6.213454e-17
6.20123161e-17
6.25766885e-17
6.50685263e-17
6.62523108e-17
6.54275293e-17
6.39538928e-17
6.95764669e-17
7.18120828e-17
7.27646628e-17
7.096183e-17
7.3692217e-17
7.00532305e-17
6.95932364e-17
7.08380658e-17
6.64787858e-17
6.77185447e-17
6.2325584e-17
6.27591453e-17
6.02321213e-17
6.45296362e-17
6.1656739e-17
6.35476544e-17
6.08046707e-17
5.93219401e-17
6.01229942e-17
5.79585065e-17
5.94875371e-17
6.34198074e-17
6.63465636e-17
6.46287581e-17
6.46737678e-17
6.47549497e-17
6.29454066e-17
6.2463513e-17
6.42869011e-17
6.26992592e-17
6.45824634e-17
6.35770531e-17
6.4146013e-17
6.46809249e-17
6.10800103e-17
5.85940108e-17
6.17762492e-17
5.91342544e-17
6.20405569e-17
6.05660975e-17
6.0124446e-17
5.92611039e-17
5.96951165e-17
5.82063742e-17
6.18874923e-17
6.38290489e-17
6.49438306e-17
6.35629423e-17
6.35818222e-17
6.05244123e-17
6.16019353e-17
6.27549572e-17
6.17156503e-17
6.40291137e-17
6.38467912e-17
6.49215771e-17
6.17875559e-17
6.27153277e-17
6.51875674e-17
5.79942604e-17
5.90491224e-17
6.24217498e-17
5.78596609e-17
5.97713429e-17
5.61559817e-17
5.861776e-17
5.59508135e-17
5.64752949e-17
5.51527834e-17
6.01106757e-17
5.490086e-17
5.68718129e-17
5.53661035e-17
5.30560299e-17
5.28125408e-17
5.12844409e-17
5.04695286e-17
4.59264025e-17
4.96501149e-17
4.81638913e-17
5.10122014e-17
5.2308339e-17
5.0312885e-17
5.21169463e-17
5.298679e-17
5.29482665e-17
5.24736271e-17
4.94002816e-17
4.98651989e-17
5.17665961e-17
5.06816951e-17
4.98191726e-17
5.02386506e-17
4.55976892e-17
4.39275437e-17
4.25867221e-17
4.22913479e-17
4.42205146e-17
4.61047298e-17
4.64979005e-17
4.34431079e-17
4.26210417e-17
4.02176344e-17
3.75015109e-17
3.77167933e-17
3.67539397e-17
3.84876204e-17
4.11738298e-17
3.98073349e-17
4.30407778e-17
3.97426876e-17
4.17284108e-17
3.73259223e-17
3.5041481e-17
3.23860239e-17
3.40939271e-17
3.49872275e-17
3.50778866e-17
3.02607917e-17
3.37848258e-17
3.27475811e-17
2.96171673e-17
2.8213955e-17
2.87269117e-17
2.97478684e-17
2.79885657e-17
2.80382386e-17
2.93650704e-17
3.12809394e-17
2.97183e-17
2.7389049e-17
2.61211638e-17
2.72359727e-17
2.43898209e-17
2.32822395e-17
2.24101339e-17
2.4632962e-17
2.31604464e-17
2.17520007e-17
2.03371249e-17
1.78968671e-17
2.054302e-17
1.93659311e-17
1.81927143e-17
1.95974343e-17
2.28610504e-17
2.31833857e-17
2.29278265e-17
2.27233676e-17
2.03800495e-17
2.27023999e-17
2.17461187e-17
2.13621808e-17
2.26912688e-17
2.1888711e-17
2.2732914e-17
2.19235525e-17
2.09209223e-17
2.26705839e-17
1.988409e-17
2.00811294e-17
1.74873962e-17
2.22448505e-17
1.91045526e-17
1.98374213e-17
1.87913429e-17
1.80729428e-17
1.77876429e-17
1.91635883e-17
1.68976481e-17
1.88471196e-17
1.84040016e-17
1.90625564e-17
1.70326052e-17
1.81092374e-17
1.87774875e-17
1.94437664e-17
1.76788108e-17
1.6630121e-17
1.71006458e-17
1.68726315e-17
1.52909547e-17
1.31995852e-17
1.05423141e-17
8.75613159e-18
7.75270788e-18
6.30364693e-18
9.40812501e-18
6.1479659e-18
4.31869358e-18
3.28677633e-18
2.27905642e-18
-1.07888819e-19
-6.49664036e-19
-6.22119108e-19
-4.96900973e-18
-3.37577707e-18
-5.26571966e-18
-7.4139422e-18
-6.06437508e-18
-1.10627339e-17
-9.86751152e-18
-1.061117e-17
-8.81848359e-18
-1.1125035e-17
-1.21975394e-17
-1.28109266e-17
-1.63771446e-17
-1.49575203e-17
-1.77426847e-17
-1.7773586e-17
-1.83490527e-17
-1.88759553e-17
-1.97378207e-17
-2.04362693e-17
-2.19303005e-17
-2.10732059e-17
-2.19882575e-17
-1.89933595e-17
-1.9261768e-17
-1.8254757e-17
-1.79333563e-17
-1.78340844e-17
-1.7198309e-17
-1.9177521e-17
-1.95436474e-17
-1.86823395e-17
-1.98099927e-17
-1.54588749e-17
-1.45163621e-17
-1.4853287e-17
-1.53898258e-17
-1.54957441e-17
-1.39942699e-17
-1.68325074e-17
-1.87266419e-17
-1.75667125e-17
-1.65637812e-17
-2.03781965e-17
-2.11654774e-17
-1.87253823e-17
-2.2418492e-17
-2.67020002e-17
-3.1666569e-17
-3.01977049e-17
-3.27665602e-17
-3.35093851e-17
-3.33095458e-17
-3.18181427e-17
-3.0503366e-17
-2.90270919e-17
-2.91810168e-17
-2.79926156e-17
-2.9510041e-17
-3.17477258e-17
-3.29796195e-17
-3.41874423e-17
-3.79990433e-17
-3.71921091e-17
-3.60227132e-17
-3.52910263e-17
-3.75643846e-17
-4.08216215e-17
-3.91424216e-17
-3.84801739e-17
-4.20381297e-17
-4.12188125e-17
-4.30413534e-17
-4.3385219e-17
-4.23279766e-17
-4.36970236e-17
-4.90194022e-17
-5.23553929e-17
-5.13430152e-17
-4.9236191e-17
-5.30484311e-17
-4.89089658e-17
-5.43408149e-17
-5.22739029e-17
-5.24904338e-17
-5.605895e-17
-5.76041219e-17
-5.85976534e-17
-6.0508516e-17
-6.02189541e-17
-5.96991248e-17
-6.21227914e-17
-6.28188965e-17
-6.21917864e-17
-6.1039282e-17
-6.05309827e-17
-6.21111034e-17
-6.00812748e-17
-6.01780893e-17
-6.39711384e-17
-6.17568757e-17
-6.12443692e-17
-6.04711652e-17
-6.03726734e-17
-6.42963275e-17
-6.4622232e-17
-6.02811008e-17
-6.23570851e-17
-6.39362162e-17
-6.51721316e-17
-6.42161443e-17
-6.716818e-17
-6.95145885e-17
-6.85455815e-17
-6.96981988e-17
-6.93571374e-17
-6.88122508e-17
-6.73905544e-17
-6.70347033e-17
-6.7042418e-17
-6.32329739e-17
-6.73881482e-17
-6.8573229e-17
-7.04896538e-17
-6.76751795e-17
-6.69763484e-17
-6.67241134e-17
-6.78036821e-17
-6.73302293e-17
-7.00091228e-17
-7.1086917e-17
-6.57091626e-17
-6.72054536e-17
-6.81309739e-17
-6.80100672e-17
-6.52661914e-17
-6.61701015e-17
-6.53229821e-17
-6.82515831e-17
-6.93213263e-17
-6.96123356e-17
-7.28822568e-17
-6.9803258e-17
-7.20700485e-17
-7.46393115e-17
-7.3155273e-17
-7.75353198e-17
-7.67461614e-17
-7.61857706e-17
-7.814487e-17
-7.95389649e-17
-8.05074914e-17
-7.89048594e-17
-7.88791101e-17
-8.13015051e-17
-8.11880262e-17
-8.24375768e-17
-8.06441026e-17
-8.14766449e-17
-8.13824e-17
-8.07722443e-17
-7.92494539e-17
-7.90787561e-17
-7.98345882e-17
-7.86157298e-17
-8.03582452e-17
-7.95930607e-17
-7.86193707e-17
-7.92478062e-17
-7.83438581e-17
-7.96393135e-17
-8.29316436e-17
-8.27444881e-17
-7.88919243e-17
-8.02666534e-17
-7.68033524e-17
-7.60043891e-17
-7.56850472e-17
-7.37796977e-17
-7.42616167e-17
-7.223583e-17
-7.52870353e-17
-7.44844859e-17
-7.69057576e-17
-8.16787693e-17
-8.16445126e-17
-8.39148502e-17
-8.53236685e-17
-8.27126037e-17
-8.19564437e-17
-8.51233057e-17
-8.47255226e-17
-8.56327959e-17
-8.59975117e-17
-8.5142554e-17
-8.48644638e-17
-8.33032041e-17
-8.54147288e-17
-8.23788309e-17
-8.47775611e-17
-8.22992984e-17
-8.36076191e-17
-8.37380513e-17
-8.26383907e-17
-8.03728279e-17
-7.88059273e-17
-7.7575341e-17
-7.52111587e-17
-7.74416385e-17
-7.78362602e-17
-7.53939886e-17
-7.7439479e-17
-7.7990225e-17
-7.69505067e-17
-7.82772357e-17
-7.95600734e-17
-7.61509486e-17
-7.3933939e-17
-7.30124827e-17
-7.03953044e-17
-6.95437407e-17
-6.59641243e-17
-6.99942891e-17
-7.02630225e-17
-6.94891226e-17
-7.21506414e-17
-6.92693515e-17
-7.19416835e-17
-6.91784517e-17
-7.24657235e-17
-7.03618724e-17
-7.17035246e-17
-6.97014375e-17
-6.65962211e-17
-6.43704078e-17
-6.60047888e-17
-6.95502411e-17
-6.92620101e-17
-6.92404812e-17
-6.76865923e-17
-6.46115994e-17
-6.47954519e-17
-6.44793903e-17
-6.85436368e-17
-7.00798974e-17
-6.68421582e-17
-6.64229656e-17
-6.40356385e-17
-6.61209882e-17
-6.19516935e-17
-6.39083096e-17
-6.38311759e-17
-6.46196854e-17
-6.36205629e-17
-6.42033909e-17
-6.0932495e-17
-6.20220494e-17
-6.33239144e-17
-6.39246071e-17
-6.15351274e-17
-5.95384906e-17
-6.20598165e-17
-5.99654982e-17
-6.02726335e-17
-6.1572438e-17
-5.95999684e-17
-6.18518899e-17
-5.86582117e-17
-5.92328431e-17
-5.60800497e-17
-5.92471411e-17
-5.89964478e-17
-6.00581242e-17
-5.71872713e-17
-6.00126331e-17
-6.15090559e-17
-6.17315898e-17
-6.05953113e-17
-5.86107261e-17
-5.1710668e-17
-5.53927321e-17
-5.67403093e-17
-5.85639822e-17
-5.80955146e-17
-6.19886757e-17
-6.29512696e-17
-6.44501336e-17
-6.3367958e-17
-6.36399004e-17
-6.62947311e-17
-6.59419098e-17
-6.66578881e-17
-6.62448435e-17
-6.43382156e-17
-6.60104232e-17
-6.42542637e-17
-6.5768039e-17
-6.28067822e-17
-6.0678986e-17
-6.33821826e-17
-6.2779473e-17
-6.50773842e-17
-6.57801291e-17
-6.62528193e-17
-6.54374975e-17
-6.72246786e-17
-6.77244551e-17
-6.85043798e-17
-6.86114413e-17
-6.91171193e-17
-6.7280526e-17
-6.98803613e-17
-6.95607569e-17
-6.8775274e-17
-6.94433091e-17
-7.02418559e-17
-7.24127935e-17
-6.99144901e-17
-6.94165961e-17
-7.07156852e-17
-6.82926376e-17
-6.66541007e-17
-6.45410586e-17
-6.40000035e-17
-6.98133807e-17
-7.06234893e-17
-7.12922122e-17
-6.86926348e-17
-7.02433997e-17
-6.80704189e-17
-6.83606405e-17
-7.06975659e-17
-6.95185255e-17
-6.93022413e-17
-6.79095518e-17
-6.92249682e-17
-6.8774483e-17
-6.69701002e-17
-6.67500437e-17
-6.72598482e-17
-6.59509735e-17
-6.80105258e-17
-6.54799686e-17
-6.61034427e-17
-6.19059108e-17
-6.06708598e-17
-6.23917161e-17
-6.14115412e-17
-6.24295725e-17
-6.11741694e-17
-6.05302676e-17
-6.13225542e-17
-6.12224871e-17
-6.2593344e-17
-5.925304e-17
-5.90140209e-17
-6.09924301e-17
-6.2747163e-17
-5.96320544e-17
-5.68080853e-17
-5.72849308e-17
-5.60571552e-17
-5.82675505e-17
-5.9246719e-17
-5.74061823e-17
-5.61611569e-17
-5.74678947e-17
-5.53424909e-17
-5.56208126e-17
-5.37889136e-17
-5.25151821e-17
-5.31753955e-17
-5.35263505e-17
-5.40251864e-17
-5.69255772e-17
-5.57552174e-17
-5.64750745e-17
-5.56542227e-17
-5.50853226e-17
-5.67487124e-17
-5.36465217e-17
-5.80333453e-17
-5.49570406e-17
-5.53813022e-17
-4.94835166e-17
-5.24635842e-17
-5.18532749e-17
-5.11775185e-17
-5.19479599e-17
-5.07447603e-17
-5.20944606e-17
-5.1096689e-17
-4.74838193e-17
-4.76942399e-17
-4.4484744e-17
-4.22270379e-17
-4.203117e-17
-4.09904965e-17
-4.11390473e-17
-3.92148306e-17
-3.90109283e-17
-3.7415099e-17
-3.90839176e-17
-3.69451108e-17
-3.34236561e-17
-3.46276254e-17
-3.16119683e-17
-3.24887953e-17
-2.82122726e-17
-2.75019221e-17
-2.84269216e-17
-2.74494477e-17
-2.88214951e-17
-2.73997363e-17
-2.58549403e-17
-2.42464147e-17
-2.38933965e-17
-2.18082247e-17
-2.01027759e-17
-2.03013523e-17
-1.72793132e-17
-1.74297039e-17
-1.46696327e-17
-1.80078415e-17
-1.77442671e-17
-1.83181332e-17
-1.82366653e-17
-1.95725242e-17
-1.82912395e-17
-1.7219477e-17
-1.8624768e-17
-1.62854722e-17
-1.35574577e-17
-1.43847255e-17
-1.42214432e-17
-1.36059785e-17
-1.38458027e-17
-1.3849941e-17
-1.05987555e-17
-1.48989619e-17
-1.47165168e-17
-1.18645484e-17
-1.27680763e-17
-1.40610414e-17
-1.15613431e-17
-8.52786472e-18
-7.3739252e-18
-1.00600573e-17
-8.19820404e-18
-6.2968216e-18
-1.0265331e-17
-6.48747083e-18
-7.90725166e-18
-6.97293918e-18
3.57973546e-19
-2.37184907e-18
-6.12587034e-18
-5.0823017e-18
-6.8061259e-18
-7.22393863e-18
-4.25562183e-18
-4.36665061e-18
-9.55237378e-18
-5.17404094e-18
-1.03185064e-17
-7.53073391e-18
-3.14667929e-18
-4.95726613e-18
-5.40620629e-18
-5.42713866e-18
-3.5323626e-18
-4.24799327e-18
-6.81879037e-18
-9.66684138e-19
-5.08611147e-19
-2.59881716e-19
2.01956077e-19
-1.84644212e-18
-4.4365872e-19
5.93489431e-18
-1.5288973e-18
1.03924844e-18
4.52672455e-18
3.82325573e-18
6.33227058e-18
6.52754314e-18
5.47997548e-18
4.14450079e-18
9.3216184e-18
5.69911099e-18
2.53907225e-18
4.9810426e-18
6.30853084e-18
3.21646093e-18
2.41237428e-18
3.8164421e-18
2.44420943e-18
7.27102253e-18
6.63200625e-18
1.00679893e-17
1.13957297e-17
1.16854137e-17
1.66236187e-17
1.37454391e-17
1.18944641e-17
9.08425192e-18
1.14110556e-17
1.39295321e-17
1.69557526e-17
1.721281e-17
1.82423305e-17
1.75916616e-17
1.7843621e-17
1.94839293e-17
2.10143624e-17
2.28525383e-17
2.61533234e-17
2.81037434e-17
2.93810078e-17
2.8108275e-17
3.14221952e-17
3.37763012e-17
2.98894121e-17
2.91076349e-17
3.21703672e-17
3.42930611e-17
3.39216838e-17
3.60512789e-17
3.7947718e-17
4.18324783e-17
4.38381928e-17
4.55423509e-17
4.87903375e-17
4.5681579e-17
4.86792542e-17
5.36872483e-17
5.15781686e-17
5.94489488e-17
6.02318764e-17
6.07513565e-17
6.51652761e-17
6.78468183e-17
7.86979314e-17
7.99867532e-17
9.00331261e-17
9.54912038e-17
9.96291811e-17
1.06416546e-16
1.11517685e-16
1.22200136e-16
1.28526368e-16
1.39487777e-16
1.4771195e-16
1.59698444e-16
1.68915942e-16
1.8567257e-16
1.95049149e-16
2.10855334e-16
2.28689085e-16
2.43479925e-16
2.56467375e-16
2.78319674e-16
3.0002826e-16
3.20089569e-16
3.42830535e-16
3.66458037e-16
3.91326286e-16
4.13344005e-16
4.46608543e-16
4.82418091e-16
5.15741183e-16
5.52331961e-16
5.94631205e-16
6.41924423e-16
6.85960731e-16
7.35343846e-16
7.92011721e-16
8.49662411e-16
9.16626554e-16
9.86067607e-16
1.05910527e-15
1.13970426e-15
1.22389217e-15
1.3184044e-15
1.41530973e-15
1.52341697e-15
1.63697693e-15
1.76142966e-15
1.89434017e-15
2.03535134e-15
2.19112877e-15
2.35305007e-15
2.52990978e-15
2.72487676e-15
2.92366411e-15
3.14146328e-15
3.37935941e-15
3.63253887e-15
3.90980815e-15
4.19825475e-15
4.51423881e-15
4.85295547e-15
5.21635638e-15
5.60974828e-15
6.03027749e-15
6.47957976e-15
6.96394035e-15
7.48565327e-15
8.04686062e-15
8.64608422e-15
9.29159225e-15
9.98345632e-15
1.07269832e-14
1.15256079e-14
1.23840383e-14
1.33018757e-14
1.42837775e-14
1.53417248e-14
1.64767333e-14
1.7695924e-14
1.89987952e-14
2.03977715e-14
2.19007176e-14
2.35092146e-14
2.52394599e-14
2.70897942e-14
2.90752333e-14
3.12007479e-14
3.34815397e-14
3.59245259e-14
3.85361333e-14
4.13445577e-14
4.43464235e-14
4.75616127e-14
5.10085874e-14
5.4699156e-14
5.86537001e-14
6.28872092e-14
6.74207843e-14
7.22707094e-14
7.74636947e-14
8.30207256e-14
8.89656727e-14
9.53287132e-14
1.02136002e-13
1.09413546e-13
1.17203964e-13
1.25534642e-13
1.34445797e-13
1.43971987e-13
1.54159323e-13
1.65050451e-13
1.76691977e-13
1.89134572e-13
2.02431712e-13
2.1664049e-13
2.31816956e-13
2.48037841e-13
2.65362629e-13
2.83863335e-13
3.03625621e-13
3.24730662e-13
3.47260623e-13
3.71311683e-13
3.96991677e-13
4.24400758e-13
4.53649104e-13
4.84864616e-13
5.1816459e-13
5.53693894e-13
5.91598339e-13
6.32021323e-13
6.75130144e-13
7.211036e-13
7.70118183e-13
8.22372381e-13
8.78077513e-13
9.37442317e-13
1.00070779e-12
1.06813024e-12
1.13996188e-12
1.21648109e-12
1.29799252e-12
1.38480693e-12
1.47726108e-12
1.57570107e-12
1.68051043e-12
1.79208319e-12
1.91084008e-12
2.03723164e-12
2.17172997e-12
2.31483748e-12
2.46708645e-12
2.62903796e-12
2.80128848e-12
2.98447791e-12
3.17927366e-12
3.38637191e-12
3.60653724e-12
3.84056217e-12
4.08928038e-12
4.35358608e-12
4.63441394e-12
4.93276329e-12
5.24969056e-12
5.58630384e-12
5.94378048e-12
6.32336317e-12
6.72636247e-12
7.15417675e-12
7.60826792e-12
8.09018782e-12
8.60157205e-12
9.14415408e-12
9.71975825e-12
1.03303148e-11
1.09778645e-11
1.16645476e-11
1.23926365e-11
1.3164526e-11
1.39827292e-11
1.48499219e-11
1.57689057e-11
1.67426469e-11
1.77742599e-11
1.88670391e-11
2.00244518e-11
2.12501478e-11
2.25479882e-11
2.39220184e-11
2.53765125e-11
2.69159731e-11
2.85451247e-11
3.02689634e-11
3.20927318e-11
3.40219504e-11
3.6062435e-11
3.82202937e-11
4.05019482e-11
4.29141666e-11
4.5464048e-11
4.8159071e-11
5.10070825e-11
5.40163378e-11
5.71955067e-11
6.05536975e-11
6.41004666e-11
6.78458689e-11
7.18004448e-11
7.59752692e-11
8.03819575e-11
8.50327076e-11
8.99403097e-11
9.51181761e-11
1.00580386e-10
1.06341685e-10
1.12417549e-10
1.1882419e-10
1.25578596e-10
1.32698574e-10
1.40202777e-10
1.48110731e-10
1.56442899e-10
1.65220693e-10
1.74466524e-10
1.84203861e-10
1.94457241e-10
2.0525235e-10
2.16616049e-10
2.28576419e-10