/*--------------------------------*- C++ -*----------------------------------*\
| =========                 |                                                 |
| \\      /  F ield         | OpenFOAM: The Open Source CFD Toolbox           |
|  \\    /   O peration     | Version:  2206                                  |
|   \\  /    A nd           | Website:  www.openfoam.com                      |
|    \\/     M anipulation  |                                                 |
\*---------------------------------------------------------------------------*/
FoamFile
{
    version     2.0;
    format      ascii;
    arch        "LSB;label=32;scalar=64";
    class       volScalarField;
    location    "1.58e-05";
    object      PVsourcePV;
}
// * * * * * * * * * * * * * * * * * * * * * * * * * * * * * * * * * * * * * //

dimensions      [1 -3 -1 0 0 0 0];

internalField   nonuniform List<scalar> 
3183
(
0
0
0
0
0
0
0
0
0
0
0
0
0
0
0
0
0
0
0
0
0
0
0
0
0
0
0
0
0
0
0
0
0
0
0
0
0
0
0
0
0
0
0
0
0
0
0
0
0
0
0
0
0
0
0
0
0
0
0
0
0
0
0
0
0
0
0
0
0
0
0
0
0
0
0
0
0
0
0
0
0
0
0
0
0
0
0
0
0
0
0
0
0
0
0
0
0
0
0
0
0
0
0
0
0
0
0
0
0
0
0
0
0
0
0
0
0
0
0
0
0
0
0
0
0
0
0
0
0
0
0
0
0
0
0
0
0
0
0
0
0
0
0
0
0
0
0
0
0
0
0
0
0
0
0
0
0
0
0
0
0
0
0
0
0
0
0
0
0
0
0
0
0
0
0
0
0
0
0
0
0
0
0
0
0
0
0
0
0
0
0
0
0
0
0
0
0
0
0
0
0
0
0
0
0
0
0
0
0
0
0
0
0
0
0
0
0
0
0
0
0
0
0
0
0
0
0
0
0
0
0
0
0
0
0
0
0
0
0
0
0
0
0
0
0
0
0
0
0
0
0
0
0
0
0
0
0
0
0
0
0
0
0
0
0
0
0
0
0
0
0
0
0
0
0
0
0
0
0
0
0
0
0
0
0
0
0
0
0
0
0
0
0
0
0
0
0
0
0
0
0
0
0
0
0
0
0
0
0
0
0
0
0
0
0
0
0
0
0
0
0
0
0
0
0
0
0
0
0
0
0
0
0
0
0
0
0
0
0
0
0
0
0
0
0
0
0
0
0
0
0
0
0
0
0
0
0
0
0
0
0
0
0
0
0
0
0
0
0
0
0
0
0
0
0
0
0
0
0
0
0
0
0
0
0
0
0
0
0
0
0
0
0
0
0
0
0
0
0
0
0
0
0
0
0
0
0
0
0
0
0
0
0
0
0
0
0
0
0
0
0
0
0
0
0
0
0
0
0
0
0
0
0
0
0
0
0
0
0
0
0
0
0
0
0
0
0
0
0
0
0
0
0
0
0
0
0
0
0
0
0
0
0
0
0
0
0
0
0
0
0
0
0
0
0
0
0
0
0
0
0
0
0
0
0
0
0
0
0
0
0
0
0
0
0
0
0
0
0
0
0
0
0
0
0
0
0
0
0
0
0
0
0
0
0
0
0
0
0
0
0
0
0
0
0
0
0
0
0
0
0
0
0
0
0
0
0
0
0
0
0
0
0
0
0
0
0
0
0
0
0
0
0
0
0
0
0
0
0
0
0
0
0
0
0
0
0
0
0
0
0
0
0
0
0
0
0
0
0
0
0
0
0
0
0
0
0
0
0
0
0
0
0
0
0
0
0
0
0
0
0
0
0
0
0
0
0
0
0
0
0
0
0
0
0
0
0
0
0
0
0
0
0
0
0
0
0
0
0
0
0
0
0
0
0
0
0
0
0
0
0
0
0
0
0
0
0
0
0
0
0
0
0
0
0
0
0
0
0
0
0
0
0
0
0
0
0
0
0
0
0
0
0
0
0
0
0
0
0
0
0
0
0
0
0
0
0
0
0
0
0
0
0
0
0
0
0
0
0
0
0
0
0
0
0
0
0
0
0
0
0
0
0
0
0
0
0
0
0
0
0
0
0
0
0
0
0
0
0
0
0
0
0
0
0
0
0
0
0
0
0
0
0
0
0
0
0
0
0
0
0
0
0
0
0
0
0
0
0
0
0
0
0
0
0
0
0
0
0
0
0
0
0
0
0
0
0
0
0
0
0
0
0
0
0
0
0
0
0
0
0
0
0
0
0
0
0
0
0
0
0
0
0
0
0
0
0
0
0
0
0
0
0
0
0
0
0
0
0
0
0
0
0
0
0
0
0
0
0
0
0
0
0
0
0
0
0
0
0
0
0
0
0
0
0
0
0
0
0
0
0
0
0
0
0
0
0
0
0
0
0
0
0
0
0
0
0
0
0
0
0
0
0
0
0
0
0
0
0
0
0
0
0
0
0
0
0
0
0
0
0
0
0
0
0
0
0
0
0
0
0
0
0
0
0
0
0
0
0
0
0
0
0
0
0
0
0
0
0
0
0
0
0
0
0
0
0
0
0
0
0
0
0
0
0
0
0
0
0
0
0
0
0
0
0
0
0
0
0
0
0
0
0
0
0
0
0
0
0
0
0
0
0
0
0
0
0
0
0
0
0
0
0
0
0
0
0
0
0
0
0
0
0
0
0
0
0
0
0
0
0
0
0
0
0
0
0
0
0
0
0
0
0
0
0
0
0
0
0
0
0
0
0
0
0
0
0
0
0
0
0
0
0
0
0
0
0
0
0
0
0
0
0
0
0
0
0
0
0
0
0
0
0
0
0
0
0
0
0
0
0
0
0
0
0
0
0
0
0
0
0
0
0
0
0
0
0
0
0
0
0
0
0
0
0
0
0
0
0
0
0
0
0
0
0
0
0
0
0
0
0
0
0
0
0
0
0
0
0
0
0
0
0
0
0
0
0
0
0
0
0
0
0
0
0
0
0
0
0
0
0
0
0
0
0
0
0
0
0
0
0
0
0
0
0
0
0
0
0
0
0
0
0
0
0
0
0
0
0
0
0
0
0
0
0
0
0
0
0
0
0
0
0
0
0
0
0
0
0
0
0
0
0
0
0
0
0
0
0
0
0
0
0
0
0
0
0
0
0
0
0
0
0
0
0
0
0
0
0
0
0
0
0
0
0
0
0
0
0
0
0
0
0
0
0
0
0
0
0
0
0
0
0
0
0
0
0
0
0
0
0
0
0
0
0
0
0
0
0
0
0
0
0
0
0
0
0
0
0
0
0
0
0
0
0
0
0
0
0
0
0
0
0
0
0
0
0
0
0
0
0
0
0
0
0
0
0
0
0
0
0
0
0
0
0
0
0
0
0
0
0
0
0
0
0
0
0
0
0
0
0
0
0
0
0
0
0
0
0
0
0
0
0
0
0
0
0
0
0
0
0
0
0
0
0
0
0
0
0
0
0
0
0
0
0
0
0
0
0
0
0
0
0
0
0
0
0
0
0
0
0
0
0
0
0
0
0
0
0
0
0
0
0
0
0
0
0
0
0
0
0
0
0
0
0
0
0
0
0
0
0
0
0
0
0
0
0
0
0
0
0
0
0
0
0
0
0
0
0
0
0
0
0
0
0
0
0
0
0
0
0
0
0
0
0
0
0
0
0
0
0
0
0
0
0
0
0
0
0
0
0
0
0
0
0
0
0
0
0
0
0
0
0
0
0
0
0
0
0
0
0
0
0
0
0
0
0
0
0
0
0
0
0
0
0
0
0
0
0
0
0
0
0
0
0
0
0
0
0
0
0
0
0
0
0
0
0
0
0
0
0
0
0
0
0
0
0
0
0
0
0
0
0
0
0
0
0
0
0
0
0
0
0
0
0
0
0
0
0
0
0
0
0
0
0
0
0
0
0
0
0
0
0
0
0
0
0
0
0
0
0
0
0
0
0
0
0
0
0
0
0
0
0
0
0
0
0
0
0
0
0
0
0
0
0
0
0
0
0
0
0
0
0
0
0
0
0
0
0
0
0
0
0
0
0
0
0
0
0
0
0
0
0
0
0
0
0
0
0
0
0
0
0
0
0
0
0
0
0
0
0
0
0
0
0
0
0
0
0
0
0
0
0
0
0
0
0
0
0
0
0
0
0
0
0
0
0
0
0
0
0
0
0
0
0
0
0
0
0
0
0
0
0
0
0
0
0
0
0
0
0
0
0
0
0
0
0
0
0
0
0
0
0
0
0
0
0
0
0
0
0
0
0
0
0
0
0
0
0
0
0
0
0
0
0
0
0
0
0
0
0
0
0
0
0
0
0
0
0
0
0
0
0
0
0
0
0
0
0
0
0
0
0
0
0
0
0
0
0
0
0
0
0
0
0
0
0
0
0
0
0
0
0
0
0
0
0
0
0
0
0
0
0
0
0
0
0
0
0
0
0
0
0
0
0
0
0
0
0
0
0
0
0
0
0
0
0
0
0
0
0
0
0
0
0
0
0
0
0
0
0
0
0
0
0
0
0
0
0
0
0
0
0
0
0
0
0
0
0
0
0
0
0
0
0
0
0
0
0
0
0
0
0
0
0
0
0
0
0
0
0
0
0
0
0
0
0
0
0
0
0
0
0
0
0
0
0
0
0
0
0
0
0
0
0
0
0
0
0
0
0
0
0
0
0
0
0
0
0
0
0
0
0
0
0
0
0
0
0
0
0
0
0
0
0
0
0
0
0
0
0
0
0
0
0
0
0
0
0
0
0
0
0
0
0
0
0
0
0
0
0
0
0
0
0
0
0
0
0
0
0
0
0
0
0
0
0
0
0
0
0
0
0
0
0
0
0
0
0
0
0
0
0
0
0
0
0
0
0
0
0
0
0
0
0
0
0
0
0
0
0
0
0
0
0
0
0
0
0
0
0
0
0
0
0
0
0
0
0
0
0
0
0
0
0
0
0
0
0
0
0
0
0
0
0
0
0
0
0
0
0
0
0
0
0
0
0
0
0
0
0
0
0
0
0
0
0
0
0
0
0
0
0
0
0
0
0
0
0
0
0
0
0
0
0
0
0
0
0
0
0
0
0
0
0
0
0
0
0
0
0
0
0
0
0
0
0
0
0
0
0
0
0
0
0
0
0
0
0
0
0
0
0
0
0
0
0
0
0
0
0
0
0
0
0
0
0
0
0
0
0
0
0
0
0
0
0
0
0
0
0
0
0
0
0
0
0
0
0
0
0
0
0
0
0
0
0
0
0
0
0
0
0
0
0
0
0
0
0
0
0
0
0
0
0
0
0
0
0
0
0
0
0
0
0
0
0
0
0
0
0
0
0
0
0
0
0
0
0
0
0
0
0
0
0
0
0
0
0
0
0
0
0
0
0
0
0
0
0
0
0
0
0
0
0
0
0
0
0
0
0
0
0
0
0
0
0
0
0
0
0
0
0
0
0
0
0
0
0
0
0
0
0
0
0
0
0
0
0
0
0
0
0
0
0
0
0
0
0
0
0
0
0
0
0
0
0
0
0
0
0
0
0
0
0
0
0
0
0
0
0
0
0
0
0
0
0
0
0
0
0
0
0
0
0
0
0
0
0
0
0
0
0
0
0
0
0
0
0
0
0
0
0
0
0
0
0
0
0
0
0
0
0
0
0
0
0
0
0
0
0
0
0
0
0
0
0
0
0
0
0
0
0
0
0
0
0
0
0
0
0
0
0
0
0
0
0
0
0
0
0
0
0
0
0
0
0
0
0
0
0
0
0
0
0
0
0
0
0
0
0
0
0
0
0
0
0
0
0
0
0
0
0
4.87469041e-299
2.13512438e-299
2.76809346e-296
1.22821764e-296
1.55618119e-293
6.99332189e-294
8.66135895e-291
3.94144101e-291
4.77263695e-288
2.1988026e-288
2.60361353e-285
1.21420244e-285
1.40617356e-282
6.63704076e-283
7.51871123e-280
3.59089677e-280
3.98003585e-277
1.92325965e-277
2.08576773e-274
1.01967403e-274
1.08212096e-271
5.34962734e-272
5.55790789e-269
2.77953743e-269
2.8259635e-266
1.42940537e-266
1.42244226e-263
7.2784563e-264
7.08774501e-261
3.666453e-261
3.49605719e-258
1.82811012e-258
1.70701306e-255
9.0219571e-256
8.25036371e-253
4.40689988e-253
3.94708544e-250
2.13054417e-250
1.86911302e-247
1.01944265e-247
8.76067944e-245
4.82768561e-245
4.06415194e-242
2.26259671e-242
1.86602678e-239
1.0494323e-239
8.47942853e-237
4.81689236e-237
3.81329288e-234
2.18791206e-234
1.69707793e-231
9.83393555e-232
7.47401041e-229
4.3736356e-229
3.25714576e-226
1.92467641e-226
1.4045351e-223
8.38018977e-224
5.99265441e-221
3.61003195e-221
2.52973726e-218
1.53853821e-218
1.05652169e-215
6.4866949e-216
4.36520298e-213
2.70541178e-213
1.78413865e-210
1.11612706e-210
7.21314859e-208
4.55447924e-208
2.88447057e-205
1.8381541e-205
1.14083792e-202
7.3369449e-203
4.46240333e-200
2.89607323e-200
1.7261157e-197
1.1304055e-197
6.60229729e-195
4.36272255e-195
2.49695602e-192
1.66473972e-192
9.33646612e-190
6.28009046e-190
3.45122864e-187
2.34196395e-187
1.26109208e-184
8.63280044e-185
4.55472855e-182
3.14514941e-182
1.62584835e-179
1.13242184e-179
5.73531107e-177
4.02911995e-177
1.99916768e-174
1.41645597e-174
6.88511037e-172
4.9197272e-172
2.3425796e-169
1.68801503e-169
7.87317689e-167
5.72083361e-167
2.61352307e-164
1.91486613e-164
8.56780896e-162
6.32936177e-162
2.77347731e-159
2.0657034e-159
8.86406533e-157
6.6558641e-157
2.79662688e-154
2.11694177e-154
8.70896802e-152
6.6453592e-152
2.67648158e-149
2.05857941e-149
8.11632399e-147
6.2919935e-147
2.42818305e-144
1.89718391e-144
7.1656711e-142
5.64231392e-142
2.08549489e-139
1.65483513e-139
5.98492076e-137
4.785438e-137
1.69325169e-134
1.36418893e-134
4.72184521e-132
3.83288716e-132
1.29759336e-129
1.06117076e-129
3.51323906e-127
2.89439178e-127
9.36958639e-125
7.77576339e-125
2.46078556e-122
2.05702172e-122
6.36297311e-120
5.35718441e-120
1.61944713e-117
1.3731658e-117
4.05579488e-115
3.46321571e-115
9.99227338e-113
8.5917617e-113
2.42104256e-110
2.09604693e-110
5.76706314e-108
5.0268918e-108
1.35014004e-105
1.18477189e-105
3.10545506e-103
2.7431928e-103
7.01514786e-101
6.23743919e-101
1.55578e-98
1.39225409e-98
3.38598582e-96
3.04942399e-96
7.22876422e-94
6.55118281e-94
1.51318199e-91
1.37984237e-91
3.1042858e-89
2.84800889e-89
6.2381969e-87
5.75754974e-87
1.22730901e-84
1.13943114e-84
2.36266951e-82
2.20621637e-82
4.44782724e-80
4.17693994e-80
8.183027e-78
7.72756133e-78
1.4703088e-75
1.39606869e-75
2.57821659e-73
2.46114661e-73
4.40872282e-71
4.23057272e-71
7.34567e-69
7.08487995e-69
1.19149401e-66
1.15491909e-66
1.87967136e-64
1.83079879e-64
2.88109375e-62
2.81935595e-62
4.28586444e-60
4.21298312e-60
6.18024079e-58
6.10127782e-58
8.62767939e-56
8.55141058e-56
1.16436654e-53
1.15808304e-53
1.51677563e-51
1.51247026e-51
1.90394097e-49
1.90045522e-49
2.298675e-47
2.29129071e-47
2.66379275e-45
2.64467765e-45
2.95615725e-43
2.92054156e-43
3.13357972e-41
3.0956727e-41
3.16349592e-39
3.16338398e-39
3.03156251e-37
3.02284961e-37
2.74823006e-35
2.73412537e-35
2.34650935e-33
2.33280026e-33
1.87778413e-31
1.86722924e-31
1.40037755e-29
1.39064043e-29
9.66726466e-28
9.56986281e-28
6.12792499e-26
6.01904188e-26
3.5319894e-24
3.52969612e-24
1.82761496e-22
1.82472821e-22
8.36542809e-21
8.34388459e-21
3.31767334e-19
3.3050164e-19
1.10879362e-17
1.10163392e-17
3.00042045e-16
3.00270585e-16
6.17157487e-15
6.20255172e-15
1.07011482e-10
1.08073836e-10
0.00389260501
0.0173019896
0.516468592
0.626525374
0.677075328
0.612158885
0.217967905
0.179552369
0.0348047252
0.0305601619
0.00793195543
0.00720055848
0.00159524894
0.00150535913
0.000288421094
0.000282489573
4.85401215e-05
4.85146443e-05
8.096938e-06
8.1160923e-06
1.73685007e-06
1.73831672e-06
8.09413144e-07
8.0936878e-07
6.83448861e-07
6.83500417e-07
6.67554374e-07
6.67560061e-07
6.65662763e-07
6.65663037e-07
6.6544921e-07
6.65450325e-07
6.65426596e-07
6.6542801e-07
6.65423683e-07
6.65426232e-07
6.65423541e-07
6.65424131e-07
6.65424286e-07
6.65422968e-07
6.65425028e-07
6.65423391e-07
6.65425027e-07
6.65423983e-07
6.65424487e-07
6.65424601e-07
6.65424805e-07
6.65424583e-07
6.65425624e-07
6.65424433e-07
6.65425087e-07
6.65424591e-07
6.65424962e-07
6.65424963e-07
6.65424752e-07
6.65424999e-07
6.65424309e-07
6.65425884e-07
6.65423994e-07
6.65424945e-07
6.65424575e-07
6.65425237e-07
6.65424119e-07
6.65423944e-07
6.65424595e-07
6.654246e-07
6.65424182e-07
6.65425022e-07
6.65424099e-07
6.65425471e-07
6.65423332e-07
6.65424145e-07
6.65424e-07
6.65424875e-07
6.65423804e-07
6.65424995e-07
6.65424732e-07
6.65425188e-07
6.65423895e-07
6.65425817e-07
6.65423846e-07
6.6542482e-07
6.65424426e-07
6.65424589e-07
6.65424714e-07
6.65423926e-07
6.65425511e-07
6.65423929e-07
6.65425367e-07
6.65422421e-07
6.65426367e-07
6.65423623e-07
6.6542572e-07
6.65424061e-07
6.65425956e-07
6.65423952e-07
6.65425218e-07
6.65425005e-07
6.65425139e-07
6.65425073e-07
6.6542449e-07
6.65424901e-07
6.65425004e-07
6.65424886e-07
6.6542477e-07
6.65425079e-07
6.65424862e-07
6.65424047e-07
6.65424408e-07
6.65424799e-07
6.65424105e-07
6.65425121e-07
6.65424373e-07
6.65424444e-07
6.65424126e-07
6.65424626e-07
6.65423706e-07
6.6542529e-07
6.65423593e-07
6.65426345e-07
6.65423618e-07
6.65425258e-07
6.65423513e-07
6.65425062e-07
6.65424562e-07
6.65425044e-07
6.65424195e-07
6.65425887e-07
6.65424565e-07
6.6542559e-07
6.65425296e-07
6.65424911e-07
6.65426026e-07
6.6542543e-07
6.65424712e-07
6.6542639e-07
6.65424593e-07
6.65425498e-07
6.65425027e-07
6.65424416e-07
6.65424671e-07
6.65424837e-07
6.654238e-07
6.65425572e-07
6.65423385e-07
6.65425224e-07
6.65423571e-07
6.65425108e-07
6.65425074e-07
6.65423742e-07
6.65425767e-07
6.65423889e-07
6.6542576e-07
6.65423844e-07
6.65425739e-07
6.65425075e-07
6.65424963e-07
6.65424648e-07
6.65424729e-07
6.6542427e-07
6.65426642e-07
6.65423117e-07
6.6542694e-07
6.65423672e-07
6.65427223e-07
6.65423822e-07
6.65425644e-07
6.65425157e-07
6.65424523e-07
6.65424434e-07
6.65424334e-07
6.65424266e-07
6.65424607e-07
6.65425278e-07
6.6542425e-07
6.65424846e-07
6.6542539e-07
6.65425211e-07
6.65425396e-07
6.6542537e-07
6.65425734e-07
6.65425962e-07
6.65425147e-07
6.65425808e-07
6.65424725e-07
6.65424615e-07
6.65425379e-07
6.65424728e-07
6.65425428e-07
6.65424385e-07
6.65426161e-07
6.65423908e-07
6.65425522e-07
6.65424703e-07
6.65425826e-07
6.6542419e-07
6.65424953e-07
6.65424652e-07
6.65425332e-07
6.65424217e-07
6.65426925e-07
6.65423363e-07
6.65426542e-07
6.65424362e-07
6.65425407e-07
6.65425116e-07
6.65424676e-07
6.65425064e-07
6.65426006e-07
6.65425528e-07
6.65425132e-07
6.65425538e-07
6.65425169e-07
6.65425333e-07
6.65425578e-07
6.65425416e-07
6.65424734e-07
6.65425004e-07
6.65424683e-07
6.65425979e-07
6.65424859e-07
6.65425147e-07
6.6542538e-07
6.65425558e-07
6.65425637e-07
6.65424792e-07
6.65427162e-07
6.65423963e-07
6.65425679e-07
6.65425866e-07
6.65424911e-07
6.6542587e-07
6.65424663e-07
6.65425872e-07
6.65425279e-07
6.65425947e-07
6.65425002e-07
6.65426046e-07
6.65424985e-07
6.65425851e-07
6.654259e-07
6.65426686e-07
6.65424236e-07
6.65427203e-07
6.65423771e-07
6.65426291e-07
6.65424559e-07
6.65425233e-07
6.65425505e-07
6.65423679e-07
6.65426175e-07
6.65424497e-07
6.65425686e-07
6.65424752e-07
6.65426118e-07
6.65425331e-07
6.65425003e-07
6.65425711e-07
6.65425829e-07
6.65425757e-07
6.65425701e-07
6.65425184e-07
6.65425887e-07
6.65424927e-07
6.65425971e-07
6.65424352e-07
6.65425788e-07
6.65424732e-07
6.65425534e-07
6.65424018e-07
6.65426649e-07
6.65424185e-07
6.65425602e-07
6.65425744e-07
6.65425767e-07
6.65425751e-07
6.65425301e-07
6.65425735e-07
6.65425315e-07
6.65425015e-07
6.65425875e-07
6.65424943e-07
6.65425152e-07
6.65425646e-07
6.65424892e-07
6.65425283e-07
6.6542538e-07
6.65425628e-07
6.65425346e-07
6.65425905e-07
6.65425531e-07
6.65425143e-07
6.65426488e-07
6.6542446e-07
6.65424984e-07
6.65425294e-07
6.65425367e-07
6.65425944e-07
6.65426591e-07
6.65426166e-07
6.65425503e-07
6.65425998e-07
6.65426192e-07
6.65425434e-07
6.65425254e-07
6.65425652e-07
6.65425499e-07
6.65425248e-07
6.65424375e-07
6.65426221e-07
6.65424288e-07
6.65426786e-07
6.65424485e-07
6.65426901e-07
6.65425466e-07
6.65425807e-07
6.6542628e-07
6.65425542e-07
6.65425721e-07
6.65424106e-07
6.65426983e-07
6.65423637e-07
6.65427322e-07
6.65423981e-07
6.65426684e-07
6.65424923e-07
6.6542529e-07
6.65425991e-07
6.65425775e-07
6.65425924e-07
6.65426203e-07
6.65425338e-07
6.65426043e-07
6.65425691e-07
6.65425315e-07
6.65425605e-07
6.65425758e-07
6.65426397e-07
6.65424896e-07
6.65425854e-07
6.65425759e-07
6.654268e-07
6.65425882e-07
6.65426429e-07
6.65426113e-07
6.65425705e-07
6.65425248e-07
6.65426566e-07
6.65425957e-07
6.65425142e-07
6.65427049e-07
6.65425462e-07
6.65425644e-07
6.65425583e-07
6.65425097e-07
6.65425667e-07
6.65426069e-07
6.65425298e-07
6.65426722e-07
6.65425631e-07
6.65425529e-07
6.65425924e-07
6.65425809e-07
6.6542596e-07
6.65425979e-07
6.65425553e-07
6.6542606e-07
6.65425658e-07
6.65426851e-07
6.65426248e-07
6.65426362e-07
6.65426389e-07
6.65426471e-07
6.65425679e-07
6.65427278e-07
6.65425298e-07
6.65426392e-07
6.65425624e-07
6.6542631e-07
6.65425826e-07
6.65425957e-07
6.65425856e-07
6.65426124e-07
6.65425967e-07
6.65426171e-07
6.65426444e-07
6.65425341e-07
6.65426491e-07
6.65424695e-07
6.65426799e-07
6.65424581e-07
6.65426619e-07
6.65425244e-07
6.65426016e-07
6.65425697e-07
6.65426005e-07
6.65426382e-07
6.65426007e-07
6.65426369e-07
6.65425814e-07
6.65426138e-07
6.65425602e-07
6.65425395e-07
6.65426787e-07
6.65424588e-07
6.65427304e-07
6.65424589e-07
6.65427385e-07
6.65425748e-07
6.65425909e-07
6.65426118e-07
6.65426521e-07
6.65425792e-07
6.65426544e-07
6.65425627e-07
6.65425907e-07
6.65426286e-07
6.65426378e-07
6.65426016e-07
6.6542681e-07
6.65426872e-07
6.65426617e-07
6.65425401e-07
6.65427916e-07
6.65425409e-07
6.65427222e-07
6.65426053e-07
6.6542665e-07
6.6542601e-07
6.65427153e-07
6.65425908e-07
6.65427235e-07
6.65426619e-07
6.65425774e-07
6.65427546e-07
6.6542604e-07
6.65427308e-07
6.65426322e-07
6.65426865e-07
6.65426553e-07
6.65426209e-07
6.65426575e-07
6.65425556e-07
6.65426777e-07
6.6542591e-07
6.65426479e-07
6.65426404e-07
6.65426905e-07
6.65426181e-07
6.65426694e-07
6.65426592e-07
6.65426351e-07
6.65426347e-07
6.65426029e-07
6.65426e-07
6.65426456e-07
6.65426138e-07
6.65426223e-07
6.65426734e-07
6.65426591e-07
6.65426452e-07
6.6542612e-07
6.6542627e-07
6.65426786e-07
6.65425581e-07
6.65428034e-07
6.65426413e-07
6.65427148e-07
6.65426026e-07
6.65427124e-07
6.65425705e-07
6.65425937e-07
6.65425912e-07
6.65425535e-07
6.65426457e-07
6.65426643e-07
6.65426476e-07
6.65426941e-07
6.6542605e-07
6.65426248e-07
6.65425987e-07
6.65426659e-07
6.654259e-07
6.6542646e-07
6.6542595e-07
6.65426028e-07
6.65425959e-07
6.654258e-07
6.65426514e-07
6.65426165e-07
6.65426859e-07
6.65425732e-07
6.65428047e-07
6.65425467e-07
6.65427767e-07
6.65424348e-07
6.65428243e-07
6.65425238e-07
6.65427001e-07
6.65425455e-07
6.65426484e-07
6.65425986e-07
6.65426984e-07
6.65426762e-07
6.65426811e-07
6.65425787e-07
6.65427496e-07
6.65426101e-07
6.65426594e-07
6.65426505e-07
6.65426733e-07
6.65426273e-07
6.65426876e-07
6.65426487e-07
6.65426827e-07
6.65426487e-07
6.65426624e-07
6.65426845e-07
6.65426573e-07
6.65426525e-07
6.6542692e-07
6.65426716e-07
6.65426822e-07
6.65426677e-07
6.65426824e-07
6.65426697e-07
6.65426837e-07
6.65426863e-07
6.65426914e-07
6.65426918e-07
6.65426973e-07
6.65427089e-07
6.65427113e-07
6.65427083e-07
6.65427211e-07
6.65427284e-07
6.65427284e-07
6.65427382e-07
6.65427469e-07
6.65427597e-07
6.65427656e-07
6.65427759e-07
6.65427903e-07
6.65428005e-07
6.65428176e-07
6.65428375e-07
6.65428588e-07
6.65428781e-07
6.65429072e-07
6.65429342e-07
6.65429622e-07
6.65429913e-07
6.65430164e-07
6.65430362e-07
6.6543054e-07
6.65430641e-07
6.65430685e-07
6.65430695e-07
6.65430711e-07
6.65430755e-07
6.65430726e-07
6.65430745e-07
6.65430741e-07
6.65430737e-07
6.65430751e-07
6.65430745e-07
6.65430738e-07
6.65430755e-07
6.65430731e-07
6.65430743e-07
6.65430733e-07
6.65430736e-07
6.65430736e-07
6.65430738e-07
6.65430745e-07
6.65430733e-07
6.65430723e-07
6.65430764e-07
)
;

boundaryField
{
    closed
    {
        type            calculated;
        value           uniform 0;
    }
    open
    {
        type            calculated;
        value           uniform 0;
    }
    sides
    {
        type            empty;
    }
}


// ************************************************************************* //
