/*--------------------------------*- C++ -*----------------------------------*\
| =========                 |                                                 |
| \\      /  F ield         | OpenFOAM: The Open Source CFD Toolbox           |
|  \\    /   O peration     | Version:  2206                                  |
|   \\  /    A nd           | Website:  www.openfoam.com                      |
|    \\/     M anipulation  |                                                 |
\*---------------------------------------------------------------------------*/
FoamFile
{
    version     2.0;
    format      ascii;
    arch        "LSB;label=32;scalar=64";
    class       volScalarField;
    location    "1.58e-05";
    object      sourcePV;
}
// * * * * * * * * * * * * * * * * * * * * * * * * * * * * * * * * * * * * * //

dimensions      [1 -3 -1 0 0 0 0];

internalField   nonuniform List<scalar> 
3183
(
0
0
0
0
0
0
0
0
0
0
0
0
0
0
0
0
0
0
0
0
0
0
0
0
0
0
0
0
0
0
0
0
0
0
0
0
0
0
0
0
0
0
0
0
0
0
0
0
0
0
0
0
0
0
0
0
0
0
0
0
0
0
0
0
0
0
0
0
0
0
0
0
0
0
0
0
0
0
0
0
0
0
0
0
0
0
0
0
0
0
0
0
0
0
0
0
0
0
0
0
0
0
0
0
0
0
0
0
0
0
0
0
0
0
0
0
0
0
0
0
0
0
0
0
0
0
0
0
0
0
0
0
0
0
0
0
0
0
0
0
0
0
0
0
0
0
0
0
0
0
0
0
0
0
0
0
0
0
0
0
0
0
0
0
0
0
0
0
0
0
0
0
0
0
0
0
0
0
0
0
0
0
0
0
0
0
0
0
0
0
0
0
0
0
0
0
0
0
0
0
0
0
0
0
0
0
0
0
0
0
0
0
0
0
0
0
0
0
0
0
0
0
0
0
0
0
0
0
0
0
0
0
0
0
0
0
0
0
0
0
0
0
0
0
0
0
0
0
0
0
0
0
0
0
0
0
0
0
0
0
0
0
0
0
0
0
0
0
0
0
0
0
0
0
0
0
0
0
0
0
0
0
0
0
0
0
0
0
0
0
0
0
0
0
0
0
0
0
0
0
0
0
0
0
0
0
0
0
0
0
0
0
0
0
0
0
0
0
0
0
0
0
0
0
0
0
0
0
0
0
0
0
0
0
0
0
0
0
0
0
0
0
0
0
0
0
0
0
0
0
0
0
0
0
0
0
0
0
0
0
0
0
0
0
0
0
0
0
0
0
0
0
0
0
0
0
0
0
0
0
0
0
0
0
0
0
0
0
0
0
0
0
0
0
0
0
0
0
0
0
0
0
0
0
0
0
0
0
0
0
0
0
0
0
0
0
0
0
0
0
0
0
0
0
0
0
0
0
0
0
0
0
0
0
0
0
0
0
0
0
0
0
0
0
0
0
0
0
0
0
0
0
0
0
0
0
0
0
0
0
0
0
0
0
0
0
0
0
0
0
0
0
0
0
0
0
0
0
0
0
0
0
0
0
0
0
0
0
0
0
0
0
0
0
0
0
0
0
0
0
0
0
0
0
0
0
0
0
0
0
0
0
0
0
0
0
0
0
0
0
0
0
0
0
0
0
0
0
0
0
0
0
0
0
0
0
0
0
0
0
0
0
0
0
0
0
0
0
0
0
0
0
0
0
0
0
0
0
0
0
0
0
0
0
0
0
0
0
0
0
0
0
0
0
0
0
0
0
0
0
0
0
0
0
0
0
0
0
0
0
0
0
0
0
0
0
0
0
0
0
0
0
0
0
0
0
0
0
0
0
0
0
0
0
0
0
0
0
0
0
0
0
0
0
0
0
0
0
0
0
0
0
0
0
0
0
0
0
0
0
0
0
0
0
0
0
0
0
0
0
0
0
0
0
0
0
0
0
0
0
0
0
0
0
0
0
0
0
0
0
0
0
0
0
0
0
0
0
0
0
0
0
0
0
0
0
0
0
0
0
0
0
0
0
0
0
0
0
0
0
0
0
0
0
0
0
0
0
0
0
0
0
0
0
0
0
0
0
0
0
0
0
0
0
0
0
0
0
0
0
0
0
0
0
0
0
0
0
0
0
0
0
0
0
0
0
0
0
0
0
0
0
0
0
0
0
0
0
0
0
0
0
0
0
0
0
0
0
0
0
0
0
0
0
0
0
0
0
0
0
0
0
0
0
0
0
0
0
0
0
0
0
0
0
0
0
0
0
0
0
0
0
0
0
0
0
0
0
0
0
0
0
0
0
0
0
0
0
0
0
0
0
0
0
0
0
0
0
0
0
0
0
0
0
0
0
0
0
0
0
0
0
0
0
0
0
0
0
0
0
0
0
0
0
0
0
0
0
0
0
0
0
0
0
0
0
0
0
0
0
0
0
0
0
0
0
0
0
0
0
0
0
0
0
0
0
0
0
0
0
0
0
0
0
0
0
0
0
0
0
0
0
0
0
0
0
0
0
0
0
0
0
0
0
0
0
0
0
0
0
0
0
0
0
0
0
0
0
0
0
0
0
0
0
0
0
0
0
0
0
0
0
0
0
0
0
0
0
0
0
0
0
0
0
0
0
0
0
0
0
0
0
0
0
0
0
0
0
0
0
0
0
0
0
0
0
0
0
0
0
0
0
0
0
0
0
0
0
0
0
0
0
0
0
0
0
0
0
0
0
0
0
0
0
0
0
0
0
0
0
0
0
0
0
0
0
0
0
0
0
0
0
0
0
0
0
0
0
0
0
0
0
0
0
0
0
0
0
0
0
0
0
0
0
0
0
0
0
0
0
0
0
0
0
0
0
0
0
0
0
0
0
0
0
0
0
0
0
0
0
0
0
0
0
0
0
0
0
0
0
0
0
0
0
0
0
0
0
0
0
0
0
0
0
0
0
0
0
0
0
0
0
0
0
0
0
0
0
0
0
0
0
0
0
0
0
0
0
0
0
0
0
0
0
0
0
0
0
0
0
0
0
0
0
0
0
0
0
0
0
0
0
0
0
0
0
0
0
0
0
0
0
0
0
0
0
0
0
0
0
0
0
0
0
0
0
0
0
0
0
0
0
0
0
0
0
0
0
0
0
0
0
0
0
0
0
0
0
0
0
0
0
0
0
0
0
0
0
0
0
0
0
0
0
0
0
0
0
0
0
0
0
0
0
0
0
0
0
0
0
0
0
0
0
0
0
0
0
0
0
0
0
0
0
0
0
0
0
0
0
0
0
0
0
0
0
0
0
0
0
0
0
0
0
0
0
0
0
0
0
0
0
0
0
0
0
0
0
0
0
0
0
0
0
0
0
0
0
0
0
0
0
0
0
0
0
0
0
0
0
0
0
0
0
0
0
0
0
0
0
0
0
0
0
0
0
0
0
0
0
0
0
0
0
0
0
0
0
0
0
0
0
0
0
0
0
0
0
0
0
0
0
0
0
0
0
0
0
0
0
0
0
0
0
0
0
0
0
0
0
0
0
0
0
0
0
0
0
0
0
0
0
0
0
0
0
0
0
0
0
0
0
0
0
0
0
0
0
0
0
0
0
0
0
0
0
0
0
0
0
0
0
0
0
0
0
0
0
0
0
0
0
0
0
0
0
0
0
0
0
0
0
0
0
0
0
0
0
0
0
0
0
0
0
0
0
0
0
0
0
0
0
0
0
0
0
0
0
0
0
0
0
0
0
0
0
0
0
0
0
0
0
0
0
0
0
0
0
0
0
0
0
0
0
0
0
0
0
0
0
0
0
0
0
0
0
0
0
0
0
0
0
0
0
0
0
0
0
0
0
0
0
0
0
0
0
0
0
0
0
0
0
0
0
0
0
0
0
0
0
0
0
0
0
0
0
0
0
0
0
0
0
0
0
0
0
0
0
0
0
0
0
0
0
0
0
0
0
0
0
0
0
0
0
0
0
0
0
0
0
0
0
0
0
0
0
0
0
0
0
0
0
0
0
0
0
0
0
0
0
0
0
0
0
0
0
0
0
0
0
0
0
0
0
0
0
0
0
0
0
0
0
0
0
0
0
0
0
0
0
0
0
0
0
0
0
0
0
0
0
0
0
0
0
0
0
0
0
0
0
0
0
0
0
0
0
0
0
0
0
0
0
0
0
0
0
0
0
0
0
0
0
0
0
0
0
0
0
0
0
0
0
0
0
0
0
0
0
0
0
0
0
0
0
0
0
0
0
0
0
0
0
0
0
0
0
0
0
0
0
0
0
0
0
0
0
0
0
0
0
0
0
0
0
0
0
0
0
0
0
0
0
0
0
0
0
0
0
0
0
0
0
0
0
0
0
0
0
0
0
0
0
0
0
0
0
0
0
0
0
0
0
0
0
0
0
0
0
0
0
0
0
0
0
0
0
0
0
0
0
0
0
0
0
0
0
0
0
0
0
0
0
0
0
0
0
0
0
0
0
0
0
0
0
0
0
0
0
0
0
0
0
0
0
0
0
0
0
0
0
0
0
0
0
0
0
0
0
0
0
0
0
0
0
0
0
0
0
0
0
0
0
0
0
0
0
0
0
0
0
0
0
0
0
0
0
0
0
0
0
0
0
0
0
0
0
0
0
0
0
0
0
0
0
0
0
0
0
0
0
0
0
0
0
0
0
0
0
0
0
0
0
0
0
0
0
0
0
0
0
0
0
0
0
0
0
0
0
0
0
0
0
0
0
0
0
0
0
0
0
0
0
0
0
0
0
0
0
0
0
0
0
0
0
0
0
0
0
0
0
0
0
0
0
0
0
0
0
0
0
0
0
0
0
0
0
0
0
0
0
0
0
0
0
0
0
0
0
0
0
0
0
0
0
0
0
0
0
0
0
0
0
0
0
0
0
0
0
0
0
0
0
0
0
0
0
0
0
0
0
0
0
0
0
0
0
0
0
0
0
0
0
0
0
0
0
0
0
0
0
0
0
0
0
0
0
0
0
0
0
0
0
0
0
0
0
0
0
0
0
0
0
0
0
0
0
0
0
0
0
0
0
0
0
0
0
0
0
0
0
0
0
0
0
0
0
0
0
0
0
0
0
0
0
0
0
0
0
0
0
0
0
0
0
0
0
0
0
0
0
0
0
0
0
0
0
0
0
0
0
0
0
0
0
0
0
0
0
0
0
0
0
0
0
0
0
0
0
0
0
0
0
0
0
0
0
0
0
0
0
0
0
0
0
0
0
0
0
0
0
0
0
0
0
0
0
0
0
0
0
0
0
0
0
0
0
0
0
0
0
0
0
0
0
0
0
0
0
0
0
0
0
0
0
0
0
0
0
0
0
0
0
0
0
0
0
0
0
0
0
0
0
0
0
0
0
0
0
0
0
0
0
0
0
0
0
0
0
0
0
0
0
0
0
0
0
0
0
0
0
0
0
0
0
0
0
0
0
0
0
0
0
0
0
0
0
0
0
0
0
0
0
0
0
0
0
0
0
0
0
0
0
0
0
0
0
0
0
0
0
0
0
0
0
0
0
0
0
0
0
0
0
0
0
0
0
0
0
0
0
0
0
0
0
0
0
0
0
0
0
0
0
0
0
0
0
0
0
0
0
0
0
0
0
0
0
0
0
0
0
0
0
0
0
0
0
0
0
0
0
0
0
0
0
0
0
0
0
0
0
0
0
0
0
0
0
0
0
0
0
0
0
0
0
0
0
0
0
0
0
0
0
0
0
0
0
0
0
0
0
0
0
0
0
0
0
0
0
0
0
0
0
0
0
0
0
0
0
0
0
0
0
0
0
0
0
0
0
0
0
0
1.48380477e-298
6.41413336e-299
8.51071964e-296
3.72771263e-296
4.83281305e-293
2.14434459e-293
2.71693599e-290
1.22096373e-290
1.51218624e-287
6.88135995e-288
8.33254455e-285
3.83888841e-285
4.54564761e-282
2.11987545e-282
2.45503774e-279
1.15876063e-279
1.31269143e-276
6.26934493e-277
6.94874268e-274
3.3578181e-274
3.64154088e-271
1.7802484e-271
1.88927447e-268
9.3399118e-269
9.7035487e-266
4.85279306e-266
4.93384831e-263
2.49559815e-263
2.48344125e-260
1.27074534e-260
1.23744906e-257
6.40125853e-258
6.10376457e-255
3.19169658e-255
2.98027328e-252
1.57514306e-252
1.4404306e-249
7.69400438e-250
6.89121456e-247
3.71971604e-247
3.26328353e-244
1.77984444e-244
1.5295266e-241
8.42865398e-242
7.09560092e-239
3.95026651e-239
3.25789525e-236
1.83220334e-236
1.48042302e-233
8.40981005e-234
6.65762621e-231
3.81987461e-231
2.96292754e-228
1.71690633e-228
1.30488712e-225
7.63592828e-226
5.68664922e-223
3.36029162e-223
2.45217715e-220
1.46309693e-220
1.04625725e-217
6.30275304e-218
4.41666706e-215
2.68613312e-215
1.84458072e-212
1.13251175e-212
7.62120579e-210
4.72337712e-210
3.1149268e-207
1.9486457e-207
1.25934326e-204
7.95166312e-205
5.03599577e-202
3.20923236e-202
1.99178838e-199
1.28095686e-199
7.79090782e-197
5.05625286e-197
3.01362457e-194
1.97357442e-194
1.15269477e-191
7.61687521e-192
4.35943431e-189
2.90646828e-189
1.63005317e-186
1.09644069e-186
6.02549842e-184
4.08883373e-184
2.20174006e-181
1.50720021e-181
7.95209838e-179
5.49111485e-179
2.83856784e-176
1.97709474e-176
1.00132768e-173
7.03443858e-174
3.49034589e-171
2.4729898e-171
1.20207109e-168
8.58934934e-169
4.08990859e-166
2.94710463e-166
1.37457757e-163
9.98800064e-164
4.56294867e-161
3.34316386e-161
1.49585335e-158
1.10504297e-158
4.8422127e-156
3.60651057e-156
1.54757674e-153
1.16204699e-153
4.88262953e-151
3.69596762e-151
1.52049831e-148
1.16021294e-148
4.67286791e-146
3.59407281e-146
1.41702862e-143
1.09851884e-143
4.23936361e-141
3.31229248e-141
1.25105417e-138
9.85091315e-139
3.64106453e-136
2.88917586e-136
1.04490703e-133
8.3548939e-134
2.95624732e-131
2.3817368e-131
8.24386727e-129
6.69183585e-129
2.26546762e-126
1.85269752e-126
6.13376238e-124
5.05331722e-124
1.63583564e-121
1.35757016e-121
4.29628432e-119
3.59135324e-119
1.11091117e-116
9.35310568e-117
2.82739196e-114
2.3974095e-114
7.08101033e-112
6.04642665e-112
1.74455053e-109
1.50003526e-109
4.22689703e-107
3.65948733e-107
1.00687128e-104
8.77644797e-105
2.35720885e-102
2.06849268e-102
5.42181249e-100
4.78933899e-100
1.22477433e-97
1.08899421e-97
2.71623555e-95
2.43073575e-95
5.91159102e-93
5.32398788e-93
1.2620696e-90
1.14377069e-90
2.64186371e-88
2.40906612e-88
5.41977108e-86
4.97233735e-86
1.0891265e-83
1.00521033e-83
2.14275822e-81
1.98933227e-81
4.12498356e-79
3.85183209e-79
7.76545943e-77
7.29251743e-77
1.42867429e-74
1.34915456e-74
2.56701143e-72
2.43739565e-72
4.50130709e-70
4.29691469e-70
7.69718706e-68
7.38615488e-68
1.28248017e-65
1.23694885e-65
2.08022881e-63
2.01637269e-63
3.28171732e-61
3.19639073e-61
5.0301002e-59
4.9223122e-59
7.48268866e-57
7.35544519e-57
1.07900794e-54
1.0652218e-54
1.50630613e-52
1.49299036e-52
2.03286697e-50
2.02189662e-50
2.64813784e-48
2.6406211e-48
3.32408962e-46
3.31800386e-46
4.01325557e-44
4.00036335e-44
4.65071449e-42
4.61734144e-42
5.16115351e-40
5.0989721e-40
5.47091532e-38
5.40473348e-38
5.523146e-36
5.52295056e-36
5.29280352e-34
5.27759168e-34
4.79813353e-32
4.77350817e-32
4.09676954e-30
4.07283485e-30
3.27842241e-28
3.25999463e-28
2.44491848e-26
2.42791846e-26
1.68780727e-24
1.67080189e-24
1.06987413e-22
1.05086423e-22
6.16649859e-21
6.16249475e-21
3.19083207e-19
3.18579211e-19
1.46051969e-17
1.45675841e-17
5.79232428e-16
5.77022654e-16
1.93584225e-14
1.92334213e-14
5.23843262e-13
5.2424227e-13
1.07749496e-11
1.08290321e-11
1.40844731e-08
1.41964895e-08
0.091012156
0.365824399
7.68881494
8.98380609
8.56692864
7.64833238
2.60651089
2.13879214
0.408786049
0.358933098
0.0931618508
0.084571498
0.0187364037
0.0176806361
0.0033875396
0.0033178731
0.000570106178
0.000569806944
9.50956942e-05
9.5320664e-05
2.0395629e-05
2.0412855e-05
9.50276093e-06
9.50223987e-06
8.02329394e-06
8.02389947e-06
7.83661111e-06
7.8366779e-06
7.81439389e-06
7.8143971e-06
7.81188568e-06
7.81189878e-06
7.81162007e-06
7.81163669e-06
7.81158586e-06
7.8116158e-06
7.8115842e-06
7.81159113e-06
7.81159295e-06
7.81157746e-06
7.81160167e-06
7.81158243e-06
7.81160164e-06
7.81158939e-06
7.81159531e-06
7.81159665e-06
7.81159904e-06
7.81159643e-06
7.81160866e-06
7.81159468e-06
7.81160235e-06
7.81159653e-06
7.81160088e-06
7.8116009e-06
7.81159841e-06
7.81160132e-06
7.81159321e-06
7.81161172e-06
7.81158952e-06
7.81160069e-06
7.81159634e-06
7.81160411e-06
7.81159099e-06
7.81158892e-06
7.81159657e-06
7.81159663e-06
7.81159172e-06
7.81160159e-06
7.81159075e-06
7.81160687e-06
7.81158174e-06
7.81159129e-06
7.81158958e-06
7.81159986e-06
7.81158728e-06
7.81160127e-06
7.81159818e-06
7.81160354e-06
7.81158835e-06
7.81161092e-06
7.81158778e-06
7.81159922e-06
7.81159459e-06
7.81159651e-06
7.81159797e-06
7.81158871e-06
7.81160733e-06
7.81158875e-06
7.81160564e-06
7.81157105e-06
7.81161738e-06
7.81158515e-06
7.81160979e-06
7.8115903e-06
7.81161256e-06
7.81158902e-06
7.81160389e-06
7.81160139e-06
7.81160297e-06
7.81160218e-06
7.81159534e-06
7.81160017e-06
7.81160138e-06
7.81159999e-06
7.81159863e-06
7.81160226e-06
7.81159971e-06
7.81159014e-06
7.81159438e-06
7.81159898e-06
7.81159082e-06
7.81160276e-06
7.81159397e-06
7.8115948e-06
7.81159106e-06
7.81159694e-06
7.81158614e-06
7.81160474e-06
7.8115848e-06
7.81161713e-06
7.8115851e-06
7.81160437e-06
7.81158387e-06
7.81160206e-06
7.81159619e-06
7.81160185e-06
7.81159188e-06
7.81161175e-06
7.81159622e-06
7.81160826e-06
7.81160481e-06
7.81160029e-06
7.81161338e-06
7.81160638e-06
7.81159795e-06
7.81161766e-06
7.81159655e-06
7.81160718e-06
7.81160164e-06
7.81159447e-06
7.81159747e-06
7.81159942e-06
7.81158724e-06
7.81160805e-06
7.81158237e-06
7.81160396e-06
7.81158455e-06
7.8116026e-06
7.81160221e-06
7.81158655e-06
7.81161034e-06
7.81158828e-06
7.81161025e-06
7.81158775e-06
7.81161001e-06
7.81160222e-06
7.81160089e-06
7.8115972e-06
7.81159815e-06
7.81159276e-06
7.81162061e-06
7.81157921e-06
7.81162412e-06
7.81158574e-06
7.81162744e-06
7.81158749e-06
7.8116089e-06
7.81160318e-06
7.81159573e-06
7.81159469e-06
7.81159351e-06
7.81159272e-06
7.81159672e-06
7.8116046e-06
7.81159253e-06
7.81159953e-06
7.81160591e-06
7.8116038e-06
7.81160599e-06
7.81160568e-06
7.81160996e-06
7.81161263e-06
7.81160305e-06
7.81161083e-06
7.8115981e-06
7.81159681e-06
7.81160579e-06
7.81159814e-06
7.81160636e-06
7.8115941e-06
7.81161497e-06
7.81158851e-06
7.81160746e-06
7.81159784e-06
7.81161103e-06
7.81159182e-06
7.81160078e-06
7.81159725e-06
7.81160523e-06
7.81159213e-06
7.81162394e-06
7.8115821e-06
7.81161944e-06
7.81159384e-06
7.81160611e-06
7.81160269e-06
7.81159752e-06
7.81160209e-06
7.81161315e-06
7.81160753e-06
7.81160288e-06
7.81160765e-06
7.81160332e-06
7.81160525e-06
7.81160813e-06
7.81160622e-06
7.81159821e-06
7.81160138e-06
7.81159761e-06
7.81161283e-06
7.81159967e-06
7.81160306e-06
7.8116058e-06
7.81160788e-06
7.81160881e-06
7.81159889e-06
7.81162672e-06
7.81158916e-06
7.81160931e-06
7.8116115e-06
7.81160029e-06
7.81161155e-06
7.81159738e-06
7.81161157e-06
7.81160461e-06
7.81161246e-06
7.81160136e-06
7.81161362e-06
7.81160116e-06
7.81161132e-06
7.81161191e-06
7.81162113e-06
7.81159236e-06
7.8116272e-06
7.8115869e-06
7.81161649e-06
7.81159615e-06
7.81160407e-06
7.81160726e-06
7.81158582e-06
7.81161514e-06
7.81159543e-06
7.81160939e-06
7.81159842e-06
7.81161446e-06
7.81160521e-06
7.81160137e-06
7.81160968e-06
7.81161107e-06
7.81161022e-06
7.81160957e-06
7.81160349e-06
7.81161175e-06
7.81160048e-06
7.81161273e-06
7.81159372e-06
7.81161058e-06
7.81159818e-06
7.81160761e-06
7.8115898e-06
7.8116207e-06
7.81159176e-06
7.8116084e-06
7.81161006e-06
7.81161034e-06
7.81161015e-06
7.81160486e-06
7.81160997e-06
7.81160503e-06
7.81160151e-06
7.81161161e-06
7.81160066e-06
7.81160312e-06
7.81160892e-06
7.81160007e-06
7.81160465e-06
7.8116058e-06
7.81160871e-06
7.81160539e-06
7.81161196e-06
7.81160756e-06
7.81160301e-06
7.81161881e-06
7.81159499e-06
7.81160115e-06
7.81160479e-06
7.81160565e-06
7.81161242e-06
7.81162002e-06
7.81161503e-06
7.81160724e-06
7.81161305e-06
7.81161533e-06
7.81160643e-06
7.81160431e-06
7.81160899e-06
7.81160719e-06
7.81160425e-06
7.81159399e-06
7.81161568e-06
7.81159297e-06
7.81162231e-06
7.81159528e-06
7.81162366e-06
7.8116068e-06
7.81161081e-06
7.81161637e-06
7.81160769e-06
7.8116098e-06
7.81159083e-06
7.81162463e-06
7.81158532e-06
7.81162861e-06
7.81158937e-06
7.81162111e-06
7.81160043e-06
7.81160474e-06
7.81161298e-06
7.81161043e-06
7.81161218e-06
7.81161547e-06
7.8116053e-06
7.81161358e-06
7.81160945e-06
7.81160503e-06
7.81160843e-06
7.81161023e-06
7.81161774e-06
7.81160011e-06
7.81161136e-06
7.81161024e-06
7.81162248e-06
7.8116117e-06
7.81161811e-06
7.81161441e-06
7.81160961e-06
7.81160424e-06
7.81161972e-06
7.81161257e-06
7.811603e-06
7.8116254e-06
7.81160676e-06
7.8116089e-06
7.81160818e-06
7.81160247e-06
7.81160916e-06
7.81161389e-06
7.81160483e-06
7.81162156e-06
7.81160874e-06
7.81160754e-06
7.81161218e-06
7.81161084e-06
7.81161261e-06
7.81161283e-06
7.81160783e-06
7.81161378e-06
7.81160906e-06
7.81162307e-06
7.81161598e-06
7.81161733e-06
7.81161765e-06
7.81161861e-06
7.81160931e-06
7.81162809e-06
7.81160483e-06
7.81161768e-06
7.81160867e-06
7.81161672e-06
7.81161104e-06
7.81161257e-06
7.81161139e-06
7.81161453e-06
7.81161269e-06
7.81161508e-06
7.81161829e-06
7.81160534e-06
7.81161884e-06
7.81159775e-06
7.81162246e-06
7.81159641e-06
7.81162035e-06
7.8116042e-06
7.81161326e-06
7.81160951e-06
7.81161314e-06
7.81161756e-06
7.81161316e-06
7.81161741e-06
7.81161089e-06
7.8116147e-06
7.8116084e-06
7.81160598e-06
7.81162232e-06
7.8115965e-06
7.81162839e-06
7.81159651e-06
7.81162934e-06
7.81161012e-06
7.811612e-06
7.81161446e-06
7.81161919e-06
7.81161064e-06
7.81161947e-06
7.8116087e-06
7.81161198e-06
7.81161644e-06
7.81161752e-06
7.81161326e-06
7.81162259e-06
7.81162332e-06
7.81162033e-06
7.81160604e-06
7.81163558e-06
7.81160613e-06
7.81162743e-06
7.8116137e-06
7.81162071e-06
7.81161319e-06
7.81162662e-06
7.81161199e-06
7.81162758e-06
7.81162035e-06
7.81161042e-06
7.81163124e-06
7.81161355e-06
7.81162844e-06
7.81161685e-06
7.81162324e-06
7.81161958e-06
7.81161553e-06
7.81161983e-06
7.81160786e-06
7.8116222e-06
7.81161202e-06
7.81161871e-06
7.81161782e-06
7.81162371e-06
7.8116152e-06
7.81162123e-06
7.81162003e-06
7.8116172e-06
7.81161715e-06
7.81161342e-06
7.81161308e-06
7.81161843e-06
7.81161469e-06
7.8116157e-06
7.81162169e-06
7.81162002e-06
7.81161839e-06
7.81161448e-06
7.81161625e-06
7.81162231e-06
7.81160816e-06
7.81163697e-06
7.81161792e-06
7.81162657e-06
7.81161338e-06
7.81162628e-06
7.81160961e-06
7.81161234e-06
7.81161204e-06
7.81160762e-06
7.81161844e-06
7.81162063e-06
7.81161866e-06
7.81162413e-06
7.81161367e-06
7.811616e-06
7.81161292e-06
7.81162081e-06
7.8116119e-06
7.81161848e-06
7.81161249e-06
7.8116134e-06
7.8116126e-06
7.81161073e-06
7.81161911e-06
7.81161501e-06
7.81162317e-06
7.81160993e-06
7.81163712e-06
7.81160681e-06
7.81163383e-06
7.81159368e-06
7.81163942e-06
7.81160412e-06
7.81162484e-06
7.81160668e-06
7.81161876e-06
7.81161291e-06
7.81162464e-06
7.81162203e-06
7.8116226e-06
7.81161057e-06
7.81163065e-06
7.81161426e-06
7.81162005e-06
7.81161901e-06
7.81162168e-06
7.81161628e-06
7.81162337e-06
7.8116188e-06
7.81162279e-06
7.81161879e-06
7.8116204e-06
7.811623e-06
7.81161981e-06
7.81161925e-06
7.81162389e-06
7.81162149e-06
7.81162273e-06
7.81162103e-06
7.81162275e-06
7.81162126e-06
7.81162291e-06
7.81162321e-06
7.81162381e-06
7.81162385e-06
7.81162451e-06
7.81162587e-06
7.81162615e-06
7.8116258e-06
7.8116273e-06
7.81162815e-06
7.81162815e-06
7.81162931e-06
7.81163033e-06
7.81163183e-06
7.81163253e-06
7.81163374e-06
7.81163543e-06
7.81163663e-06
7.81163863e-06
7.81164097e-06
7.81164347e-06
7.81164575e-06
7.81164916e-06
7.81165233e-06
7.81165562e-06
7.81165904e-06
7.81166198e-06
7.81166431e-06
7.8116664e-06
7.81166758e-06
7.8116681e-06
7.81166822e-06
7.81166841e-06
7.81166892e-06
7.81166858e-06
7.81166881e-06
7.81166876e-06
7.81166872e-06
7.81166888e-06
7.8116688e-06
7.81166873e-06
7.81166893e-06
7.81166864e-06
7.81166878e-06
7.81166866e-06
7.8116687e-06
7.8116687e-06
7.81166873e-06
7.8116688e-06
7.81166866e-06
7.81166855e-06
7.81166903e-06
)
;

boundaryField
{
    closed
    {
        type            calculated;
        value           uniform 0;
    }
    open
    {
        type            calculated;
        value           uniform 0;
    }
    sides
    {
        type            empty;
    }
}


// ************************************************************************* //
