/*--------------------------------*- C++ -*----------------------------------*\
| =========                 |                                                 |
| \\      /  F ield         | OpenFOAM: The Open Source CFD Toolbox           |
|  \\    /   O peration     | Version:  2206                                  |
|   \\  /    A nd           | Website:  www.openfoam.com                      |
|    \\/     M anipulation  |                                                 |
\*---------------------------------------------------------------------------*/
FoamFile
{
    version     2.0;
    format      ascii;
    arch        "LSB;label=32;scalar=64";
    class       volScalarField;
    location    "1.9e-05";
    object      PVsourcePV;
}
// * * * * * * * * * * * * * * * * * * * * * * * * * * * * * * * * * * * * * //

dimensions      [1 -3 -1 0 0 0 0];

internalField   nonuniform List<scalar> 
3183
(
0
0
0
0
0
0
0
0
0
0
0
0
0
0
0
0
0
0
0
0
0
0
0
0
0
0
0
0
0
0
0
0
0
0
0
0
0
0
0
0
0
0
0
0
0
0
0
0
0
0
0
0
0
0
0
0
0
0
0
0
0
0
0
0
0
0
0
0
0
0
0
0
0
0
0
0
0
0
0
0
0
0
0
0
0
0
0
0
0
0
0
0
0
0
0
0
0
0
0
0
0
0
0
0
0
0
0
0
0
0
0
0
0
0
0
0
0
0
0
0
0
0
0
0
0
0
0
0
0
0
0
0
0
0
0
0
0
0
0
0
0
0
0
0
0
0
0
0
0
0
0
0
0
0
0
0
0
0
0
0
0
0
0
0
0
0
0
0
0
0
0
0
0
0
0
0
0
0
0
0
0
0
0
0
0
0
0
0
0
0
0
0
0
0
0
0
0
0
0
0
0
0
0
0
0
0
0
0
0
0
0
0
0
0
0
0
0
0
0
0
0
0
0
0
0
0
0
0
0
0
0
0
0
0
0
0
0
0
0
0
0
0
0
0
0
0
0
0
0
0
0
0
0
0
0
0
0
0
0
0
0
0
0
0
0
0
0
0
0
0
0
0
0
0
0
0
0
0
0
0
0
0
0
0
0
0
0
0
0
0
0
0
0
0
0
0
0
0
0
0
0
0
0
0
0
0
0
0
0
0
0
0
0
0
0
0
0
0
0
0
0
0
0
0
0
0
0
0
0
0
0
0
0
0
0
0
0
0
0
0
0
0
0
0
0
0
0
0
0
0
0
0
0
0
0
0
0
0
0
0
0
0
0
0
0
0
0
0
0
0
0
0
0
0
0
0
0
0
0
0
0
0
0
0
0
0
0
0
0
0
0
0
0
0
0
0
0
0
0
0
0
0
0
0
0
0
0
0
0
0
0
0
0
0
0
0
0
0
0
0
0
0
0
0
0
0
0
0
0
0
0
0
0
0
0
0
0
0
0
0
0
0
0
0
0
0
0
0
0
0
0
0
0
0
0
0
0
0
0
0
0
0
0
0
0
0
0
0
0
0
0
0
0
0
0
0
0
0
0
0
0
0
0
0
0
0
0
0
0
0
0
0
0
0
0
0
0
0
0
0
0
0
0
0
0
0
0
0
0
0
0
0
0
0
0
0
0
0
0
0
0
0
0
0
0
0
0
0
0
0
0
0
0
0
0
0
0
0
0
0
0
0
0
0
0
0
0
0
0
0
0
0
0
0
0
0
0
0
0
0
0
0
0
0
0
0
0
0
0
0
0
0
0
0
0
0
0
0
0
0
0
0
0
0
0
0
0
0
0
0
0
0
0
0
0
0
0
0
0
0
0
0
0
0
0
0
0
0
0
0
0
0
0
0
0
0
0
0
0
0
0
0
0
0
0
0
0
0
0
0
0
0
0
0
0
0
0
0
0
0
0
0
0
0
0
0
0
0
0
0
0
0
0
0
0
0
0
0
0
0
0
0
0
0
0
0
0
0
0
0
0
0
0
0
0
0
0
0
0
0
0
0
0
0
0
0
0
0
0
0
0
0
0
0
0
0
0
0
0
0
0
0
0
0
0
0
0
0
0
0
0
0
0
0
0
0
0
0
0
0
0
0
0
0
0
0
0
0
0
0
0
0
0
0
0
0
0
0
0
0
0
0
0
0
0
0
0
0
0
0
0
0
0
0
0
0
0
0
0
0
0
0
0
0
0
0
0
0
0
0
0
0
0
0
0
0
0
0
0
0
0
0
0
0
0
0
0
0
0
0
0
0
0
0
0
0
0
0
0
0
0
0
0
0
0
0
0
0
0
0
0
0
0
0
0
0
0
0
0
0
0
0
0
0
0
0
0
0
0
0
0
0
0
0
0
0
0
0
0
0
0
0
0
0
0
0
0
0
0
0
0
0
0
0
0
0
0
0
0
0
0
0
0
0
0
0
0
0
0
0
0
0
0
0
0
0
0
0
0
0
0
0
0
0
0
0
0
0
0
0
0
0
0
0
0
0
0
0
0
0
0
0
0
0
0
0
0
0
0
0
0
0
0
0
0
0
0
0
0
0
0
0
0
0
0
0
0
0
0
0
0
0
0
0
0
0
0
0
0
0
0
0
0
0
0
0
0
0
0
0
0
0
0
0
0
0
0
0
0
0
0
0
0
0
0
0
0
0
0
0
0
0
0
0
0
0
0
0
0
0
0
0
0
0
0
0
0
0
0
0
0
0
0
0
0
0
0
0
0
0
0
0
0
0
0
0
0
0
0
0
0
0
0
0
0
0
0
0
0
0
0
0
0
0
0
0
0
0
0
0
0
0
0
0
0
0
0
0
0
0
0
0
0
0
0
0
0
0
0
0
0
0
0
0
0
0
0
0
0
0
0
0
0
0
0
0
0
0
0
0
0
0
0
0
0
0
0
0
0
0
0
0
0
0
0
0
0
0
0
0
0
0
0
0
0
0
0
0
0
0
0
0
0
0
0
0
0
0
0
0
0
0
0
0
0
0
0
0
0
0
0
0
0
0
0
0
0
0
0
0
0
0
0
0
0
0
0
0
0
0
0
0
0
0
0
0
0
0
0
0
0
0
0
0
0
0
0
0
0
0
0
0
0
0
0
0
0
0
0
0
0
0
0
0
0
0
0
0
0
0
0
0
0
0
0
0
0
0
0
0
0
0
0
0
0
0
0
0
0
0
0
0
0
0
0
0
0
0
0
0
0
0
0
0
0
0
0
0
0
0
0
0
0
0
0
0
0
0
0
0
0
0
0
0
0
0
0
0
0
0
0
0
0
0
0
0
0
0
0
0
0
0
0
0
0
0
0
0
0
0
0
0
0
0
0
0
0
0
0
0
0
0
0
0
0
0
0
0
0
0
0
0
0
0
0
0
0
0
0
0
0
0
0
0
0
0
0
0
0
0
0
0
0
0
0
0
0
0
0
0
0
0
0
0
0
0
0
0
0
0
0
0
0
0
0
0
0
0
0
0
0
0
0
0
0
0
0
0
0
0
0
0
0
0
0
0
0
0
0
0
0
0
0
0
0
0
0
0
0
0
0
0
0
0
0
0
0
0
0
0
0
0
0
0
0
0
0
0
0
0
0
0
0
0
0
0
0
0
0
0
0
0
0
0
0
0
0
0
0
0
0
0
0
0
0
0
0
0
0
0
0
0
0
0
0
0
0
0
0
0
0
0
0
0
0
0
0
0
0
0
0
0
0
0
0
0
0
0
0
0
0
0
0
0
0
0
0
0
0
0
0
0
0
0
0
0
0
0
0
0
0
0
0
0
0
0
0
0
0
0
0
0
0
0
0
0
0
0
0
0
0
0
0
0
0
0
0
0
0
0
0
0
0
0
0
0
0
0
0
0
0
0
0
0
0
0
0
0
0
0
0
0
0
0
0
0
0
0
0
0
0
0
0
0
0
0
0
0
0
0
0
0
0
0
0
0
0
0
0
0
0
0
0
0
0
0
0
0
0
0
0
0
0
0
0
0
0
0
0
0
0
0
0
0
0
0
0
0
0
0
0
0
0
0
0
0
0
0
0
0
0
0
0
0
0
0
0
0
0
0
0
0
0
0
0
0
0
0
0
0
0
0
0
0
0
0
0
0
0
0
0
0
0
0
0
0
0
0
0
0
0
0
0
0
0
0
0
0
0
0
0
0
0
0
0
0
0
0
0
0
0
0
0
0
0
0
0
0
0
0
0
0
0
0
0
0
0
0
0
0
0
0
0
0
0
0
0
0
0
0
0
0
0
0
0
0
0
0
0
0
0
0
0
0
0
0
0
0
0
0
0
0
0
0
0
0
0
0
0
0
0
0
0
0
0
0
0
0
0
0
0
0
0
0
0
0
0
0
0
0
0
0
0
0
0
0
0
0
0
0
0
0
0
0
0
0
0
0
0
0
0
0
0
0
0
0
0
0
0
0
0
0
0
0
0
0
0
0
0
0
0
0
0
0
0
0
0
0
0
0
0
0
0
0
0
0
0
0
0
0
0
0
0
0
0
0
0
0
0
0
0
0
0
0
0
0
0
0
0
0
0
0
0
0
0
0
0
0
0
0
0
0
0
0
0
0
0
0
0
0
0
0
0
0
0
0
0
0
0
0
0
0
0
0
0
0
0
0
0
0
0
0
0
0
0
0
0
0
0
0
0
0
0
0
0
0
0
0
0
0
0
0
0
0
0
0
0
0
0
0
0
0
0
0
0
0
0
0
0
0
0
0
0
0
0
0
0
0
0
0
0
0
0
0
0
0
0
0
0
0
0
0
0
0
0
0
0
0
0
0
0
0
0
0
0
0
0
0
0
0
0
0
0
0
0
0
0
0
0
0
0
0
0
0
0
0
0
0
0
0
0
0
0
0
0
0
0
0
0
0
0
0
0
0
0
0
0
0
0
0
0
0
0
0
0
0
0
0
0
0
0
0
0
0
0
0
0
0
0
0
0
0
0
0
0
0
0
0
0
0
0
0
0
0
0
0
0
0
0
0
0
0
0
0
0
0
0
0
0
0
0
0
0
0
0
0
0
0
0
0
0
0
0
0
0
0
0
0
0
0
0
0
0
0
0
0
0
0
0
0
0
0
0
0
0
0
0
0
0
0
0
0
0
0
0
0
0
0
0
0
0
0
0
0
0
0
0
0
0
0
0
0
0
0
0
0
0
0
0
0
0
0
0
0
0
0
0
0
0
0
0
0
0
0
0
0
0
0
0
0
0
0
0
0
0
0
0
0
0
0
0
0
0
0
0
0
0
0
0
0
0
0
0
0
0
0
0
0
0
0
0
0
0
0
0
0
0
0
0
0
0
0
0
0
0
0
0
0
0
0
0
0
0
0
0
0
0
0
0
0
0
0
0
0
0
0
0
0
0
0
0
0
0
0
0
0
0
0
0
0
0
0
0
0
0
0
0
0
0
0
0
0
0
0
0
0
0
0
0
0
0
0
0
0
0
0
0
0
0
0
0
0
0
0
0
0
0
0
0
0
0
0
0
0
0
0
0
0
0
0
0
0
0
0
0
0
0
0
0
0
0
0
0
0
0
0
0
0
0
0
0
0
0
0
0
0
0
0
0
0
0
0
0
0
0
0
0
0
0
0
0
0
0
0
0
0
0
0
0
0
0
0
0
0
0
0
0
0
0
0
0
0
0
0
0
0
0
0
0
0
0
0
0
0
0
0
0
0
0
0
0
0
0
0
0
0
0
0
0
0
0
0
0
0
0
0
0
0
0
0
0
0
0
0
0
0
0
0
0
0
0
0
0
0
0
0
0
0
0
0
0
0
0
0
0
0
0
2.4858933e-298
1.41169296e-298
1.17917682e-295
6.74962016e-296
5.5458387e-293
3.19954089e-293
2.58605855e-290
1.5036856e-290
1.19559134e-287
7.00613135e-288
5.48012448e-285
3.2362518e-285
2.490295e-282
1.48197072e-282
1.12189657e-279
6.72756103e-280
5.01054428e-277
3.02752858e-277
2.21837485e-274
1.35058172e-274
9.73621697e-272
5.97214613e-272
4.23582121e-269
2.61775177e-269
1.82668344e-266
1.13735399e-266
7.80823555e-264
4.89710972e-264
3.30819834e-261
2.09047045e-261
1.38919646e-258
8.84403894e-259
5.78166816e-256
3.70876819e-256
2.3847523e-253
1.54085758e-253
9.74802503e-251
6.3440038e-251
3.94870978e-248
2.58830045e-248
1.58504039e-245
1.0464001e-245
6.30452882e-243
4.19173195e-243
2.48468918e-240
1.66372667e-240
9.70237108e-238
6.5424826e-238
3.75360518e-235
2.54890661e-235
1.43867259e-232
9.83770702e-233
5.46254509e-230
3.76131361e-230
2.05458452e-227
1.42451554e-227
7.65463216e-225
5.34382565e-225
2.82468858e-222
1.98549791e-222
1.03237268e-219
7.30621432e-220
3.73675813e-217
2.66252725e-217
1.33942377e-214
9.60829539e-215
4.75419055e-212
3.43336731e-212
1.67086296e-209
1.21474708e-209
5.81406455e-207
4.25512357e-207
2.00291133e-204
1.47559513e-204
6.83051578e-202
5.06544874e-202
2.30579733e-199
1.72119535e-199
7.70423392e-197
5.78853483e-197
2.54766412e-194
1.92662389e-194
8.33722931e-192
6.34566843e-192
2.6997866e-189
2.0680977e-189
8.65018125e-187
6.66864753e-187
2.74200154e-184
2.12733542e-184
8.59833091e-182
6.71309422e-182
2.66698405e-179
2.09533614e-179
8.18164876e-177
6.46819318e-177
2.48215098e-174
1.97452736e-174
7.44618309e-172
5.95998524e-172
2.20854836e-169
1.77860026e-169
6.47583245e-167
5.24698945e-167
1.87692005e-164
1.52998235e-164
5.37652338e-162
4.40910929e-162
1.52196633e-159
1.25558282e-159
4.25692888e-157
3.53272397e-157
1.17628768e-154
9.81932241e-155
3.21064462e-152
2.6958529e-152
8.65497557e-150
7.30948452e-150
2.30390899e-147
1.9569682e-147
6.05506818e-145
5.17267556e-145
1.57091503e-142
1.34960431e-142
4.02243621e-140
3.47520062e-140
1.01636188e-137
8.82988405e-138
2.53365285e-135
2.21334024e-135
6.2301561e-133
5.47233274e-133
1.51082415e-130
1.33425111e-130
3.61242256e-128
3.20737242e-128
8.51442751e-126
7.59993869e-126
1.97780395e-123
1.7746706e-123
4.52664295e-121
4.08287605e-121
1.02052646e-118
9.25219313e-119
2.26575199e-116
2.06460854e-116
4.9524546e-114
4.53549499e-114
1.06542592e-111
9.80572291e-112
2.25522307e-109
2.08579097e-109
4.6955021e-107
4.36375526e-107
9.61296091e-105
8.97644e-105
1.93448038e-102
1.81489213e-102
3.82512417e-100
3.60530359e-100
7.4290787e-98
7.03413509e-98
1.41663612e-95
1.34735625e-95
2.65113754e-93
2.53263723e-93
4.867027e-91
4.66969478e-91
8.76091154e-89
8.44159562e-89
1.54551816e-86
1.49542708e-86
2.67061501e-84
2.5946701e-84
4.51773499e-82
4.4068975e-82
7.47735862e-80
7.32250512e-80
1.21010738e-77
1.18955973e-77
1.91364464e-75
1.88805557e-75
2.95498652e-73
2.92563538e-73
4.45227202e-71
4.42224517e-71
6.54023197e-69
6.51446948e-69
9.35877959e-67
9.34272273e-67
1.30335541e-64
1.30292408e-64
1.76480968e-62
1.76473477e-62
2.32094863e-60
2.31870873e-60
2.96121772e-58
2.9527961e-58
3.66079144e-56
3.64301557e-56
4.37919702e-54
4.35406274e-54
5.06163326e-52
5.03839729e-52
5.64375814e-50
5.63167905e-50
6.06000312e-48
6.05139912e-48
6.25437057e-46
6.22645976e-46
6.19142019e-44
6.14632355e-44
5.86485273e-42
5.8087156e-42
5.30208033e-40
5.24308837e-40
4.56124068e-38
4.50720206e-38
3.72160366e-36
3.67775629e-36
2.86917391e-34
2.83781917e-34
2.08111951e-32
2.06088582e-32
1.41318395e-30
1.41128054e-30
8.93112809e-29
8.89714018e-29
5.21892769e-27
5.18748749e-27
2.79649102e-25
2.77739146e-25
1.36049568e-23
1.35268553e-23
5.93614959e-22
5.91350708e-22
2.28716107e-20
2.28051826e-20
7.62570652e-19
7.60280174e-19
2.14039502e-17
2.13563314e-17
4.86147039e-16
4.86357762e-16
2.04634875e-14
2.05512678e-14
2.12356844e-10
2.24334498e-10
0.0017412671
0.00830530985
0.401261968
0.516332592
0.749975673
0.709347437
0.337100895
0.283789086
0.0739755211
0.0609150591
0.015540769
0.0138527297
0.00366449915
0.00336593305
0.000775931795
0.00073703749
0.000150042487
0.000146967535
2.73883923e-05
2.72915213e-05
5.14013741e-06
5.14075932e-06
1.36225958e-06
1.36183413e-06
7.62140205e-07
7.62360543e-07
6.73458081e-07
6.73499772e-07
6.61125193e-07
6.61127589e-07
6.59503711e-07
6.59503677e-07
6.59300247e-07
6.59302568e-07
6.59276e-07
6.59278365e-07
6.59275029e-07
6.59273439e-07
6.59275051e-07
6.59272638e-07
6.5927524e-07
6.59272941e-07
6.59274331e-07
6.592741e-07
6.59275174e-07
6.59273876e-07
6.59274618e-07
6.59274744e-07
6.5927452e-07
6.59274593e-07
6.59275205e-07
6.59274842e-07
6.59275092e-07
6.59274816e-07
6.59274713e-07
6.59274642e-07
6.59274048e-07
6.59275289e-07
6.59274314e-07
6.59274942e-07
6.59273687e-07
6.59274401e-07
6.5927379e-07
6.59274267e-07
6.59273732e-07
6.59274134e-07
6.59273201e-07
6.5927529e-07
6.59272634e-07
6.59275069e-07
6.59273194e-07
6.59274374e-07
6.59273802e-07
6.59275005e-07
6.59273403e-07
6.59275597e-07
6.592725e-07
6.59275578e-07
6.59274095e-07
6.5927519e-07
6.59274087e-07
6.59273864e-07
6.59274476e-07
6.59273877e-07
6.59274897e-07
6.59274146e-07
6.59274018e-07
6.59273178e-07
6.59275305e-07
6.59272941e-07
6.59276061e-07
6.5927294e-07
6.59275375e-07
6.59273685e-07
6.59276119e-07
6.59273493e-07
6.59275101e-07
6.59273689e-07
6.59274618e-07
6.59274346e-07
6.5927519e-07
6.59273678e-07
6.5927522e-07
6.59274251e-07
6.59273652e-07
6.592748e-07
6.59273841e-07
6.59274345e-07
6.59275094e-07
6.59273862e-07
6.592748e-07
6.59273835e-07
6.59273985e-07
6.59274059e-07
6.59273819e-07
6.59274812e-07
6.59272645e-07
6.59275221e-07
6.59273934e-07
6.59275695e-07
6.59273476e-07
6.59275502e-07
6.59273538e-07
6.59274883e-07
6.59274016e-07
6.59275082e-07
6.59273412e-07
6.59275599e-07
6.5927342e-07
6.59275971e-07
6.59274137e-07
6.59274944e-07
6.59274961e-07
6.59275743e-07
6.59274568e-07
6.59275624e-07
6.59274121e-07
6.59274843e-07
6.59273974e-07
6.59274496e-07
6.59273917e-07
6.5927403e-07
6.59273386e-07
6.59275033e-07
6.59272819e-07
6.592744e-07
6.5927379e-07
6.59274345e-07
6.59274252e-07
6.59273485e-07
6.59275899e-07
6.59272704e-07
6.59274915e-07
6.59272999e-07
6.59276263e-07
6.59273749e-07
6.59275028e-07
6.59273556e-07
6.59275672e-07
6.59272988e-07
6.59276128e-07
6.59273402e-07
6.59276073e-07
6.59274131e-07
6.59276327e-07
6.59273924e-07
6.59275097e-07
6.59274533e-07
6.59274217e-07
6.59273829e-07
6.59274385e-07
6.59273931e-07
6.59273656e-07
6.59275365e-07
6.5927446e-07
6.59280255e-07
6.59281664e-07
6.59317046e-07
6.59320806e-07
6.59444451e-07
6.59442573e-07
6.59317274e-07
6.59317082e-07
6.59280813e-07
6.59279806e-07
6.59275495e-07
6.59274817e-07
6.59274985e-07
6.59274947e-07
6.59274192e-07
6.59274911e-07
6.5927411e-07
6.59275769e-07
6.59274415e-07
6.59275232e-07
6.59273926e-07
6.59274433e-07
6.59274397e-07
6.59275508e-07
6.59273687e-07
6.59275438e-07
6.5927422e-07
6.59276098e-07
6.59273736e-07
6.59276256e-07
6.59273559e-07
6.59275043e-07
6.59274229e-07
6.59275691e-07
6.59274169e-07
6.59274925e-07
6.59274118e-07
6.59275244e-07
6.59273906e-07
6.59275622e-07
6.59274855e-07
6.59274125e-07
6.59275011e-07
6.59275006e-07
6.59275311e-07
6.59274377e-07
6.59275168e-07
6.59274994e-07
6.59275794e-07
6.59275494e-07
6.59274244e-07
6.59275593e-07
6.59273453e-07
6.59275945e-07
6.59274393e-07
6.59274799e-07
6.59275057e-07
6.59275469e-07
6.5927469e-07
6.59274791e-07
6.59275669e-07
6.59274917e-07
6.59275767e-07
6.59274901e-07
6.59275348e-07
6.59275534e-07
6.59276247e-07
6.59274009e-07
6.59276384e-07
6.59273974e-07
6.59275994e-07
6.59274091e-07
6.59275322e-07
6.59274411e-07
6.59274104e-07
6.59275347e-07
6.59275251e-07
6.5927441e-07
6.59274687e-07
6.59275167e-07
6.5927484e-07
6.59274024e-07
6.59275405e-07
6.59274802e-07
6.59275871e-07
6.59274803e-07
6.59276294e-07
6.59274733e-07
6.59274718e-07
6.59275754e-07
6.59273708e-07
6.59275526e-07
6.59273634e-07
6.59275179e-07
6.59274122e-07
6.59276269e-07
6.59274141e-07
6.59275047e-07
6.59274839e-07
6.59274907e-07
6.59275639e-07
6.59274472e-07
6.59274585e-07
6.59274672e-07
6.59274643e-07
6.59274652e-07
6.59275023e-07
6.59274752e-07
6.59274972e-07
6.59274682e-07
6.59274119e-07
6.59274823e-07
6.59275328e-07
6.59274895e-07
6.5927551e-07
6.59275171e-07
6.59274881e-07
6.59275837e-07
6.59273978e-07
6.59274684e-07
6.59274702e-07
6.59274293e-07
6.59275908e-07
6.59275562e-07
6.59275509e-07
6.59275468e-07
6.59275653e-07
6.59275203e-07
6.59275233e-07
6.5927513e-07
6.59275715e-07
6.59274866e-07
6.59274782e-07
6.5927439e-07
6.59275524e-07
6.59273127e-07
6.59275371e-07
6.59273851e-07
6.5927558e-07
6.59274954e-07
6.59274994e-07
6.59275523e-07
6.59274176e-07
6.59276432e-07
6.59273615e-07
6.59276321e-07
6.59272935e-07
6.59276775e-07
6.59274277e-07
6.59276202e-07
6.59274256e-07
6.59275557e-07
6.59274925e-07
6.59275836e-07
6.59274347e-07
6.59276243e-07
6.5927438e-07
6.59274825e-07
6.59275272e-07
6.59275416e-07
6.59274784e-07
6.59275112e-07
6.59276241e-07
6.5927502e-07
6.59274877e-07
6.592757e-07
6.59275884e-07
6.59275067e-07
6.59275633e-07
6.59275633e-07
6.59274942e-07
6.59275489e-07
6.5927474e-07
6.59275811e-07
6.59274937e-07
6.5927511e-07
6.59275525e-07
6.59275045e-07
6.59274959e-07
6.59274094e-07
6.59274843e-07
6.59275968e-07
6.59274696e-07
6.59275877e-07
6.59274662e-07
6.59275503e-07
6.59275135e-07
6.59275357e-07
6.592753e-07
6.59275783e-07
6.59274655e-07
6.59275763e-07
6.59275456e-07
6.5927654e-07
6.59274936e-07
6.59275825e-07
6.59275193e-07
6.59275489e-07
6.59275683e-07
6.59276913e-07
6.59274804e-07
6.59276057e-07
6.59275144e-07
6.59276401e-07
6.5927517e-07
6.59276053e-07
6.59275447e-07
6.59276177e-07
6.59274904e-07
6.59276232e-07
6.59274974e-07
6.59274929e-07
6.59276043e-07
6.5927446e-07
6.59275669e-07
6.59274691e-07
6.59275121e-07
6.59274966e-07
6.59275169e-07
6.59275872e-07
6.59275801e-07
6.59274768e-07
6.59275942e-07
6.59275659e-07
6.59275793e-07
6.5927568e-07
6.59275264e-07
6.59274865e-07
6.59276477e-07
6.59273588e-07
6.59276022e-07
6.59274293e-07
6.59276098e-07
6.59275217e-07
6.59275816e-07
6.59275871e-07
6.59275208e-07
6.59276693e-07
6.59274742e-07
6.59275477e-07
6.59275487e-07
6.59275208e-07
6.59276281e-07
6.59275795e-07
6.59276275e-07
6.59275946e-07
6.59276079e-07
6.59275039e-07
6.59277203e-07
6.59275535e-07
6.59276899e-07
6.59275532e-07
6.59275946e-07
6.59275567e-07
6.5927611e-07
6.59275543e-07
6.59275992e-07
6.59275903e-07
6.5927599e-07
6.59276774e-07
6.59275734e-07
6.59276121e-07
6.59275348e-07
6.5927625e-07
6.59276072e-07
6.5927588e-07
6.59276488e-07
6.59274999e-07
6.59276142e-07
6.59275403e-07
6.59276673e-07
6.59275626e-07
6.59276011e-07
6.59276039e-07
6.59275582e-07
6.59275679e-07
6.5927605e-07
6.59275608e-07
6.59274824e-07
6.59275373e-07
6.59275714e-07
6.59275921e-07
6.59275303e-07
6.5927537e-07
6.5927638e-07
6.59275532e-07
6.59276259e-07
6.5927454e-07
6.59277076e-07
6.59274694e-07
6.59277257e-07
6.59275898e-07
6.59276477e-07
6.59276238e-07
6.59276106e-07
6.59275564e-07
6.59276205e-07
6.59275724e-07
6.59275277e-07
6.59275797e-07
6.59275939e-07
6.59275754e-07
6.59276774e-07
6.59275403e-07
6.59276021e-07
6.59275229e-07
6.59275569e-07
6.5927609e-07
6.59276102e-07
6.59274968e-07
6.59276298e-07
6.5927573e-07
6.59274928e-07
6.59276475e-07
6.59274806e-07
6.59277172e-07
6.59275051e-07
6.59277401e-07
6.59275058e-07
6.59277738e-07
6.59274607e-07
6.59277071e-07
6.59275454e-07
6.59275957e-07
6.59275905e-07
6.59276054e-07
6.59275729e-07
6.59276365e-07
6.59276567e-07
6.59275776e-07
6.59274782e-07
6.59276817e-07
6.59275798e-07
6.59276233e-07
6.59276287e-07
6.59276016e-07
6.59275632e-07
6.59276021e-07
6.59275909e-07
6.59276257e-07
6.5927582e-07
6.59276193e-07
6.59276303e-07
6.59275922e-07
6.59275991e-07
6.59276162e-07
6.59276167e-07
6.59276247e-07
6.59276037e-07
6.59276312e-07
6.59276083e-07
6.59276219e-07
6.59276232e-07
6.5927634e-07
6.59276255e-07
6.59276341e-07
6.59276444e-07
6.59276465e-07
6.59276424e-07
6.59276531e-07
6.59276598e-07
6.59276575e-07
6.59276665e-07
6.5927673e-07
6.59276849e-07
6.59276884e-07
6.59276957e-07
6.59277063e-07
6.59277126e-07
6.59277238e-07
6.59277376e-07
6.59277517e-07
6.59277602e-07
6.59277803e-07
6.59277978e-07
6.59278184e-07
6.59278432e-07
6.59278707e-07
6.59279047e-07
6.5927943e-07
6.5927982e-07
6.59280167e-07
6.59280467e-07
6.59280714e-07
6.59280896e-07
6.59280951e-07
6.59281011e-07
6.59281025e-07
6.59281014e-07
6.59281035e-07
6.59281039e-07
6.59281021e-07
6.59281046e-07
6.59281018e-07
6.5928102e-07
6.59281022e-07
6.59281023e-07
6.59281017e-07
6.59281013e-07
6.59281021e-07
6.59281022e-07
6.59281005e-07
6.59281047e-07
)
;

boundaryField
{
    closed
    {
        type            calculated;
        value           uniform 0;
    }
    open
    {
        type            calculated;
        value           uniform 0;
    }
    sides
    {
        type            empty;
    }
}


// ************************************************************************* //
