/*--------------------------------*- C++ -*----------------------------------*\
| =========                 |                                                 |
| \\      /  F ield         | OpenFOAM: The Open Source CFD Toolbox           |
|  \\    /   O peration     | Version:  2206                                  |
|   \\  /    A nd           | Website:  www.openfoam.com                      |
|    \\/     M anipulation  |                                                 |
\*---------------------------------------------------------------------------*/
FoamFile
{
    version     2.0;
    format      ascii;
    arch        "LSB;label=32;scalar=64";
    class       volScalarField;
    location    "1.9e-05";
    object      rho;
}
// * * * * * * * * * * * * * * * * * * * * * * * * * * * * * * * * * * * * * //

dimensions      [1 -3 0 0 0 0 0];

internalField   nonuniform List<scalar> 
3183
(
1.03926466
1.03926466
1.03926466
1.03926466
1.03926466
1.03926466
1.03926466
1.03926466
1.03926466
1.03926466
1.03926466
1.03926466
1.03926466
1.03926466
1.03926466
1.03926466
1.03926466
1.03926466
1.03926466
1.03926466
1.03926466
1.03926466
1.03926466
1.03926466
1.03926466
1.03926466
1.03926466
1.03926466
1.03926466
1.03926466
1.03926466
1.03926466
1.03926466
1.03926466
1.03926466
1.03926466
1.03926466
1.03926466
1.03926466
1.03926466
1.03926466
1.03926466
1.03926466
1.03926466
1.03926466
1.03926466
1.03926466
1.03926466
1.03926466
1.03926466
1.03926466
1.03926466
1.03926466
1.03926466
1.03926466
1.03926466
1.03926466
1.03926466
1.03926466
1.03926466
1.03926466
1.03926466
1.03926466
1.03926466
1.03926466
1.03926466
1.03926466
1.03926466
1.03926466
1.03926466
1.03926466
1.03926466
1.03926466
1.03926466
1.03926466
1.03926466
1.03926466
1.03926466
1.03926466
1.03926466
1.03926466
1.03926466
1.03926466
1.03926466
1.03926466
1.03926466
1.03926466
1.03926466
1.03926466
1.03926466
1.03926466
1.03926466
1.03926466
1.03926466
1.03926466
1.03926466
1.03926466
1.03926466
1.03926466
1.03926466
1.03926466
1.03926466
1.03926466
1.03926466
1.03926466
1.03926466
1.03926466
1.03926466
1.03926466
1.03926466
1.03926466
1.03926466
1.03926466
1.03926466
1.03926466
1.03926466
1.03926466
1.03926466
1.03926466
1.03926466
1.03926466
1.03926466
1.03926466
1.03926466
1.03926466
1.03926466
1.03926466
1.03926466
1.03926466
1.03926466
1.03926466
1.03926466
1.03926466
1.03926466
1.03926466
1.03926466
1.03926466
1.03926466
1.03926466
1.03926466
1.03926466
1.03926466
1.03926466
1.03926466
1.03926466
1.03926466
1.03926466
1.03926466
1.03926466
1.03926466
1.03926466
1.03926466
1.03926466
1.03926466
1.03926466
1.03926466
1.03926466
1.03926466
1.03926466
1.03926466
1.03926466
1.03926466
1.03926466
1.03926466
1.03926466
1.03926466
1.03926466
1.03926466
1.03926466
1.03926466
1.03926466
1.03926466
1.03926466
1.03926466
1.03926466
1.03926466
1.03926466
1.03926466
1.03926466
1.03926466
1.03926466
1.03926466
1.03926466
1.03926466
1.03926466
1.03926466
1.03926466
1.03926466
1.03926466
1.03926466
1.03926466
1.03926466
1.03926466
1.03926466
1.03926466
1.03926466
1.03926466
1.03926466
1.03926466
1.03926466
1.03926466
1.03926466
1.03926466
1.03926466
1.03926466
1.03926466
1.03926466
1.03926466
1.03926466
1.03926466
1.03926466
1.03926466
1.03926466
1.03926466
1.03926466
1.03926466
1.03926466
1.03926466
1.03926466
1.03926466
1.03926466
1.03926466
1.03926466
1.03926466
1.03926466
1.03926466
1.03926466
1.03926466
1.03926466
1.03926466
1.03926466
1.03926466
1.03926466
1.03926466
1.03926466
1.03926466
1.03926466
1.03926466
1.03926466
1.03926466
1.03926466
1.03926466
1.03926466
1.03926466
1.03926466
1.03926466
1.03926466
1.03926466
1.03926466
1.03926466
1.03926466
1.03926466
1.03926466
1.03926466
1.03926466
1.03926466
1.03926466
1.03926466
1.03926466
1.03926466
1.03926466
1.03926466
1.03926466
1.03926466
1.03926466
1.03926466
1.03926466
1.03926466
1.03926466
1.03926466
1.03926466
1.03926466
1.03926466
1.03926466
1.03926466
1.03926466
1.03926466
1.03926466
1.03926466
1.03926466
1.03926466
1.03926466
1.03926466
1.03926466
1.03926466
1.03926466
1.03926466
1.03926466
1.03926466
1.03926466
1.03926466
1.03926466
1.03926466
1.03926466
1.03926466
1.03926466
1.03926466
1.03926466
1.03926466
1.03926466
1.03926466
1.03926466
1.03926466
1.03926466
1.03926466
1.03926466
1.03926466
1.03926466
1.03926466
1.03926466
1.03926466
1.03926466
1.03926466
1.03926466
1.03926466
1.03926466
1.03926466
1.03926466
1.03926466
1.03926466
1.03926466
1.03926466
1.03926466
1.03926466
1.03926466
1.03926466
1.03926466
1.03926466
1.03926466
1.03926466
1.03926466
1.03926466
1.03926466
1.03926466
1.03926466
1.03926466
1.03926466
1.03926466
1.03926466
1.03926466
1.03926466
1.03926466
1.03926466
1.03926466
1.03926466
1.03926466
1.03926466
1.03926466
1.03926466
1.03926466
1.03926466
1.03926466
1.03926466
1.03926466
1.03926466
1.03926466
1.03926466
1.03926466
1.03926466
1.03926466
1.03926466
1.03926466
1.03926466
1.03926466
1.03926466
1.03926466
1.03926466
1.03926466
1.03926466
1.03926466
1.03926466
1.03926466
1.03926466
1.03926466
1.03926466
1.03926466
1.03926466
1.03926466
1.03926466
1.03926466
1.03926466
1.03926466
1.03926466
1.03926466
1.03926466
1.03926466
1.03926466
1.03926466
1.03926466
1.03926466
1.03926466
1.03926466
1.03926466
1.03926466
1.03926466
1.03926466
1.03926466
1.03926466
1.03926466
1.03926466
1.03926466
1.03926466
1.03926466
1.03926466
1.03926466
1.03926466
1.03926466
1.03926466
1.03926466
1.03926466
1.03926466
1.03926466
1.03926466
1.03926466
1.03926466
1.03926466
1.03926466
1.03926466
1.03926466
1.03926466
1.03926466
1.03926466
1.03926466
1.03926466
1.03926466
1.03926466
1.03926466
1.03926466
1.03926466
1.03926466
1.03926466
1.03926466
1.03926466
1.03926466
1.03926466
1.03926466
1.03926466
1.03926466
1.03926466
1.03926466
1.03926466
1.03926466
1.03926466
1.03926466
1.03926466
1.03926466
1.03926466
1.03926466
1.03926466
1.03926466
1.03926466
1.03926466
1.03926466
1.03926466
1.03926466
1.03926466
1.03926466
1.03926466
1.03926466
1.03926466
1.03926466
1.03926466
1.03926466
1.03926466
1.03926466
1.03926466
1.03926466
1.03926466
1.03926466
1.03926466
1.03926466
1.03926466
1.03926466
1.03926466
1.03926466
1.03926466
1.03926466
1.03926466
1.03926466
1.03926466
1.03926466
1.03926466
1.03926466
1.03926466
1.03926466
1.03926466
1.03926466
1.03926466
1.03926466
1.03926466
1.03926466
1.03926466
1.03926466
1.03926466
1.03926466
1.03926466
1.03926466
1.03926466
1.03926466
1.03926466
1.03926466
1.03926466
1.03926466
1.03926466
1.03926466
1.03926466
1.03926466
1.03926466
1.03926466
1.03926466
1.03926466
1.03926466
1.03926466
1.03926466
1.03926466
1.03926466
1.03926466
1.03926466
1.03926466
1.03926466
1.03926466
1.03926466
1.03926466
1.03926466
1.03926466
1.03926466
1.03926466
1.03926466
1.03926466
1.03926466
1.03926466
1.03926466
1.03926466
1.03926466
1.03926466
1.03926466
1.03926466
1.03926466
1.03926466
1.03926466
1.03926466
1.03926466
1.03926466
1.03926466
1.03926466
1.03926466
1.03926466
1.03926466
1.03926466
1.03926466
1.03926466
1.03926466
1.03926466
1.03926466
1.03926466
1.03926466
1.03926466
1.03926466
1.03926466
1.03926466
1.03926466
1.03926466
1.03926466
1.03926466
1.03926466
1.03926466
1.03926466
1.03926466
1.03926466
1.03926466
1.03926466
1.03926466
1.03926466
1.03926466
1.03926466
1.03926466
1.03926466
1.03926466
1.03926466
1.03926466
1.03926466
1.03926466
1.03926466
1.03926466
1.03926466
1.03926466
1.03926466
1.03926466
1.03926466
1.03926466
1.03926466
1.03926466
1.03926466
1.03926466
1.03926466
1.03926466
1.03926466
1.03926466
1.03926466
1.03926466
1.03926466
1.03926466
1.03926466
1.03926466
1.03926466
1.03926466
1.03926466
1.03926466
1.03926466
1.03926466
1.03926466
1.03926466
1.03926466
1.03926466
1.03926466
1.03926466
1.03926466
1.03926466
1.03926466
1.03926466
1.03926466
1.03926466
1.03926466
1.03926466
1.03926466
1.03926466
1.03926466
1.03926466
1.03926466
1.03926466
1.03926466
1.03926466
1.03926466
1.03926466
1.03926466
1.03926466
1.03926466
1.03926466
1.03926466
1.03926466
1.03926466
1.03926466
1.03926466
1.03926466
1.03926466
1.03926466
1.03926466
1.03926466
1.03926466
1.03926466
1.03926466
1.03926466
1.03926466
1.03926466
1.03926466
1.03926466
1.03926466
1.03926466
1.03926466
1.03926466
1.03926466
1.03926466
1.03926466
1.03926466
1.03926466
1.03926466
1.03926466
1.03926466
1.03926466
1.03926466
1.03926466
1.03926466
1.03926466
1.03926466
1.03926466
1.03926466
1.03926466
1.03926466
1.03926466
1.03926466
1.03926466
1.03926466
1.03926466
1.03926466
1.03926466
1.03926466
1.03926466
1.03926466
1.03926466
1.03926466
1.03926466
1.03926466
1.03926466
1.03926466
1.03926466
1.03926466
1.03926466
1.03926466
1.03926466
1.03926466
1.03926466
1.03926466
1.03926466
1.03926466
1.03926466
1.03926466
1.03926466
1.03926466
1.03926466
1.03926466
1.03926466
1.03926466
1.03926466
1.03926466
1.03926466
1.03926466
1.03926466
1.03926466
1.03926466
1.03926466
1.03926466
1.03926466
1.03926466
1.03926466
1.03926466
1.03926466
1.03926466
1.03926466
1.03926466
1.03926466
1.03926466
1.03926466
1.03926466
1.03926466
1.03926466
1.03926466
1.03926466
1.03926466
1.03926466
1.03926466
1.03926466
1.03926466
1.03926466
1.03926466
1.03926466
1.03926466
1.03926466
1.03926466
1.03926466
1.03926466
1.03926466
1.03926466
1.03926466
1.03926466
1.03926466
1.03926466
1.03926466
1.03926466
1.03926466
1.03926466
1.03926466
1.03926466
1.03926466
1.03926466
1.03926466
1.03926466
1.03926466
1.03926466
1.03926466
1.03926466
1.03926466
1.03926466
1.03926466
1.03926466
1.03926466
1.03926466
1.03926466
1.03926466
1.03926466
1.03926466
1.03926466
1.03926466
1.03926466
1.03926466
1.03926466
1.03926466
1.03926466
1.03926466
1.03926466
1.03926466
1.03926466
1.03926466
1.03926466
1.03926466
1.03926466
1.03926466
1.03926466
1.03926466
1.03926466
1.03926466
1.03926466
1.03926466
1.03926466
1.03926466
1.03926466
1.03926466
1.03926466
1.03926466
1.03926466
1.03926466
1.03926466
1.03926466
1.03926466
1.03926466
1.03926466
1.03926466
1.03926466
1.03926466
1.03926466
1.03926466
1.03926466
1.03926466
1.03926466
1.03926466
1.03926466
1.03926466
1.03926466
1.03926466
1.03926466
1.03926466
1.03926466
1.03926466
1.03926466
1.03926466
1.03926466
1.03926466
1.03926466
1.03926466
1.03926466
1.03926466
1.03926466
1.03926466
1.03926466
1.03926466
1.03926466
1.03926466
1.03926466
1.03926466
1.03926466
1.03926466
1.03926466
1.03926466
1.03926466
1.03926466
1.03926466
1.03926466
1.03926466
1.03926466
1.03926466
1.03926466
1.03926466
1.03926466
1.03926466
1.03926466
1.03926466
1.03926466
1.03926466
1.03926466
1.03926466
1.03926466
1.03926466
1.03926466
1.03926466
1.03926466
1.03926466
1.03926466
1.03926466
1.03926466
1.03926466
1.03926466
1.03926466
1.03926466
1.03926466
1.03926466
1.03926466
1.03926466
1.03926466
1.03926466
1.03926466
1.03926466
1.03926466
1.03926466
1.03926466
1.03926466
1.03926466
1.03926466
1.03926466
1.03926466
1.03926466
1.03926466
1.03926466
1.03926466
1.03926466
1.03926466
1.03926466
1.03926466
1.03926466
1.03926466
1.03926466
1.03926466
1.03926466
1.03926466
1.03926466
1.03926466
1.03926466
1.03926466
1.03926466
1.03926466
1.03926466
1.03926466
1.03926466
1.03926466
1.03926466
1.03926466
1.03926466
1.03926466
1.03926466
1.03926466
1.03926466
1.03926466
1.03926466
1.03926466
1.03926466
1.03926466
1.03926466
1.03926466
1.03926466
1.03926466
1.03926466
1.03926466
1.03926466
1.03926466
1.03926466
1.03926466
1.03926466
1.03926466
1.03926466
1.03926466
1.03926466
1.03926466
1.03926466
1.03926466
1.03926466
1.03926466
1.03926466
1.03926466
1.03926466
1.03926466
1.03926466
1.03926466
1.03926466
1.03926466
1.03926466
1.03926466
1.03926466
1.03926466
1.03926466
1.03926466
1.03926466
1.03926466
1.03926466
1.03926466
1.03926466
1.03926466
1.03926466
1.03926466
1.03926466
1.03926466
1.03926466
1.03926466
1.03926466
1.03926466
1.03926466
1.03926466
1.03926466
1.03926466
1.03926466
1.03926466
1.03926466
1.03926466
1.03926466
1.03926466
1.03926466
1.03926466
1.03926466
1.03926466
1.03926466
1.03926466
1.03926466
1.03926466
1.03926466
1.03926466
1.03926466
1.03926466
1.03926466
1.03926466
1.03926466
1.03926466
1.03926466
1.03926466
1.03926466
1.03926466
1.03926466
1.03926466
1.03926466
1.03926466
1.03926466
1.03926466
1.03926466
1.03926466
1.03926466
1.03926466
1.03926466
1.03926466
1.03926466
1.03926466
1.03926466
1.03926466
1.03926466
1.03926466
1.03926466
1.03926466
1.03926466
1.03926466
1.03926466
1.03926466
1.03926466
1.03926466
1.03926466
1.03926466
1.03926466
1.03926466
1.03926466
1.03926466
1.03926466
1.03926466
1.03926466
1.03926466
1.03926466
1.03926466
1.03926466
1.03926466
1.03926466
1.03926466
1.03926466
1.03926466
1.03926466
1.03926466
1.03926466
1.03926466
1.03926466
1.03926466
1.03926466
1.03926466
1.03926466
1.03926466
1.03926466
1.03926466
1.03926466
1.03926466
1.03926466
1.03926466
1.03926466
1.03926466
1.03926466
1.03926466
1.03926466
1.03926466
1.03926466
1.03926466
1.03926466
1.03926466
1.03926466
1.03926466
1.03926466
1.03926466
1.03926466
1.03926466
1.03926466
1.03926466
1.03926466
1.03926466
1.03926466
1.03926466
1.03926466
1.03926466
1.03926466
1.03926466
1.03926466
1.03926466
1.03926466
1.03926466
1.03926466
1.03926466
1.03926466
1.03926466
1.03926466
1.03926466
1.03926466
1.03926466
1.03926466
1.03926466
1.03926466
1.03926466
1.03926466
1.03926466
1.03926466
1.03926466
1.03926466
1.03926466
1.03926466
1.03926466
1.03926466
1.03926466
1.03926466
1.03926466
1.03926466
1.03926466
1.03926466
1.03926466
1.03926466
1.03926466
1.03926466
1.03926466
1.03926466
1.03926466
1.03926466
1.03926466
1.03926466
1.03926466
1.03926466
1.03926466
1.03926466
1.03926466
1.03926466
1.03926466
1.03926466
1.03926466
1.03926466
1.03926466
1.03926466
1.03926466
1.03926466
1.03926466
1.03926466
1.03926466
1.03926466
1.03926466
1.03926466
1.03926466
1.03926466
1.03926466
1.03926466
1.03926466
1.03926466
1.03926466
1.03926466
1.03926466
1.03926466
1.03926466
1.03926466
1.03926466
1.03926466
1.03926466
1.03926466
1.03926466
1.03926466
1.03926466
1.03926466
1.03926466
1.03926466
1.03926466
1.03926466
1.03926466
1.03926466
1.03926466
1.03926466
1.03926466
1.03926466
1.03926466
1.03926466
1.03926466
1.03926466
1.03926466
1.03926466
1.03926466
1.03926466
1.03926466
1.03926466
1.03926466
1.03926466
1.03926466
1.03926466
1.03926466
1.03926466
1.03926466
1.03926466
1.03926466
1.03926466
1.03926466
1.03926466
1.03926466
1.03926466
1.03926466
1.03926466
1.03926466
1.03926466
1.03926466
1.03926466
1.03926466
1.03926466
1.03926466
1.03926466
1.03926466
1.03926466
1.03926466
1.03926466
1.03926466
1.03926466
1.03926466
1.03926466
1.03926466
1.03926466
1.03926466
1.03926466
1.03926466
1.03926466
1.03926466
1.03926466
1.03926466
1.03926466
1.03926466
1.03926466
1.03926466
1.03926466
1.03926466
1.03926466
1.03926466
1.03926466
1.03926466
1.03926466
1.03926466
1.03926466
1.03926466
1.03926466
1.03926466
1.03926466
1.03926466
1.03926466
1.03926466
1.03926466
1.03926466
1.03926466
1.03926466
1.03926466
1.03926466
1.03926466
1.03926466
1.03926466
1.03926466
1.03926466
1.03926466
1.03926466
1.03926466
1.03926466
1.03926466
1.03926466
1.03926466
1.03926466
1.03926466
1.03926466
1.03926466
1.03926466
1.03926466
1.03926466
1.03926466
1.03926466
1.03926466
1.03926466
1.03926466
1.03926466
1.03926466
1.03926466
1.03926466
1.03926466
1.03926466
1.03926466
1.03926466
1.03926466
1.03926466
1.03926466
1.03926466
1.03926466
1.03926466
1.03926466
1.03926466
1.03926466
1.03926466
1.03926466
1.03926466
1.03926466
1.03926466
1.03926466
1.03926466
1.03926466
1.03926466
1.03926466
1.03926466
1.03926466
1.03926466
1.03926466
1.03926466
1.03926466
1.03926466
1.03926466
1.03926466
1.03926466
1.03926466
1.03926466
1.03926466
1.03926466
1.03926466
1.03926466
1.03926466
1.03926466
1.03926466
1.03926466
1.03926466
1.03926466
1.03926466
1.03926466
1.03926466
1.03926466
1.03926466
1.03926466
1.03926466
1.03926466
1.03926466
1.03926466
1.03926466
1.03926466
1.03926466
1.03926466
1.03926466
1.03926466
1.03926466
1.03926466
1.03926466
1.03926466
1.03926466
1.03926466
1.03926466
1.03926466
1.03926466
1.03926466
1.03926466
1.03926466
1.03926466
1.03926466
1.03926466
1.03926466
1.03926466
1.03926466
1.03926466
1.03926466
1.03926466
1.03926466
1.03926466
1.03926466
1.03926466
1.03926466
1.03926466
1.03926466
1.03926466
1.03926466
1.03926466
1.03926466
1.03926466
1.03926466
1.03926466
1.03926466
1.03926466
1.03926466
1.03926466
1.03926466
1.03926466
1.03926466
1.03926466
1.03926466
1.03926466
1.03926466
1.03926466
1.03926466
1.03926466
1.03926466
1.03926466
1.03926466
1.03926466
1.03926466
1.03926466
1.03926466
1.03926466
1.03926466
1.03926466
1.03926466
1.03926466
1.03926466
1.03926466
1.03926466
1.03926466
1.03926466
1.03926466
1.03926466
1.03926466
1.03926466
1.03926466
1.03926466
1.03926466
1.03926466
1.03926466
1.03926466
1.03926466
1.03926466
1.03926466
1.03926466
1.03926466
1.03926466
1.03926466
1.03926466
1.03926466
1.03926466
1.03926466
1.03926466
1.03926466
1.03926466
1.03926466
1.03926466
1.03926466
1.03926466
1.03926466
1.03926466
1.03926466
1.03926466
1.03926466
1.03926466
1.03926466
1.03926466
1.03926466
1.03926466
1.03926466
1.03926466
1.03926466
1.03926466
1.03926466
1.03926466
1.03926466
1.03926466
1.03926466
1.03926466
1.03926466
1.03926466
1.03926466
1.03926466
1.03926466
1.03926466
1.03926466
1.03926466
1.03926466
1.03926466
1.03926466
1.03926466
1.03926466
1.03926466
1.03926466
1.03926466
1.03926466
1.03926466
1.03926466
1.03926466
1.03926466
1.03926466
1.03926466
1.03926466
1.03926466
1.03926466
1.03926466
1.03926466
1.03926466
1.03926466
1.03926466
1.03926466
1.03926466
1.03926466
1.03926466
1.03926466
1.03926466
1.03926466
1.03926466
1.03926466
1.03926466
1.03926466
1.03926466
1.03926466
1.03926466
1.03926466
1.03926466
1.03926466
1.03926466
1.03926466
1.03926466
1.03926466
1.03926466
1.03926466
1.03926466
1.03926466
1.03926466
1.03926466
1.03926466
1.03926466
1.03926466
1.03926466
1.03926466
1.03926466
1.03926466
1.03926466
1.03926466
1.03926466
1.03926466
1.03926466
1.03926466
1.03926466
1.03926466
1.03926466
1.03926466
1.03926466
1.03926466
1.03926466
1.03926466
1.03926466
1.03926466
1.03926466
1.03926466
1.03926466
1.03926466
1.03926466
1.03926466
1.03926466
1.03926466
1.03926466
1.03926466
1.03926466
1.03926466
1.03926466
1.03926466
1.03926466
1.03926466
1.03926466
1.03926466
1.03926466
1.03926466
1.03926466
1.03926466
1.03926466
1.03926466
1.03926466
1.03926466
1.03926466
1.03926466
1.03926466
1.03926466
1.03926466
1.03926466
1.03926466
1.03926466
1.03926466
1.03926466
1.03926466
1.03926466
1.03926466
1.03926466
1.03926466
1.03926466
1.03926466
1.03926466
1.03926466
1.03926466
1.03926466
1.03926466
1.03926466
1.03926466
1.03926466
1.03926466
1.03926466
1.03926466
1.03926466
1.03926466
1.03926466
1.03926466
1.03926466
1.03926466
1.03926466
1.03926466
1.03926466
1.03926466
1.03926466
1.03926466
1.03926466
1.03926466
1.03926466
1.03926466
1.03926466
1.03926466
1.03926466
1.03926466
1.03926466
1.03926466
1.03926466
1.03926466
1.03926466
1.03926466
1.03926466
1.03926466
1.03926466
1.03926466
1.03926466
1.03926466
1.03926466
1.03926466
1.03926466
1.03926466
1.03926466
1.03926466
1.03926466
1.03926466
1.03926466
1.03926466
1.03926466
1.03926466
1.03926466
1.03926466
1.03926466
1.03926466
1.03926466
1.03926466
1.03926466
1.03926466
1.03926466
1.03926466
1.03926466
1.03926466
1.03926466
1.03926466
1.03926466
1.03926466
1.03926466
1.03926466
1.03926466
1.03926466
1.03926466
1.03926466
1.03926466
1.03926466
1.03926466
1.03926466
1.03926466
1.03926466
1.03926466
1.03926466
1.03926466
1.03926466
1.03926466
1.03926466
1.03926466
1.03926466
1.03926466
1.03926466
1.03926466
1.03926466
1.03926466
1.03926466
1.03926466
1.03926466
1.03926466
1.03926466
1.03926466
1.03926466
1.03926466
1.03926466
1.03926466
1.03926466
1.03926466
1.03926466
1.03926466
1.03926466
1.03926466
1.03926466
1.03926466
1.03926466
1.03926466
1.03926466
1.03926466
1.03926465
1.03926465
1.03926465
1.03926465
1.03926465
1.03926465
1.03926465
1.03926465
1.03926465
1.03926465
1.03926465
1.03926465
1.03926465
1.03926465
1.03926465
1.03926464
1.03926464
1.03926464
1.03926464
1.03926464
1.03926464
1.03926464
1.03926464
1.03926464
1.03926463
1.03926463
1.03926463
1.03926463
1.03926463
1.03926463
1.03926462
1.03926462
1.03926462
1.03926462
1.03926461
1.03926461
1.03926461
1.03926461
1.0392646
1.0392646
1.0392646
1.03926459
1.03926459
1.03926459
1.03926458
1.03926458
1.03926457
1.03926457
1.03926456
1.03926456
1.03926455
1.03926455
1.03926454
1.03926454
1.03926453
1.03926452
1.03926452
1.03926451
1.0392645
1.03926449
1.03926448
1.03926448
1.03926447
1.03926446
1.03926445
1.03926444
1.03926443
1.03926441
1.0392644
1.03926439
1.03926438
1.03926436
1.03926435
1.03926433
1.03926432
1.0392643
1.03926428
1.03926426
1.03926424
1.03926422
1.0392642
1.03926418
1.03926416
1.03926414
1.03926411
1.03926409
1.03926406
1.03926403
1.039264
1.03926397
1.03926394
1.03926391
1.03926387
1.03926384
1.0392638
1.03926376
1.03926372
1.03926368
1.03926364
1.03926359
1.03926354
1.03926349
1.03926344
1.03926339
1.03926333
1.03926327
1.03926321
1.03926315
1.03926308
1.03926302
1.03926295
1.03926287
1.0392628
1.03926272
1.03926264
1.03926255
1.03926246
1.03926237
1.03926227
1.03926217
1.03926207
1.03926197
1.03926185
1.03926174
1.03926162
1.0392615
1.03926137
1.03926124
1.0392611
1.03926096
1.03926081
1.03926066
1.0392605
1.03926034
1.03926017
1.03925999
1.03925981
1.03925962
1.03925943
1.03925923
1.03925902
1.0392588
1.03925858
1.03925835
1.03925812
1.03925787
1.03925762
1.03925736
1.03925709
1.03925681
1.03925652
1.03925622
1.03925592
1.0392556
1.03925528
1.03925494
1.03925459
1.03925424
1.03925387
1.03925349
1.0392531
1.0392527
1.03925229
1.03925186
1.03925142
1.03925097
1.0392505
1.03925003
1.03924954
1.03924903
1.03924851
1.03924798
1.03924743
1.03924686
1.03924628
1.03924569
1.03924508
1.03924445
1.0392438
1.03924314
1.03924247
1.03924177
1.03924106
1.03924032
1.03923957
1.03923881
1.03923802
1.03923721
1.03923638
1.03923554
1.03923467
1.03923378
1.03923287
1.03923194
1.03923099
1.03923002
1.03922903
1.03922801
1.03922697
1.03922591
1.03922483
1.03922372
1.03922259
1.03922144
1.03922026
1.03921906
1.03921783
1.03921658
1.03921531
1.03921401
1.03921268
1.03921133
1.03920996
1.03920856
1.03920713
1.03920568
1.03920421
1.0392027
1.03920118
1.03919962
1.03919804
1.03919644
1.0391948
1.03919315
1.03919146
1.03918975
1.03918802
1.03918626
1.03918447
1.03918266
1.03918083
1.03917896
1.03917708
1.03917517
1.03917323
1.03917127
1.03916928
1.03916728
1.03916524
1.03916319
1.03916111
1.03915901
1.03915689
1.03915474
1.03915258
1.03915039
1.03914818
1.03914596
1.03914371
1.03914144
1.03913916
1.03913686
1.03913454
1.03913221
1.03912986
1.03912749
1.03912511
1.03912271
1.03912031
1.03911789
1.03911545
1.03911301
1.03911056
1.0391081
1.03910563
1.03910315
1.03910067
1.03909818
1.03909569
1.03909319
1.03909069
1.03908819
1.03908568
1.03908318
1.03908068
1.03907818
1.03907568
1.03907319
1.0390707
1.03906822
1.03906575
1.03906329
1.03906083
1.03905839
1.03905595
1.03905354
1.03905113
1.03904874
1.03904637
1.03904401
1.03904167
1.03903936
1.03903706
1.03903478
1.03903253
1.0390303
1.0390281
1.03902592
1.03902377
1.03902165
1.03901955
1.03901749
1.03901546
1.03901346
1.03901149
1.03900956
1.03900766
1.0390058
1.03900398
1.03900219
1.03900044
1.03899874
1.03899707
1.03899544
1.03899385
1.03899231
1.03899081
1.03898935
1.03898794
1.03898657
1.03898525
1.03898398
1.03898275
1.03898156
1.03898043
1.03897934
1.0389783
1.03897731
1.03897637
1.03897547
1.03897463
1.03897383
1.03897309
1.03897239
1.03897174
1.03897115
1.0389706
1.0389701
1.03896965
1.03896925
1.0389689
1.0389686
1.03896834
1.03896814
1.03896798
1.03896787
1.0389678
1.03896779
1.03896782
1.03896789
1.03896801
1.03896818
1.03896839
1.03896864
1.03896893
1.03896927
1.03896965
1.03897007
1.03897053
1.03897102
1.03897156
1.03897213
1.03897274
1.03897339
1.03897407
1.03897478
1.03897553
1.0389763
1.03897711
1.03897795
1.03897882
1.03897972
1.03898064
1.03898159
1.03898256
1.03898356
1.03898458
1.03898562
1.03898668
1.03898777
1.03898887
1.03898999
1.03899112
1.03899228
1.03899344
1.03899462
1.03899581
1.03899702
1.03899823
1.03899945
1.03900069
1.03900193
1.03900317
1.03900443
1.03900568
1.03900694
1.03900821
1.03900948
1.03901075
1.03901201
1.03901328
1.03901455
1.03901582
1.03901708
1.03901834
1.0390196
1.03902085
1.0390221
1.03902334
1.03902458
1.03902581
1.03902703
1.03902824
1.03902945
1.03903064
1.03903183
1.039033
1.03903417
1.03903533
1.03903647
1.03903761
1.03903873
1.03903984
1.03904094
1.03904203
1.0390431
1.03904416
1.03904521
1.03904625
1.03904727
1.03904828
1.03904927
1.03905025
1.03905122
1.03905218
1.03905312
1.03905405
1.03905497
1.03905587
1.03905676
1.03905763
1.03905849
1.03905934
1.03906018
1.039061
1.03906181
1.03906261
1.0390634
1.03906417
1.03906493
1.03906568
1.03906642
1.03906714
1.03906786
1.03906856
1.03906925
1.03906994
1.03907061
1.03907127
1.03907192
1.03907256
1.03907319
1.03907381
1.03907442
1.03907503
1.03907562
1.03907621
1.03907679
1.03907736
1.03907792
1.03907847
1.03907902
1.03907956
1.03908009
1.03908062
1.03908114
1.03908165
1.03908216
1.03908266
1.03908315
1.03908364
1.03908412
1.0390846
1.03908507
1.03908554
1.039086
1.03908646
1.03908691
1.03908736
1.03908781
1.03908825
1.03908868
1.03908911
1.03908954
1.03908996
1.03909038
1.0390908
1.03909121
1.03909162
1.03909202
1.03909243
1.03909282
1.03909322
1.03909361
1.039094
1.03909438
1.03909476
1.03909514
1.03909552
1.03909589
1.03909626
1.03909662
1.03909698
1.03909734
1.0390977
1.03909805
1.0390984
1.03909875
1.03909909
1.03909943
1.03909976
1.0391001
1.03910043
1.03910075
1.03910108
1.0391014
1.03910171
1.03910203
1.03910234
1.03910264
1.03910295
1.03910325
1.03910354
1.03910384
1.03910413
1.03910441
1.0391047
1.03910498
1.03910525
1.03910553
1.0391058
1.03910606
1.03910632
1.03910658
1.03910684
1.03910709
1.03910734
1.03910759
1.03910784
1.03910808
1.03910831
1.03910855
1.03910878
1.03910901
1.03910924
1.03910946
1.03910968
1.0391099
1.03911011
1.03911033
1.03911054
1.03911075
1.03911095
1.03911116
1.03911136
1.03911156
1.03911176
1.03911195
1.03911215
1.03911234
1.03911253
1.03911272
1.03911291
1.0391131
1.03911328
1.03911347
1.03911365
1.03911383
1.03911402
1.0391142
1.03911438
1.03911456
1.03911474
1.03911492
1.0391151
1.03911528
1.03911546
1.03911563
1.03911581
1.03911599
1.03911617
1.03911635
1.03911653
1.03911671
1.03911689
1.03911707
1.03911725
1.03911743
1.03911762
1.0391178
1.03911798
1.03911817
1.03911835
1.03911854
1.03911872
1.03911891
1.03911909
1.03911928
1.03911947
1.03911966
1.03911985
1.03912004
1.03912023
1.03912042
1.03912061
1.0391208
1.039121
1.03912119
1.03912138
1.03912157
1.03912177
1.03912196
1.03912216
1.03912235
1.03912254
1.03912274
1.03912293
1.03912312
1.03912331
1.03912351
1.0391237
1.03912389
1.03912408
1.03912427
1.03912446
1.03912465
1.03912484
1.03912502
1.03912521
1.03912539
1.03912558
1.03912576
1.03912594
1.03912612
1.0391263
1.03912648
1.03912665
1.03912683
1.039127
1.03912717
1.03912734
1.03912751
1.03912768
1.03912784
1.03912801
1.03912817
1.03912833
1.03912849
1.03912864
1.0391288
1.03912895
1.0391291
1.03912925
1.0391294
1.03912954
1.03912969
1.03912983
1.03912997
1.03913011
1.03913025
1.03913038
1.03913052
1.03913065
1.03913078
1.03913091
1.03913104
1.03913117
1.03913129
1.03913142
1.03913154
1.03913166
1.03913178
1.0391319
1.03913202
1.03913213
1.03913225
1.03913236
1.03913248
1.03913259
1.0391327
1.03913281
1.03913292
1.03913303
1.03913314
1.03913325
1.03913335
1.03913346
1.03913357
1.03913367
1.03913377
1.03913388
1.03913398
1.03913408
1.03913419
1.03913429
1.03913439
1.03913449
1.03913459
1.03913469
1.03913479
1.03913489
1.03913499
1.03913509
1.03913519
1.03913529
1.03913538
1.03913548
1.03913558
1.03913568
1.03913578
1.03913588
1.03913598
1.03913608
1.03913618
1.03913628
1.03913638
1.03913648
1.03913658
1.03913668
1.03913679
1.03913689
1.039137
1.0391371
1.03913721
1.03913732
1.03913743
1.03913754
1.03913765
1.03913777
1.03913788
1.039138
1.03913812
1.03913825
1.03913837
1.0391385
1.03913864
1.03913877
1.03913891
1.03913905
1.0391392
1.03913935
1.0391395
1.03913966
1.03913983
1.03913999
1.03914017
1.03914035
1.03914054
1.03914073
1.03914093
1.03914113
1.03914135
1.03914157
1.0391418
1.03914204
1.03914229
1.03914254
1.03914281
1.03914309
1.03914337
1.03914367
1.03914398
1.0391443
1.03914463
1.03914498
1.03914533
1.03914571
1.03914609
1.03914649
1.0391469
1.03914733
1.03914777
1.03914822
1.03914869
1.03914918
1.03914968
1.0391502
1.03915073
1.03915128
1.03915184
1.03915242
1.03915301
1.03915362
1.03915424
1.03915488
1.03915553
1.03915619
1.03915687
1.03915756
1.03915826
1.03915897
1.03915969
1.03916042
1.03916116
1.0391619
1.03916265
1.03916341
1.03916417
1.03916493
1.03916569
1.03916645
1.03916722
1.03916797
1.03916873
1.03916948
1.03917022
1.03917096
1.03917169
1.0391724
1.03917311
1.0391738
1.03917448
1.03917515
1.03917581
1.03917645
1.03917707
1.03917768
1.03917827
1.03917885
1.03917942
1.03917996
1.0391805
1.03918102
1.03918153
1.03918203
1.03918252
1.039183
1.03918348
1.03918394
1.03918441
1.03918487
1.03918533
1.0391858
1.03918627
1.03918674
1.03918722
1.0391877
1.0391882
1.0391887
1.03918922
1.03918974
1.03919028
1.03919083
1.03919138
1.03919195
1.03919251
1.03919309
1.03919366
1.03919422
1.03919478
1.03919533
1.03919585
1.03919635
1.03919681
1.03919723
1.03919761
1.03919793
1.03919819
1.03919837
1.03919848
1.0391985
1.03919844
1.03919828
1.03919803
1.03919768
1.03919724
1.03919672
1.03919612
1.03919545
1.03919474
1.03919399
1.03919324
1.03919251
1.0391918
1.03919161
1.03919104
1.03920322
1.03920282
1.03948745
1.03948746
1.03931567
1.03929117
0.85498334
0.853472011
0.450509842
0.422343742
0.32813673
0.318764822
0.287786162
0.284362716
0.271920319
0.270685961
0.265650042
0.265281275
0.263559379
0.263477345
0.262981813
0.262967365
0.262841451
0.262839638
0.262811166
0.2628111
0.262805369
0.262805452
0.262804461
0.262804548
0.262804449
0.262804531
0.262804581
0.262804656
0.262804723
0.262804789
0.262804848
0.262804903
0.262804951
0.262804993
0.262805028
0.262805056
0.262805078
0.262805094
0.262805103
0.262805105
0.262805102
0.262805092
0.262805077
0.262805056
0.26280503
0.262804999
0.262804964