/*--------------------------------*- C++ -*----------------------------------*\
| =========                 |                                                 |
| \\      /  F ield         | OpenFOAM: The Open Source CFD Toolbox           |
|  \\    /   O peration     | Version:  2206                                  |
|   \\  /    A nd           | Website:  www.openfoam.com                      |
|    \\/     M anipulation  |                                                 |
\*---------------------------------------------------------------------------*/
FoamFile
{
    version     2.0;
    format      ascii;
    arch        "LSB;label=32;scalar=64";
    class       surfaceScalarField;
    location    "1.16e-05";
    object      phi;
}
// * * * * * * * * * * * * * * * * * * * * * * * * * * * * * * * * * * * * * //

dimensions      [1 0 -1 0 0 0 0];

oriented        oriented;

internalField   nonuniform List<scalar> 
3182
(
4.13689871e-18
-2.79998407e-18
-3.42956224e-19
-1.58788317e-18
-2.86496287e-21
-2.01293019e-23
-1.45949637e-24
-6.91011863e-30
1.43723337e-24
2.99700028e-23
2.22968445e-21
2.35874248e-18
3.53913053e-18
-1.09529713e-18
1.90024664e-18
-7.78435472e-19
-2.19057172e-18
-4.813029e-18
-3.43666969e-18
4.50652217e-18
4.7560619e-20
5.5565689e-22
1.96023182e-19
1.87408664e-18
3.16587598e-18
1.86116967e-18
3.44402076e-18
2.20203762e-18
2.45579843e-18
3.26979419e-19
-2.24621935e-18
-2.28721797e-18
-7.71509655e-18
-7.44703597e-18
-2.82099535e-18
-2.62848348e-18
-1.69072367e-18
-1.56508277e-18
-6.59789393e-19
-6.48353908e-19
-3.24771325e-18
-4.02208772e-18
-2.82279597e-18
-1.42359801e-18
-1.07284816e-18
6.48421322e-19
1.07922184e-18
9.68326116e-19
8.65359446e-19
2.28700909e-18
2.82495354e-18
4.36897897e-18
6.73072415e-18
9.76501671e-18
1.06370114e-17
1.23883301e-17
1.43286641e-17
1.47686825e-17
1.56334121e-17
1.6280521e-17
1.43369467e-17
1.30140417e-17
1.16810975e-17
9.75825516e-18
7.8664743e-18
7.20639145e-18
5.89484259e-18
4.81312578e-18
3.08027419e-18
1.29393652e-18
-4.17027785e-19
-2.90166285e-18
-3.82163433e-18
-4.81033316e-18
-5.24675546e-18
-6.54809401e-18
-7.04829648e-18
-7.84964807e-18
-8.20763832e-18
-9.3842173e-18
-9.43597267e-18
-9.95283531e-18
-1.1540745e-17
-1.25570593e-17
-1.46206023e-17
-1.44171702e-17
-1.66369537e-17
-1.8470903e-17
-1.98359927e-17
-2.02104034e-17
-2.34000109e-17
-2.33931601e-17
-2.45307229e-17
-2.45410057e-17
-2.69543637e-17
-2.71523637e-17
-2.77347477e-17
-2.57258816e-17
-2.84307166e-17
-2.61816846e-17
-2.91289502e-17
-2.82767044e-17
-2.87650152e-17
-2.91566671e-17
-2.65119308e-17
-2.75608921e-17
-2.56687854e-17
-2.60605266e-17
-2.88375244e-17
-2.90007163e-17
-3.15044809e-17
-3.2779761e-17
-3.40408302e-17
-3.24177779e-17
-3.72019473e-17
-3.9938227e-17
-3.71491821e-17
-4.01398169e-17
-3.88060783e-17
-3.6469468e-17
-3.77664813e-17
-3.85646918e-17
-3.72885805e-17
-4.08448691e-17
-4.03407873e-17
-3.97622663e-17
-4.14445107e-17
-4.14453631e-17
-4.13522337e-17
-3.94294006e-17
-3.93998418e-17
-4.25149699e-17
-4.19032866e-17
-4.52745344e-17
-4.63097226e-17
-4.49782308e-17
-4.57097053e-17
-4.48986771e-17
-4.3968152e-17
-4.62661347e-17
-4.58562692e-17
-4.21523998e-17
-4.6660941e-17
-4.66334784e-17
-4.8639895e-17
-4.95381163e-17
-5.09823009e-17
-5.31609266e-17
-5.26531614e-17
-5.17963311e-17
-4.99197132e-17
-5.07384885e-17
-5.18837371e-17
-5.3438993e-17
-5.36888004e-17
-5.31748306e-17
-5.46877185e-17
-5.34859123e-17
-5.32620208e-17
-5.45664795e-17
-5.49099169e-17
-5.45204363e-17
-5.42294811e-17
-5.45627158e-17
-5.44504512e-17
-5.4133058e-17
-5.69804391e-17
-5.36307489e-17
-5.45320348e-17
-5.52032257e-17
-5.43259e-17
-5.59631723e-17
-5.66280835e-17
-5.44598132e-17
-5.71586839e-17
-5.52937056e-17
-5.42952077e-17
-5.46961456e-17
-5.35788489e-17
-5.56937373e-17
-5.50767126e-17
-5.5087779e-17
-5.54120376e-17
-5.61513797e-17
-5.77124762e-17
-5.72750118e-17
-5.59100071e-17
-5.77836021e-17
-5.71101059e-17
-5.78088048e-17
-5.41846717e-17
-5.64296476e-17
-5.37947521e-17
-5.61471321e-17
-5.70716534e-17
-5.8227426e-17
-6.39084999e-17
-6.16177905e-17
-6.52050373e-17
-6.70207336e-17
-6.33077817e-17
-6.30273261e-17
-6.25351566e-17
-6.15204873e-17
-6.09045546e-17
-6.05134816e-17
-6.24642822e-17
-6.3076975e-17
-6.1967397e-17
-6.38498462e-17
-6.18420904e-17
-6.22629728e-17
-6.44487495e-17
-6.58617228e-17
-6.33080415e-17
-6.3587723e-17
-6.5236085e-17
-6.83800388e-17
-6.73972566e-17
-6.68462504e-17
-6.47951567e-17
-6.5353808e-17
-6.32825079e-17
-6.14904539e-17
-6.36934987e-17
-6.47467556e-17
-6.23933864e-17
-6.29876006e-17
-6.48596254e-17
-6.60835999e-17
-6.76479065e-17
-7.09809938e-17
-6.82058457e-17
-7.38291005e-17
-7.37332463e-17
-7.63026124e-17
-7.38403243e-17
-7.43940534e-17
-7.35220334e-17
-7.37731093e-17
-7.51049548e-17
-7.55953568e-17
-7.6578077e-17
-7.50054362e-17
-7.41524468e-17
-7.44247477e-17
-7.61899402e-17
-7.8213758e-17
-7.84353848e-17
-8.05944607e-17
-8.26803735e-17
-8.11641605e-17
-8.1007769e-17
-8.0344783e-17
-8.30909996e-17
-8.20691551e-17
-8.54965286e-17
-8.43300958e-17
-8.34042041e-17
-8.38065604e-17
-8.46507262e-17
-8.66807705e-17
-8.43993729e-17
-8.90682222e-17
-9.00273366e-17
-8.81440187e-17
-8.96532253e-17
-9.27550295e-17
-9.20004189e-17
-9.116625e-17
-9.35274813e-17
-9.08911714e-17
-8.84379733e-17
-8.99942774e-17
-9.04492486e-17
-8.95037875e-17
-9.15603562e-17
-9.14951809e-17
-8.87264069e-17
-9.11603562e-17
-9.36258342e-17
-9.37620208e-17
-9.60503113e-17
-9.54725787e-17
-9.37074747e-17
-9.42561226e-17
-9.61964271e-17
-9.67559234e-17
-9.61426537e-17
-9.29742038e-17
-9.44465563e-17
-9.37571951e-17
-9.76768938e-17
-9.65592731e-17
-9.76929109e-17
-9.65148082e-17
-9.84332272e-17
-9.91208695e-17
-1.00389863e-16
-9.93161962e-17
-1.01675745e-16
-9.95354116e-17
-1.01311925e-16
-1.02934649e-16
-1.00577126e-16
-1.03864164e-16
-1.01290834e-16
-1.00565906e-16
-1.02568903e-16
-1.02892273e-16
-1.05408564e-16
-1.07369546e-16
-1.03257825e-16
-1.05049749e-16
-1.05172183e-16
-1.04468937e-16
-1.06408965e-16
-1.07282222e-16
-1.02333859e-16
-1.02603906e-16
-9.91871797e-17
-1.01638164e-16
-1.01476077e-16
-9.92395976e-17
-1.00003911e-16
-9.90808199e-17
-1.01472733e-16
-1.02391899e-16
-1.01954985e-16
-9.97519666e-17
-1.02305321e-16
-9.94672772e-17
-1.01682822e-16
-1.01496315e-16
-1.00669909e-16
-1.02387742e-16
-1.00782593e-16
-1.01853354e-16
-1.02066503e-16
-1.00514452e-16
-1.00171673e-16
-1.05029195e-16
-1.01340936e-16
-1.00178231e-16
-1.03088232e-16
-1.00944403e-16
-1.0076443e-16
-1.0098009e-16
-1.00599297e-16
-9.93869769e-17
-1.02525695e-16
-1.03662298e-16
-1.04631196e-16
-1.02240272e-16
-1.00673916e-16
-9.85976398e-17
-9.74931353e-17
-1.02308523e-16
-1.018581e-16
-1.01913015e-16
-1.02412925e-16
-1.01326726e-16
-1.02246676e-16
-1.01349399e-16
-1.03986526e-16
-1.04465916e-16
-1.0171199e-16
-9.98761034e-17
-9.82436079e-17
-9.69695551e-17
-9.55501506e-17
-9.74052386e-17
-9.39976173e-17
-9.21014583e-17
-9.39586117e-17
-9.27991358e-17
-9.51928391e-17
-9.53923333e-17
-9.07741296e-17
-9.13136216e-17
-9.31518706e-17
-9.32104091e-17
-8.77978941e-17
-8.48893834e-17
-8.22032609e-17
-8.26986012e-17
-8.50597246e-17
-8.11690226e-17
-8.08264308e-17
-8.16461833e-17
-8.15652524e-17
-8.04530954e-17
-8.06261125e-17
-7.71125885e-17
-8.00589903e-17
-8.09024954e-17
-8.89744009e-17
-8.71719102e-17
-8.40543574e-17
-8.61485536e-17
-8.52652915e-17
-8.35811997e-17
-8.40194264e-17
-8.53800595e-17
-8.2392238e-17
-8.14357177e-17
-8.08435501e-17
-7.8511002e-17
-8.2267963e-17
-7.77484437e-17
-7.84537757e-17
-7.8449426e-17
-7.53716729e-17
-7.69976377e-17
-7.61842053e-17
-7.33974201e-17
-7.63454714e-17
-7.56053432e-17
-7.59880107e-17
-7.45189718e-17
-7.4361251e-17
-7.04042199e-17
-6.70808443e-17
-6.83549821e-17
-6.85934414e-17
-6.80964446e-17
-6.79459599e-17
-6.68366821e-17
-6.15310172e-17
-6.39789954e-17
-6.28315334e-17
-6.23892346e-17
-6.36509572e-17
-5.93286005e-17
-6.3441655e-17
-6.2007818e-17
-6.03671991e-17
-6.02082019e-17
-6.08343125e-17
-5.88345056e-17
-6.07586555e-17
-5.89389666e-17
-6.05117821e-17
-5.87913345e-17
-6.0353371e-17
-5.81779879e-17
-5.66209799e-17
-5.49041342e-17
-5.53624431e-17
-5.25746384e-17
-5.20248119e-17
-5.32106749e-17
-5.38866612e-17
-5.36647489e-17
-5.52718974e-17
-5.33945359e-17
-5.12313096e-17
-5.4239208e-17
-5.26900555e-17
-5.45608431e-17
-5.08565249e-17
-4.99640023e-17
-5.3047453e-17
-5.085612e-17
-5.21432133e-17
-4.86572715e-17
-4.82793973e-17
-4.80466768e-17
-4.53687357e-17
-4.57356525e-17
-4.525664e-17
-4.56099658e-17
-4.76958925e-17
-4.85574949e-17
-4.60297123e-17
-4.68968178e-17
-4.89889764e-17
-4.79630408e-17
-4.83592874e-17
-4.69345449e-17
-4.34276525e-17
-4.05186504e-17
-4.28098536e-17
-4.1142457e-17
-3.97496128e-17
-4.17498141e-17
-3.97206482e-17
-3.99372078e-17
-3.74112456e-17
-4.20137145e-17
-4.24325673e-17
-4.47673153e-17
-4.47899111e-17
-4.12504462e-17
-3.75434056e-17
-4.04219388e-17
-4.2101928e-17
-3.8876987e-17
-3.68455915e-17
-3.36664695e-17
-3.67972293e-17
-3.74223112e-17
-3.46377752e-17
-3.72417582e-17
-3.77734837e-17
-3.54159639e-17
-3.77150197e-17
-3.31507156e-17
-3.7004389e-17
-3.45331912e-17
-3.70632039e-17
-3.56618797e-17
-3.24293599e-17
-3.5501324e-17
-3.45724813e-17
-3.67127132e-17
-3.31119362e-17
-3.16359625e-17
-2.8045901e-17
-2.39883999e-17
-2.36186333e-17
-1.98743721e-17
-2.0588839e-17
-2.2605601e-17
-2.32307853e-17
-2.09101678e-17
-2.5478036e-17
-2.15288148e-17
-2.49587054e-17
-2.75940608e-17
-2.78295417e-17
-2.17480954e-17
-2.62685452e-17
-2.32489885e-17
-2.42586597e-17
-2.13309975e-17
-2.38789409e-17
-2.22319546e-17
-2.33855842e-17
-2.55401175e-17
-2.25796342e-17
-2.07648325e-17
-2.01267905e-17
-1.93417882e-17
-1.698368e-17
-1.8135475e-17
-1.57518685e-17
-1.60470434e-17
-1.4008369e-17
-1.56557749e-17
-1.63746337e-17
-1.53262456e-17
-1.36312728e-17
-1.20861938e-17
-1.38613675e-17
-1.05234436e-17
-1.20187486e-17
-1.20272814e-17
-1.53650075e-17
-1.50667779e-17
-1.6018125e-17
-1.25154158e-17
-1.05402799e-17
-1.10879615e-17
-7.48648417e-18
-4.67487854e-18
-2.57955123e-18
9.44704524e-19
-1.59720877e-18
2.02532695e-18
1.54468826e-18
5.01317962e-18
9.33542875e-18
1.13536309e-17
1.09523158e-17
9.70427404e-18
8.23634169e-18
6.69097752e-18
8.52198947e-18
8.20045075e-18
9.64489711e-18
1.12113958e-17
9.10140224e-18
5.85697579e-18
9.18052359e-18
9.55348039e-18
1.21257821e-17
1.1116598e-17
1.01163286e-17
1.60298735e-17
1.35470866e-17
1.10560714e-17
1.1059558e-17
8.77651594e-18
8.6345662e-18
9.0311269e-18
1.14623025e-17
1.24756769e-17
1.33820973e-17
1.54994767e-17
1.59101696e-17
1.47794329e-17
1.4374923e-17
1.59709482e-17
1.2897308e-17
1.22365755e-17
1.46191482e-17
1.41742174e-17
1.31759273e-17
1.46951203e-17
1.62750204e-17
1.39994198e-17
1.37048304e-17
1.91604555e-17
1.79847913e-17
1.94721847e-17
2.19940624e-17
2.17093528e-17
2.45080455e-17
2.2300334e-17
2.20092587e-17
1.92557981e-17
2.25281358e-17
2.34907495e-17
2.45225657e-17
2.4839878e-17
2.57824884e-17
2.09741536e-17
2.24601265e-17
2.27465736e-17
2.52177069e-17
2.79203408e-17
3.14523709e-17
2.62948927e-17
2.80518443e-17
2.89196064e-17
2.50134233e-17
2.4175002e-17
2.31422509e-17
2.11743161e-17
1.98438715e-17
1.99083166e-17
2.01729505e-17
2.36952655e-17
2.38299524e-17
2.49084869e-17
2.06783522e-17
2.13541e-17
2.17457466e-17
2.2453964e-17
2.29851105e-17
2.21709677e-17
2.06157557e-17
2.08581856e-17
1.92898795e-17
2.26748862e-17
2.06652008e-17
1.70156224e-17
1.45167185e-17
1.56659931e-17
1.66647878e-17
1.75211098e-17
1.50848181e-17
2.00540804e-17
2.63088149e-17
2.62460403e-17
2.81518087e-17
2.46700848e-17
2.57476195e-17
2.80032543e-17
2.87397573e-17
2.62710099e-17
2.88910207e-17
2.82310929e-17
2.68588538e-17
2.72276262e-17
3.1115644e-17
3.51643654e-17
3.30845197e-17
3.33113639e-17
3.45630703e-17
3.8597586e-17
4.14767928e-17
4.27635482e-17
4.15628663e-17
4.08536085e-17
4.00575406e-17
4.10697424e-17
4.10085975e-17
4.47817519e-17
4.73801693e-17
4.37021665e-17
4.62622356e-17
4.31739016e-17
4.6704695e-17
4.12620944e-17
4.36540999e-17
4.03594435e-17
4.59468754e-17
4.41349539e-17
4.61668188e-17
4.58835317e-17
4.7258872e-17
5.17472834e-17
5.0735166e-17
5.22019226e-17
5.13108463e-17
5.09027877e-17
4.92670763e-17
4.91264092e-17
4.83466061e-17
4.98661067e-17
4.81329257e-17
5.40536954e-17
5.10709942e-17
5.49993148e-17
5.13951713e-17
5.23815287e-17
5.16035368e-17
5.13205665e-17
5.17673926e-17
4.84135215e-17
4.91231386e-17
4.96070258e-17
4.9398541e-17
4.69870254e-17
4.64139266e-17
4.57774367e-17
4.39567969e-17
4.64990698e-17
4.68913548e-17
4.49321881e-17
4.38911911e-17
4.57826116e-17
4.82933456e-17
4.55978792e-17
4.60580878e-17
4.85345823e-17
4.50760113e-17
5.01115697e-17
4.67020388e-17
4.75485015e-17
4.69157463e-17
4.45327961e-17
4.76502461e-17
4.51176444e-17
4.84308418e-17
4.80472955e-17
4.7617214e-17
4.62945374e-17
4.77077298e-17
4.70849304e-17
4.7695697e-17
5.0246161e-17
4.80731323e-17
5.0152596e-17
5.27700621e-17
4.87175544e-17
4.75676666e-17
4.69581491e-17
4.86059001e-17
4.67133888e-17
4.90054957e-17
5.17329689e-17
4.70864612e-17
5.26612688e-17
5.18761327e-17
5.305893e-17
5.46481521e-17
5.00671952e-17
4.89132985e-17
4.937772e-17
5.28483557e-17
4.90741415e-17
5.03194884e-17
5.42745279e-17
4.96535239e-17
4.94108063e-17
4.88008754e-17
4.98317839e-17
4.85449753e-17
4.87063212e-17
5.08550769e-17
5.21777516e-17
5.21803706e-17
5.14108194e-17
4.93947757e-17
5.03852095e-17
4.67037195e-17
4.69787297e-17
4.85422972e-17
5.27947231e-17
5.20130022e-17
4.93348614e-17
4.84380264e-17
4.80236301e-17
4.88877251e-17
4.56040804e-17
4.62980458e-17
4.71275943e-17
4.58465952e-17
4.75566678e-17
4.70739004e-17
4.73540878e-17
4.92471742e-17
5.18803256e-17
5.21189186e-17
5.11330301e-17
4.89316052e-17
4.7204717e-17
4.74544791e-17
4.88727627e-17
4.8518599e-17
5.00862027e-17
4.69176175e-17
4.46452163e-17
4.7552363e-17
4.92747227e-17
5.00212615e-17
4.91539558e-17
4.86787007e-17
5.04491427e-17
5.12184566e-17
5.10137057e-17
5.32678041e-17
5.54583499e-17
5.68102786e-17
5.58167844e-17
5.53009105e-17
5.49274794e-17
5.81581526e-17
5.43546366e-17
5.3959855e-17
5.36590465e-17
5.12552478e-17
5.30799824e-17
5.27914221e-17
5.09256366e-17
5.49850356e-17
5.41746241e-17
5.17341293e-17
5.20751499e-17
5.4135599e-17
5.42071908e-17
5.49348176e-17
5.63874732e-17
5.71841054e-17
5.57335522e-17
5.2875343e-17
5.18449724e-17
5.44263812e-17
5.39150576e-17
5.4304295e-17
5.33643823e-17
5.25991412e-17
5.1579604e-17
5.28758422e-17
4.93326293e-17
4.92023295e-17
5.19003821e-17
5.45848631e-17
5.40956867e-17
5.46081369e-17
5.75280404e-17
5.66536618e-17
5.50080255e-17
5.63302012e-17
6.09266616e-17
5.97539368e-17
5.82090425e-17
5.94622019e-17
5.47799371e-17
5.69160369e-17
5.79644172e-17
5.56963568e-17
5.6592751e-17
5.64607949e-17
5.7108086e-17
5.59883059e-17
5.60322595e-17
5.63408017e-17
5.72263696e-17
5.67533752e-17
5.66394246e-17
5.61079515e-17
5.37895931e-17
5.67075411e-17
5.76980716e-17
5.81163252e-17
5.90208292e-17
5.79182429e-17
5.89941123e-17
6.09893e-17
5.78381679e-17
5.95138592e-17
6.1290959e-17
5.71166307e-17
5.98859253e-17
5.94160605e-17
6.2607906e-17
5.95196314e-17
5.90571063e-17
5.80392555e-17
5.67283963e-17
5.9681543e-17
5.84512596e-17
5.75257042e-17
5.8180219e-17
5.42506421e-17
5.59487254e-17
5.36937202e-17
5.57203298e-17
5.3259742e-17
5.17116597e-17
5.26165693e-17
5.30169111e-17
5.30420237e-17
5.6772481e-17
5.86754179e-17
5.87650724e-17
5.91765936e-17
5.73604707e-17
5.53703422e-17
5.6944782e-17
5.84243654e-17
5.56233269e-17
5.66206089e-17
5.32068108e-17
5.46473483e-17
5.84444503e-17
5.67356776e-17
5.73958127e-17
5.73758968e-17
5.82699288e-17
5.73288932e-17
5.23693477e-17
5.25976031e-17
4.69092302e-17
5.10536244e-17
5.20099059e-17
5.18746641e-17
5.42525699e-17
5.52191336e-17
5.15708209e-17
4.91365092e-17
5.02241451e-17
4.84942622e-17
5.07871621e-17
5.17225421e-17
5.06900246e-17
4.89326131e-17
4.96972402e-17
4.76976742e-17
4.80175749e-17
4.76602459e-17
4.68988668e-17
4.43975692e-17
4.71816643e-17
4.49562656e-17
4.48176735e-17
4.86195871e-17
4.73831898e-17
5.10999949e-17
5.33713929e-17
5.27946468e-17
5.21809146e-17
5.50050646e-17
5.5332664e-17
5.53974531e-17
5.43365036e-17
5.67841663e-17
5.67614561e-17
5.53109352e-17
5.69741246e-17
5.42042931e-17
5.60219381e-17
5.53726955e-17
5.6005735e-17
5.26085328e-17
5.6538418e-17
5.41374247e-17
5.31754661e-17
5.6143913e-17
5.38622747e-17
5.8166849e-17
5.450466e-17
5.39749967e-17
5.16783815e-17
5.10051179e-17
4.9017067e-17
5.05971541e-17
4.89874033e-17
5.18565093e-17
4.60547314e-17
4.90985446e-17
4.71130265e-17
4.72667655e-17
4.97004487e-17
5.0787382e-17
5.05885533e-17
5.14740646e-17
5.38087681e-17
5.26183257e-17
5.67680976e-17
5.34918598e-17
5.23320154e-17
5.15191105e-17
5.01680006e-17
5.31873954e-17
4.76093754e-17
4.57396453e-17
4.57000073e-17
4.28804186e-17
4.16848619e-17
4.04208198e-17
4.1449189e-17
4.52763655e-17
4.29184691e-17
3.83631408e-17
3.94688893e-17
3.63608471e-17
3.48596552e-17
3.39117424e-17
3.33297795e-17
3.47039842e-17
3.44217519e-17
3.44122466e-17
2.76773243e-17
3.0426163e-17
3.2309316e-17
3.17872701e-17
3.23382737e-17
3.11288902e-17
2.82215499e-17
2.64427576e-17
2.57174285e-17
2.49553496e-17
2.57337453e-17
2.15410662e-17
2.2115209e-17
2.30585854e-17
2.13478977e-17
2.48975955e-17
2.23330848e-17
2.36794502e-17
1.99696394e-17
2.02577204e-17
1.61004341e-17
1.90437985e-17
1.81648222e-17
2.11850013e-17
2.07407274e-17
1.59581126e-17
1.87784312e-17
1.94138574e-17
1.8393104e-17
1.76514041e-17
1.85788621e-17
1.84339086e-17
1.9094396e-17
1.79483557e-17
1.49910631e-17
1.64843847e-17
1.57652245e-17
1.42430595e-17
1.11217383e-17
1.34638879e-17
1.18382977e-17
1.39076284e-17
1.23243496e-17
1.58853398e-17
1.60061676e-17
1.62441936e-17
1.83116544e-17
2.01356976e-17
1.37732534e-17
1.2656031e-17
1.29221998e-17
1.62905112e-17
1.55366596e-17
1.39784794e-17
1.34743669e-17
1.29979169e-17
1.29927303e-17
1.03585563e-17
8.40955319e-18
7.5812684e-18
8.92331936e-18
9.60131774e-18
1.12136839e-17
7.33703404e-18
7.78660643e-18
8.45790118e-18
4.87542055e-18
1.55593862e-18
1.4031193e-19
2.06482339e-19
1.78633e-18
-6.85225538e-19
-4.36208734e-18
-4.86815202e-18
-4.61590027e-18
-9.90660322e-19
-4.57208801e-18
-3.4115506e-18
-4.29442413e-18
-6.55238276e-18
-6.07830459e-18
-9.45301367e-18
-1.06640011e-17
-1.02299983e-17
-9.39481729e-18
-1.08681929e-17
-1.07069459e-17
-1.17364723e-17
-1.41664315e-17
-1.15430034e-17
-1.62943473e-17
-1.39197116e-17
-1.47803961e-17
-1.39381914e-17
-1.69900754e-17
-1.73924518e-17
-1.82958767e-17
-2.06512177e-17
-2.0019561e-17
-2.04772754e-17
-2.25312664e-17
-2.70889152e-17
-2.37025753e-17
-2.52464257e-17
-2.60545315e-17
-2.66362389e-17
-3.01798282e-17
-2.98251436e-17
-3.01920519e-17
-3.00509863e-17
-2.74844132e-17
-3.23750254e-17
-3.18736778e-17
-3.14891852e-17
-3.15913558e-17
-3.14544894e-17
-2.96213851e-17
-3.28614846e-17
-3.18528063e-17
-3.37647491e-17
-3.38462073e-17
-3.29468156e-17
-3.09365368e-17
-2.88069308e-17
-2.69693456e-17
-2.50938732e-17
-2.48972506e-17
-2.76992104e-17
-2.68036905e-17
-2.79073302e-17
-2.90165504e-17
-2.98663373e-17
-3.08744883e-17
-2.97389544e-17
-2.86529062e-17
-2.86601896e-17
-2.70670598e-17
-2.754716e-17
-2.6594409e-17
-2.92189627e-17
-2.615032e-17
-2.98021627e-17
-2.82809777e-17
-2.46364364e-17
-2.73610025e-17
-2.90558731e-17
-2.74303853e-17
-2.88315878e-17
-2.73022268e-17
-2.88126133e-17
-3.17089305e-17
-3.06614105e-17
-2.935162e-17
-3.04822054e-17
-3.20914479e-17
-3.40677699e-17
-3.54859689e-17
-3.50571184e-17
-3.46608452e-17
-3.52856443e-17
-3.821332e-17
-3.83884878e-17
-3.556165e-17
-3.43974801e-17
-3.23185366e-17
-3.64199502e-17
-3.61206753e-17
-4.03012405e-17
-3.89362161e-17
-3.56072907e-17
-3.81582464e-17
-4.52669294e-17
-4.43466999e-17
-4.77801097e-17
-4.42300557e-17
-4.55650282e-17
-4.46964739e-17
-4.48958301e-17
-4.43264586e-17
-4.23212018e-17
-4.54074147e-17
-4.55611045e-17
-4.69855353e-17
-4.81663795e-17
-4.55975977e-17
-5.00195153e-17
-4.68379448e-17
-4.69988277e-17
-5.02514517e-17
-5.24031248e-17
-5.05760483e-17
-4.8785828e-17
-5.01924971e-17
-5.00388425e-17
-4.59282797e-17
-4.72693436e-17
-4.63242728e-17
-4.75696004e-17
-4.60487089e-17
-4.71809554e-17
-4.55028209e-17
-4.62012116e-17
-4.45035886e-17
-4.46973167e-17
-4.18681578e-17
-4.0778447e-17
-4.20630949e-17
-4.02880741e-17
-4.1328573e-17
-3.91096536e-17
-3.96440538e-17
-4.03274075e-17
-4.37224155e-17
-3.86541865e-17
-4.21991154e-17
-4.30629296e-17
-3.98966492e-17
-4.10680861e-17
-3.90802588e-17
-3.876237e-17
-3.76665788e-17
-3.96985844e-17
-3.48187329e-17
-3.87768886e-17
-3.82094876e-17
-4.13898266e-17
-4.07607746e-17
-3.98995634e-17
-3.83444944e-17
-4.0635949e-17
-4.35961399e-17
-4.81110382e-17
-4.70893304e-17
-4.68492972e-17
-4.77474565e-17
-4.83643427e-17
-4.71927206e-17
-5.03995976e-17
-4.98281092e-17
-5.22449681e-17
-4.93258464e-17
-5.24389012e-17
-4.8606654e-17
-5.00338147e-17
-5.40835516e-17
-5.27960119e-17
-5.38354303e-17
-5.65080408e-17
-5.41032616e-17
-5.59623673e-17
-5.28663002e-17
-5.3193036e-17
-5.63742528e-17
-5.34366688e-17
-5.1221867e-17
-5.23164054e-17
-5.36817206e-17
-5.4257046e-17
-5.47142501e-17
-5.69049373e-17
-5.73732687e-17
-5.44125075e-17
-5.80849939e-17
-5.71575223e-17
-5.70196728e-17
-5.62695759e-17
-6.04918443e-17
-5.86387821e-17
-5.82079422e-17
-5.62556007e-17
-5.90836592e-17
-5.77574709e-17
-6.05122881e-17
-5.75835773e-17
-5.90846009e-17
-5.61147537e-17
-5.69066704e-17
-5.63749091e-17
-5.49393629e-17
-5.48949115e-17
-5.53975914e-17
-5.34019091e-17
-5.72680102e-17
-5.74167295e-17
-5.95652172e-17
-5.9046962e-17
-5.83277204e-17
-5.71838788e-17
-5.63989903e-17
-5.67075823e-17
-5.41161931e-17
-5.43701723e-17
-5.66346811e-17
-5.66557413e-17
-5.58495917e-17
-5.6100735e-17
-5.72360023e-17
-5.95231719e-17
-5.59117344e-17
-5.75444605e-17
-5.41445937e-17
-5.12396509e-17
-5.38812589e-17
-4.95757609e-17
-5.17996723e-17
-4.92532538e-17
-4.73972027e-17
-5.05989999e-17
-4.95109586e-17
-4.96742076e-17
-5.1560137e-17
-5.33040438e-17
-5.4787741e-17
-5.49728036e-17
-5.28527933e-17
-5.43807652e-17
-5.56911134e-17
-5.5499697e-17
-5.44036352e-17
-5.43258601e-17
-5.41876954e-17
-5.84297185e-17
-5.65243709e-17
-5.93404768e-17
-5.8409107e-17
-5.98303725e-17
-5.82900763e-17
-6.02276297e-17
-6.23138942e-17
-6.15765777e-17
-6.05329361e-17
-6.07701527e-17
-6.29208404e-17
-6.68523221e-17
-6.96584184e-17
-6.6133619e-17
-6.70676144e-17
-6.64873048e-17
-7.00669276e-17
-6.91321218e-17
-6.95020705e-17
-6.51335322e-17
-6.76989123e-17
-6.79532055e-17
-6.42008414e-17
-6.65089883e-17
-6.17327673e-17
-6.20709293e-17
-6.67973017e-17
-6.290744e-17
-6.29813506e-17
-6.23362138e-17
-6.06742085e-17
-6.3215819e-17
-6.18745481e-17
-5.95048933e-17
-6.09995457e-17
-6.06018009e-17
-6.07123552e-17
-6.10131936e-17
-6.17424184e-17
-6.46846528e-17
-6.0513155e-17
-5.90987436e-17
-6.12699172e-17
-6.04798935e-17
-6.00257822e-17
-6.13642017e-17
-6.08076686e-17
-6.16801273e-17
-6.39607219e-17
-6.12692898e-17
-6.09970074e-17
-6.07330742e-17
-6.02737724e-17
-6.09480882e-17
-5.96679832e-17
-6.17498671e-17
-6.03201514e-17
-6.56578978e-17
-6.18561862e-17
-6.26819882e-17
-5.70441381e-17
-6.08242384e-17
-5.90238373e-17
-5.86669771e-17
-5.62239108e-17
-5.57428908e-17
-5.62035474e-17
-5.90090177e-17
-5.79096676e-17
-5.9166569e-17
-5.66665273e-17
-5.73805299e-17
-5.79366173e-17
-5.96839546e-17
-5.82701552e-17
-5.68456439e-17
-5.71002674e-17
-6.15974818e-17
-5.74707725e-17
-5.83976053e-17
-5.48546526e-17
-5.63362803e-17
-5.64433957e-17
-5.65427459e-17
-5.35565817e-17
-5.31931238e-17
-4.81256041e-17
-5.31905664e-17
-5.10771141e-17
-5.09209476e-17
-4.96425725e-17
-4.98616566e-17
-4.99866078e-17
-4.98622659e-17
-4.81659154e-17
-4.83918539e-17
-4.66760105e-17
-4.48074593e-17
-4.47643754e-17
-4.6089492e-17
-4.83284786e-17
-4.88607093e-17
-5.20347978e-17
-5.09759847e-17
-5.48275438e-17
-5.45892498e-17
-5.1794985e-17
-5.22286745e-17
-5.41096055e-17
-5.62870394e-17
-5.53797195e-17
-5.38688389e-17
-5.52789342e-17
-5.61784259e-17
-5.59393668e-17
-5.36058501e-17
-5.32854914e-17
-5.32663511e-17
-5.3092861e-17
-5.62491914e-17
-5.51745345e-17
-5.46515377e-17
-5.57704767e-17
-5.57144872e-17
-5.37319581e-17
-5.3482863e-17
-5.14587134e-17
-5.13896656e-17
-5.03894715e-17
-5.18356437e-17
-5.20825663e-17
-5.0726343e-17
-5.09207527e-17
-4.9011802e-17
-5.08952184e-17
-5.0738981e-17
-5.27994332e-17
-5.38741958e-17
-4.98621448e-17
-4.76779411e-17
-4.66673754e-17
-5.02168885e-17
-4.9823961e-17
-4.64501058e-17
-4.90483434e-17
-4.5387723e-17
-4.56434149e-17
-4.50260661e-17
-4.2160485e-17
-4.27502839e-17
-4.18730483e-17
-3.95595957e-17
-4.35555543e-17
-4.41772527e-17
-4.27785188e-17
-4.16856263e-17
-4.72595455e-17
-4.75103206e-17
-4.92381423e-17
-4.56246028e-17
-4.57302668e-17
-4.51320215e-17
-4.46989372e-17
-4.33418069e-17
-4.47793686e-17
-4.44401272e-17
-4.47674293e-17
-4.33840191e-17
-4.27570078e-17
-4.5305018e-17
-4.62353792e-17
-4.24894271e-17
-4.25941495e-17
-4.44384368e-17
-3.86817793e-17
-4.148829e-17
-3.79818331e-17
-3.78699984e-17
-3.63046721e-17
-3.6791926e-17
-3.40269443e-17
-3.44324867e-17
-3.3792779e-17
-3.26771245e-17
-3.12247835e-17
-3.16986502e-17
-3.07491108e-17
-2.89769681e-17
-2.70285601e-17
-2.67470488e-17
-2.44047691e-17
-2.21202707e-17
-2.29564134e-17
-2.09542406e-17
-2.31463068e-17
-2.347204e-17
-1.97284579e-17
-2.25129313e-17
-2.53529589e-17
-2.36618316e-17
-2.44641805e-17
-1.85317712e-17
-2.17173417e-17
-2.15046249e-17
-2.36985768e-17
-2.27250722e-17
-2.24742017e-17
-2.67501182e-17
-2.53341002e-17
-2.88379258e-17
-2.73163061e-17
-2.26566854e-17
-2.54622405e-17
-2.36880385e-17
-2.50358553e-17
-2.3263455e-17
-2.47933341e-17
-2.45526304e-17
-2.49084146e-17
-2.7887335e-17
-2.94806392e-17
-2.97795272e-17
-2.88773474e-17
-2.93852015e-17
-2.87473022e-17
-2.50061581e-17
-2.57384525e-17
-2.5217791e-17
-2.50417831e-17
-2.14544789e-17
-1.96519536e-17
-1.76409516e-17
-2.08519345e-17
-1.5752683e-17
-1.4421445e-17
-1.6600207e-17
-1.52094532e-17
-1.55398726e-17
-1.51063157e-17
-1.31828779e-17
-1.17114622e-17
-1.6078628e-17
-1.55903222e-17
-1.76859724e-17
-1.90851018e-17
-1.84253336e-17
-1.28482125e-17
-8.45555346e-18
-7.45643788e-18
-5.0575196e-18
-5.59868448e-18
-7.55076058e-18
-3.6804034e-18
-5.13720819e-18
-4.82438606e-18
-2.16286216e-18
-3.7128352e-18
-3.81114863e-18
-5.35315332e-18
-3.75149143e-18
-6.49644706e-18
-4.81658316e-18
-7.71726781e-18
-2.60274203e-18
-3.2908697e-18
-1.72723326e-18
-2.57786303e-18
-3.43296679e-18
-4.29468782e-18
-4.9774386e-18
-7.32428819e-18
-8.98417966e-18
-4.57393298e-18
-7.45865389e-18
-3.54916745e-18
-1.52715869e-18
-2.30957579e-18
-4.23111009e-18
-7.95123244e-19
-3.09494512e-18
-2.60061263e-19
4.30969929e-18
2.97138926e-18
3.59148781e-18
2.3956817e-18
3.94123305e-18
6.28350169e-18
6.84076176e-18
6.8412177e-18
6.64992317e-18
6.14440711e-18
7.03681201e-18
7.440126e-18
8.72351929e-18
1.21076087e-17
1.54778417e-17
1.55484447e-17
1.52362376e-17
1.45915516e-17
1.53483459e-17
1.34162561e-17
1.26187566e-17
1.27440007e-17
1.27042613e-17
1.43859919e-17
1.61754142e-17
1.40407278e-17
1.63937091e-17
1.78318748e-17
1.74896181e-17
1.81293931e-17
1.9169577e-17
1.85751028e-17
1.65121659e-17
1.95593117e-17
1.58281427e-17
1.60107407e-17
1.68388709e-17
1.75612633e-17
1.82341457e-17
1.75411984e-17
2.15060013e-17
2.13296804e-17
2.13897094e-17
2.08043819e-17
1.9984143e-17
2.54268153e-17
2.54482872e-17
2.36803595e-17
2.22677142e-17
2.33102624e-17
2.16977e-17
1.88793053e-17
2.057821e-17
2.03033494e-17
2.47515188e-17
2.31016715e-17
2.61672238e-17
2.8770734e-17
2.82458129e-17
3.16729304e-17
2.98866177e-17
3.18274175e-17
3.28706547e-17
3.56413781e-17
3.66419758e-17
3.63810233e-17
3.48885509e-17
4.06052668e-17
4.02457173e-17
4.32565881e-17
4.38496049e-17
4.40396819e-17
4.42124279e-17
4.2069668e-17
4.46379458e-17
4.8514635e-17
4.74968033e-17
4.47691613e-17
4.64546851e-17
4.7009014e-17
4.6134055e-17
4.60196038e-17
4.71024382e-17
5.08711661e-17
4.96898397e-17
4.86593661e-17
5.0361002e-17
5.15548113e-17
4.96090755e-17
5.2251444e-17
5.18271951e-17
4.96794361e-17
5.33074195e-17
5.38722504e-17
5.41874837e-17
5.5783585e-17
5.35866238e-17
5.66993536e-17
5.47192994e-17
5.43064571e-17
5.89969556e-17
5.67770474e-17
5.60895023e-17
5.85298467e-17
5.4772848e-17
5.8938263e-17
5.80068428e-17
5.78467357e-17
5.54640446e-17
5.71524229e-17
6.05969148e-17
5.79699111e-17
6.12224527e-17
6.43468803e-17
6.42535231e-17
6.48860481e-17
6.15322834e-17
6.21821777e-17
6.2447642e-17
6.66818896e-17
6.35163318e-17
6.35322483e-17
6.47020016e-17
6.72467543e-17
6.82238559e-17
6.48296484e-17
6.96735635e-17
6.89067306e-17
6.79957032e-17
6.53469004e-17
6.81715599e-17
6.81084365e-17
6.76590144e-17
6.67898236e-17
6.77602822e-17
7.06505551e-17
7.06683377e-17
7.26473815e-17
7.28491755e-17
6.93586666e-17
6.8881451e-17
7.13620693e-17
7.39301501e-17
7.35698042e-17
7.17786498e-17
7.06556759e-17
7.61181841e-17
7.39887284e-17
7.35511433e-17
7.33035364e-17
7.77503086e-17
7.75156075e-17
8.0252677e-17
8.25221733e-17
8.13873062e-17
8.28211573e-17
8.33820833e-17
8.19659062e-17
8.39591926e-17
7.99304438e-17
7.96097853e-17
8.00590976e-17
7.67896583e-17
8.14787102e-17
8.01008111e-17
8.24941522e-17
8.14153975e-17
8.21874619e-17
8.27346347e-17
8.47474217e-17
8.34000521e-17
8.45629644e-17
8.48015231e-17
8.79296032e-17
8.99369388e-17
9.194661e-17
9.26502905e-17
9.49430893e-17
9.30081229e-17
9.54496718e-17
9.84541165e-17
9.77081925e-17
9.75727149e-17
9.75634677e-17
9.84250278e-17
1.00056588e-16
1.0141316e-16
1.03545355e-16
1.0739062e-16
1.08506811e-16
1.09368768e-16
1.15068253e-16
1.18115092e-16
1.17802737e-16
1.18411192e-16
1.21399206e-16
1.2245245e-16
1.28279111e-16
1.3239717e-16
1.32822017e-16
1.33348987e-16
1.3522627e-16
1.3884316e-16
1.43052572e-16
1.47576829e-16
1.47908678e-16
1.53513953e-16
1.5557471e-16
1.6460616e-16
1.71650001e-16
1.7997804e-16
1.86700467e-16
1.96312018e-16
2.05215244e-16
2.13534568e-16
2.19016463e-16
2.27996137e-16
2.35578652e-16
2.48675044e-16
2.63614102e-16
2.77910434e-16
2.9365017e-16
3.13916032e-16
3.3289799e-16
3.5004721e-16
3.73405509e-16
4.02155023e-16
4.23114005e-16
4.53485505e-16
4.83514748e-16
5.13962987e-16
5.53789e-16
5.90649764e-16
6.32545894e-16
6.76218432e-16
7.25132797e-16
7.82066493e-16
8.39935651e-16
9.0577112e-16
9.75122363e-16
1.04899609e-15
1.12734262e-15
1.21575311e-15
1.31065703e-15
1.4116154e-15
1.52482734e-15
1.64630328e-15
1.7787466e-15
1.92302236e-15
2.07967506e-15
2.24899652e-15
2.42719537e-15
2.62334773e-15