/*--------------------------------*- C++ -*----------------------------------*\
| =========                 |                                                 |
| \\      /  F ield         | OpenFOAM: The Open Source CFD Toolbox           |
|  \\    /   O peration     | Version:  2206                                  |
|   \\  /    A nd           | Website:  www.openfoam.com                      |
|    \\/     M anipulation  |                                                 |
\*---------------------------------------------------------------------------*/
FoamFile
{
    version     2.0;
    format      ascii;
    arch        "LSB;label=32;scalar=64";
    class       volScalarField;
    location    "1.16e-05";
    object      PVsourcePV;
}
// * * * * * * * * * * * * * * * * * * * * * * * * * * * * * * * * * * * * * //

dimensions      [1 -3 -1 0 0 0 0];

internalField   nonuniform List<scalar> 
3183
(
0
0
0
0
0
0
0
0
0
0
0
0
0
0
0
0
0
0
0
0
0
0
0
0
0
0
0
0
0
0
0
0
0
0
0
0
0
0
0
0
0
0
0
0
0
0
0
0
0
0
0
0
0
0
0
0
0
0
0
0
0
0
0
0
0
0
0
0
0
0
0
0
0
0
0
0
0
0
0
0
0
0
0
0
0
0
0
0
0
0
0
0
0
0
0
0
0
0
0
0
0
0
0
0
0
0
0
0
0
0
0
0
0
0
0
0
0
0
0
0
0
0
0
0
0
0
0
0
0
0
0
0
0
0
0
0
0
0
0
0
0
0
0
0
0
0
0
0
0
0
0
0
0
0
0
0
0
0
0
0
0
0
0
0
0
0
0
0
0
0
0
0
0
0
0
0
0
0
0
0
0
0
0
0
0
0
0
0
0
0
0
0
0
0
0
0
0
0
0
0
0
0
0
0
0
0
0
0
0
0
0
0
0
0
0
0
0
0
0
0
0
0
0
0
0
0
0
0
0
0
0
0
0
0
0
0
0
0
0
0
0
0
0
0
0
0
0
0
0
0
0
0
0
0
0
0
0
0
0
0
0
0
0
0
0
0
0
0
0
0
0
0
0
0
0
0
0
0
0
0
0
0
0
0
0
0
0
0
0
0
0
0
0
0
0
0
0
0
0
0
0
0
0
0
0
0
0
0
0
0
0
0
0
0
0
0
0
0
0
0
0
0
0
0
0
0
0
0
0
0
0
0
0
0
0
0
0
0
0
0
0
0
0
0
0
0
0
0
0
0
0
0
0
0
0
0
0
0
0
0
0
0
0
0
0
0
0
0
0
0
0
0
0
0
0
0
0
0
0
0
0
0
0
0
0
0
0
0
0
0
0
0
0
0
0
0
0
0
0
0
0
0
0
0
0
0
0
0
0
0
0
0
0
0
0
0
0
0
0
0
0
0
0
0
0
0
0
0
0
0
0
0
0
0
0
0
0
0
0
0
0
0
0
0
0
0
0
0
0
0
0
0
0
0
0
0
0
0
0
0
0
0
0
0
0
0
0
0
0
0
0
0
0
0
0
0
0
0
0
0
0
0
0
0
0
0
0
0
0
0
0
0
0
0
0
0
0
0
0
0
0
0
0
0
0
0
0
0
0
0
0
0
0
0
0
0
0
0
0
0
0
0
0
0
0
0
0
0
0
0
0
0
0
0
0
0
0
0
0
0
0
0
0
0
0
0
0
0
0
0
0
0
0
0
0
0
0
0
0
0
0
0
0
0
0
0
0
0
0
0
0
0
0
0
0
0
0
0
0
0
0
0
0
0
0
0
0
0
0
0
0
0
0
0
0
0
0
0
0
0
0
0
0
0
0
0
0
0
0
0
0
0
0
0
0
0
0
0
0
0
0
0
0
0
0
0
0
0
0
0
0
0
0
0
0
0
0
0
0
0
0
0
0
0
0
0
0
0
0
0
0
0
0
0
0
0
0
0
0
0
0
0
0
0
0
0
0
0
0
0
0
0
0
0
0
0
0
0
0
0
0
0
0
0
0
0
0
0
0
0
0
0
0
0
0
0
0
0
0
0
0
0
0
0
0
0
0
0
0
0
0
0
0
0
0
0
0
0
0
0
0
0
0
0
0
0
0
0
0
0
0
0
0
0
0
0
0
0
0
0
0
0
0
0
0
0
0
0
0
0
0
0
0
0
0
0
0
0
0
0
0
0
0
0
0
0
0
0
0
0
0
0
0
0
0
0
0
0
0
0
0
0
0
0
0
0
0
0
0
0
0
0
0
0
0
0
0
0
0
0
0
0
0
0
0
0
0
0
0
0
0
0
0
0
0
0
0
0
0
0
0
0
0
0
0
0
0
0
0
0
0
0
0
0
0
0
0
0
0
0
0
0
0
0
0
0
0
0
0
0
0
0
0
0
0
0
0
0
0
0
0
0
0
0
0
0
0
0
0
0
0
0
0
0
0
0
0
0
0
0
0
0
0
0
0
0
0
0
0
0
0
0
0
0
0
0
0
0
0
0
0
0
0
0
0
0
0
0
0
0
0
0
0
0
0
0
0
0
0
0
0
0
0
0
0
0
0
0
0
0
0
0
0
0
0
0
0
0
0
0
0
0
0
0
0
0
0
0
0
0
0
0
0
0
0
0
0
0
0
0
0
0
0
0
0
0
0
0
0
0
0
0
0
0
0
0
0
0
0
0
0
0
0
0
0
0
0
0
0
0
0
0
0
0
0
0
0
0
0
0
0
0
0
0
0
0
0
0
0
0
0
0
0
0
0
0
0
0
0
0
0
0
0
0
0
0
0
0
0
0
0
0
0
0
0
0
0
0
0
0
0
0
0
0
0
0
0
0
0
0
0
0
0
0
0
0
0
0
0
0
0
0
0
0
0
0
0
0
0
0
0
0
0
0
0
0
0
0
0
0
0
0
0
0
0
0
0
0
0
0
0
0
0
0
0
0
0
0
0
0
0
0
0
0
0
0
0
0
0
0
0
0
0
0
0
0
0
0
0
0
0
0
0
0
0
0
0
0
0
0
0
0
0
0
0
0
0
0
0
0
0
0
0
0
0
0
0
0
0
0
0
0
0
0
0
0
0
0
0
0
0
0
0
0
0
0
0
0
0
0
0
0
0
0
0
0
0
0
0
0
0
0
0
0
0
0
0
0
0
0
0
0
0
0
0
0
0
0
0
0
0
0
0
0
0
0
0
0
0
0
0
0
0
0
0
0
0
0
0
0
0
0
0
0
0
0
0
0
0
0
0
0
0
0
0
0
0
0
0
0
0
0
0
0
0
0
0
0
0
0
0
0
0
0
0
0
0
0
0
0
0
0
0
0
0
0
0
0
0
0
0
0
0
0
0
0
0
0
0
0
0
0
0
0
0
0
0
0
0
0
0
0
0
0
0
0
0
0
0
0
0
0
0
0
0
0
0
0
0
0
0
0
0
0
0
0
0
0
0
0
0
0
0
0
0
0
0
0
0
0
0
0
0
0
0
0
0
0
0
0
0
0
0
0
0
0
0
0
0
0
0
0
0
0
0
0
0
0
0
0
0
0
0
0
0
0
0
0
0
0
0
0
0
0
0
0
0
0
0
0
0
0
0
0
0
0
0
0
0
0
0
0
0
0
0
0
0
0
0
0
0
0
0
0
0
0
0
0
0
0
0
0
0
0
0
0
0
0
0
0
0
0
0
0
0
0
0
0
0
0
0
0
0
0
0
0
0
0
0
0
0
0
0
0
0
0
0
0
0
0
0
0
0
0
0
0
0
0
0
0
0
0
0
0
0
0
0
0
0
0
0
0
0
0
0
0
0
0
0
0
0
0
0
0
0
0
0
0
0
0
0
0
0
0
0
0
0
0
0
0
0
0
0
0
0
0
0
0
0
0
0
0
0
0
0
0
0
0
0
0
0
0
0
0
0
0
0
0
0
0
0
0
0
0
0
0
0
0
0
0
0
0
0
0
0
0
0
0
0
0
0
0
0
0
0
0
0
0
0
0
0
0
0
0
0
0
0
0
0
0
0
0
0
0
0
0
0
0
0
0
0
0
0
0
0
0
0
0
0
0
0
0
0
0
0
0
0
0
0
0
0
0
0
0
0
0
0
0
0
0
0
0
0
0
0
0
0
0
0
0
0
0
0
0
0
0
0
0
0
0
0
0
0
0
0
0
0
0
0
0
0
0
0
0
0
0
0
0
0
0
0
0
0
0
0
0
0
0
0
0
0
0
0
0
0
0
0
0
0
0
0
0
0
0
0
0
0
0
0
0
0
0
0
0
0
0
0
0
0
0
0
0
0
0
0
0
0
0
0
0
0
0
0
0
0
0
0
0
0
0
0
0
0
0
0
0
0
0
0
0
0
0
0
0
0
0
0
0
0
0
0
0
0
0
0
0
0
0
0
0
0
0
0
0
0
0
0
0
0
0
0
0
0
0
0
0
0
0
0
0
0
0
0
0
0
0
0
0
0
0
0
0
0
0
0
0
0
0
0
0
0
0
0
0
0
0
0
0
0
0
0
0
0
0
0
0
0
0
0
0
0
0
0
0
0
0
0
0
0
0
0
0
0
0
0
0
0
0
0
0
0
0
0
0
0
0
0
0
0
0
0
0
0
0
0
0
0
0
0
0
0
0
0
0
0
0
0
0
0
0
0
0
0
0
0
0
0
0
0
0
0
0
0
0
0
0
0
0
0
0
0
0
0
0
0
0
0
0
0
0
0
0
0
0
0
0
0
0
0
0
0
0
0
0
0
0
0
0
0
0
0
0
0
0
0
0
0
0
0
0
0
0
0
0
0
0
0
0
0
0
0
0
0
0
0
0
0
0
0
0
0
0
0
0
0
0
0
0
0
0
0
0
0
0
0
0
0
0
0
0
0
0
0
0
0
0
0
0
0
0
0
0
0
0
0
0
0
0
0
0
0
0
0
0
0
0
0
0
0
0
0
0
0
0
0
0
0
0
0
0
0
0
0
0
0
0
0
0
0
0
0
0
0
0
0
0
0
0
0
0
0
0
0
0
0
0
0
0
0
0
0
0
0
0
0
0
0
0
0
0
0
0
0
0
0
0
0
0
0
0
0
0
0
0
0
0
0
0
0
0
0
0
0
0
0
0
0
0
0
0
0
0
0
0
0
0
0
0
0
0
0
0
0
0
0
0
0
0
0
0
0
0
0
0
0
0
0
0
0
0
0
0
0
0
0
0
0
0
0
0
0
0
0
0
0
0
0
0
0
0
0
0
0
0
0
0
0
0
0
0
0
0
0
0
0
0
0
0
0
0
0
0
0
0
0
0
0
0
0
0
0
0
0
0
0
0
0
0
0
0
0
0
0
0
0
0
0
0
0
0
0
0
0
0
0
0
0
0
0
0
0
0
0
0
0
0
0
0
0
0
0
0
0
0
0
0
0
0
0
0
0
0
0
0
0
0
0
0
0
0
0
0
0
0
0
0
0
0
0
0
0
0
0
0
0
0
0
0
0
0
0
0
0
0
0
0
0
0
0
0
0
0
0
0
0
0
0
0
0
0
0
0
0
0
0
0
0
0
0
0
0
0
0
0
0
0
0
0
0
0
0
0
0
0
0
0
0
0
0
0
0
0
0
0
0
0
0
0
0
0
0
0
0
0
0
0
0
0
0
0
0
0
0
0
0
0
0
0
0
0
0
0
0
0
0
0
0
0
0
0
0
0
0
0
0
0
0
0
0
0
0
0
0
0
0
0
0
0
0
0
0
0
0
0
0
0
0
0
0
0
0
0
0
0
0
0
0
0
0
0
0
0
0
0
0
0
0
0
0
0
0
0
0
0
0
0
0
0
0
0
0
0
0
2.27842737e-300
0
1.9037123e-297
2.55568916e-298
1.56611569e-294
2.30161323e-295
1.26872498e-291
2.02243315e-292
1.01226363e-288
1.73619351e-289
7.95536994e-286
1.45584577e-286
6.15917784e-283
1.1985356e-283
4.69821343e-280
9.669157e-281
3.53133974e-277
7.66743967e-278
2.61570866e-274
5.95550798e-275
1.90952788e-271
4.5447503e-272
1.37401178e-268
3.40901474e-269
9.74588437e-266
2.51450112e-266
6.8148214e-263
1.82445072e-263
4.69811696e-260
1.30257816e-260
3.19345405e-257
9.15344644e-258
2.14039602e-254
6.33255268e-255
1.41465691e-251
4.31398503e-252
9.22054079e-249
2.89445123e-249
5.92696786e-246
1.91299923e-246
3.75751066e-243
1.2456315e-243
2.34951303e-240
7.99187764e-241
1.4490454e-237
5.05294334e-238
8.81509818e-235
3.14863679e-235
5.28963753e-232
1.93385624e-232
3.13104209e-229
1.17080738e-229
1.82820481e-226
6.98776165e-227
1.05302952e-223
4.1115889e-224
5.98330182e-221
2.3851956e-221
3.35373669e-218
1.36427255e-218
1.85441031e-215
7.69409913e-216
1.01151137e-212
4.2786554e-213
5.44278421e-210
2.34617285e-210
2.88903188e-207
1.26859535e-207
1.51271798e-204
6.76395927e-205
7.81321261e-202
3.55627327e-202
3.98067797e-199
1.84375961e-199
2.00045095e-196
9.42593748e-197
9.91580514e-194
4.75170312e-194
4.84775898e-191
2.36194239e-191
2.33748445e-188
1.1576379e-188
1.1115545e-185
5.5942927e-186
5.21272305e-183
2.66544452e-183
2.41060361e-180
1.252064e-180
1.09922709e-177
5.79820588e-178
4.94220186e-175
2.64695246e-175
2.19075419e-172
1.19112292e-172
9.57355566e-170
5.28317256e-170
4.12404347e-167
2.30955278e-167
1.75107595e-164
9.94993391e-165
7.32786359e-162
4.22409029e-162
3.02201515e-159
1.76695487e-159
1.22805057e-156
7.28203206e-157
4.91684908e-154
2.95642662e-154
1.93935018e-151
1.18227466e-151
7.5347525e-149
4.65642405e-149
2.88314602e-146
1.80597722e-146
1.08639401e-143
6.89662882e-144
4.03056458e-141
2.59275743e-141
1.47208647e-138
9.59443064e-139
5.2919655e-136
3.49411108e-136
1.8721485e-133
1.25209756e-133
6.51661984e-131
4.41410922e-131
2.2314034e-128
1.53061651e-128
7.514803e-126
5.2193732e-126
2.48854921e-123
1.74986359e-123
8.10147626e-121
5.76665423e-121
2.59218572e-118
1.8675487e-118
8.14968901e-116
5.94205723e-116
2.51693358e-113
1.85695309e-113
7.63369102e-111
5.69822993e-111
2.27299708e-108
1.71641633e-108
6.64242458e-106
5.07352894e-106
1.90446023e-103
1.47114569e-103
5.35525702e-101
4.18315456e-101
1.47634685e-98
1.16597784e-98
3.98862261e-96
3.18449429e-96
1.05560213e-93
8.51862448e-94
2.73542823e-91
2.23090412e-91
6.93730667e-89
5.71697163e-89
1.72098256e-86
1.43285674e-86
4.17394921e-84
3.51038297e-84
9.89127814e-82
8.40173225e-82
2.28888821e-79
1.9632526e-79
5.16865223e-77
4.47597965e-77
1.13816108e-74
9.94936881e-75
2.4421615e-72
2.15460014e-72
5.10193456e-70
4.54197497e-70
1.03681976e-67
9.31204659e-68
2.04770262e-65
1.85503691e-65
3.92625878e-63
3.58688394e-63
7.30052811e-61
6.72436664e-61
1.31481563e-58
1.22074097e-58
2.29051966e-56
2.14315605e-56
3.85416293e-54
3.6333482e-54
6.25400956e-52
5.93861249e-52
9.76906585e-50
9.34151184e-50
1.46610206e-47
1.41139789e-47
2.10933901e-45
2.04376202e-45
2.90229354e-43
2.82939226e-43
3.80853635e-41
3.73450653e-41
4.75168856e-39
4.68463121e-39
5.61659068e-37
5.56451154e-37
6.264184e-35
6.23171259e-35
6.56104141e-33
6.54559159e-33
6.41793822e-31
6.4076183e-31
5.82485526e-29
5.80295645e-29
4.86649646e-27
4.82576429e-27
3.70675358e-25
3.6571752e-25
2.5431329e-23
2.54421302e-23
1.54709486e-21
1.54218543e-21
8.1815472e-20
8.14375e-20
3.65629165e-18
3.64807024e-18
1.32570466e-16
1.31953062e-16
3.65770548e-15
3.66014218e-15
3.33002365e-11
3.42763584e-11
0.0120860699
0.0504360391
0.686850394
0.75094525
0.479038867
0.404929691
0.0864853175
0.0708201792
0.0132773321
0.0119243302
0.00231516549
0.00217879842
0.000357508677
0.00035086063
5.12080681e-05
5.10921681e-05
7.27810427e-06
7.27197017e-06
1.46371344e-06
1.46571474e-06
7.61454108e-07
7.61615151e-07
6.82662143e-07
6.82701209e-07
6.74462308e-07
6.74468779e-07
6.73664044e-07
6.73665666e-07
6.73589729e-07
6.73592444e-07
6.73584232e-07
6.73585845e-07
6.73583393e-07
6.73585879e-07
6.73582519e-07
6.73585242e-07
6.73583666e-07
6.73583411e-07
6.73584435e-07
6.73582881e-07
6.73584681e-07
6.73583283e-07
6.73585744e-07
6.73583381e-07
6.73584329e-07
6.73584325e-07
6.73584848e-07
6.7358366e-07
6.73585123e-07
6.73584112e-07
6.73585066e-07
6.73583422e-07
6.73584826e-07
6.73583904e-07
6.73584178e-07
6.73584281e-07
6.73584066e-07
6.73584681e-07
6.7358364e-07
6.73584508e-07
6.73584853e-07
6.73584367e-07
6.73583809e-07
6.73584136e-07
6.73583965e-07
6.73584052e-07
6.73584802e-07
6.73583923e-07
6.73584611e-07
6.73582663e-07
6.7358391e-07
6.73584262e-07
6.73583512e-07
6.7358486e-07
6.73582908e-07
6.73585198e-07
6.73584031e-07
6.7358523e-07
6.7358403e-07
6.73584908e-07
6.73583245e-07
6.73585395e-07
6.7358355e-07
6.73584242e-07
6.73584698e-07
6.73582815e-07
6.73585466e-07
6.73582939e-07
6.73585435e-07
6.73583014e-07
6.73584755e-07
6.73583693e-07
6.73584398e-07
6.73585298e-07
6.73584096e-07
6.73584656e-07
6.7358441e-07
6.73584143e-07
6.73585462e-07
6.73584453e-07
6.73583983e-07
6.73584929e-07
6.73584329e-07
6.73584499e-07
6.73584804e-07
6.73583815e-07
6.73584413e-07
6.73584681e-07
6.73584425e-07
6.73584687e-07
6.73583909e-07
6.73584071e-07
6.73583867e-07
6.73584689e-07
6.7358382e-07
6.73584314e-07
6.73583489e-07
6.73585318e-07
6.73583936e-07
6.73585299e-07
6.73583832e-07
6.73585138e-07
6.73583857e-07
6.7358457e-07
6.73584053e-07
6.73585413e-07
6.73583284e-07
6.73585701e-07
6.73583555e-07
6.73585745e-07
6.73584437e-07
6.73584466e-07
6.73585781e-07
6.73585119e-07
6.73585068e-07
6.73584485e-07
6.73585584e-07
6.73584383e-07
6.73584817e-07
6.73584344e-07
6.73583568e-07
6.73584658e-07
6.73583512e-07
6.73583918e-07
6.73584093e-07
6.73584401e-07
6.73583465e-07
6.73584297e-07
6.73584838e-07
6.73583637e-07
6.73585409e-07
6.735832e-07
6.73585795e-07
6.73583893e-07
6.73585107e-07
6.73584458e-07
6.73584553e-07
6.73584644e-07
6.73585072e-07
6.73584371e-07
6.73586408e-07
6.73583944e-07
6.7358589e-07
6.73584177e-07
6.73585894e-07
6.73583857e-07
6.73585133e-07
6.73583827e-07
6.7358427e-07
6.735837e-07
6.73584681e-07
6.73584315e-07
6.73583718e-07
6.73584598e-07
6.73584378e-07
6.73584683e-07
6.73585306e-07
6.73585348e-07
6.7358499e-07
6.73585731e-07
6.7358585e-07
6.73585453e-07
6.73586088e-07
6.7358492e-07
6.73584803e-07
6.73584226e-07
6.73584874e-07
6.73584055e-07
6.73585496e-07
6.73584728e-07
6.73585336e-07
6.73584225e-07
6.73586282e-07
6.73584285e-07
6.73586026e-07
6.73584389e-07
6.73584539e-07
6.73584219e-07
6.73585046e-07
6.73583745e-07
6.73585612e-07
6.73584315e-07
6.73586098e-07
6.73583597e-07
6.73584765e-07
6.73584628e-07
6.73585123e-07
6.73584532e-07
6.73586486e-07
6.73585479e-07
6.73586197e-07
6.73584582e-07
6.73585605e-07
6.73585142e-07
6.73585631e-07
6.73585136e-07
6.73584625e-07
6.73585747e-07
6.73584584e-07
6.73585016e-07
6.73585545e-07
6.73584964e-07
6.73584486e-07
6.73584519e-07
6.73585218e-07
6.73584747e-07
6.73585166e-07
6.735851e-07
6.73585249e-07
6.73585811e-07
6.73585074e-07
6.73584764e-07
6.7358589e-07
6.73584903e-07
6.73585139e-07
6.73585003e-07
6.73585017e-07
6.73585847e-07
6.73585347e-07
6.73586027e-07
6.73584536e-07
6.73586362e-07
6.73584662e-07
6.73586167e-07
6.73584121e-07
6.7358629e-07
6.73584343e-07
6.73585447e-07
6.73584846e-07
6.7358477e-07
6.73585523e-07
6.73585479e-07
6.73585312e-07
6.7358579e-07
6.73584308e-07
6.73586056e-07
6.73585004e-07
6.73585564e-07
6.73585171e-07
6.73584879e-07
6.73586179e-07
6.73584563e-07
6.73587099e-07
6.73584269e-07
6.73586595e-07
6.73584644e-07
6.7358532e-07
6.73584827e-07
6.73584819e-07
6.73584484e-07
6.73586036e-07
6.73584073e-07
6.73585467e-07
6.7358557e-07
6.73584462e-07
6.73585776e-07
6.7358494e-07
6.7358598e-07
6.7358555e-07
6.73584935e-07
6.73585897e-07
6.73585196e-07
6.73585194e-07
6.73585687e-07
6.73585297e-07
6.73585114e-07
6.73584769e-07
6.7358502e-07
6.73585298e-07
6.73585753e-07
6.73585074e-07
6.73585509e-07
6.73585814e-07
6.73584919e-07
6.73585192e-07
6.73585078e-07
6.73585275e-07
6.73585717e-07
6.73586093e-07
6.73585622e-07
6.73585052e-07
6.73586245e-07
6.73585224e-07
6.73585451e-07
6.73585875e-07
6.73585245e-07
6.73585109e-07
6.73585736e-07
6.7358472e-07
6.73585651e-07
6.73585489e-07
6.73585987e-07
6.73584423e-07
6.7358622e-07
6.73585376e-07
6.73585324e-07
6.7358551e-07
6.73584939e-07
6.73586206e-07
6.73584492e-07
6.73586179e-07
6.73584878e-07
6.73586252e-07
6.73585113e-07
6.7358591e-07
6.73585266e-07
6.73585178e-07
6.7358585e-07
6.73585061e-07
6.73586591e-07
6.73584827e-07
6.73586297e-07
6.73585259e-07
6.73585288e-07
6.73585449e-07
6.73585916e-07
6.73585518e-07
6.73585534e-07
6.73584602e-07
6.73585744e-07
6.73585374e-07
6.73586258e-07
6.73585058e-07
6.7358574e-07
6.73585908e-07
6.73585645e-07
6.73585538e-07
6.73585129e-07
6.73586081e-07
6.73584975e-07
6.73586193e-07
6.73586307e-07
6.73585088e-07
6.73585626e-07
6.73585743e-07
6.73585245e-07
6.7358634e-07
6.73585594e-07
6.73585655e-07
6.73586028e-07
6.73586078e-07
6.73585189e-07
6.73585814e-07
6.73585994e-07
6.73586131e-07
6.73586436e-07
6.7358548e-07
6.7358628e-07
6.73586261e-07
6.73586448e-07
6.73586205e-07
6.7358625e-07
6.73586192e-07
6.73586215e-07
6.73585604e-07
6.73586073e-07
6.73584831e-07
6.73585888e-07
6.73585883e-07
6.73586962e-07
6.73586266e-07
6.73585612e-07
6.73586406e-07
6.73585463e-07
6.73586605e-07
6.73584955e-07
6.73585742e-07
6.73585739e-07
6.73585463e-07
6.73586089e-07
6.7358518e-07
6.73586249e-07
6.73585066e-07
6.73585906e-07
6.73586291e-07
6.73585719e-07
6.7358676e-07
6.73585685e-07
6.73586321e-07
6.7358598e-07
6.73585524e-07
6.73585824e-07
6.73585463e-07
6.73587025e-07
6.73584889e-07
6.73586718e-07
6.73585046e-07
6.73586402e-07
6.73586495e-07
6.73585973e-07
6.73586252e-07
6.73586329e-07
6.73586147e-07
6.73586375e-07
6.73586711e-07
6.73585779e-07
6.73586847e-07
6.73585731e-07
6.7358579e-07
6.73586247e-07
6.73585784e-07
6.73586727e-07
6.73585559e-07
6.73586854e-07
6.73586686e-07
6.73586845e-07
6.73586306e-07
6.73586883e-07
6.7358565e-07
6.73586756e-07
6.73586563e-07
6.73586114e-07
6.73586631e-07
6.73586815e-07
6.73586349e-07
6.73586572e-07
6.73585908e-07
6.73586907e-07
6.73586236e-07
6.73586949e-07
6.73586292e-07
6.73586557e-07
6.7358599e-07
6.73586485e-07
6.73585668e-07
6.73587107e-07
6.73586735e-07
6.73587204e-07
6.73585519e-07
6.73586536e-07
6.73586748e-07
6.73585821e-07
6.73586558e-07
6.73586491e-07
6.73586706e-07
6.73586812e-07
6.73585452e-07
6.73587055e-07
6.7358637e-07
6.73585512e-07
6.73586573e-07
6.73586833e-07
6.73585582e-07
6.73587191e-07
6.7358541e-07
6.73587462e-07
6.73586603e-07
6.73586723e-07
6.73586308e-07
6.73586493e-07
6.73587009e-07
6.73585899e-07
6.73586314e-07
6.73586775e-07
6.7358567e-07
6.7358759e-07
6.73585667e-07
6.73587101e-07
6.73585917e-07
6.73586364e-07
6.73585101e-07
6.73587065e-07
6.73585496e-07
6.73586346e-07
6.73586005e-07
6.73585915e-07
6.73586326e-07
6.73585526e-07
6.73587991e-07
6.73585823e-07
6.7358693e-07
6.73586177e-07
6.73587342e-07
6.73586205e-07
6.73588297e-07
6.73584943e-07
6.73588119e-07
6.73585124e-07
6.73587463e-07
6.73585728e-07
6.73587388e-07
6.73586323e-07
6.73586821e-07
6.73586922e-07
6.73587203e-07
6.735864e-07
6.73587288e-07
6.73586473e-07
6.73586637e-07
6.73586536e-07
6.73586893e-07
6.73586379e-07
6.73586936e-07
6.7358684e-07
6.73587005e-07
6.7358705e-07
6.73586684e-07
6.73587039e-07
6.73586785e-07
6.73586735e-07
6.73587025e-07
6.73587062e-07
6.73587038e-07
6.73587099e-07
6.73587077e-07
6.73587096e-07
6.73587218e-07
6.73587276e-07
6.73587288e-07
6.73587419e-07
6.73587463e-07
6.73587598e-07
6.73587702e-07
6.73587739e-07
6.73587893e-07
6.73588018e-07
6.73588088e-07
6.73588231e-07
6.73588383e-07
6.73588555e-07
6.73588657e-07
6.7358878e-07
6.73588943e-07
6.7358902e-07
6.73589133e-07
6.73589224e-07
6.73589302e-07
6.73589302e-07
6.7358939e-07
6.73589392e-07
6.73589404e-07
6.73589412e-07
6.73589416e-07
6.73589421e-07
6.73589435e-07
6.73589424e-07
6.73589427e-07
6.73589407e-07
6.73589399e-07
6.7358943e-07
6.73589418e-07
6.7358942e-07
6.73589419e-07
6.73589426e-07
6.73589431e-07
6.73589423e-07
6.73589421e-07
6.73589437e-07
6.73589412e-07
6.73589426e-07
6.73589415e-07
6.73589427e-07
6.73589424e-07
6.73589416e-07
6.73589422e-07
6.73589411e-07
6.73589407e-07
6.73589437e-07
)
;

boundaryField
{
    closed
    {
        type            calculated;
        value           uniform 0;
    }
    open
    {
        type            calculated;
        value           uniform 0;
    }
    sides
    {
        type            empty;
    }
}


// ************************************************************************* //
