/*--------------------------------*- C++ -*----------------------------------*\
| =========                 |                                                 |
| \\      /  F ield         | OpenFOAM: The Open Source CFD Toolbox           |
|  \\    /   O peration     | Version:  2206                                  |
|   \\  /    A nd           | Website:  www.openfoam.com                      |
|    \\/     M anipulation  |                                                 |
\*---------------------------------------------------------------------------*/
FoamFile
{
    version     2.0;
    format      ascii;
    arch        "LSB;label=32;scalar=64";
    class       volScalarField;
    location    "1.16e-05";
    object      sourcePV;
}
// * * * * * * * * * * * * * * * * * * * * * * * * * * * * * * * * * * * * * //

dimensions      [1 -3 -1 0 0 0 0];

internalField   nonuniform List<scalar> 
3183
(
0
0
0
0
0
0
0
0
0
0
0
0
0
0
0
0
0
0
0
0
0
0
0
0
0
0
0
0
0
0
0
0
0
0
0
0
0
0
0
0
0
0
0
0
0
0
0
0
0
0
0
0
0
0
0
0
0
0
0
0
0
0
0
0
0
0
0
0
0
0
0
0
0
0
0
0
0
0
0
0
0
0
0
0
0
0
0
0
0
0
0
0
0
0
0
0
0
0
0
0
0
0
0
0
0
0
0
0
0
0
0
0
0
0
0
0
0
0
0
0
0
0
0
0
0
0
0
0
0
0
0
0
0
0
0
0
0
0
0
0
0
0
0
0
0
0
0
0
0
0
0
0
0
0
0
0
0
0
0
0
0
0
0
0
0
0
0
0
0
0
0
0
0
0
0
0
0
0
0
0
0
0
0
0
0
0
0
0
0
0
0
0
0
0
0
0
0
0
0
0
0
0
0
0
0
0
0
0
0
0
0
0
0
0
0
0
0
0
0
0
0
0
0
0
0
0
0
0
0
0
0
0
0
0
0
0
0
0
0
0
0
0
0
0
0
0
0
0
0
0
0
0
0
0
0
0
0
0
0
0
0
0
0
0
0
0
0
0
0
0
0
0
0
0
0
0
0
0
0
0
0
0
0
0
0
0
0
0
0
0
0
0
0
0
0
0
0
0
0
0
0
0
0
0
0
0
0
0
0
0
0
0
0
0
0
0
0
0
0
0
0
0
0
0
0
0
0
0
0
0
0
0
0
0
0
0
0
0
0
0
0
0
0
0
0
0
0
0
0
0
0
0
0
0
0
0
0
0
0
0
0
0
0
0
0
0
0
0
0
0
0
0
0
0
0
0
0
0
0
0
0
0
0
0
0
0
0
0
0
0
0
0
0
0
0
0
0
0
0
0
0
0
0
0
0
0
0
0
0
0
0
0
0
0
0
0
0
0
0
0
0
0
0
0
0
0
0
0
0
0
0
0
0
0
0
0
0
0
0
0
0
0
0
0
0
0
0
0
0
0
0
0
0
0
0
0
0
0
0
0
0
0
0
0
0
0
0
0
0
0
0
0
0
0
0
0
0
0
0
0
0
0
0
0
0
0
0
0
0
0
0
0
0
0
0
0
0
0
0
0
0
0
0
0
0
0
0
0
0
0
0
0
0
0
0
0
0
0
0
0
0
0
0
0
0
0
0
0
0
0
0
0
0
0
0
0
0
0
0
0
0
0
0
0
0
0
0
0
0
0
0
0
0
0
0
0
0
0
0
0
0
0
0
0
0
0
0
0
0
0
0
0
0
0
0
0
0
0
0
0
0
0
0
0
0
0
0
0
0
0
0
0
0
0
0
0
0
0
0
0
0
0
0
0
0
0
0
0
0
0
0
0
0
0
0
0
0
0
0
0
0
0
0
0
0
0
0
0
0
0
0
0
0
0
0
0
0
0
0
0
0
0
0
0
0
0
0
0
0
0
0
0
0
0
0
0
0
0
0
0
0
0
0
0
0
0
0
0
0
0
0
0
0
0
0
0
0
0
0
0
0
0
0
0
0
0
0
0
0
0
0
0
0
0
0
0
0
0
0
0
0
0
0
0
0
0
0
0
0
0
0
0
0
0
0
0
0
0
0
0
0
0
0
0
0
0
0
0
0
0
0
0
0
0
0
0
0
0
0
0
0
0
0
0
0
0
0
0
0
0
0
0
0
0
0
0
0
0
0
0
0
0
0
0
0
0
0
0
0
0
0
0
0
0
0
0
0
0
0
0
0
0
0
0
0
0
0
0
0
0
0
0
0
0
0
0
0
0
0
0
0
0
0
0
0
0
0
0
0
0
0
0
0
0
0
0
0
0
0
0
0
0
0
0
0
0
0
0
0
0
0
0
0
0
0
0
0
0
0
0
0
0
0
0
0
0
0
0
0
0
0
0
0
0
0
0
0
0
0
0
0
0
0
0
0
0
0
0
0
0
0
0
0
0
0
0
0
0
0
0
0
0
0
0
0
0
0
0
0
0
0
0
0
0
0
0
0
0
0
0
0
0
0
0
0
0
0
0
0
0
0
0
0
0
0
0
0
0
0
0
0
0
0
0
0
0
0
0
0
0
0
0
0
0
0
0
0
0
0
0
0
0
0
0
0
0
0
0
0
0
0
0
0
0
0
0
0
0
0
0
0
0
0
0
0
0
0
0
0
0
0
0
0
0
0
0
0
0
0
0
0
0
0
0
0
0
0
0
0
0
0
0
0
0
0
0
0
0
0
0
0
0
0
0
0
0
0
0
0
0
0
0
0
0
0
0
0
0
0
0
0
0
0
0
0
0
0
0
0
0
0
0
0
0
0
0
0
0
0
0
0
0
0
0
0
0
0
0
0
0
0
0
0
0
0
0
0
0
0
0
0
0
0
0
0
0
0
0
0
0
0
0
0
0
0
0
0
0
0
0
0
0
0
0
0
0
0
0
0
0
0
0
0
0
0
0
0
0
0
0
0
0
0
0
0
0
0
0
0
0
0
0
0
0
0
0
0
0
0
0
0
0
0
0
0
0
0
0
0
0
0
0
0
0
0
0
0
0
0
0
0
0
0
0
0
0
0
0
0
0
0
0
0
0
0
0
0
0
0
0
0
0
0
0
0
0
0
0
0
0
0
0
0
0
0
0
0
0
0
0
0
0
0
0
0
0
0
0
0
0
0
0
0
0
0
0
0
0
0
0
0
0
0
0
0
0
0
0
0
0
0
0
0
0
0
0
0
0
0
0
0
0
0
0
0
0
0
0
0
0
0
0
0
0
0
0
0
0
0
0
0
0
0
0
0
0
0
0
0
0
0
0
0
0
0
0
0
0
0
0
0
0
0
0
0
0
0
0
0
0
0
0
0
0
0
0
0
0
0
0
0
0
0
0
0
0
0
0
0
0
0
0
0
0
0
0
0
0
0
0
0
0
0
0
0
0
0
0
0
0
0
0
0
0
0
0
0
0
0
0
0
0
0
0
0
0
0
0
0
0
0
0
0
0
0
0
0
0
0
0
0
0
0
0
0
0
0
0
0
0
0
0
0
0
0
0
0
0
0
0
0
0
0
0
0
0
0
0
0
0
0
0
0
0
0
0
0
0
0
0
0
0
0
0
0
0
0
0
0
0
0
0
0
0
0
0
0
0
0
0
0
0
0
0
0
0
0
0
0
0
0
0
0
0
0
0
0
0
0
0
0
0
0
0
0
0
0
0
0
0
0
0
0
0
0
0
0
0
0
0
0
0
0
0
0
0
0
0
0
0
0
0
0
0
0
0
0
0
0
0
0
0
0
0
0
0
0
0
0
0
0
0
0
0
0
0
0
0
0
0
0
0
0
0
0
0
0
0
0
0
0
0
0
0
0
0
0
0
0
0
0
0
0
0
0
0
0
0
0
0
0
0
0
0
0
0
0
0
0
0
0
0
0
0
0
0
0
0
0
0
0
0
0
0
0
0
0
0
0
0
0
0
0
0
0
0
0
0
0
0
0
0
0
0
0
0
0
0
0
0
0
0
0
0
0
0
0
0
0
0
0
0
0
0
0
0
0
0
0
0
0
0
0
0
0
0
0
0
0
0
0
0
0
0
0
0
0
0
0
0
0
0
0
0
0
0
0
0
0
0
0
0
0
0
0
0
0
0
0
0
0
0
0
0
0
0
0
0
0
0
0
0
0
0
0
0
0
0
0
0
0
0
0
0
0
0
0
0
0
0
0
0
0
0
0
0
0
0
0
0
0
0
0
0
0
0
0
0
0
0
0
0
0
0
0
0
0
0
0
0
0
0
0
0
0
0
0
0
0
0
0
0
0
0
0
0
0
0
0
0
0
0
0
0
0
0
0
0
0
0
0
0
0
0
0
0
0
0
0
0
0
0
0
0
0
0
0
0
0
0
0
0
0
0
0
0
0
0
0
0
0
0
0
0
0
0
0
0
0
0
0
0
0
0
0
0
0
0
0
0
0
0
0
0
0
0
0
0
0
0
0
0
0
0
0
0
0
0
0
0
0
0
0
0
0
0
0
0
0
0
0
0
0
0
0
0
0
0
0
0
0
0
0
0
0
0
0
0
0
0
0
0
0
0
0
0
0
0
0
0
0
0
0
0
0
0
0
0
0
0
0
0
0
0
0
0
0
0
0
0
0
0
0
0
0
0
0
0
0
0
0
0
0
0
0
0
0
0
0
0
0
0
0
0
0
0
0
0
0
0
0
0
0
0
0
0
0
0
0
0
0
0
0
0
0
0
0
0
0
0
0
0
0
0
0
0
0
0
0
0
0
0
0
0
0
0
0
0
0
0
0
0
0
0
0
0
0
0
0
0
0
0
0
0
0
0
0
0
0
0
0
0
0
0
0
0
0
0
0
0
0
0
0
0
0
0
0
0
0
0
0
0
0
0
0
0
0
0
0
0
0
0
0
0
0
0
0
0
0
0
0
0
0
0
0
0
0
0
0
0
0
0
0
0
0
0
0
0
0
0
0
0
0
0
0
0
0
0
0
0
0
0
0
0
0
0
0
0
0
0
0
0
0
0
0
0
0
0
0
0
0
0
0
0
0
0
0
0
0
0
0
0
0
0
0
0
0
0
0
0
0
0
0
0
0
0
0
0
0
0
0
0
0
0
0
0
0
0
0
0
0
0
0
0
0
0
0
0
0
0
0
0
0
0
0
0
0
0
0
0
0
0
0
0
0
0
0
0
0
0
0
0
0
0
0
0
0
0
0
0
0
0
0
0
0
0
0
0
0
0
0
0
0
0
0
0
0
0
0
0
0
0
0
0
0
0
0
0
0
0
0
0
0
0
0
0
0
0
0
0
0
0
0
0
0
0
0
0
0
0
0
0
0
0
0
0
0
0
0
0
0
0
0
0
0
0
0
0
0
0
0
0
0
0
0
0
0
0
0
0
0
0
0
0
0
0
0
0
0
0
0
0
0
0
0
0
0
0
0
0
0
0
0
0
0
0
0
0
0
0
0
0
0
0
0
0
0
0
0
0
0
0
0
0
0
0
0
0
0
0
0
0
0
0
0
0
0
0
0
0
0
0
0
0
0
0
0
0
0
0
0
0
0
0
0
0
0
0
0
0
0
0
0
0
0
0
0
0
0
0
0
0
0
0
0
0
0
0
0
0
0
0
0
0
0
0
0
0
0
0
0
0
0
0
0
0
0
0
0
0
0
0
0
0
0
0
0
0
0
0
0
0
0
0
0
0
0
0
0
0
0
0
0
0
0
0
0
0
0
0
0
0
0
0
0
0
0
0
0
0
0
0
0
0
0
0
0
0
0
0
0
0
0
0
0
0
0
0
0
0
0
0
0
0
0
0
0
0
0
0
0
4.68680025e-300
0
3.97790525e-297
4.81368345e-298
3.32369039e-294
4.46197648e-295
2.73428062e-291
4.01838544e-292
2.21506633e-288
3.53096506e-289
1.76731058e-285
3.03121942e-286
1.38892766e-282
2.54176042e-283
1.07533056e-279
2.09252272e-280
8.20260856e-277
1.68813765e-277
6.16536435e-274
1.33865792e-274
4.56676449e-271
1.03977185e-271
3.33384381e-268
7.93467737e-269
2.3988865e-265
5.95179719e-266
1.70153348e-262
4.39006629e-263
1.18979934e-259
3.18530764e-260
8.20244014e-257
2.27417059e-257
5.57544988e-254
1.59809977e-254
3.73691638e-251
1.10560007e-251
2.46984882e-248
7.53178439e-249
1.60981377e-245
5.05342101e-246
1.03478903e-242
3.33990443e-243
6.56023605e-240
2.17474743e-240
4.10201367e-237
1.39530153e-237
2.52988767e-234
8.82193135e-235
1.53902757e-231
5.49720345e-232
9.23517562e-229
3.37631868e-229
5.46648488e-226
2.04411204e-226
3.1918619e-223
1.21999297e-223
1.83848373e-220
7.17842108e-221
1.04462438e-217
4.16431186e-218
5.85528728e-215
2.38188278e-215
3.23761407e-212
1.3433124e-212
1.76599721e-209
7.47010241e-210
9.50255434e-207
4.09618205e-207
5.04395937e-204
2.21484001e-204
2.64105359e-201
1.18091932e-201
1.36410841e-198
6.20889579e-199
6.94986375e-196
3.21901901e-196
3.49258636e-193
1.64567397e-193
1.73119994e-190
8.29599618e-191
8.46370008e-188
4.12371409e-188
4.08101297e-185
2.02111945e-185
1.94066246e-182
9.76707294e-183
9.10089067e-180
4.6535983e-180
4.20867169e-177
2.18597793e-177
1.91914005e-174
1.01230849e-174
8.62858784e-172
4.62131302e-172
3.82483669e-169
2.07958093e-169
1.67144662e-166
9.22388843e-167
7.20016551e-164
4.03224709e-164
3.05720266e-161
1.73715848e-161
1.27937135e-158
7.3748372e-159
5.27613479e-156
3.08492566e-156
2.1440529e-153
1.27136963e-153
8.58432444e-151
5.16162382e-151
3.38591055e-148
2.06413276e-148
1.31549208e-145
8.12964851e-146
5.03368326e-143
3.15305476e-143
1.89673477e-140
1.20408209e-140
7.03696075e-138
4.52669396e-138
2.57011506e-135
1.67509118e-135
9.23924002e-133
6.10036685e-133
3.26858317e-130
2.18603653e-130
1.13773634e-127
7.70659117e-128
3.89580613e-125
2.67230262e-125
1.31200909e-122
9.11250116e-123
4.34475687e-120
3.05508601e-120
1.41443635e-117
1.00679988e-117
4.5256958e-115
3.26055238e-115
1.42285381e-112
1.03742349e-112
4.39431312e-110
3.2420535e-110
1.33276575e-107
9.94853689e-108
3.96842451e-105
2.99669045e-105
1.15970059e-102
8.85787174e-103
3.32499621e-100
2.56847255e-100
9.34974065e-98
7.30336753e-98
2.57755325e-95
2.03568016e-95
6.9637343e-93
5.55980705e-93
1.84297526e-90
1.48726624e-90
4.77578282e-88
3.89493443e-88
1.21118404e-85
9.98125801e-86
3.00466262e-83
2.50162389e-83
7.28729592e-81
6.12877594e-81
1.72691777e-78
1.46685803e-78
3.99616883e-76
3.42764177e-76
9.02394745e-74
7.81461071e-74
1.98711488e-71
1.73705982e-71
4.26376859e-69
3.76171534e-69
8.9074651e-67
7.92983191e-67
1.81018312e-64
1.62578977e-64
3.57508301e-62
3.23870805e-62
6.85485331e-60
6.26233894e-60
1.27459885e-57
1.17400685e-57
2.29553598e-55
2.13129106e-55
3.99901717e-53
3.74173511e-53
6.72898121e-51
6.34346088e-51
1.09188723e-48
1.03682207e-48
1.70558074e-46
1.6309341e-46
2.55966688e-44
2.46415891e-44
3.68269397e-42
3.56820312e-42
5.0671129e-40
4.93983459e-40
6.64932178e-38
6.52007316e-38
8.29597076e-36
8.17889537e-36
9.80600297e-34
9.71507802e-34
1.09366358e-31
1.0879944e-31
1.1454919e-29
1.14279452e-29
1.12050753e-27
1.11870577e-27
1.0169612e-25
1.01313789e-25
8.49641382e-24
8.42529955e-24
6.47161929e-22
6.38506043e-22
4.44005451e-20
4.44194029e-20
2.70107216e-18
2.69250081e-18
1.42841593e-16
1.42181692e-16
6.38351784e-15
6.36916408e-15
2.31454713e-13
2.30376788e-13
6.38598624e-12
6.39024046e-12
5.49564106e-09
5.62462885e-09
0.262135915
0.980743452
9.62820874
10.1946806
5.87767933
4.92744599
1.02195806
0.836008471
0.155944
0.140052815
0.0271919178
0.0255902688
0.0041989823
0.00412090013
0.00060144156
0.000600080299
8.54783849e-05
8.5406339e-05
1.71876036e-05
1.72111091e-05
8.93947578e-06
8.94136725e-06
8.01405383e-06
8.01451267e-06
7.91774569e-06
7.91782169e-06
7.90836999e-06
7.90838903e-06
7.90749714e-06
7.90752903e-06
7.90743258e-06
7.90745152e-06
7.90742273e-06
7.90745193e-06
7.90741246e-06
7.90744445e-06
7.90742593e-06
7.90742294e-06
7.90743497e-06
7.90741671e-06
7.90743785e-06
7.90742143e-06
7.90745034e-06
7.90742259e-06
7.90743372e-06
7.90743368e-06
7.90743981e-06
7.90742586e-06
7.90744305e-06
7.90743117e-06
7.90744237e-06
7.90742306e-06
7.90743955e-06
7.90742873e-06
7.90743194e-06
7.90743316e-06
7.90743063e-06
7.90743785e-06
7.90742563e-06
7.90743583e-06
7.90743987e-06
7.90743416e-06
7.90742761e-06
7.90743145e-06
7.90742944e-06
7.90743047e-06
7.90743927e-06
7.90742895e-06
7.90743703e-06
7.90741416e-06
7.90742879e-06
7.90743294e-06
7.90742412e-06
7.90743996e-06
7.90741703e-06
7.90744393e-06
7.90743021e-06
7.9074443e-06
7.9074302e-06
7.90744052e-06
7.90742099e-06
7.90744624e-06
7.90742457e-06
7.90743269e-06
7.90743805e-06
7.90741594e-06
7.90744707e-06
7.90741739e-06
7.90744671e-06
7.90741828e-06
7.90743872e-06
7.90742625e-06
7.90743453e-06
7.9074451e-06
7.90743099e-06
7.90743756e-06
7.90743467e-06
7.90743154e-06
7.90744702e-06
7.90743517e-06
7.90742965e-06
7.90744076e-06
7.90743372e-06
7.90743572e-06
7.9074393e-06
7.90742768e-06
7.9074347e-06
7.90743785e-06
7.90743484e-06
7.90743792e-06
7.90742878e-06
7.90743069e-06
7.9074283e-06
7.90743794e-06
7.90742773e-06
7.90743354e-06
7.90742386e-06
7.90744534e-06
7.9074291e-06
7.90744512e-06
7.90742788e-06
7.90744322e-06
7.90742817e-06
7.90743655e-06
7.90743048e-06
7.90744645e-06
7.90742144e-06
7.90744983e-06
7.90742463e-06
7.90745035e-06
7.90743499e-06
7.90743533e-06
7.90745077e-06
7.907443e-06
7.9074424e-06
7.90743555e-06
7.90744846e-06
7.90743435e-06
7.90743945e-06
7.9074339e-06
7.90742478e-06
7.90743758e-06
7.90742412e-06
7.90742889e-06
7.90743094e-06
7.90743457e-06
7.90742357e-06
7.90743334e-06
7.90743969e-06
7.9074256e-06
7.90744641e-06
7.90742046e-06
7.90745094e-06
7.90742859e-06
7.90744286e-06
7.90743523e-06
7.90743635e-06
7.90743742e-06
7.90744245e-06
7.90743422e-06
7.90745814e-06
7.9074292e-06
7.90745205e-06
7.90743193e-06
7.90745209e-06
7.90742817e-06
7.90744317e-06
7.90742782e-06
7.90743303e-06
7.90742634e-06
7.90743785e-06
7.90743356e-06
7.90742654e-06
7.90743688e-06
7.90743429e-06
7.90743787e-06
7.90744519e-06
7.90744569e-06
7.90744148e-06
7.90745019e-06
7.90745159e-06
7.90744692e-06
7.90745438e-06
7.90744066e-06
7.90743929e-06
7.90743251e-06
7.90744012e-06
7.9074305e-06
7.90744742e-06
7.90743841e-06
7.90744555e-06
7.9074325e-06
7.90745666e-06
7.9074332e-06
7.90745365e-06
7.90743443e-06
7.90743619e-06
7.90743243e-06
7.90744214e-06
7.90742686e-06
7.90744879e-06
7.90743356e-06
7.9074545e-06
7.90742512e-06
7.90743885e-06
7.90743724e-06
7.90744305e-06
7.9074361e-06
7.90745905e-06
7.90744722e-06
7.90745566e-06
7.9074367e-06
7.90744871e-06
7.90744327e-06
7.90744901e-06
7.9074432e-06
7.90743719e-06
7.90745038e-06
7.90743672e-06
7.90744179e-06
7.907448e-06
7.90744118e-06
7.90743556e-06
7.90743595e-06
7.90744416e-06
7.90743863e-06
7.90744355e-06
7.90744277e-06
7.90744452e-06
7.90745112e-06
7.90744247e-06
7.90743882e-06
7.90745205e-06
7.90744047e-06
7.90744323e-06
7.90744163e-06
7.9074418e-06
7.90745154e-06
7.90744568e-06
7.90745366e-06
7.90743614e-06
7.9074576e-06
7.90743763e-06
7.9074553e-06
7.90743127e-06
7.90745675e-06
7.90743388e-06
7.90744685e-06
7.90743979e-06
7.9074389e-06
7.90744774e-06
7.90744722e-06
7.90744526e-06
7.90745088e-06
7.90743348e-06
7.907454e-06
7.90744164e-06
7.90744822e-06
7.90744361e-06
7.90744018e-06
7.90745544e-06
7.90743646e-06
7.90746625e-06
7.90743301e-06
7.90746033e-06
7.90743742e-06
7.90744536e-06
7.90743957e-06
7.90743947e-06
7.90743554e-06
7.90745377e-06
7.90743071e-06
7.90744708e-06
7.90744829e-06
7.90743528e-06
7.90745072e-06
7.9074409e-06
7.90745311e-06
7.90744806e-06
7.90744084e-06
7.90745214e-06
7.9074439e-06
7.90744388e-06
7.90744967e-06
7.90744509e-06
7.90744294e-06
7.90743889e-06
7.90744183e-06
7.9074451e-06
7.90745044e-06
7.90744247e-06
7.90744757e-06
7.90745116e-06
7.90744065e-06
7.90744385e-06
7.90744252e-06
7.90744483e-06
7.90745002e-06
7.90745444e-06
7.90744891e-06
7.90744221e-06
7.90745623e-06
7.90744423e-06
7.90744689e-06
7.90745187e-06
7.90744448e-06
7.90744288e-06
7.90745024e-06
7.90743832e-06
7.90744925e-06
7.90744734e-06
7.9074532e-06
7.90743482e-06
7.90745593e-06
7.90744602e-06
7.9074454e-06
7.90744759e-06
7.90744088e-06
7.90745577e-06
7.90743564e-06
7.90745544e-06
7.90744017e-06
7.90745631e-06
7.90744292e-06
7.90745229e-06
7.90744472e-06
7.9074437e-06
7.90745159e-06
7.90744232e-06
7.90746028e-06
7.90743957e-06
7.90745683e-06
7.90744464e-06
7.90744498e-06
7.90744687e-06
7.90745236e-06
7.90744769e-06
7.90744787e-06
7.90743693e-06
7.90745034e-06
7.90744599e-06
7.90745637e-06
7.90744228e-06
7.90745029e-06
7.90745226e-06
7.90744917e-06
7.90744792e-06
7.90744311e-06
7.9074543e-06
7.9074413e-06
7.90745561e-06
7.90745695e-06
7.90744264e-06
7.90744895e-06
7.90745033e-06
7.90744448e-06
7.90745734e-06
7.90744858e-06
7.9074493e-06
7.90745367e-06
7.90745427e-06
7.90744382e-06
7.90745116e-06
7.90745327e-06
7.90745488e-06
7.90745847e-06
7.90744723e-06
7.90745664e-06
7.90745641e-06
7.90745861e-06
7.90745575e-06
7.90745628e-06
7.9074556e-06
7.90745587e-06
7.90744869e-06
7.9074542e-06
7.90743962e-06
7.90745203e-06
7.90745197e-06
7.90746465e-06
7.90745647e-06
7.90744879e-06
7.90745811e-06
7.90744703e-06
7.90746045e-06
7.90744107e-06
7.90745032e-06
7.90745028e-06
7.90744703e-06
7.90745439e-06
7.90744372e-06
7.90745627e-06
7.90744237e-06
7.90745224e-06
7.90745677e-06
7.90745004e-06
7.90746227e-06
7.90744965e-06
7.90745711e-06
7.90745311e-06
7.90744775e-06
7.90745128e-06
7.90744703e-06
7.90746539e-06
7.9074403e-06
7.90746177e-06
7.90744214e-06
7.90745807e-06
7.90745916e-06
7.90745303e-06
7.9074563e-06
7.90745721e-06
7.90745507e-06
7.90745775e-06
7.9074617e-06
7.90745075e-06
7.90746329e-06
7.90745019e-06
7.90745088e-06
7.90745625e-06
7.90745081e-06
7.90746188e-06
7.90744817e-06
7.90746337e-06
7.9074614e-06
7.90746327e-06
7.90745693e-06
7.90746371e-06
7.90744923e-06
7.90746222e-06
7.90745995e-06
7.90745468e-06
7.90746076e-06
7.90746292e-06
7.90745744e-06
7.90746006e-06
7.90745226e-06
7.907464e-06
7.90745612e-06
7.9074645e-06
7.90745678e-06
7.90745989e-06
7.90745323e-06
7.90745904e-06
7.90744945e-06
7.90746635e-06
7.90746198e-06
7.90746748e-06
7.9074477e-06
7.90745964e-06
7.90746214e-06
7.90745124e-06
7.9074599e-06
7.90745911e-06
7.90746164e-06
7.90746289e-06
7.9074469e-06
7.90746574e-06
7.90745769e-06
7.90744761e-06
7.90746008e-06
7.90746313e-06
7.90744844e-06
7.90746734e-06
7.90744642e-06
7.90747051e-06
7.90746043e-06
7.90746184e-06
7.90745697e-06
7.90745914e-06
7.9074652e-06
7.90745216e-06
7.90745703e-06
7.90746245e-06
7.90744947e-06
7.90747202e-06
7.90744944e-06
7.90746628e-06
7.90745237e-06
7.90745762e-06
7.90744278e-06
7.90746585e-06
7.90744742e-06
7.90745741e-06
7.90745341e-06
7.90745235e-06
7.90745718e-06
7.90744777e-06
7.90747673e-06
7.90745127e-06
7.90746426e-06
7.90745542e-06
7.9074691e-06
7.90745575e-06
7.90748032e-06
7.90744093e-06
7.90747823e-06
7.90744306e-06
7.90747053e-06
7.90745015e-06
7.90746964e-06
7.90745714e-06
7.90746299e-06
7.90746417e-06
7.90746747e-06
7.90745805e-06
7.90746847e-06
7.9074589e-06
7.90746083e-06
7.90745965e-06
7.90746383e-06
7.90745779e-06
7.90746434e-06
7.90746322e-06
7.90746515e-06
7.90746567e-06
7.90746138e-06
7.90746555e-06
7.90746257e-06
7.90746198e-06
7.90746539e-06
7.90746582e-06
7.90746553e-06
7.90746625e-06
7.90746599e-06
7.90746621e-06
7.90746765e-06
7.90746833e-06
7.90746847e-06
7.90747001e-06
7.90747053e-06
7.90747211e-06
7.90747333e-06
7.90747377e-06
7.90747558e-06
7.90747705e-06
7.90747787e-06
7.90747955e-06
7.90748134e-06
7.90748335e-06
7.90748456e-06
7.907486e-06
7.90748791e-06
7.90748881e-06
7.90749014e-06
7.90749121e-06
7.90749213e-06
7.90749213e-06
7.90749316e-06
7.90749319e-06
7.90749333e-06
7.90749342e-06
7.90749346e-06
7.90749353e-06
7.90749369e-06
7.90749356e-06
7.90749359e-06
7.90749336e-06
7.90749326e-06
7.90749363e-06
7.90749348e-06
7.90749352e-06
7.90749351e-06
7.90749358e-06
7.90749364e-06
7.90749355e-06
7.90749353e-06
7.90749371e-06
7.90749342e-06
7.90749358e-06
7.90749345e-06
7.90749359e-06
7.90749356e-06
7.90749346e-06
7.90749354e-06
7.90749341e-06
7.90749336e-06
7.90749372e-06
)
;

boundaryField
{
    closed
    {
        type            calculated;
        value           uniform 0;
    }
    open
    {
        type            calculated;
        value           uniform 0;
    }
    sides
    {
        type            empty;
    }
}


// ************************************************************************* //
