/*--------------------------------*- C++ -*----------------------------------*\
| =========                 |                                                 |
| \\      /  F ield         | OpenFOAM: The Open Source CFD Toolbox           |
|  \\    /   O peration     | Version:  2206                                  |
|   \\  /    A nd           | Website:  www.openfoam.com                      |
|    \\/     M anipulation  |                                                 |
\*---------------------------------------------------------------------------*/
FoamFile
{
    version     2.0;
    format      ascii;
    arch        "LSB;label=32;scalar=64";
    class       volScalarField;
    location    "7e-06";
    object      p;
}
// * * * * * * * * * * * * * * * * * * * * * * * * * * * * * * * * * * * * * //

dimensions      [1 -1 -2 0 0 0 0];

internalField   nonuniform List<scalar> 
3183
(
101325
101325
101325
101325
101325
101325
101325
101325
101325
101325
101325
101325
101325
101325
101325
101325
101325
101325
101325
101325
101325
101325
101325
101325
101325
101325
101325
101325
101325
101325
101325
101325
101325
101325
101325
101325
101325
101325
101325
101325
101325
101325
101325
101325
101325
101325
101325
101325
101325
101325
101325
101325
101325
101325
101325
101325
101325
101325
101325
101325
101325
101325
101325
101325
101325
101325
101325
101325
101325
101325
101325
101325
101325
101325
101325
101325
101325
101325
101325
101325
101325
101325
101325
101325
101325
101325
101325
101325
101325
101325
101325
101325
101325
101325
101325
101325
101325
101325
101325
101325
101325
101325
101325
101325
101325
101325
101325
101325
101325
101325
101325
101325
101325
101325
101325
101325
101325
101325
101325
101325
101325
101325
101325
101325
101325
101325
101325
101325
101325
101325
101325
101325
101325
101325
101325
101325
101325
101325
101325
101325
101325
101325
101325
101325
101325
101325
101325
101325
101325
101325
101325
101325
101325
101325
101325
101325
101325
101325
101325
101325
101325
101325
101325
101325
101325
101325
101325
101325
101325
101325
101325
101325
101325
101325
101325
101325
101325
101325
101325
101325
101325
101325
101325
101325
101325
101325
101325
101325
101325
101325
101325
101325
101325
101325
101325
101325
101325
101325
101325
101325
101325
101325
101325
101325
101325
101325
101325
101325
101325
101325
101325
101325
101325
101325
101325
101325
101325
101325
101325
101325
101325
101325
101325
101325
101325
101325
101325
101325
101325
101325
101325
101325
101325
101325
101325
101325
101325
101325
101325
101325
101325
101325
101325
101325
101325
101325
101325
101325
101325
101325
101325
101325
101325
101325
101325
101325
101325
101325
101325
101325
101325
101325
101325
101325
101325
101325
101325
101325
101325
101325
101325
101325
101325
101325
101325
101325
101325
101325
101325
101325
101325
101325
101325
101325
101325
101325
101325
101325
101325
101325
101325
101325
101325
101325
101325
101325
101325
101325
101325
101325
101325
101325
101325
101325
101325
101325
101325
101325
101325
101325
101325
101325
101325
101325
101325
101325
101325
101325
101325
101325
101325
101325
101325
101325
101325
101325
101325
101325
101325
101325
101325
101325
101325
101325
101325
101325
101325
101325
101325
101325
101325
101325
101325
101325
101325
101325
101325
101325
101325
101325
101325
101325
101325
101325
101325
101325
101325
101325
101325
101325
101325
101325
101325
101325
101325
101325
101325
101325
101325
101325
101325
101325
101325
101325
101325
101325
101325
101325
101325
101325
101325
101325
101325
101325
101325
101325
101325
101325
101325
101325
101325
101325
101325
101325
101325
101325
101325
101325
101325
101325
101325
101325
101325
101325
101325
101325
101325
101325
101325
101325
101325
101325
101325
101325
101325
101325
101325
101325
101325
101325
101325
101325
101325
101325
101325
101325
101325
101325
101325
101325
101325
101325
101325
101325
101325
101325
101325
101325
101325
101325
101325
101325
101325
101325
101325
101325
101325
101325
101325
101325
101325
101325
101325
101325
101325
101325
101325
101325
101325
101325
101325
101325
101325
101325
101325
101325
101325
101325
101325
101325
101325
101325
101325
101325
101325
101325
101325
101325
101325
101325
101325
101325
101325
101325
101325
101325
101325
101325
101325
101325
101325
101325
101325
101325
101325
101325
101325
101325
101325
101325
101325
101325
101325
101325
101325
101325
101325
101325
101325
101325
101325
101325
101325
101325
101325
101325
101325
101325
101325
101325
101325
101325
101325
101325
101325
101325
101325
101325
101325
101325
101325
101325
101325
101325
101325
101325
101325
101325
101325
101325
101325
101325
101325
101325
101325
101325
101325
101325
101325
101325
101325
101325
101325
101325
101325
101325
101325
101325
101325
101325
101325
101325
101325
101325
101325
101325
101325
101325
101325
101325
101325
101325
101325
101325
101325
101325
101325
101325
101325
101325
101325
101325
101325
101325
101325
101325
101325
101325
101325
101325
101325
101325
101325
101325
101325
101325
101325
101325
101325
101325
101325
101325
101325
101325
101325
101325
101325
101325
101325
101325
101325
101325
101325
101325
101325
101325
101325
101325
101325
101325
101325
101325
101325
101325
101325
101325
101325
101325
101325
101325
101325
101325
101325
101325
101325
101325
101325
101325
101325
101325
101325
101325
101325
101325
101325
101325
101325
101325
101325
101325
101325
101325
101325
101325
101325
101325
101325
101325
101325
101325
101325
101325
101325
101325
101325
101325
101325
101325
101325
101325
101325
101325
101325
101325
101325
101325
101325
101325
101325
101325
101325
101325
101325
101325
101325
101325
101325
101325
101325
101325
101325
101325
101325
101325
101325
101325
101325
101325
101325
101325
101325
101325
101325
101325
101325
101325
101325
101325
101325
101325
101325
101325
101325
101325
101325
101325
101325
101325
101325
101325
101325
101325
101325
101325
101325
101325
101325
101325
101325
101325
101325
101325
101325
101325
101325
101325
101325
101325
101325
101325
101325
101325
101325
101325
101325
101325
101325
101325
101325
101325
101325
101325
101325
101325
101325
101325
101325
101325
101325
101325
101325
101325
101325
101325
101325
101325
101325
101325
101325
101325
101325
101325
101325
101325
101325
101325
101325
101325
101325
101325
101325
101325
101325
101325
101325
101325
101325
101325
101325
101325
101325
101325
101325
101325
101325
101325
101325
101325
101325
101325
101325
101325
101325
101325
101325
101325
101325
101325
101325
101325
101325
101325
101325
101325
101325
101325
101325
101325
101325
101325
101325
101325
101325
101325
101325
101325
101325
101325
101325
101325
101325
101325
101325
101325
101325
101325
101325
101325
101325
101325
101325
101325
101325
101325
101325
101325
101325
101325
101325
101325
101325
101325
101325
101325
101325
101325
101325
101325
101325
101325
101325
101325
101325
101325
101325
101325
101325
101325
101325
101325
101325
101325
101325
101325
101325
101325
101325
101325
101325
101325
101325
101325
101325
101325
101325
101325
101325
101325
101325
101325
101325
101325
101325
101325
101325
101325
101325
101325
101325
101325
101325
101325
101325
101325
101325
101325
101325
101325
101325
101325
101325
101325
101325
101325
101325
101325
101325
101325
101325
101325
101325
101325
101325
101325
101325
101325
101325
101325
101325
101325
101325
101325
101325
101325
101325
101325
101325
101325
101325
101325
101325
101325
101325
101325
101325
101325
101325
101325
101325
101325
101325
101325
101325
101325
101325
101325
101325
101325
101325
101325
101325
101325
101325
101325
101325
101325
101325
101325
101325
101325
101325
101325
101325
101325
101325
101325
101325
101325
101325
101325
101325
101325
101325
101325
101325
101325
101325
101325
101325
101325
101325
101325
101325
101325
101325
101325
101325
101325
101325
101325
101325
101325
101325
101325
101325
101325
101325
101325
101325
101325
101325
101325
101325
101325
101325
101325
101325
101325
101325
101325
101325
101325
101325
101325
101325
101325
101325
101325
101325
101325
101325
101325
101325
101325
101325
101325
101325
101325
101325
101325
101325
101325
101325
101325
101325
101325
101325
101325
101325
101325
101325
101325
101325
101325
101325
101325
101325
101325
101325
101325
101325
101325
101325
101325
101325
101325
101325
101325
101325
101325
101325
101325
101325
101325
101325
101325
101325
101325
101325
101325
101325
101325
101325
101325
101325
101325
101325
101325
101325
101325
101325
101325
101325
101325
101325
101325
101325
101325
101325
101325
101325
101325
101325
101325
101325
101325
101325
101325
101325
101325
101325
101325
101325
101325
101325
101325
101325
101325
101325
101325
101325
101325
101325
101325
101325
101325
101325
101325
101325
101325
101325
101325
101325
101325
101325
101325
101325
101325
101325
101325
101325
101325
101325
101325
101325
101325
101325
101325
101325
101325
101325
101325
101325
101325
101325
101325
101325
101325
101325
101325
101325
101325
101325
101325
101325
101325
101325
101325
101325
101325
101325
101325
101325
101325
101325
101325
101325
101325
101325
101325
101325
101325
101325
101325
101325
101325
101325
101325
101325
101325
101325
101325
101325
101325
101325
101325
101325
101325
101325
101325
101325
101325
101325
101325
101325
101325
101325
101325
101325
101325
101325
101325
101325
101325
101325
101325
101325
101325
101325
101325
101325
101325
101325
101325
101325
101325
101325
101325
101325
101325
101325
101325
101325
101325
101325
101325
101325
101325
101325
101325
101325
101325
101325
101325
101325
101325
101325
101325
101325
101325
101325
101325
101325
101325
101325
101325
101325
101325
101325
101325
101325
101325
101325
101325
101325
101325
101325
101325
101325
101325
101325
101325
101325
101325
101325
101325
101325
101325
101325
101325
101325
101325
101325
101325
101325
101325
101325
101325
101325
101325
101325
101325
101325
101325
101325
101325
101325
101325
101325
101325
101325
101325
101325
101325
101325
101325
101325
101325
101325
101325
101325
101325
101325
101325
101325
101325
101325
101325
101325
101325
101325
101325
101325
101325
101325
101325
101325
101325
101325
101325
101325
101325
101325
101325
101325
101325
101325
101325
101325
101325
101325
101325
101325
101325
101325
101325
101325
101325
101325
101325
101325
101325
101325
101325
101325
101325
101325
101325
101325
101325
101325
101325
101325
101325
101325
101325
101325
101325
101325
101325
101325
101325
101325
101325
101325
101325
101325
101325
101325
101325
101325
101325
101325
101325
101325
101325
101325
101325
101325
101325
101325
101325
101325
101325
101325
101325
101325
101325
101325
101325
101325
101325
101325
101325
101325
101325
101325
101325
101325
101325
101325
101325
101325
101325
101325
101325
101325
101325
101325
101325
101325
101325
101325
101325
101325
101325
101325
101325
101325
101325
101325
101325
101325
101325
101325
101325
101325
101325
101325
101325
101325
101325
101325
101325
101325
101325
101325
101325
101325
101325
101325
101325
101325
101325
101325
101325
101325
101325
101325
101325
101325
101325
101325
101325
101325
101325
101325
101325
101325
101325
101325
101325
101325
101325
101325
101325
101325
101325
101325
101325
101325
101325
101325
101325
101325
101325
101325
101325
101325
101325
101325
101325
101325
101325
101325
101325
101325
101325
101325
101325
101325
101325
101325
101325
101325
101325
101325
101325
101325
101325
101325
101325
101325
101325
101325
101325
101325
101325
101325
101325
101325
101325
101325
101325
101325
101325
101325
101325
101325
101325
101325
101325
101325
101325
101325
101325
101325
101325
101325
101325
101325
101325
101325
101325
101325
101325
101325
101325
101325
101325
101325
101325
101325
101325
101325
101325
101325
101325
101325
101325
101325
101325
101325
101325
101325
101325
101325
101325
101325
101325
101325
101325
101325
101325
101325
101325
101325
101325
101325
101325
101325
101325
101325
101325
101325
101325
101325
101325
101325
101325
101325
101325
101325
101325
101325
101325
101325
101325
101325
101325
101325
101325
101325
101325
101325
101325
101325
101325
101325
101325
101325
101325
101325
101325
101325
101325
101325
101325
101325
101325
101325
101325
101325
101325
101325
101325
101325
101325
101325
101325
101325
101325
101325
101325
101325
101325
101325
101325
101325
101325
101325
101325
101325
101325
101325
101325
101325
101325
101325
101325
101325
101325
101325
101325
101325
101325
101325
101325
101325
101325
101325
101325
101325
101325
101325
101325
101325
101325
101325
101325
101325
101325
101325
101325
101325
101325
101325
101325
101325
101325
101325
101325
101325
101325
101325
101325
101325
101325
101325
101325
101325
101325
101325
101325
101325
101325
101325
101325
101325
101325
101325
101325
101325
101325
101325
101325
101325
101325
101325
101325
101325
101325
101325
101325
101325
101325
101325
101325
101325
101325
101325
101325
101325
101325
101325
101325
101325
101325
101325
101325
101325
101325
101325
101325
101325
101325
101325
101325
101325
101325
101325
101325
101325
101325
101325
101325
101325
101325
101325
101325
101325
101325
101325
101325
101325
101325
101325
101325
101325
101325
101325
101325
101325
101325
101325
101325
101325
101325
101325
101325
101325
101325
101325
101325
101325
101325
101325
101325
101325
101325
101325
101325
101325
101325
101325
101325
101325
101325
101325
101325
101325
101325
101325
101325
101325
101325
101325
101325
101325
101325
101325
101325
101325
101325
101325
101325
101325
101325
101325
101325
101325
101325
101325
101325
101325
101325
101325
101325
101325
101325
101325
101325
101325
101325
101325
101325
101325
101325
101325
101325
101325
101325
101325
101325
101325
101325
101325
101325
101325
101325
101325
101325
101325
101325
101325
101325
101325
101325
101325
101325
101325
101325
101325
101325
101325
101325
101325
101325
101325
101325
101325
101325
101325
101325
101325
101325
101325
101325
101325
101325
101325
101325
101325
101325
101325
101325
101325
101325
101325
101325
101325
101325
101325
101325
101325
101325
101325
101325
101325
101325
101325
101325
101325
101325
101325
101325
101325
101325
101325
101325
101325
101325
101325
101325
101325
101325
101325
101325
101325
101325
101325
101325
101325
101325
101325
101325
101325
101325
101325
101325
101325
101325
101325
101325
101325
101325
101325
101325
101325
101325
101325
101325
101325
101325
101325
101325
101325
101325
101325
101325
101325
101325
101325
101325
101325
101325
101325
101325
101325
101325
101325
101325
101325
101325
101325
101325
101325
101325
101325
101325
101325
101325
101325
101325
101325
101325
101325
101325
101325
101325
101325
101325
101325
101325
101325
101325
101325
101325
101325
101325
101325
101325
101325
101325
101325
101325
101325
101325
101325
101325
101325
101325
101325
101325
101325
101325
101325
101325
101325
101325
101325
101325
101325
101325
101325
101325
101325
101325
101325
101325
101325
101325
101325
101325
101325
101325
101325
101325
101325
101325
101325
101325
101325
101325
101325
101325
101325
101325
101325
101325
101325
101325
101325
101325
101325
101325
101325
101325
101325
101325
101325
101325
101325
101325
101325
101325
101325
101325
101325
101325
101325
101325
101325
101325
101325
101325
101325
101325
101325
101325
101325
101325
101325
101325
101325
101325
101325
101325
101325
101325
101325
101325
101325
101325
101325
101325
101325
101325
101325
101325
101325
101325
101325
101325
101325
101325
101325
101325
101325
101325
101325
101325
101325
101325
101325
101325
101325
101325
101325
101325
101325
101325
101325
101325
101325
101325
101325
101325
101325
101325
101325
101325
101325
101325
101325
101325
101325
101325
101325
101325
101325
101325
101325
101325
101325
101325
101325
101325
101325
101325
101325
101325
101325
101325
101325
101325
101325
101325
101325
101325
101325
101325
101325
101325
101325
101325
101325
101325
101325
101325
101325
101325
101325
101325
101325
101325
101325
101325
101325
101325
101325
101325
101325
101325
101325
101325
101325
101325
101325
101325
101325
101325
101325
101325
101325
101325
101325
101325
101325
101325
101325
101325
101325
101324.999
101324.999
101324.999
101324.999
101324.999
101324.999
101324.999
101324.999
101324.999
101324.999
101324.999
101324.999
101324.999
101324.998
101324.998
101324.998
101324.998
101324.998
101324.998
101324.998
101324.997
101324.997
101324.997
101324.997
101324.996
101324.996
101324.996
101324.996
101324.995
101324.995
101324.994
101324.994
101324.993
101324.993
101324.992
101324.992
101324.991
101324.991
101324.99
101324.989
101324.988
101324.987
101324.986
101324.985
101324.984
101324.983
101324.982
101324.981
101324.979
101324.978
101324.976
101324.974
101324.972
101324.97
101324.968
101324.966
101324.963
101324.961
101324.958
101324.955
101324.952
101324.948
101324.945
101324.941
101324.937
101324.932
101324.928
101324.923
101324.917
101324.912
101324.906
101324.899
101324.893
101324.885
101324.878
101324.869
101324.861
101324.852
101324.842
101324.831
101324.82
101324.809
101324.796
101324.783
101324.769
101324.755
101324.739
101324.723
101324.705
101324.687
101324.667
101324.647
101324.625
101324.602
101324.577
101324.552
101324.525
101324.496
101324.466
101324.434
101324.401
101324.365
101324.328
101324.289
101324.248
101324.205
101324.159
101324.111
101324.061
101324.008
101323.953
101323.894
101323.833
101323.769
101323.702
101323.632
101323.558
101323.481
101323.4
101323.315
101323.227
101323.135
101323.038
101322.937
101322.832
101322.722
101322.607
101322.488
101322.363
101322.234
101322.098
101321.958
101321.812
101321.66
101321.501
101321.337
101321.167
101320.99
101320.806
101320.616
101320.419
101320.215
101320.003
101319.784
101319.558
101319.324
101319.082
101318.833
101318.575
101318.31
101318.036
101317.754
101317.463
101317.164
101316.857
101316.541
101316.216
101315.883
101315.541
101315.19
101314.83
101314.462
101314.085
101313.7
101313.305
101312.903
101312.492
101312.073
101311.645
101311.21
101310.767
101310.316
101309.857
101309.392
101308.919
101308.44
101307.954
101307.462
101306.964
101306.461
101305.953
101305.44
101304.923
101304.402
101303.877
101303.35
101302.82
101302.289
101301.755
101301.221
101300.687
101300.153
101299.62
101299.088
101298.559
101298.032
101297.508
101296.989
101296.474
101295.964
101295.461
101294.964
101294.475
101293.993
101293.521
101293.057
101292.604
101292.162
101291.73
101291.311
101290.904
101290.511
101290.131
101289.766
101289.415
101289.08
101288.761
101288.458
101288.173
101287.904
101287.653
101287.42
101287.206
101287.01
101286.833
101286.676
101286.537
101286.418
101286.319
101286.239
101286.178
101286.138
101286.116
101286.114
101286.132
101286.168
101286.224
101286.298
101286.39
101286.5
101286.627
101286.772
101286.933
101287.111
101287.304
101287.512
101287.734
101287.971
101288.221
101288.483
101288.757
101289.043
101289.339
101289.644
101289.959
101290.282
101290.613
101290.95
101291.294
101291.642
101291.996
101292.353
101292.713
101293.075
101293.439
101293.803
101294.168
101294.532
101294.895
101295.256
101295.614
101295.97
101296.322
101296.669
101297.012
101297.349
101297.681
101298.007
101298.326
101298.638
101298.943
101299.24
101299.529
101299.81
101300.083
101300.347
101300.603
101300.85
101301.088
101301.317
101301.537
101301.748
101301.95
101302.143
101302.328
101302.504
101302.671
101302.831
101302.982
101303.125
101303.261
101303.39
101303.512
101303.627
101303.736
101303.839
101303.937
101304.029
101304.117
101304.2
101304.28
101304.356
101304.428
101304.499
101304.566
101304.632
101304.697
101304.76
101304.823
101304.885
101304.947
101305.01
101305.072
101305.136
101305.2
101305.266
101305.333
101305.401
101305.47
101305.541
101305.613
101305.687
101305.762
101305.838
101305.915
101305.992
101306.07
101306.148
101306.226
101306.304
101306.38
101306.455
101306.528
101306.599
101306.666
101306.731
101306.792
101306.848
101306.9
101306.947
101306.988
101307.023
101307.052
101307.074
101307.088
101307.096
101307.096
101307.089
101307.074
101307.051
101307.021
101306.984
101306.94
101306.889
101306.832
101306.769
101306.701
101306.628
101306.552
101306.473
101306.393
101306.312
101306.231
101306.151
101306.075
101306.002
101305.935
101305.875
101305.823
101305.78
101305.749
101305.73
101305.725
101305.734
101305.76
101305.803
101305.865
101305.946
101306.047
101306.168
101306.31
101306.473
101306.656
101306.86
101307.082
101307.322
101307.579
101307.849
101308.131
101308.421
101308.717
101309.013
101309.306
101309.591
101309.864
101310.117
101310.347
101310.547
101310.712
101310.838
101310.921
101310.959
101310.951
101310.9
101310.811
101310.694
101310.562
101310.43
101310.304
101310.2
101310.448
101310.605
101310.496
101309.25
101309.23
101309.362
101309.664
101309.798
101309.992
101310.103
101310.221
101310.321
101310.423
101310.521
101310.614
101310.698
101310.772
101310.831
101310.875
101310.902
101310.911
101310.901
101310.874
101310.829
101310.768
101310.69
101310.598
101310.493
101310.375
101310.247
101310.11
101309.964
101309.811
101309.653
101309.49
101309.323
101309.155
101308.984
101308.813
101308.643
101308.473
101308.305
101308.139
101307.975
101307.815
101307.659
101307.507
101307.359
101307.216
101307.079
101306.946
101306.819
101306.698
101306.582
101306.473
101306.369
101306.271
101306.18
101306.094
101306.015
101305.941
101305.873
101305.811
101305.755
101305.705
101305.66
101305.62
101305.586
101305.557
101305.532
101305.513
101305.498
101305.487
101305.481
101305.479
101305.48
101305.486
101305.494
101305.506
101305.522
101305.54
101305.56
101305.584
101305.609
101305.637
101305.667
101305.698
101305.731
101305.766
101305.801
101305.838
101305.876
101305.914
101305.953
101305.992
101306.032
101306.071
101306.111
101306.151
101306.19
101306.229
101306.267
101306.304
101306.341
101306.377
101306.412
101306.446
101306.478
101306.51
101306.54
101306.568
101306.595
101306.621
101306.645
101306.667
101306.688
101306.706
101306.723
101306.739
101306.752
101306.763
101306.773
101306.78
101306.786
101306.79
101306.792
101306.792
101306.79
101306.786
101306.78
101306.773
101306.764
101306.752
101306.74
101306.725
101306.709
101306.691
101306.671
101306.65
101306.628
101306.604
101306.578
101306.552
101306.524
101306.495
101306.464
101306.433
101306.401
101306.367
101306.333
101306.298
101306.262
101306.225
101306.188
101306.15
101306.111
101306.072
101306.033
101305.993
101305.953
101305.913
101305.872
101305.832
101305.791
101305.75
101305.709
101305.668
101305.628
101305.587
101305.547
101305.506
101305.466
101305.427
101305.387
101305.348
101305.309
101305.271
101305.232
101305.194
101305.157
101305.119
101305.082
101305.046
101305.01
101304.974
101304.939
101304.904
101304.869
101304.835
101304.802
101304.769
101304.736
101304.703
101304.671
101304.638
101304.607
101304.575
101304.543
101304.512
101304.48
101304.449
101304.418
101304.387
101304.355
101304.324
101304.292
101304.261
101304.229
101304.196
101304.164
101304.131
101304.098
101304.064
101304.03
101303.995
101303.96
101303.924
101303.887
101303.85
101303.812
101303.773
101303.733
101303.692
101303.65
101303.607
101303.563
101303.518
101303.472
101303.424
101303.376
101303.325
101303.274
101303.221
101303.167
101303.111
101303.053
101302.994
101302.933
101302.871
101302.807
101302.741
101302.673
101302.604
101302.532
101302.459
101302.384
101302.306
101302.227
101302.146
101302.063
101301.977
101301.89
101301.8
101301.708
101301.614
101301.518
101301.42
101301.319
101301.216
101301.111
101301.004
101300.894
101300.782
101300.668
101300.552
101300.433
101300.312
101300.189
101300.063
101299.935
101299.805
101299.672
101299.538
101299.401
101299.261
101299.12
101298.976
101298.831
101298.683
101298.533
101298.381
101298.226
101298.07
101297.912
101297.751
101297.589
101297.425
101297.259
101297.091
101296.922
101296.751
101296.578
101296.403
101296.227
101296.049
101295.87
101295.689
101295.508
101295.324
101295.14
101294.954
101294.768
101294.58
101294.392
101294.202
101294.012
101293.821
101293.629
101293.437
101293.244
101293.051
101292.858
101292.664
101292.471
101292.277
101292.083
101291.89
101291.696
101291.503
101291.311
101291.118
101290.927
101290.736
101290.546
101290.357
101290.169
101289.982
101289.796
101289.611
101289.428
101289.247
101289.067
101288.888
101288.712
101288.537
101288.364
101288.194
101288.026
101287.86
101287.696
101287.535
101287.376
101287.221
101287.068
101286.918
101286.771
101286.627
101286.486
101286.348
101286.214
101286.083
101285.956
101285.833
101285.713
101285.597
101285.484
101285.376
101285.272
101285.172
101285.076
101284.984
101284.897
101284.814
101284.736
101284.662
101284.592
101284.528
101284.468
101284.412
101284.362
101284.316
101284.276
101284.24
101284.209
101284.183
101284.162
101284.147
101284.136
101284.131
101284.13
101284.135
101284.145
101284.16
101284.181
101284.207
101284.238
101284.274
101284.316
101284.362
101284.414
101284.471
101284.534
101284.602
101284.674
101284.752
101284.836
101284.924
101285.017
101285.116
101285.219
101285.328
101285.441
101285.56
101285.683
101285.811
101285.944
101286.082
101286.225
101286.372
101286.523
101286.68
101286.84
101287.005
101287.175
101287.349
101287.527
101287.709
101287.895
101288.085
101288.28
101288.478
101288.679
101288.885
101289.094
101289.307
101289.523
101289.743
101289.966
101290.192
101290.421
101290.653
101290.888
101291.126
101291.367
101291.611
101291.857
101292.106
101292.357
101292.611
101292.866
101293.124
101293.384
101293.646
101293.91
101294.175
101294.443
101294.712
101294.982
101295.254
101295.527
101295.802
101296.077
101296.354
101296.631
101296.91
101297.189
101297.469
101297.75
101298.031
101298.313
101298.595
101298.878
101299.16
101299.443
101299.726
101300.009
101300.292
101300.574
101300.857
101301.139
101301.42
101301.702
101301.982
101302.262
101302.542
101302.82
101303.098
101303.375
101303.651
101303.926
101304.201
101304.474
101304.745
101305.016
101305.285
101305.553
101305.82
101306.085
101306.349
101306.611
101306.872
101307.131
101307.389
101307.645
101307.899
101308.152
101308.402
101308.652
101308.899
101309.144
101309.388
101309.63
101309.869
101310.116
101310.377
101310.654
101310.947
101311.257
101311.584
101311.93
101312.294
101312.678
101313.08
101313.502
101313.943
101314.402
101314.881
101315.376
101315.888
101316.415
101316.955
101317.505
101318.062
101318.624
101319.187
101319.745
101320.296
101320.833
101321.351
101321.846
101322.313
101322.746
101323.142
101323.498
101323.811
101324.081
101324.308
101324.493
101324.641
101324.754
101324.838
101324.897
101324.938
101324.965
101324.981
101324.99
101324.995
101324.998
101324.999
101325
101325
101325
101325
101325
101325
101325
101325
101325
101325
101325
101325
101325
101325
101325
101325
101325
101325
101325
101325
101325
101325
101325
101325
101325
101325
101325
101325
101325
101325
101325
)
;

boundaryField
{
    closed
    {
        type            zeroGradient;
    }
    open
    {
        type            waveTransmissive;
        gamma           1.25;
        fieldInf        101325;
        lInf            1;
        value           uniform 101325;
    }
    sides
    {
        type            empty;
    }
}


// ************************************************************************* //
