/*--------------------------------*- C++ -*----------------------------------*\
| =========                 |                                                 |
| \\      /  F ield         | OpenFOAM: The Open Source CFD Toolbox           |
|  \\    /   O peration     | Version:  2206                                  |
|   \\  /    A nd           | Website:  www.openfoam.com                      |
|    \\/     M anipulation  |                                                 |
\*---------------------------------------------------------------------------*/
FoamFile
{
    version     2.0;
    format      ascii;
    arch        "LSB;label=32;scalar=64";
    class       surfaceScalarField;
    location    "7e-06";
    object      phi;
}
// * * * * * * * * * * * * * * * * * * * * * * * * * * * * * * * * * * * * * //

dimensions      [1 0 -1 0 0 0 0];

oriented        oriented;

internalField   nonuniform List<scalar> 
3182
(
2.41633619e-18
-2.12594327e-18
4.6360533e-19
-9.59388043e-19
-6.15001637e-22
-7.28945937e-24
-5.3164885e-25
-1.50650603e-29
2.14651344e-26
4.3081767e-24
5.63090748e-23
1.72778625e-19
3.63147529e-18
-1.36247491e-18
-5.05927765e-19
-5.14561993e-19
9.3947982e-19
-2.95043203e-18
-3.93008933e-18
4.64722716e-18
1.92598648e-20
2.07075344e-22
8.77971412e-23
1.37577287e-19
1.97971545e-18
1.84692254e-18
3.40381216e-18
4.58224335e-19
-2.10526979e-18
-1.24618488e-18
-2.41925043e-18
-2.55849501e-18
-1.78812273e-18
-2.31236629e-18
2.14988144e-19
4.78830839e-19
-4.88758592e-19
-9.15588368e-19
-6.03309827e-20
-4.06345309e-19
-2.38258775e-18
-3.09763274e-18
-1.11747599e-19
-8.67685291e-19
-2.10817786e-19
2.09596733e-19
6.47520656e-19
-1.12882419e-19
-7.6078413e-19
-1.40605746e-18
-1.19566719e-18
-7.40253287e-19
1.11931143e-19
1.73079907e-18
2.38651348e-18
2.39865184e-18
3.04551555e-18
3.26021599e-18
4.34708777e-18
4.9926584e-18
4.78296502e-18
4.12190608e-18
4.55207243e-18
4.34010816e-18
4.15451922e-18
4.57939572e-18
5.01271294e-18
5.64046032e-18
6.97393552e-18
6.94594351e-18
7.81645938e-18
8.34025928e-18
1.00110036e-17
1.17239134e-17
1.30300847e-17
1.34895608e-17
1.52021199e-17
1.74690332e-17
1.84061556e-17
1.80847814e-17
1.84619338e-17
1.90857623e-17
1.99495798e-17
1.98962272e-17
2.06132728e-17
1.99492876e-17
1.93821442e-17
1.84317546e-17
1.73251665e-17
1.63029907e-17
1.48079274e-17
1.14984333e-17
1.25175564e-17
1.34810811e-17
1.09869181e-17
1.40768903e-17
1.18767935e-17
1.13112797e-17
9.40265073e-18
9.20420381e-18
1.08044374e-17
1.13403192e-17
1.40695896e-17
1.37908459e-17
1.17918458e-17
8.8433942e-18
1.11096132e-17
9.26574119e-18
1.1734481e-17
1.13690846e-17
1.0678075e-17
1.01254638e-17
1.21328819e-17
8.08667539e-18
8.28025191e-18
6.065496e-18
6.70012586e-18
6.40394279e-18
7.49566476e-18
7.23245032e-18
7.21109749e-19
5.61059325e-19
-2.01209296e-18
-9.83896102e-20
-1.84350392e-18
1.0686052e-18
1.96879849e-18
-2.19025096e-18
4.55051947e-19
-3.85565442e-18
-4.57901055e-18
-9.23409153e-18
-6.40104117e-18
-4.37951286e-18
-7.14884713e-18
-4.4222167e-18
-8.64339557e-18
-7.15196309e-18
-4.53710063e-18
-7.35604956e-18
-3.16984213e-18
-4.83070779e-18
-4.58046553e-18
-7.5724769e-18
-6.17096405e-18
-7.74460671e-18
-8.13325462e-18
-7.52760753e-18
-4.76032356e-18
-4.2419441e-18
-6.26590621e-18
-3.93979605e-18
-5.79662148e-18
-5.891744e-18
-7.31095368e-18
-6.11131588e-18
-7.79477391e-18
-8.17273665e-18
-8.87800683e-18
-9.78015919e-18
-1.00455828e-17
-1.30592642e-17
-1.44377517e-17
-1.2058416e-17
-1.1187205e-17
-1.83689019e-17
-1.75887398e-17
-2.2155241e-17
-2.08927056e-17
-1.92225032e-17
-1.88828941e-17
-1.74024917e-17
-1.9935757e-17
-1.99011135e-17
-2.01384142e-17
-2.37639711e-17
-2.37238959e-17
-2.25054978e-17
-2.3236004e-17
-2.60878117e-17
-2.43824822e-17
-2.30142145e-17
-2.74241219e-17
-2.21813647e-17
-2.30622376e-17
-2.67815665e-17
-2.64380584e-17
-2.61294463e-17
-2.82846978e-17
-2.53484101e-17
-2.55254003e-17
-2.36365206e-17
-2.26904341e-17
-1.98745924e-17
-2.39308777e-17
-2.12788959e-17
-2.25832861e-17
-2.27705772e-17
-2.54887562e-17
-2.01088136e-17
-1.99475432e-17
-2.03719462e-17
-2.24816134e-17
-2.45507616e-17
-2.41445095e-17
-2.59389968e-17
-2.62612323e-17
-3.16802464e-17
-3.22128825e-17
-3.04279159e-17
-3.25166378e-17
-3.05395363e-17
-2.91138597e-17
-2.8405667e-17
-2.72519334e-17
-3.11165697e-17
-2.9942095e-17
-3.09519325e-17
-3.24660302e-17
-3.15852283e-17
-3.34187653e-17
-3.12562686e-17
-3.31360915e-17
-3.04289223e-17
-3.46851404e-17
-3.47521922e-17
-3.68276684e-17
-3.74013967e-17
-3.6920717e-17
-3.7776223e-17
-3.66421329e-17
-3.80332264e-17
-3.95763228e-17
-4.0747348e-17
-4.1953106e-17
-4.46710406e-17
-4.33126374e-17
-4.40681485e-17
-4.6330862e-17
-4.25715747e-17
-4.4424705e-17
-4.31565659e-17
-4.38065574e-17
-4.36569061e-17
-4.39772006e-17
-4.84155041e-17
-4.87038294e-17
-5.0001016e-17
-5.2323765e-17
-5.28257887e-17
-5.12089308e-17
-5.45987683e-17
-5.59467504e-17
-5.25155756e-17
-5.19785388e-17
-4.88402822e-17
-5.18025354e-17
-5.08121091e-17
-5.18321113e-17
-5.0545975e-17
-5.11977973e-17
-5.10490054e-17
-5.31205324e-17
-5.52230956e-17
-5.23146109e-17
-5.59693514e-17
-5.53215224e-17
-5.55710689e-17
-5.42540921e-17
-5.44120818e-17
-5.5750073e-17
-5.63397482e-17
-5.42158466e-17
-5.26801213e-17
-5.53606494e-17
-5.46105301e-17
-5.21148942e-17
-5.63399266e-17
-5.96959835e-17
-5.73664719e-17
-6.34839003e-17
-5.8981349e-17
-5.8977001e-17
-6.03503558e-17
-6.04843211e-17
-6.45454057e-17
-6.48317556e-17
-6.11290887e-17
-6.00851023e-17
-5.8486639e-17
-5.78488285e-17
-6.07263061e-17
-6.02193598e-17
-5.79450109e-17
-5.974788e-17
-6.10286582e-17
-6.16704749e-17
-6.10733447e-17
-6.07313914e-17
-6.07172158e-17
-6.47326461e-17
-6.63936469e-17
-6.46485562e-17
-6.56922947e-17
-6.63219479e-17
-6.90784396e-17
-6.67716406e-17
-6.71800938e-17
-7.1027161e-17
-6.76515261e-17
-7.05199912e-17
-7.49979438e-17
-7.23937897e-17
-7.38253086e-17
-7.38946712e-17
-7.48925658e-17
-7.71186779e-17
-7.65265623e-17
-7.5274215e-17
-7.36248346e-17
-7.48748297e-17
-7.53390803e-17
-7.47915889e-17
-7.24134594e-17
-7.27506276e-17
-7.08877083e-17
-6.98824703e-17
-6.66586096e-17
-6.96706744e-17
-6.86668295e-17
-6.71926987e-17
-6.89155989e-17
-7.13031217e-17
-6.72413837e-17
-6.47503142e-17
-6.638298e-17
-6.60010433e-17
-6.66532051e-17
-6.67348563e-17
-6.58046517e-17
-7.13710092e-17
-6.8974488e-17
-7.150621e-17
-6.86622756e-17
-6.66617335e-17
-6.68140756e-17
-6.54670717e-17
-6.69488476e-17
-6.9249076e-17
-6.53857668e-17
-6.87520871e-17
-6.91828084e-17
-6.97639402e-17
-6.8848185e-17
-6.99889884e-17
-6.88295385e-17
-6.8639999e-17
-6.79755159e-17
-6.54860497e-17
-6.46881492e-17
-6.38067329e-17
-6.50484001e-17
-6.31458382e-17
-6.33115238e-17
-6.26444093e-17
-6.00354717e-17
-6.14365184e-17
-5.98670916e-17
-6.39676406e-17
-6.43198971e-17
-6.31548665e-17
-6.14888499e-17
-6.17357349e-17
-6.28002401e-17
-6.08080998e-17
-6.08437546e-17
-5.94763823e-17
-5.93515578e-17
-6.02899316e-17
-5.97261283e-17
-5.83797567e-17
-5.421751e-17
-5.61273936e-17
-5.84442141e-17
-5.54232445e-17
-5.52044017e-17
-5.98691662e-17
-5.24022416e-17
-5.22966611e-17
-5.17102232e-17
-5.30760726e-17
-4.84420114e-17
-4.99933791e-17
-5.18950235e-17
-4.53108071e-17
-4.62593548e-17
-4.67417338e-17
-4.61762902e-17
-4.65125784e-17
-4.12810687e-17
-4.06366196e-17
-4.31015065e-17
-4.48674736e-17
-4.25783424e-17
-4.37093014e-17
-4.30222515e-17
-4.02097659e-17
-3.926446e-17
-3.95581323e-17
-3.82763119e-17
-4.28052164e-17
-4.5425492e-17
-4.14012132e-17
-4.30515051e-17
-4.12725771e-17
-4.16311085e-17
-3.96898219e-17
-4.02551048e-17
-3.70459272e-17
-3.54659025e-17
-3.54664587e-17
-3.75966279e-17
-3.16758509e-17
-3.20888827e-17
-3.47466953e-17
-3.69150407e-17
-3.0290111e-17
-2.9607196e-17
-3.0891613e-17
-3.31811228e-17
-3.50409167e-17
-3.65162693e-17
-3.8761393e-17
-3.21549512e-17
-3.26623567e-17
-2.96301883e-17
-2.86315287e-17
-2.50849875e-17
-2.35110271e-17
-2.11057904e-17
-2.46926927e-17
-2.57518173e-17
-2.3227296e-17
-2.52125069e-17
-2.77661194e-17
-2.66306172e-17
-2.37885494e-17
-2.6379692e-17
-2.44797434e-17
-2.6518036e-17
-2.3516664e-17
-2.5020028e-17
-2.66361502e-17
-2.5160183e-17
-2.59930282e-17
-2.64970556e-17
-2.15372772e-17
-2.18403107e-17
-2.27005227e-17
-2.49159406e-17
-2.05095094e-17
-2.00290752e-17
-1.89547378e-17
-1.99738266e-17
-1.93037597e-17
-1.87373209e-17
-1.78706977e-17
-1.35518181e-17
-1.7669417e-17
-1.92394789e-17
-1.62925176e-17
-1.64955157e-17
-1.68032489e-17
-1.69246836e-17
-1.31621337e-17
-1.43192973e-17
-1.22541624e-17
-1.51350819e-17
-1.2961073e-17
-1.25719521e-17
-1.44477755e-17
-1.14557063e-17
-1.12459862e-17
-1.0952185e-17
-8.30120893e-18
-1.14646034e-17
-1.35822504e-17
-1.37997951e-17
-1.5005611e-17
-1.55713016e-17
-1.10111885e-17
-1.12051329e-17
-1.1614552e-17
-1.20377407e-17
-1.36751106e-17
-1.42905361e-17
-1.35105038e-17
-1.17099797e-17
-1.41662592e-17
-1.3034527e-17
-1.18023869e-17
-1.39979929e-17
-1.46358147e-17
-1.41480074e-17
-1.3637079e-17
-1.22439023e-17
-1.20674893e-17
-1.22658679e-17
-1.41686314e-17
-1.33293319e-17
-1.17395064e-17
-7.5200045e-18
-4.55871589e-18
-3.76112349e-18
1.64708021e-19
-2.92726384e-18
-1.34988628e-18
-6.82290364e-19
8.47416208e-19
-6.00209647e-20
-7.78018365e-19
2.5363519e-18
2.16645143e-18
5.30494313e-18
6.44768902e-18
8.30339992e-18
5.10372579e-18
6.28299983e-18
5.47537723e-18
4.44352801e-18
6.78140599e-18
7.31611237e-18
5.42899722e-18
7.84994916e-18
5.18244799e-18
8.62069217e-18
1.02684933e-17
9.41541024e-18
1.04113819e-17
1.36290915e-17
1.4186555e-17
1.53784343e-17
1.4309597e-17
1.88714249e-17
1.84326512e-17
1.94225734e-17
1.56910008e-17
1.61968089e-17
1.42468804e-17
1.16890909e-17
1.24573007e-17
1.50313833e-17
1.53184162e-17
1.28414801e-17
1.13554694e-17
1.48236407e-17
7.97455381e-18
9.87513558e-18
7.62336838e-18
9.24805955e-18
7.42494168e-18
1.04413262e-17
8.75277975e-18
9.32537827e-18
9.89542618e-18
1.11653211e-17
1.21872415e-17
1.47495732e-17
1.10482017e-17
1.1903618e-17
1.40994224e-17
1.68452211e-17
1.52413441e-17
1.85616239e-17
1.50924922e-17
1.74958619e-17
1.56307527e-17
1.75615466e-17
1.79772439e-17
2.02650945e-17
1.91660522e-17
2.39736969e-17
2.3971613e-17
2.3655911e-17
2.41697981e-17
2.31257057e-17
2.52799568e-17
2.4130958e-17
2.60485405e-17
2.49836839e-17
2.70750885e-17
3.01917191e-17
3.0754706e-17
2.79152451e-17
2.77203136e-17
2.65187846e-17
2.60964976e-17
2.49514801e-17
2.64641569e-17
2.33556566e-17
2.58790944e-17
2.51858525e-17
2.48487012e-17
2.24304552e-17
2.21956569e-17
2.55670873e-17
2.80477378e-17
2.7767534e-17
2.65249428e-17
2.23751049e-17
2.35348024e-17
2.44569569e-17
2.45161082e-17
2.7010132e-17
2.69811424e-17
2.63061277e-17
2.09995432e-17
2.12361461e-17
2.39991546e-17
2.02901233e-17
2.04640635e-17
1.9718083e-17
1.90301704e-17
2.15885809e-17
2.09231079e-17
2.14816472e-17
1.92214662e-17
2.07400192e-17
2.24726193e-17
2.24992046e-17
2.46333865e-17
2.55361022e-17
2.7690885e-17
2.34378439e-17
2.31012142e-17
2.21684243e-17
1.99112911e-17
2.21447249e-17
1.9894675e-17
1.78091946e-17
1.82371091e-17
1.85734291e-17
1.66675228e-17
1.51249567e-17
1.43781148e-17
1.41877512e-17
1.03920592e-17
7.87878206e-18
1.13762887e-17
1.20238887e-17
1.2032888e-17
1.43701557e-17
1.67039405e-17
1.23726276e-17
1.24535719e-17
1.05156583e-17
7.87750864e-18
5.72208491e-18
5.63620843e-18
5.46580084e-18
8.35453016e-18
7.74269145e-18
7.18604018e-18
6.63132043e-18
9.89809699e-18
9.03382073e-18
1.08984675e-17
9.55874229e-18
1.1849372e-17
1.04793756e-17
1.19911561e-17
1.38919918e-17
1.4529617e-17
1.63889467e-17
1.39370835e-17
1.09184739e-17
1.21172006e-17
9.74762467e-18
9.0603371e-18
1.05915574e-17
1.04207372e-17
1.07132644e-17
1.0194949e-17
9.27783989e-18
1.08871688e-17
8.71992013e-18
1.11682098e-17
1.11930928e-17
1.24949236e-17
1.15248288e-17
1.21122948e-17
1.09318743e-17
1.13864481e-17
1.03449708e-17
1.00318835e-17
1.03065915e-17
1.00920454e-17
1.62656475e-17
1.48832741e-17
1.78526877e-17
1.76017653e-17
1.74048486e-17
1.94507446e-17
2.27890277e-17
2.32665868e-17
2.42864152e-17
2.80803717e-17
2.63161206e-17
2.49080297e-17
2.49959888e-17
2.37188273e-17
2.31886411e-17
2.26295685e-17
2.22780727e-17
2.28746303e-17
2.23264854e-17
2.46511357e-17
2.28623205e-17
2.64627622e-17
2.7764902e-17
2.66031682e-17
2.48403831e-17
2.56402891e-17
2.54494544e-17
2.16823981e-17
2.15717718e-17
2.14881382e-17
2.09528495e-17
1.97741624e-17
1.84984815e-17
2.02437766e-17
2.18530165e-17
2.22051563e-17
2.33510137e-17
2.61472589e-17
2.62331409e-17
2.70631468e-17
2.6098323e-17
2.57415711e-17
3.09697159e-17
2.92143463e-17
2.6635655e-17
2.63109707e-17
2.48189405e-17
2.55666341e-17
2.47938966e-17
2.6514215e-17
2.37586177e-17
2.18120879e-17
2.06065363e-17
2.30554142e-17
1.97703917e-17
2.21828693e-17
2.06937495e-17
2.12921685e-17
2.33935186e-17
1.98547457e-17
1.73829688e-17
1.52628427e-17
1.5358311e-17
1.70579991e-17
1.68699035e-17
1.81027941e-17
2.29020659e-17
1.89495374e-17
2.24238185e-17
2.15282701e-17
2.0868179e-17
1.80638741e-17
2.48828955e-17
2.35515747e-17
2.46180018e-17
2.37258974e-17
2.27172909e-17
2.212159e-17
2.51544917e-17
2.07423073e-17
2.18833579e-17
2.19858164e-17
2.07841382e-17
2.42315709e-17
2.1390276e-17
2.48072496e-17
2.01183349e-17
2.0257685e-17
1.887682e-17
1.74673287e-17
2.01582893e-17
1.63051522e-17
2.28860017e-17
1.77934267e-17
1.96078731e-17
2.02157675e-17
1.72408719e-17
1.22265165e-17
1.76535621e-17
1.80416806e-17
2.0370468e-17
1.55805452e-17
1.81309839e-17
1.21151025e-17
1.38012761e-17
1.82343018e-17
1.80268794e-17
1.7649671e-17
1.90594932e-17
2.01648902e-17
1.94647153e-17
1.75992647e-17
1.508459e-17
1.10168797e-17
1.08359046e-17
9.85287218e-18
1.04229492e-17
1.18951649e-17
1.45693136e-17
1.30271789e-17
1.26608635e-17
1.46696881e-17
1.59991631e-17
1.1031296e-17
1.02869788e-17
9.93022464e-18
1.19999731e-17
1.14192852e-17
1.14079996e-17
1.21200324e-17
1.01692649e-17
9.72243602e-18
1.16265728e-17
1.20273999e-17
1.20638966e-17
9.85927391e-18
1.54457801e-17
1.44680928e-17
1.27021145e-17
1.76513748e-17
1.66351088e-17
1.72086794e-17
1.90638531e-17
1.83483747e-17
2.04431706e-17
1.96164311e-17
1.86039141e-17
2.06090912e-17
1.57638335e-17
1.7847088e-17
1.65117384e-17
1.81284048e-17
1.84994671e-17
1.93998023e-17
1.82781898e-17
2.21628386e-17
2.0007861e-17
1.97875415e-17
1.975372e-17
1.96743746e-17
1.71721081e-17
1.92709055e-17
2.12152257e-17
1.85536685e-17
1.75064824e-17
1.8203589e-17
1.81338423e-17
1.94564247e-17
1.78403839e-17
1.63456012e-17
1.86262667e-17
1.82878297e-17
1.9519274e-17
1.97056406e-17
1.91156887e-17
1.74815324e-17
2.06817145e-17
2.05160915e-17
2.49263116e-17
2.66096194e-17
2.71049908e-17
2.7953221e-17
2.68576777e-17
2.88725153e-17
3.11151838e-17
3.39712236e-17
3.53416863e-17
3.44525285e-17
3.52936356e-17
3.68563821e-17
3.4990435e-17
3.55853334e-17
3.72353593e-17
3.76099763e-17
3.92333805e-17
3.44352344e-17
3.47326709e-17
3.41995654e-17
3.57244039e-17
3.52197124e-17
3.55112108e-17
3.64683916e-17
3.92497862e-17
3.68439365e-17
3.3068965e-17
3.50903931e-17
3.21871332e-17
3.51143568e-17
3.19179254e-17
3.6702664e-17
3.15132507e-17
3.30821894e-17
3.48965229e-17
3.08727968e-17
3.13910948e-17
2.86608759e-17
2.76666256e-17
2.95918592e-17
2.99852875e-17
2.8905443e-17
2.76476557e-17
2.96383382e-17
3.00159745e-17
3.3739298e-17
3.40489045e-17
3.48795498e-17
3.73781202e-17
3.95970443e-17
3.87159943e-17
3.66248747e-17
3.73780152e-17
3.62442039e-17
3.6863969e-17
3.68763268e-17
3.65141642e-17
4.07296977e-17
3.56397221e-17
3.27739907e-17
3.21073506e-17
2.90377268e-17
3.12404779e-17
3.12638311e-17
3.22995359e-17
3.18286636e-17
2.96363268e-17
3.23957496e-17
3.14612541e-17
3.42357548e-17
3.24146171e-17
3.45941561e-17
3.49516963e-17
3.50581037e-17
3.43428389e-17
3.63144162e-17
3.63933953e-17
3.3485325e-17
3.18624108e-17
3.50137173e-17
3.03847844e-17
3.03435176e-17
3.20885437e-17
3.31857103e-17
3.38899152e-17
3.00609245e-17
2.94797265e-17
3.06499033e-17
2.77974557e-17
2.84229884e-17
2.97239647e-17
2.98642755e-17
3.34502688e-17
3.31938525e-17
3.34766947e-17
3.20584052e-17
3.36550104e-17
3.36515825e-17
3.23787798e-17
3.26082695e-17
3.38923935e-17
3.13208454e-17
3.34971236e-17
3.29951975e-17
3.34820672e-17
3.44088988e-17
3.31052263e-17
3.46331121e-17
3.43219082e-17
3.14970354e-17
3.15005927e-17
3.08217549e-17
2.87929919e-17
2.71873808e-17
3.1403499e-17
2.9732012e-17
3.04524947e-17
3.1850765e-17
3.15289e-17
3.02991008e-17
3.11585158e-17
2.86135297e-17
3.3395818e-17
3.34005604e-17
3.61655136e-17
3.46061979e-17
3.41799947e-17
3.43123372e-17
3.5304074e-17
3.5760722e-17
3.37989145e-17
3.50412318e-17
3.24544371e-17
2.91033317e-17
3.07539537e-17
3.14614408e-17
3.02717901e-17
3.13171429e-17
3.05823381e-17
3.06515112e-17
3.08259104e-17
3.18649662e-17
2.98492162e-17
2.73062482e-17
2.97671908e-17
2.92801974e-17
3.06341785e-17
3.21885423e-17
3.37407132e-17
3.29580594e-17
3.41298613e-17
3.26135189e-17
3.04417205e-17
3.01561338e-17
3.28583804e-17
3.07423582e-17
2.72200216e-17
3.20252754e-17
3.1554473e-17
3.08368256e-17
3.20599109e-17
3.09743255e-17
3.51283841e-17
3.1101076e-17
2.95569801e-17
2.83103811e-17
2.80883097e-17
2.9341679e-17
2.92571229e-17
2.93770655e-17
2.75346649e-17
2.66465149e-17
2.71772581e-17
2.72648662e-17
2.82829499e-17
2.64665048e-17
2.42423557e-17
2.18508231e-17
2.06305533e-17
1.93134134e-17
2.29068324e-17
2.46566313e-17
2.12766177e-17
2.24046715e-17
2.06628944e-17
1.98763723e-17
1.72402579e-17
1.96799194e-17
1.98256621e-17
2.00481377e-17
1.95419029e-17
2.04674018e-17
1.73169285e-17
1.77394298e-17
1.58309525e-17
1.77017486e-17
1.49641115e-17
1.83716509e-17
1.84590494e-17
1.67169289e-17
1.58550391e-17
1.23713808e-17
1.70493168e-17
2.03210837e-17
1.65616143e-17
1.64127827e-17
1.67973668e-17
9.70420124e-18
1.08565934e-17
1.20128429e-17
7.47350237e-18
7.35160232e-18
6.8556929e-18
6.95043475e-18
8.73289836e-18
8.62283963e-18
5.02523256e-18
4.39466676e-18
5.64072417e-18
6.51136836e-19
2.75632687e-18
-1.47338126e-18
-4.37455812e-19
-8.71937698e-19
-2.38877968e-19
-1.64995104e-18
-8.31479632e-19
-2.55397565e-18
-3.01248202e-18
-6.15115953e-18
-5.0170927e-18
-4.17166646e-18
-7.70206202e-18
-5.12368698e-18
-7.07680686e-18
-8.11828576e-18
-6.41608797e-18
-5.49402653e-18
-8.96000673e-18
-9.79449897e-18
-1.10948292e-17
-1.01435131e-17
-1.37335514e-17
-1.61002623e-17
-1.5162134e-17
-1.82744468e-17
-1.82884543e-17
-1.71997366e-17
-2.10168631e-17
-2.21499824e-17
-2.02588194e-17
-2.19335491e-17
-2.16368008e-17
-2.06882985e-17
-1.9643529e-17
-1.87090138e-17
-1.70196813e-17
-1.52417627e-17
-1.54013652e-17
-1.74445664e-17
-2.00976209e-17
-1.83288091e-17
-1.7487599e-17
-2.05667138e-17
-1.93423995e-17
-2.26488033e-17
-2.06343536e-17
-1.98186814e-17
-2.21515408e-17
-2.20013001e-17
-1.9347983e-17
-1.95423283e-17
-1.96067544e-17
-2.02154084e-17
-1.97832124e-17
-1.75902336e-17
-1.83741699e-17
-2.07348852e-17
-2.0539374e-17
-2.00826752e-17
-1.91770321e-17
-1.64932227e-17
-1.54240619e-17
-1.56261589e-17
-1.7651776e-17
-2.02106076e-17
-1.91034905e-17
-1.86529951e-17
-1.67533772e-17
-1.84965083e-17
-1.96815307e-17
-1.8113203e-17
-2.0785854e-17
-2.01588284e-17
-2.16611711e-17
-2.04350464e-17
-2.33113172e-17
-2.41810769e-17
-2.40204593e-17
-2.24501261e-17
-2.08643704e-17
-2.0224889e-17
-2.07748568e-17
-2.20198889e-17
-2.38338446e-17
-2.84539109e-17
-2.9573287e-17
-3.21770233e-17
-3.44031977e-17
-3.71899903e-17
-3.90982357e-17
-3.83964454e-17
-3.9885136e-17
-4.19685292e-17
-4.17451297e-17
-4.27092029e-17
-4.32120835e-17
-4.45078003e-17
-4.28989318e-17
-4.46632942e-17
-4.09382782e-17
-4.29028669e-17
-4.47149687e-17
-4.54111547e-17
-4.75734693e-17
-5.04091318e-17
-4.73048448e-17
-4.717938e-17
-4.59249861e-17
-4.62790182e-17
-4.48501115e-17
-4.22274436e-17
-4.61121483e-17
-4.63154152e-17
-4.55181851e-17
-4.51377362e-17
-4.32021578e-17
-4.25865305e-17
-4.65271901e-17
-4.65329952e-17
-4.55983398e-17
-4.77437985e-17
-4.66019723e-17
-4.4483791e-17
-4.61778781e-17
-4.45588213e-17
-4.5521062e-17
-4.49998161e-17
-4.32788424e-17
-4.71363943e-17
-4.58974195e-17
-4.27656247e-17
-4.50306906e-17
-4.54721061e-17
-4.21673466e-17
-4.16121901e-17
-4.01549586e-17
-4.218664e-17
-4.23601933e-17
-4.44670651e-17
-4.0600005e-17
-4.09485846e-17
-3.90729699e-17
-4.00250777e-17
-4.09874582e-17
-4.20750182e-17
-4.07758602e-17
-4.06767994e-17
-3.76016482e-17
-3.46250579e-17
-3.54333749e-17
-3.59819235e-17
-3.31622984e-17
-3.31989799e-17
-3.24415234e-17
-3.11077391e-17
-2.96271216e-17
-3.13399522e-17
-2.81834462e-17
-2.73448215e-17
-2.76568576e-17
-2.8119051e-17
-2.68951844e-17
-2.85476272e-17
-2.86190949e-17
-2.70597765e-17
-2.79665057e-17
-2.69750216e-17
-2.55522965e-17
-2.50215878e-17
-2.27668826e-17
-2.36615902e-17
-2.63987341e-17
-2.95602127e-17
-2.75328304e-17
-2.88314293e-17
-2.85365972e-17
-2.6112948e-17
-2.87792922e-17
-2.76707925e-17
-2.84708015e-17
-2.64253893e-17
-2.5330211e-17
-2.39734636e-17
-2.45335707e-17
-2.68235628e-17
-2.35519961e-17
-2.37899759e-17
-2.57572863e-17
-2.49485582e-17
-2.6200343e-17
-2.3312212e-17
-2.23538373e-17
-2.52267365e-17
-2.27999444e-17
-2.19476019e-17
-2.12375408e-17
-2.32781904e-17
-2.02762586e-17
-2.00790375e-17
-2.11205661e-17
-1.95053805e-17
-1.9493889e-17
-1.8415864e-17
-2.04509717e-17
-1.9178616e-17
-2.21453244e-17
-2.13871955e-17
-1.83460216e-17
-1.79763908e-17
-1.72413501e-17
-1.66778467e-17
-1.9038909e-17
-1.48166705e-17
-1.77365146e-17
-1.46760316e-17
-1.67422436e-17
-1.30518184e-17
-1.38178073e-17
-1.44505704e-17
-9.9693223e-18
-1.08049246e-17
-1.36777651e-17
-1.28931962e-17
-1.43652147e-17
-1.59689396e-17
-1.88734302e-17
-1.94295962e-17
-1.88306296e-17
-1.79886702e-17
-2.03710766e-17
-1.92934302e-17
-1.53362541e-17
-1.92731964e-17
-1.55577441e-17
-1.66673507e-17
-1.89109999e-17
-2.09458986e-17
-1.89114577e-17
-2.27029366e-17
-2.40373957e-17
-2.23527984e-17
-2.42547838e-17
-2.40831416e-17
-2.61757952e-17
-2.45971729e-17
-2.45361719e-17
-2.47718968e-17
-2.47540636e-17
-2.3894142e-17
-2.10377109e-17
-1.86653068e-17
-2.01946798e-17
-2.15774211e-17
-2.09360146e-17
-2.26558633e-17
-2.32345567e-17
-2.2329639e-17
-1.93754698e-17
-1.8552223e-17
-1.39021725e-17
-1.10540632e-17
-1.25444731e-17
-1.35937996e-17
-1.21345158e-17
-1.22305016e-17
-1.29782446e-17
-1.67814385e-17
-1.70057882e-17
-1.62765168e-17
-1.80188187e-17
-1.69572433e-17
-1.62003351e-17
-1.96366135e-17
-1.99197865e-17
-2.26988679e-17
-2.02252004e-17
-2.28562253e-17
-2.22017666e-17
-2.0660892e-17
-2.36203765e-17
-2.40246369e-17
-2.7735896e-17
-2.39981454e-17
-2.27719372e-17
-2.30057836e-17
-1.94308272e-17
-2.21127691e-17
-2.18889384e-17
-2.02988367e-17
-1.93183538e-17
-1.82802353e-17
-1.78314137e-17
-1.77668782e-17
-1.96180903e-17
-1.67128274e-17
-1.58708179e-17
-1.61018771e-17
-1.77975702e-17
-2.12829876e-17
-1.93732661e-17
-2.06225999e-17
-1.97761524e-17
-1.78954107e-17
-2.11220936e-17
-1.9643961e-17
-2.01947937e-17
-1.73744793e-17
-1.5342948e-17
-1.84308184e-17
-1.70689631e-17
-1.90114268e-17
-1.51906771e-17
-1.61607029e-17
-1.79122357e-17
-1.57734586e-17
-1.52765154e-17
-1.9545617e-17
-2.17333362e-17
-1.63135097e-17
-1.77170477e-17
-1.98508073e-17
-1.99755153e-17
-1.75505545e-17
-1.61954009e-17
-1.94967112e-17
-1.75008326e-17
-1.59475878e-17
-1.83091714e-17
-1.53051558e-17
-1.76894505e-17
-2.00629792e-17
-1.85503969e-17
-1.46168487e-17
-1.71951375e-17
-1.68814951e-17
-1.96440742e-17
-1.83594866e-17
-2.1267732e-17
-1.70592036e-17
-1.62676292e-17
-1.89809222e-17
-1.48442418e-17
-1.17061442e-17
-1.34770185e-17
-1.08870031e-17
-1.02525823e-17
-1.0461044e-17
-1.02016468e-17
-9.18568019e-18
-6.88604565e-18
-5.17668917e-18
-5.44071462e-18
-3.46450868e-18
-5.27729561e-18
-5.14020005e-18
-5.12614096e-18
-6.75834873e-18
-7.10996857e-18
-8.86624776e-18
-9.28922123e-18
-7.41954632e-18
-1.11787766e-17
-1.18925512e-17
-1.23017006e-17
-1.4666068e-17
-1.45957386e-17
-1.61388462e-17
-1.44828091e-17
-1.58029191e-17
-1.58734497e-17
-1.4428661e-17
-1.84775646e-17
-1.79944487e-17
-1.96050833e-17
-2.27839397e-17
-2.35429192e-17
-2.12299473e-17
-1.95223976e-17
-1.92465896e-17
-2.25282596e-17
-2.32363972e-17
-2.48481703e-17
-2.4410807e-17
-2.46385532e-17
-2.43928189e-17
-2.32258415e-17
-2.55399024e-17
-2.37869247e-17
-2.37936351e-17
-2.52247976e-17
-2.63398061e-17
-2.75675721e-17
-2.99702388e-17
-2.8679568e-17
-2.73922917e-17
-3.050573e-17
-3.07830717e-17
-3.15721413e-17
-3.05648331e-17
-3.01691321e-17
-2.90354073e-17
-2.96110803e-17
-2.71341311e-17
-2.71888851e-17
-2.49541407e-17
-2.80660305e-17
-2.92433555e-17
-2.90979268e-17
-2.58067686e-17
-2.96091364e-17
-2.64584937e-17
-2.84393147e-17
-2.76931858e-17
-2.67733879e-17
-2.72199189e-17
-2.86132762e-17
-2.51769249e-17
-2.56244434e-17
-2.9406414e-17
-2.82251958e-17
-2.72796319e-17
-2.54532672e-17
-2.47156919e-17
-2.16778626e-17
-2.18563332e-17
-2.07667921e-17
-2.31286532e-17
-2.36614926e-17
-2.39845877e-17
-2.53345154e-17
-2.28542085e-17
-2.47560304e-17
-2.15557628e-17
-1.94937106e-17
-2.04678803e-17
-2.02112259e-17
-2.08971265e-17
-1.82335362e-17
-1.76342899e-17
-1.85321462e-17
-1.66600911e-17
-1.51210552e-17
-1.50054147e-17
-1.19555199e-17
-1.27390145e-17
-1.46076963e-17
-1.44469663e-17
-1.52916437e-17
-1.31055631e-17
-1.39542177e-17
-1.87755132e-17
-2.3284716e-17
-2.1079635e-17
-2.26115172e-17
-2.23747323e-17
-2.19874856e-17
-2.33611785e-17
-2.62592089e-17
-2.13740741e-17
-2.52649534e-17
-2.75229395e-17
-2.61203242e-17
-2.72753488e-17
-2.59673463e-17
-2.62529544e-17
-2.08694034e-17
-2.21958041e-17
-2.42554613e-17
-2.64972594e-17
-2.89519467e-17
-2.46263764e-17
-2.7380399e-17
-2.76431521e-17
-2.97693421e-17
-2.79858346e-17
-2.71829449e-17
-2.48294024e-17
-2.16411391e-17
-1.86971278e-17
-1.93206542e-17
-2.28836794e-17
-1.49146422e-17
-1.76883235e-17
-1.78202621e-17
-1.53668224e-17
-1.93262877e-17
-1.9876785e-17
-1.46313628e-17
-2.3839194e-17
-2.27893481e-17
-2.10393559e-17
-2.43187904e-17
-2.51299277e-17
-2.5879961e-17
-2.15047383e-17
-1.96857727e-17
-2.56123049e-17
-2.52780104e-17
-2.33736805e-17
-2.38291646e-17
-2.09582267e-17
-2.22527833e-17
-2.1271592e-17
-1.97501706e-17
-1.90672686e-17
-1.9071404e-17
-1.85015329e-17
-2.24991092e-17
-1.89012832e-17
-2.11561546e-17
-2.16945049e-17
-2.4752273e-17
-2.32693166e-17
-2.36284111e-17
-2.69485279e-17
-2.43708361e-17
-2.72080884e-17
-2.65801613e-17
-2.51258077e-17
-2.71167042e-17
-2.75610976e-17
-2.82596393e-17
-3.16039604e-17
-3.37291145e-17
-3.1671354e-17
-2.96772726e-17
-2.57749374e-17
-2.42485427e-17
-2.34902318e-17
-1.83165816e-17
-1.94841404e-17
-1.82367993e-17
-1.80316813e-17
-1.62784451e-17
-1.61510517e-17
-1.36548222e-17
-1.24142078e-17
-1.35977054e-17
-1.4756642e-17
-1.75720113e-17
-1.62816841e-17
-1.27945458e-17
-1.48413231e-17
-1.06271092e-17
-1.18808896e-17
-1.03855493e-17
-7.49685614e-18
-7.6861795e-18
-8.88817772e-18
-9.48207301e-18
-5.58343207e-18
-7.89231181e-18
-5.36275177e-18
-2.6823481e-18
-4.6085832e-18
-4.82201101e-18
-2.7102888e-18
-1.9211072e-18
-1.97461631e-18
-1.17426385e-19
4.7846e-19
-4.70705993e-18
-4.72558564e-18
-3.71807651e-18
-3.39562608e-18
-5.65703958e-18
-6.06802792e-18
-5.51931644e-18
-5.83165768e-18
-4.27214875e-18
-4.1825829e-18
-8.50463813e-19
5.25217145e-18
2.08244564e-18
3.22096406e-18
2.74751222e-18
2.53637079e-18
4.42160751e-18
2.90460241e-18
4.29201747e-18
7.85334373e-18
7.03095105e-18
7.14493648e-18
5.80062577e-18
7.92111335e-18
5.19584366e-18
3.28299456e-18
4.58007013e-18
5.49878459e-18
7.63729252e-18
5.42191691e-18
9.17639738e-19
-1.13922674e-20
-1.05034927e-18
3.59297219e-18
4.608551e-18
8.19919884e-18
1.30980849e-17
1.2258879e-17
9.69215289e-18
9.88059819e-18
1.1470926e-17
7.28935645e-18
1.31147464e-17
1.13096312e-17
8.77400166e-18
6.93471626e-18
5.68431235e-18
7.88377969e-18
9.05759542e-18
1.1686217e-17
9.27034036e-18
1.16694952e-17
1.38110831e-17
1.71301158e-17
1.76884901e-17
1.79455588e-17
1.82948092e-17
1.85819479e-17
1.7797458e-17
1.79644979e-17
1.62535369e-17
1.92761437e-17
2.02917323e-17
2.17145892e-17
1.94633726e-17
1.70662458e-17
1.31582085e-17
1.19037492e-17
1.25112206e-17
1.08274997e-17
1.33173749e-17
1.41875852e-17
1.61952365e-17
1.55260385e-17
1.73551462e-17
1.74260896e-17
1.59712976e-17
1.91247257e-17
1.79966505e-17
2.03099697e-17
1.75904125e-17
1.65837368e-17
1.69751206e-17
2.13322899e-17
1.9399207e-17
1.97024577e-17
2.46530728e-17
2.48560473e-17
2.72027702e-17
2.48319908e-17
2.63117084e-17
2.82149322e-17
2.92454035e-17
2.85792026e-17
2.96595363e-17
2.62176993e-17
2.86454621e-17
2.79278843e-17
2.56414151e-17
2.22263517e-17
2.31632158e-17
2.28488297e-17
2.39546236e-17
2.49872375e-17
2.4043101e-17
2.67694084e-17
2.79441473e-17
2.66152073e-17
2.93022109e-17
2.69472881e-17
2.69977194e-17
2.51351292e-17
2.82458041e-17
3.04949998e-17
3.25670599e-17
3.26540467e-17
3.35666513e-17
3.65698142e-17
3.6307841e-17
3.650146e-17
3.37298649e-17
3.56463517e-17
3.41246349e-17
3.71707999e-17
3.6830464e-17
4.31844034e-17
4.26658314e-17
4.65848195e-17
4.75068566e-17
4.57817689e-17
4.88691984e-17
4.93983391e-17
4.82334774e-17
4.79234063e-17
4.63638243e-17
4.67178131e-17
4.88706263e-17
5.14053021e-17
4.95097806e-17
4.86555609e-17
4.85946819e-17
4.86696191e-17
4.68169738e-17
4.86005417e-17
5.08799947e-17
4.945935e-17
5.29706788e-17
5.28309026e-17
5.41811988e-17
5.54541879e-17
5.6357003e-17
5.34202338e-17
5.40773661e-17
5.31100906e-17
5.47942705e-17
5.10792024e-17
5.39209149e-17
5.07143852e-17
5.17780682e-17
5.2912084e-17
5.65983606e-17
5.87862091e-17
5.77730127e-17
5.67338434e-17
5.65788144e-17
6.25807177e-17
6.07588316e-17
6.23112528e-17
6.27803485e-17
5.89832889e-17
6.10097615e-17
6.33947571e-17
6.58775496e-17
6.70810223e-17
6.89595496e-17
6.94071435e-17
7.10140189e-17
6.83795081e-17
7.11580587e-17
7.08536289e-17
7.13301983e-17
7.19827316e-17
7.27507975e-17
7.56694477e-17
7.46975448e-17
7.57666862e-17
7.75937183e-17
7.67019714e-17
7.68255214e-17
7.54043424e-17
7.44224957e-17
7.38571663e-17
7.51236847e-17
7.50059878e-17
7.61131218e-17
7.50929708e-17
7.48670758e-17
7.58528305e-17
7.78454863e-17
8.15463818e-17
8.240641e-17
8.12167198e-17
7.84976046e-17
7.7795297e-17
7.70613303e-17
8.03804091e-17
7.7437319e-17
7.60106706e-17
7.47624977e-17
7.68214704e-17
7.66627664e-17
7.473654e-17
7.05299504e-17
7.4514968e-17
7.3775835e-17
7.22710953e-17
7.6251661e-17
7.50556086e-17
7.92715284e-17
7.91875479e-17
8.0801203e-17
8.11485279e-17
8.25331508e-17
8.13073031e-17
8.22557938e-17
7.84122384e-17
7.99054288e-17
7.85978198e-17
7.56809225e-17