/*--------------------------------*- C++ -*----------------------------------*\
| =========                 |                                                 |
| \\      /  F ield         | OpenFOAM: The Open Source CFD Toolbox           |
|  \\    /   O peration     | Version:  2206                                  |
|   \\  /    A nd           | Website:  www.openfoam.com                      |
|    \\/     M anipulation  |                                                 |
\*---------------------------------------------------------------------------*/
FoamFile
{
    version     2.0;
    format      ascii;
    arch        "LSB;label=32;scalar=64";
    class       volScalarField;
    location    "7e-06";
    object      PVsourcePV;
}
// * * * * * * * * * * * * * * * * * * * * * * * * * * * * * * * * * * * * * //

dimensions      [1 -3 -1 0 0 0 0];

internalField   nonuniform List<scalar> 
3183
(
0
0
0
0
0
0
0
0
0
0
0
0
0
0
0
0
0
0
0
0
0
0
0
0
0
0
0
0
0
0
0
0
0
0
0
0
0
0
0
0
0
0
0
0
0
0
0
0
0
0
0
0
0
0
0
0
0
0
0
0
0
0
0
0
0
0
0
0
0
0
0
0
0
0
0
0
0
0
0
0
0
0
0
0
0
0
0
0
0
0
0
0
0
0
0
0
0
0
0
0
0
0
0
0
0
0
0
0
0
0
0
0
0
0
0
0
0
0
0
0
0
0
0
0
0
0
0
0
0
0
0
0
0
0
0
0
0
0
0
0
0
0
0
0
0
0
0
0
0
0
0
0
0
0
0
0
0
0
0
0
0
0
0
0
0
0
0
0
0
0
0
0
0
0
0
0
0
0
0
0
0
0
0
0
0
0
0
0
0
0
0
0
0
0
0
0
0
0
0
0
0
0
0
0
0
0
0
0
0
0
0
0
0
0
0
0
0
0
0
0
0
0
0
0
0
0
0
0
0
0
0
0
0
0
0
0
0
0
0
0
0
0
0
0
0
0
0
0
0
0
0
0
0
0
0
0
0
0
0
0
0
0
0
0
0
0
0
0
0
0
0
0
0
0
0
0
0
0
0
0
0
0
0
0
0
0
0
0
0
0
0
0
0
0
0
0
0
0
0
0
0
0
0
0
0
0
0
0
0
0
0
0
0
0
0
0
0
0
0
0
0
0
0
0
0
0
0
0
0
0
0
0
0
0
0
0
0
0
0
0
0
0
0
0
0
0
0
0
0
0
0
0
0
0
0
0
0
0
0
0
0
0
0
0
0
0
0
0
0
0
0
0
0
0
0
0
0
0
0
0
0
0
0
0
0
0
0
0
0
0
0
0
0
0
0
0
0
0
0
0
0
0
0
0
0
0
0
0
0
0
0
0
0
0
0
0
0
0
0
0
0
0
0
0
0
0
0
0
0
0
0
0
0
0
0
0
0
0
0
0
0
0
0
0
0
0
0
0
0
0
0
0
0
0
0
0
0
0
0
0
0
0
0
0
0
0
0
0
0
0
0
0
0
0
0
0
0
0
0
0
0
0
0
0
0
0
0
0
0
0
0
0
0
0
0
0
0
0
0
0
0
0
0
0
0
0
0
0
0
0
0
0
0
0
0
0
0
0
0
0
0
0
0
0
0
0
0
0
0
0
0
0
0
0
0
0
0
0
0
0
0
0
0
0
0
0
0
0
0
0
0
0
0
0
0
0
0
0
0
0
0
0
0
0
0
0
0
0
0
0
0
0
0
0
0
0
0
0
0
0
0
0
0
0
0
0
0
0
0
0
0
0
0
0
0
0
0
0
0
0
0
0
0
0
0
0
0
0
0
0
0
0
0
0
0
0
0
0
0
0
0
0
0
0
0
0
0
0
0
0
0
0
0
0
0
0
0
0
0
0
0
0
0
0
0
0
0
0
0
0
0
0
0
0
0
0
0
0
0
0
0
0
0
0
0
0
0
0
0
0
0
0
0
0
0
0
0
0
0
0
0
0
0
0
0
0
0
0
0
0
0
0
0
0
0
0
0
0
0
0
0
0
0
0
0
0
0
0
0
0
0
0
0
0
0
0
0
0
0
0
0
0
0
0
0
0
0
0
0
0
0
0
0
0
0
0
0
0
0
0
0
0
0
0
0
0
0
0
0
0
0
0
0
0
0
0
0
0
0
0
0
0
0
0
0
0
0
0
0
0
0
0
0
0
0
0
0
0
0
0
0
0
0
0
0
0
0
0
0
0
0
0
0
0
0
0
0
0
0
0
0
0
0
0
0
0
0
0
0
0
0
0
0
0
0
0
0
0
0
0
0
0
0
0
0
0
0
0
0
0
0
0
0
0
0
0
0
0
0
0
0
0
0
0
0
0
0
0
0
0
0
0
0
0
0
0
0
0
0
0
0
0
0
0
0
0
0
0
0
0
0
0
0
0
0
0
0
0
0
0
0
0
0
0
0
0
0
0
0
0
0
0
0
0
0
0
0
0
0
0
0
0
0
0
0
0
0
0
0
0
0
0
0
0
0
0
0
0
0
0
0
0
0
0
0
0
0
0
0
0
0
0
0
0
0
0
0
0
0
0
0
0
0
0
0
0
0
0
0
0
0
0
0
0
0
0
0
0
0
0
0
0
0
0
0
0
0
0
0
0
0
0
0
0
0
0
0
0
0
0
0
0
0
0
0
0
0
0
0
0
0
0
0
0
0
0
0
0
0
0
0
0
0
0
0
0
0
0
0
0
0
0
0
0
0
0
0
0
0
0
0
0
0
0
0
0
0
0
0
0
0
0
0
0
0
0
0
0
0
0
0
0
0
0
0
0
0
0
0
0
0
0
0
0
0
0
0
0
0
0
0
0
0
0
0
0
0
0
0
0
0
0
0
0
0
0
0
0
0
0
0
0
0
0
0
0
0
0
0
0
0
0
0
0
0
0
0
0
0
0
0
0
0
0
0
0
0
0
0
0
0
0
0
0
0
0
0
0
0
0
0
0
0
0
0
0
0
0
0
0
0
0
0
0
0
0
0
0
0
0
0
0
0
0
0
0
0
0
0
0
0
0
0
0
0
0
0
0
0
0
0
0
0
0
0
0
0
0
0
0
0
0
0
0
0
0
0
0
0
0
0
0
0
0
0
0
0
0
0
0
0
0
0
0
0
0
0
0
0
0
0
0
0
0
0
0
0
0
0
0
0
0
0
0
0
0
0
0
0
0
0
0
0
0
0
0
0
0
0
0
0
0
0
0
0
0
0
0
0
0
0
0
0
0
0
0
0
0
0
0
0
0
0
0
0
0
0
0
0
0
0
0
0
0
0
0
0
0
0
0
0
0
0
0
0
0
0
0
0
0
0
0
0
0
0
0
0
0
0
0
0
0
0
0
0
0
0
0
0
0
0
0
0
0
0
0
0
0
0
0
0
0
0
0
0
0
0
0
0
0
0
0
0
0
0
0
0
0
0
0
0
0
0
0
0
0
0
0
0
0
0
0
0
0
0
0
0
0
0
0
0
0
0
0
0
0
0
0
0
0
0
0
0
0
0
0
0
0
0
0
0
0
0
0
0
0
0
0
0
0
0
0
0
0
0
0
0
0
0
0
0
0
0
0
0
0
0
0
0
0
0
0
0
0
0
0
0
0
0
0
0
0
0
0
0
0
0
0
0
0
0
0
0
0
0
0
0
0
0
0
0
0
0
0
0
0
0
0
0
0
0
0
0
0
0
0
0
0
0
0
0
0
0
0
0
0
0
0
0
0
0
0
0
0
0
0
0
0
0
0
0
0
0
0
0
0
0
0
0
0
0
0
0
0
0
0
0
0
0
0
0
0
0
0
0
0
0
0
0
0
0
0
0
0
0
0
0
0
0
0
0
0
0
0
0
0
0
0
0
0
0
0
0
0
0
0
0
0
0
0
0
0
0
0
0
0
0
0
0
0
0
0
0
0
0
0
0
0
0
0
0
0
0
0
0
0
0
0
0
0
0
0
0
0
0
0
0
0
0
0
0
0
0
0
0
0
0
0
0
0
0
0
0
0
0
0
0
0
0
0
0
0
0
0
0
0
0
0
0
0
0
0
0
0
0
0
0
0
0
0
0
0
0
0
0
0
0
0
0
0
0
0
0
0
0
0
0
0
0
0
0
0
0
0
0
0
0
0
0
0
0
0
0
0
0
0
0
0
0
0
0
0
0
0
0
0
0
0
0
0
0
0
0
0
0
0
0
0
0
0
0
0
0
0
0
0
0
0
0
0
0
0
0
0
0
0
0
0
0
0
0
0
0
0
0
0
0
0
0
0
0
0
0
0
0
0
0
0
0
0
0
0
0
0
0
0
0
0
0
0
0
0
0
0
0
0
0
0
0
0
0
0
0
0
0
0
0
0
0
0
0
0
0
0
0
0
0
0
0
0
0
0
0
0
0
0
0
0
0
0
0
0
0
0
0
0
0
0
0
0
0
0
0
0
0
0
0
0
0
0
0
0
0
0
0
0
0
0
0
0
0
0
0
0
0
0
0
0
0
0
0
0
0
0
0
0
0
0
0
0
0
0
0
0
0
0
0
0
0
0
0
0
0
0
0
0
0
0
0
0
0
0
0
0
0
0
0
0
0
0
0
0
0
0
0
0
0
0
0
0
0
0
0
0
0
0
0
0
0
0
0
0
0
0
0
0
0
0
0
0
0
0
0
0
0
0
0
0
0
0
0
0
0
0
0
0
0
0
0
0
0
0
0
0
0
0
0
0
0
0
0
0
0
0
0
0
0
0
0
0
0
0
0
0
0
0
0
0
0
0
0
0
0
0
0
0
0
0
0
0
0
0
0
0
0
0
0
0
0
0
0
0
0
0
0
0
0
0
0
0
0
0
0
0
0
0
0
0
0
0
0
0
0
0
0
0
0
0
0
0
0
0
0
0
0
0
0
0
0
0
0
0
0
0
0
0
0
0
0
0
0
0
0
0
0
0
0
0
0
0
0
0
0
0
0
0
0
0
0
0
0
0
0
0
0
0
0
0
0
0
0
0
0
0
0
0
0
0
0
0
0
0
0
0
0
0
0
0
0
0
0
0
0
0
0
0
0
0
0
0
0
0
0
0
0
0
0
0
0
0
0
0
0
0
0
0
0
0
0
0
0
0
0
0
0
0
0
0
0
0
0
0
0
0
0
0
0
0
0
0
0
0
0
0
0
0
0
0
0
0
0
0
0
0
0
0
0
0
0
0
0
0
0
0
0
0
0
0
0
0
0
0
0
0
0
0
0
0
0
0
0
0
0
0
0
0
0
0
0
0
0
0
0
0
0
0
0
0
0
0
0
0
0
0
0
0
0
0
0
0
0
0
0
0
0
0
0
0
0
0
0
0
0
0
0
0
0
0
0
0
0
0
0
0
0
0
0
0
0
0
0
0
0
0
0
0
0
0
0
0
0
0
0
0
0
0
0
0
0
0
0
0
0
0
0
0
0
0
0
0
0
0
0
0
0
0
0
0
0
0
0
0
0
0
0
0
0
0
0
0
0
0
0
0
0
0
0
0
0
0
0
0
0
0
0
0
0
0
0
0
0
0
0
0
0
0
0
0
0
0
0
0
0
0
0
0
0
0
0
0
0
0
0
0
0
0
0
0
0
0
0
0
0
0
0
0
0
0
0
0
0
0
0
0
0
0
0
0
0
0
0
0
0
0
0
0
0
0
0
0
0
0
0
0
0
0
0
0
0
0
0
0
0
0
0
0
0
0
0
0
0
0
0
0
0
0
0
0
0
0
0
0
0
0
0
0
0
0
0
0
0
0
0
0
0
0
0
0
0
0
0
0
0
0
0
0
0
0
0
0
0
0
0
0
0
0
0
0
0
0
0
0
0
0
0
0
0
8.93159728e-297
0
8.73689061e-293
0
5.8882089e-289
0
3.0636792e-285
0
1.30959733e-281
0
4.78156346e-278
0
1.53125122e-274
0
4.38391343e-271
0
1.13828496e-267
0
2.7105154e-264
0
5.97194217e-261
0
1.22622648e-257
0
2.3604904e-254
0
4.28131124e-251
0
7.34737634e-248
0
1.19741322e-244
0
1.8589795e-241
0
2.7568405e-238
0
3.9146922e-235
0
5.33400097e-232
0
6.98707345e-229
0
8.81359934e-226
0
1.07221074e-222
0
1.2596883e-219
0
1.43097463e-216
0
1.57349757e-213
0
1.67648799e-210
0
1.73232957e-207
0
1.73746715e-204
0
1.69272927e-201
0
1.60303759e-198
0
1.47659055e-195
0
1.3236961e-192
2.45982982e-195
1.15547032e-189
3.13072324e-191
9.82613494e-187
5.00255108e-188
8.14429312e-184
5.98236351e-185
6.58184608e-181
6.24361788e-182
5.18832784e-178
5.97964856e-179
3.99061681e-175
5.37684834e-176
2.99584907e-172
4.59615482e-173
2.19578131e-169
3.76320826e-170
1.57165702e-166
2.966009e-167
1.0988167e-163
2.25804662e-164
7.50551072e-161
1.66465186e-161
5.00958183e-158
1.19057213e-158
3.26781915e-155
8.27281471e-156
2.08357757e-152
5.5911942e-153
1.29869531e-149
3.67872794e-150
7.91394225e-147
2.35800174e-147
4.71519868e-144
1.4733145e-144
2.74696877e-141
8.97749304e-142
1.56484317e-138
5.33687318e-139
8.71685446e-136
3.09614846e-136
4.74811141e-133
1.75332532e-133
2.52898417e-130
9.69365078e-131
1.31710092e-127
5.23302836e-128
6.70679295e-125
2.7586524e-125
3.33887542e-122
1.42016456e-122
1.62492293e-119
7.13972315e-120
7.72967588e-117
3.50520042e-117
3.59356231e-114
1.6803748e-114
1.63250387e-111
7.86538659e-112
7.24549622e-109
3.59417653e-109
3.14105972e-106
1.60315352e-106
1.32977051e-103
6.9785349e-104
5.49612265e-101
2.9639427e-101
2.21712381e-98
1.22794896e-98
8.72647797e-96
4.96100268e-96
3.35005208e-93
1.95386892e-93
1.25389448e-90
7.49894446e-91
4.57388195e-88
2.80355047e-88
1.62526519e-85
1.02053215e-85
5.6229132e-83
3.61528143e-83
1.89303719e-80
1.24572075e-80
6.1981021e-78
4.17259107e-78
1.97232151e-75
1.35773859e-75
6.09547774e-73
4.28887513e-73
1.82815002e-70
1.31416396e-70
5.31644273e-68
3.90268784e-68
1.49772265e-65
1.12222243e-65
4.08318037e-63
3.12138219e-63
1.07605336e-60
8.38830216e-61
2.7377735e-58
2.17527807e-58
6.71571446e-56
5.43581573e-56
1.58582072e-53
1.30692951e-53
3.59867516e-51
3.01805894e-51
7.83300336e-49
6.6811598e-49
1.63183809e-46
1.41474959e-46
3.24587234e-44
2.85852054e-44
6.14733197e-42
5.49565057e-42
1.10499537e-39
1.00211187e-39
1.87825247e-37
1.72670423e-37
3.006082e-35
2.79924277e-35
4.50712002e-33
4.24778815e-33
6.29243801e-31
5.99699032e-31
8.1203241e-29
7.81881767e-29
9.59916248e-27
9.32889987e-27
1.02766809e-24
1.0069934e-24
9.81845826e-23
9.68965768e-23
8.20878523e-21
8.1490678e-21
5.84365939e-19
5.82737869e-19
3.40189767e-17
3.40293207e-17
1.51739916e-15
1.51114309e-15
5.50037037e-12
6.19840713e-12
0.0626799662
0.189386151
0.748891814
0.691139962
0.166609843
0.135057172
0.0166293873
0.0150398886
0.00216042289
0.00207487241
0.000248444576
0.000247136739
2.65704474e-05
2.65689651e-05
3.11883217e-06
3.12734711e-06
8.911527e-07
8.92727405e-07
6.99225487e-07
6.99255424e-07
6.83853981e-07
6.8385621e-07
6.82719369e-07
6.82719749e-07
6.82641776e-07
6.82641838e-07
6.82636338e-07
6.82637309e-07
6.82635e-07
6.82637343e-07
6.82635191e-07
6.82636738e-07
6.82635278e-07
6.82637384e-07
6.82634593e-07
6.82636924e-07
6.82635385e-07
6.82635015e-07
6.82636306e-07
6.82635358e-07
6.82636388e-07
6.82635618e-07
6.82636814e-07
6.826356e-07
6.82636081e-07
6.82635862e-07
6.82636818e-07
6.8263599e-07
6.82636701e-07
6.82635198e-07
6.82636189e-07
6.82636057e-07
6.82636203e-07
6.82636079e-07
6.82636312e-07
6.82635994e-07
6.82635785e-07
6.82635999e-07
6.82636447e-07
6.82635788e-07
6.8263571e-07
6.82636208e-07
6.82636079e-07
6.82635986e-07
6.82636405e-07
6.82635216e-07
6.8263719e-07
6.826352e-07
6.82636532e-07
6.82634749e-07
6.82636599e-07
6.82634965e-07
6.82636143e-07
6.82635595e-07
6.82635386e-07
6.82637328e-07
6.82635783e-07
6.82636559e-07
6.82636717e-07
6.82636762e-07
6.82636043e-07
6.82636538e-07
6.82636048e-07
6.82636624e-07
6.82636374e-07
6.82636209e-07
6.82636179e-07
6.826358e-07
6.82636686e-07
6.8263556e-07
6.82636732e-07
6.82636011e-07
6.82636309e-07
6.82636847e-07
6.82636493e-07
6.82636753e-07
6.82635353e-07
6.82636871e-07
6.82636057e-07
6.82636429e-07
6.82636752e-07
6.82636905e-07
6.82636662e-07
6.8263665e-07
6.82636393e-07
6.82635563e-07
6.82637064e-07
6.82636838e-07
6.82635902e-07
6.82635947e-07
6.82637018e-07
6.82634714e-07
6.82636484e-07
6.82635189e-07
6.8263648e-07
6.82635511e-07
6.8263685e-07
6.8263623e-07
6.82635907e-07
6.82636811e-07
6.82635733e-07
6.82636796e-07
6.82635406e-07
6.8263768e-07
6.8263618e-07
6.82636007e-07
6.82635957e-07
6.82636736e-07
6.82636422e-07
6.8263677e-07
6.82635781e-07
6.82636309e-07
6.8263693e-07
6.82637705e-07
6.82636499e-07
6.82637217e-07
6.82637006e-07
6.82636069e-07
6.82636811e-07
6.82635586e-07
6.82637129e-07
6.8263584e-07
6.82636162e-07
6.82636262e-07
6.82636697e-07
6.82636716e-07
6.82635943e-07
6.82636605e-07
6.82636489e-07
6.82636779e-07
6.82636711e-07
6.82635781e-07
6.82636885e-07
6.82636636e-07
6.82636412e-07
6.82637314e-07
6.82636394e-07
6.82636712e-07
6.82636073e-07
6.82637144e-07
6.82637343e-07
6.82636162e-07
6.82637616e-07
6.8263617e-07
6.82638062e-07
6.82636488e-07
6.82636988e-07
6.82636719e-07
6.82636409e-07
6.82636576e-07
6.82637266e-07
6.82635694e-07
6.82636702e-07
6.82636456e-07
6.82636492e-07
6.82637021e-07
6.82637089e-07
6.82637115e-07
6.82636326e-07
6.82638056e-07
6.82637539e-07
6.82637777e-07
6.82636936e-07
6.82637089e-07
6.82636653e-07
6.82637162e-07
6.82637089e-07
6.82636923e-07
6.82636934e-07
6.82636841e-07
6.82637349e-07
6.82636831e-07
6.82637348e-07
6.82637599e-07
6.82637419e-07
6.82636602e-07
6.82637798e-07
6.82636658e-07
6.82637609e-07
6.8263641e-07
6.82637519e-07
6.82636381e-07
6.82637312e-07
6.8263619e-07
6.82636795e-07
6.82636932e-07
6.82637345e-07
6.82637059e-07
6.82637914e-07
6.82636666e-07
6.82638021e-07
6.82636323e-07
6.82638089e-07
6.82636966e-07
6.82636878e-07
6.82637055e-07
6.82637246e-07
6.82637237e-07
6.82636829e-07
6.82637461e-07
6.82636625e-07
6.82638441e-07
6.82636377e-07
6.82636812e-07
6.8263725e-07
6.82636566e-07
6.82636975e-07
6.82637755e-07
6.82637259e-07
6.82637382e-07
6.82637612e-07
6.82637168e-07
6.8263802e-07
6.82637902e-07
6.82637304e-07
6.82636974e-07
6.82637359e-07
6.82638247e-07
6.82636657e-07
6.82638135e-07
6.82636994e-07
6.82637779e-07
6.82637338e-07
6.82636886e-07
6.82637547e-07
6.82637921e-07
6.82637184e-07
6.82637438e-07
6.82636962e-07
6.82636717e-07
6.82637421e-07
6.82638152e-07
6.826371e-07
6.82637629e-07
6.82636998e-07
6.82637793e-07
6.82637354e-07
6.82637404e-07
6.82638157e-07
6.82636965e-07
6.82638253e-07
6.82638082e-07
6.82638467e-07
6.82637126e-07
6.82638731e-07
6.82636832e-07
6.82637893e-07
6.82636474e-07
6.82637632e-07
6.82637088e-07
6.82637722e-07
6.82637833e-07
6.82637264e-07
6.82638268e-07
6.82637204e-07
6.82638269e-07
6.82637285e-07
6.82637684e-07
6.82637729e-07
6.82637452e-07
6.82638015e-07
6.82636888e-07
6.826379e-07
6.82637874e-07
6.82637955e-07
6.82637094e-07
6.82637638e-07
6.82636816e-07
6.82637542e-07
6.82638194e-07
6.82637256e-07
6.82637413e-07
6.82637307e-07
6.82637391e-07
6.82637868e-07
6.82636752e-07
6.82637373e-07
6.8263838e-07
6.8263847e-07
6.82637704e-07
6.82637889e-07
6.82637783e-07
6.82637579e-07
6.82638235e-07
6.82637693e-07
6.82638463e-07
6.82638223e-07
6.82637254e-07
6.82638758e-07
6.82638233e-07
6.82638276e-07
6.8263806e-07
6.8263787e-07
6.82638397e-07
6.82637008e-07
6.82638594e-07
6.82639242e-07
6.82636511e-07
6.82638776e-07
6.82637397e-07
6.82638781e-07
6.82638095e-07
6.82638242e-07
6.82637684e-07
6.82637447e-07
6.82638265e-07
6.82638274e-07
6.82637931e-07
6.82638205e-07
6.82638206e-07
6.82638305e-07
6.82638548e-07
6.82637853e-07
6.82637658e-07
6.82638192e-07
6.82637538e-07
6.82638527e-07
6.82637632e-07
6.82637997e-07
6.82638213e-07
6.82638086e-07
6.82638912e-07
6.82637695e-07
6.8263903e-07
6.82637818e-07
6.82638958e-07
6.82638135e-07
6.82638661e-07
6.82638617e-07
6.82638429e-07
6.82638677e-07
6.82639023e-07
6.82638328e-07
6.82638073e-07
6.8263901e-07
6.8263776e-07
6.82639116e-07
6.82638628e-07
6.82638602e-07
6.82638658e-07
6.82638529e-07
6.8263838e-07
6.82639281e-07
6.82638123e-07
6.82638264e-07
6.82639129e-07
6.8263891e-07
6.82639879e-07
6.82638459e-07
6.82639309e-07
6.82639079e-07
6.82639586e-07
6.82638495e-07
6.82639433e-07
6.82638309e-07
6.82639444e-07
6.82638311e-07
6.82638314e-07
6.82639408e-07
6.82638153e-07
6.82639384e-07
6.82638425e-07
6.82639174e-07
6.82638882e-07
6.82638722e-07
6.82638177e-07
6.82639049e-07
6.82638641e-07
6.82638034e-07
6.82639268e-07
6.82638869e-07
6.82638767e-07
6.82638807e-07
6.8263889e-07
6.82638672e-07
6.82639566e-07
6.82639155e-07
6.8263944e-07
6.82638995e-07
6.82638581e-07
6.82639013e-07
6.82639331e-07
6.82638974e-07
6.82640145e-07
6.82638273e-07
6.8263975e-07
6.82638366e-07
6.82639765e-07
6.82639522e-07
6.82639027e-07
6.82639191e-07
6.82639476e-07
6.82639355e-07
6.82638723e-07
6.82639746e-07
6.82638547e-07
6.82639916e-07
6.8263877e-07
6.82638961e-07
6.82640005e-07
6.82638965e-07
6.82639382e-07
6.82638738e-07
6.82639537e-07
6.82639875e-07
6.8263934e-07
6.82639094e-07
6.82639606e-07
6.82638927e-07
6.82640176e-07
6.82639676e-07
6.82639839e-07
6.82639464e-07
6.82640335e-07
6.8264028e-07
6.82640007e-07
6.82639739e-07
6.82640787e-07
6.82639178e-07
6.82640067e-07
6.82639245e-07
6.82639162e-07
6.82639824e-07
6.82639086e-07
6.82640458e-07
6.82639587e-07
6.82639521e-07
6.82640023e-07
6.82639567e-07
6.82640042e-07
6.82639386e-07
6.82639638e-07
6.82639539e-07
6.8263915e-07
6.82639697e-07
6.82639768e-07
6.82639387e-07
6.8263925e-07
6.82639668e-07
6.82639065e-07
6.82639371e-07
6.8263973e-07
6.82639392e-07
6.82639941e-07
6.82638951e-07
6.82640298e-07
6.82640426e-07
6.8263922e-07
6.82639951e-07
6.82640032e-07
6.82640141e-07
6.8263947e-07
6.82639469e-07
6.82640521e-07
6.82638657e-07
6.82640648e-07
6.82639573e-07
6.82639943e-07
6.82639066e-07
6.82639557e-07
6.82639288e-07
6.82639989e-07
6.82639345e-07
6.82639431e-07
6.82639543e-07
6.82639493e-07
6.82640291e-07
6.82639363e-07
6.82640419e-07
6.82639633e-07
6.82639818e-07
6.82640441e-07
6.82639382e-07
6.82639825e-07
6.82640764e-07
6.82639383e-07
6.8264012e-07
6.82639154e-07
6.82640586e-07
6.82638629e-07
6.82640843e-07
6.82638404e-07
6.82640602e-07
6.82639461e-07
6.82639864e-07
6.82640276e-07
6.82639879e-07
6.82639957e-07
6.82639705e-07
6.82639659e-07
6.82640116e-07
6.82639607e-07
6.82640114e-07
6.82639857e-07
6.82640102e-07
6.82640114e-07
6.82639787e-07
6.82639952e-07
6.82639915e-07
6.82639804e-07
6.82639966e-07
6.82640019e-07
6.82639983e-07
6.82639947e-07
6.82639937e-07
6.82639886e-07
6.82639977e-07
6.82639982e-07
6.82639966e-07
6.82640001e-07
6.82639954e-07
6.82640006e-07
6.8264e-07
6.82639972e-07
6.82640022e-07
6.82640007e-07
6.82639965e-07
6.82639983e-07
6.82639999e-07
6.82640007e-07
6.82640002e-07
6.8264e-07
6.82640009e-07
6.82639999e-07
6.8264e-07
6.82639995e-07
6.82640007e-07
6.8263998e-07
6.82640009e-07
6.82639986e-07
6.82639992e-07
6.82639997e-07
6.82639998e-07
6.82639998e-07
6.82640008e-07
6.82639998e-07
6.82640001e-07
6.82639987e-07
6.82639984e-07
6.82640007e-07
6.82639994e-07
6.82640002e-07
6.82639999e-07
6.82639988e-07
6.8264e-07
6.82639999e-07
6.82640001e-07
6.82640007e-07
6.82639994e-07
6.82640009e-07
6.8263999e-07
6.82640006e-07
6.82639996e-07
6.82639989e-07
6.82640005e-07
6.82639991e-07
6.82639989e-07
6.82640008e-07
)
;

boundaryField
{
    closed
    {
        type            calculated;
        value           uniform 0;
    }
    open
    {
        type            calculated;
        value           uniform 0;
    }
    sides
    {
        type            empty;
    }
}


// ************************************************************************* //
