/*--------------------------------*- C++ -*----------------------------------*\
| =========                 |                                                 |
| \\      /  F ield         | OpenFOAM: The Open Source CFD Toolbox           |
|  \\    /   O peration     | Version:  2206                                  |
|   \\  /    A nd           | Website:  www.openfoam.com                      |
|    \\/     M anipulation  |                                                 |
\*---------------------------------------------------------------------------*/
FoamFile
{
    version     2.0;
    format      ascii;
    arch        "LSB;label=32;scalar=64";
    class       volScalarField;
    location    "7e-06";
    object      sourcePV;
}
// * * * * * * * * * * * * * * * * * * * * * * * * * * * * * * * * * * * * * //

dimensions      [1 -3 -1 0 0 0 0];

internalField   nonuniform List<scalar> 
3183
(
0
0
0
0
0
0
0
0
0
0
0
0
0
0
0
0
0
0
0
0
0
0
0
0
0
0
0
0
0
0
0
0
0
0
0
0
0
0
0
0
0
0
0
0
0
0
0
0
0
0
0
0
0
0
0
0
0
0
0
0
0
0
0
0
0
0
0
0
0
0
0
0
0
0
0
0
0
0
0
0
0
0
0
0
0
0
0
0
0
0
0
0
0
0
0
0
0
0
0
0
0
0
0
0
0
0
0
0
0
0
0
0
0
0
0
0
0
0
0
0
0
0
0
0
0
0
0
0
0
0
0
0
0
0
0
0
0
0
0
0
0
0
0
0
0
0
0
0
0
0
0
0
0
0
0
0
0
0
0
0
0
0
0
0
0
0
0
0
0
0
0
0
0
0
0
0
0
0
0
0
0
0
0
0
0
0
0
0
0
0
0
0
0
0
0
0
0
0
0
0
0
0
0
0
0
0
0
0
0
0
0
0
0
0
0
0
0
0
0
0
0
0
0
0
0
0
0
0
0
0
0
0
0
0
0
0
0
0
0
0
0
0
0
0
0
0
0
0
0
0
0
0
0
0
0
0
0
0
0
0
0
0
0
0
0
0
0
0
0
0
0
0
0
0
0
0
0
0
0
0
0
0
0
0
0
0
0
0
0
0
0
0
0
0
0
0
0
0
0
0
0
0
0
0
0
0
0
0
0
0
0
0
0
0
0
0
0
0
0
0
0
0
0
0
0
0
0
0
0
0
0
0
0
0
0
0
0
0
0
0
0
0
0
0
0
0
0
0
0
0
0
0
0
0
0
0
0
0
0
0
0
0
0
0
0
0
0
0
0
0
0
0
0
0
0
0
0
0
0
0
0
0
0
0
0
0
0
0
0
0
0
0
0
0
0
0
0
0
0
0
0
0
0
0
0
0
0
0
0
0
0
0
0
0
0
0
0
0
0
0
0
0
0
0
0
0
0
0
0
0
0
0
0
0
0
0
0
0
0
0
0
0
0
0
0
0
0
0
0
0
0
0
0
0
0
0
0
0
0
0
0
0
0
0
0
0
0
0
0
0
0
0
0
0
0
0
0
0
0
0
0
0
0
0
0
0
0
0
0
0
0
0
0
0
0
0
0
0
0
0
0
0
0
0
0
0
0
0
0
0
0
0
0
0
0
0
0
0
0
0
0
0
0
0
0
0
0
0
0
0
0
0
0
0
0
0
0
0
0
0
0
0
0
0
0
0
0
0
0
0
0
0
0
0
0
0
0
0
0
0
0
0
0
0
0
0
0
0
0
0
0
0
0
0
0
0
0
0
0
0
0
0
0
0
0
0
0
0
0
0
0
0
0
0
0
0
0
0
0
0
0
0
0
0
0
0
0
0
0
0
0
0
0
0
0
0
0
0
0
0
0
0
0
0
0
0
0
0
0
0
0
0
0
0
0
0
0
0
0
0
0
0
0
0
0
0
0
0
0
0
0
0
0
0
0
0
0
0
0
0
0
0
0
0
0
0
0
0
0
0
0
0
0
0
0
0
0
0
0
0
0
0
0
0
0
0
0
0
0
0
0
0
0
0
0
0
0
0
0
0
0
0
0
0
0
0
0
0
0
0
0
0
0
0
0
0
0
0
0
0
0
0
0
0
0
0
0
0
0
0
0
0
0
0
0
0
0
0
0
0
0
0
0
0
0
0
0
0
0
0
0
0
0
0
0
0
0
0
0
0
0
0
0
0
0
0
0
0
0
0
0
0
0
0
0
0
0
0
0
0
0
0
0
0
0
0
0
0
0
0
0
0
0
0
0
0
0
0
0
0
0
0
0
0
0
0
0
0
0
0
0
0
0
0
0
0
0
0
0
0
0
0
0
0
0
0
0
0
0
0
0
0
0
0
0
0
0
0
0
0
0
0
0
0
0
0
0
0
0
0
0
0
0
0
0
0
0
0
0
0
0
0
0
0
0
0
0
0
0
0
0
0
0
0
0
0
0
0
0
0
0
0
0
0
0
0
0
0
0
0
0
0
0
0
0
0
0
0
0
0
0
0
0
0
0
0
0
0
0
0
0
0
0
0
0
0
0
0
0
0
0
0
0
0
0
0
0
0
0
0
0
0
0
0
0
0
0
0
0
0
0
0
0
0
0
0
0
0
0
0
0
0
0
0
0
0
0
0
0
0
0
0
0
0
0
0
0
0
0
0
0
0
0
0
0
0
0
0
0
0
0
0
0
0
0
0
0
0
0
0
0
0
0
0
0
0
0
0
0
0
0
0
0
0
0
0
0
0
0
0
0
0
0
0
0
0
0
0
0
0
0
0
0
0
0
0
0
0
0
0
0
0
0
0
0
0
0
0
0
0
0
0
0
0
0
0
0
0
0
0
0
0
0
0
0
0
0
0
0
0
0
0
0
0
0
0
0
0
0
0
0
0
0
0
0
0
0
0
0
0
0
0
0
0
0
0
0
0
0
0
0
0
0
0
0
0
0
0
0
0
0
0
0
0
0
0
0
0
0
0
0
0
0
0
0
0
0
0
0
0
0
0
0
0
0
0
0
0
0
0
0
0
0
0
0
0
0
0
0
0
0
0
0
0
0
0
0
0
0
0
0
0
0
0
0
0
0
0
0
0
0
0
0
0
0
0
0
0
0
0
0
0
0
0
0
0
0
0
0
0
0
0
0
0
0
0
0
0
0
0
0
0
0
0
0
0
0
0
0
0
0
0
0
0
0
0
0
0
0
0
0
0
0
0
0
0
0
0
0
0
0
0
0
0
0
0
0
0
0
0
0
0
0
0
0
0
0
0
0
0
0
0
0
0
0
0
0
0
0
0
0
0
0
0
0
0
0
0
0
0
0
0
0
0
0
0
0
0
0
0
0
0
0
0
0
0
0
0
0
0
0
0
0
0
0
0
0
0
0
0
0
0
0
0
0
0
0
0
0
0
0
0
0
0
0
0
0
0
0
0
0
0
0
0
0
0
0
0
0
0
0
0
0
0
0
0
0
0
0
0
0
0
0
0
0
0
0
0
0
0
0
0
0
0
0
0
0
0
0
0
0
0
0
0
0
0
0
0
0
0
0
0
0
0
0
0
0
0
0
0
0
0
0
0
0
0
0
0
0
0
0
0
0
0
0
0
0
0
0
0
0
0
0
0
0
0
0
0
0
0
0
0
0
0
0
0
0
0
0
0
0
0
0
0
0
0
0
0
0
0
0
0
0
0
0
0
0
0
0
0
0
0
0
0
0
0
0
0
0
0
0
0
0
0
0
0
0
0
0
0
0
0
0
0
0
0
0
0
0
0
0
0
0
0
0
0
0
0
0
0
0
0
0
0
0
0
0
0
0
0
0
0
0
0
0
0
0
0
0
0
0
0
0
0
0
0
0
0
0
0
0
0
0
0
0
0
0
0
0
0
0
0
0
0
0
0
0
0
0
0
0
0
0
0
0
0
0
0
0
0
0
0
0
0
0
0
0
0
0
0
0
0
0
0
0
0
0
0
0
0
0
0
0
0
0
0
0
0
0
0
0
0
0
0
0
0
0
0
0
0
0
0
0
0
0
0
0
0
0
0
0
0
0
0
0
0
0
0
0
0
0
0
0
0
0
0
0
0
0
0
0
0
0
0
0
0
0
0
0
0
0
0
0
0
0
0
0
0
0
0
0
0
0
0
0
0
0
0
0
0
0
0
0
0
0
0
0
0
0
0
0
0
0
0
0
0
0
0
0
0
0
0
0
0
0
0
0
0
0
0
0
0
0
0
0
0
0
0
0
0
0
0
0
0
0
0
0
0
0
0
0
0
0
0
0
0
0
0
0
0
0
0
0
0
0
0
0
0
0
0
0
0
0
0
0
0
0
0
0
0
0
0
0
0
0
0
0
0
0
0
0
0
0
0
0
0
0
0
0
0
0
0
0
0
0
0
0
0
0
0
0
0
0
0
0
0
0
0
0
0
0
0
0
0
0
0
0
0
0
0
0
0
0
0
0
0
0
0
0
0
0
0
0
0
0
0
0
0
0
0
0
0
0
0
0
0
0
0
0
0
0
0
0
0
0
0
0
0
0
0
0
0
0
0
0
0
0
0
0
0
0
0
0
0
0
0
0
0
0
0
0
0
0
0
0
0
0
0
0
0
0
0
0
0
0
0
0
0
0
0
0
0
0
0
0
0
0
0
0
0
0
0
0
0
0
0
0
0
0
0
0
0
0
0
0
0
0
0
0
0
0
0
0
0
0
0
0
0
0
0
0
0
0
0
0
0
0
0
0
0
0
0
0
0
0
0
0
0
0
0
0
0
0
0
0
0
0
0
0
0
0
0
0
0
0
0
0
0
0
0
0
0
0
0
0
0
0
0
0
0
0
0
0
0
0
0
0
0
0
0
0
0
0
0
0
0
0
0
0
0
0
0
0
0
0
0
0
0
0
0
0
0
0
0
0
0
0
0
0
0
0
0
0
0
0
0
0
0
0
0
0
0
0
0
0
0
0
0
0
0
0
0
0
0
0
0
0
0
0
0
0
0
0
0
0
0
0
0
0
0
0
0
0
0
0
0
0
0
0
0
0
0
0
0
0
0
0
0
0
0
0
0
0
0
0
0
0
0
0
0
0
0
0
0
0
0
0
0
0
0
0
0
0
0
0
0
0
0
0
0
0
0
0
0
0
0
0
0
0
0
0
0
0
0
0
0
0
0
0
0
0
0
0
0
0
0
0
0
0
0
0
0
0
0
0
0
0
0
0
0
0
0
0
0
0
0
0
0
0
0
0
0
0
0
0
0
0
0
0
0
0
0
0
0
0
0
0
0
0
0
0
0
0
0
0
0
0
0
0
0
0
0
0
0
0
0
0
0
0
0
0
0
0
0
0
0
0
0
0
0
0
0
0
0
0
0
0
0
0
0
0
0
0
0
0
0
0
0
0
0
0
0
0
0
0
0
0
0
0
0
0
0
0
0
0
0
0
0
0
0
0
0
0
0
0
0
0
0
0
0
0
0
0
0
0
0
0
0
0
0
0
0
0
0
0
0
0
0
0
0
0
0
0
0
0
0
0
0
0
0
0
0
0
0
0
0
0
0
0
0
0
0
0
0
0
0
0
0
0
0
0
0
0
0
0
0
0
0
0
0
0
0
0
0
0
0
0
0
0
0
0
0
0
0
0
0
0
0
0
0
0
0
0
0
0
0
0
0
0
0
0
0
0
0
0
0
0
0
0
0
0
0
0
0
0
0
0
0
0
0
0
0
0
0
0
0
0
0
0
0
0
0
0
0
0
0
0
0
0
0
0
0
0
0
0
0
0
0
0
0
0
0
0
0
0
0
0
0
0
0
0
0
0
0
0
0
0
0
0
0
0
0
0
0
0
0
0
0
0
0
0
0
0
0
0
0
0
0
0
0
0
0
0
0
0
8.35338826e-298
0
1.55936714e-293
0
1.52537331e-289
0
1.02802211e-285
0
5.34887605e-282
0
2.28642535e-278
0
8.34812934e-275
0
2.67341077e-271
0
7.65387234e-268
0
1.98733116e-264
0
4.73228753e-261
0
1.0426411e-257
0
2.14086823e-254
0
4.12117904e-251
0
7.47473924e-248
0
1.28277808e-244
0
2.09056317e-241
0
3.24559142e-238
0
4.8131665e-235
0
6.83465923e-232
0
9.31262972e-229
0
1.21987282e-225
0
1.53876589e-222
0
1.87197221e-219
0
2.19928919e-216
0
2.49833792e-213
0
2.74716865e-210
0
2.92697957e-207
0
3.02447337e-204
0
3.03344306e-201
0
2.95533522e-198
0
2.79874256e-195
0
2.57797874e-192
0
2.31104038e-189
4.29461569e-192
2.01733508e-186
5.46592819e-188
1.71554443e-183
8.73395152e-185
1.42191174e-180
1.04446056e-181
1.14912419e-177
1.09007295e-178
9.05829909e-175
1.04398655e-175
6.96721597e-172
9.38743693e-173
5.23045146e-169
8.02442449e-170
3.83361353e-166
6.57018348e-167
2.74395524e-163
5.17835369e-164
1.91842356e-160
3.94232251e-161
1.31038676e-157
2.90631489e-158
8.74622651e-155
2.0786193e-155
5.70528389e-152
1.44435032e-152
3.63771707e-149
9.76166326e-150
2.26739151e-146
6.42268934e-147
1.3816948e-143
4.11683411e-144
8.23226311e-141
2.57225907e-141
4.79593145e-138
1.56738008e-138
2.73205895e-135
9.31764432e-136
1.5218752e-132
5.40556411e-133
8.28972542e-130
3.06112983e-130
4.41535224e-127
1.69241402e-127
2.29952586e-124
9.13634169e-125
1.17093866e-121
4.8163299e-122
5.82934098e-119
2.47946463e-119
2.83695215e-116
1.24652392e-116
1.34952374e-113
6.11972773e-114
6.2739987e-111
2.93376556e-111
2.85018771e-108
1.37321747e-108
1.26499084e-105
6.27507108e-106
5.48397466e-103
2.79894495e-103
2.32164569e-100
1.21838207e-100
9.59567788e-98
5.17474614e-98
3.8708754e-95
2.1438755e-95
1.52355537e-92
8.66141219e-93
5.84885432e-90
3.4112588e-90
2.18917376e-87
1.30924035e-87
7.9855383e-85
4.89471741e-85
2.83754971e-82
1.78174659e-82
9.81704145e-80
6.31191811e-80
3.30505272e-77
2.17490327e-77
1.08212635e-74
7.28492474e-75
3.44347518e-72
2.37047516e-72
1.06420917e-69
7.48794503e-70
3.19176623e-67
2.29439822e-67
9.2819748e-65
6.81370082e-65
2.61487325e-62
1.95928759e-62
7.12882265e-60
5.44961967e-60
1.87868103e-57
1.46451327e-57
4.77987743e-55
3.79781693e-55
1.17249626e-52
9.49038807e-53
2.76868364e-50
2.2817676e-50
6.28292523e-48
5.26922764e-48
1.36756368e-45
1.16646337e-45
2.84902533e-43
2.47001063e-43
5.66696695e-41
4.99068964e-41
1.07326239e-38
9.59485368e-39
1.92921088e-36
1.74958663e-36
3.27924009e-34
3.01465208e-34
5.24831712e-32
4.8871966e-32
7.86897867e-30
7.41621129e-30
1.09859645e-27
1.04701425e-27
1.41772699e-25
1.365087e-25
1.67591732e-23
1.62873218e-23
1.79420522e-21
1.7581093e-21
1.71420415e-19
1.69171687e-19
1.43317142e-17
1.42274535e-17
1.02024421e-15
1.01740176e-15
5.93937151e-14
5.94117746e-14
2.64922647e-12
2.638304e-12
1.34832216e-09
1.4731374e-09
1.19579907
3.23373451
9.69689857
8.77304603
1.98254731
1.60341125
0.195314326
0.176645457
0.0253744457
0.0243696441
0.00291801016
0.00290264944
0.00031206948
0.00031205207
3.66271896e-05
3.67271988e-05
1.04628027e-05
1.04812978e-05
8.20859248e-06
8.20894409e-06
8.02805212e-06
8.02807831e-06
8.01472596e-06
8.01473042e-06
8.01381462e-06
8.01381535e-06
8.01375075e-06
8.01376215e-06
8.01373504e-06
8.01376255e-06
8.01373728e-06
8.01375544e-06
8.0137383e-06
8.01376304e-06
8.01373026e-06
8.01375763e-06
8.01373956e-06
8.0137352e-06
8.01375037e-06
8.01373924e-06
8.01375134e-06
8.01374229e-06
8.01375634e-06
8.01374208e-06
8.01374773e-06
8.01374516e-06
8.01375639e-06
8.01374666e-06
8.01375501e-06
8.01373737e-06
8.013749e-06
8.01374745e-06
8.01374916e-06
8.0137477e-06
8.01375045e-06
8.01374671e-06
8.01374425e-06
8.01374677e-06
8.01375203e-06
8.01374429e-06
8.01374337e-06
8.01374922e-06
8.0137477e-06
8.01374661e-06
8.01375154e-06
8.01373757e-06
8.01376075e-06
8.01373739e-06
8.01375303e-06
8.01373209e-06
8.01375381e-06
8.01373462e-06
8.01374846e-06
8.01374203e-06
8.01373957e-06
8.01376238e-06
8.01374423e-06
8.01375335e-06
8.0137552e-06
8.01375573e-06
8.01374729e-06
8.01375309e-06
8.01374734e-06
8.01375411e-06
8.01375118e-06
8.01374924e-06
8.01374888e-06
8.01374443e-06
8.01375484e-06
8.01374161e-06
8.01375538e-06
8.01374691e-06
8.01375041e-06
8.01375673e-06
8.01375257e-06
8.01375562e-06
8.01373918e-06
8.01375701e-06
8.01374745e-06
8.01375182e-06
8.01375561e-06
8.0137574e-06
8.01375455e-06
8.01375442e-06
8.0137514e-06
8.01374164e-06
8.01375928e-06
8.01375662e-06
8.01374563e-06
8.01374616e-06
8.01375874e-06
8.01373168e-06
8.01375247e-06
8.01373725e-06
8.01375242e-06
8.01374104e-06
8.01375676e-06
8.01374948e-06
8.01374569e-06
8.0137563e-06
8.01374365e-06
8.01375613e-06
8.0137398e-06
8.01376651e-06
8.01374889e-06
8.01374687e-06
8.01374627e-06
8.01375542e-06
8.01375174e-06
8.01375583e-06
8.01374421e-06
8.01375041e-06
8.0137577e-06
8.01376681e-06
8.01375264e-06
8.01376108e-06
8.0137586e-06
8.01374759e-06
8.0137563e-06
8.01374192e-06
8.01376004e-06
8.0137449e-06
8.01374868e-06
8.01374985e-06
8.01375497e-06
8.01375519e-06
8.01374611e-06
8.01375389e-06
8.01375252e-06
8.01375593e-06
8.01375513e-06
8.01374421e-06
8.01375717e-06
8.01375425e-06
8.01375162e-06
8.01376221e-06
8.01375141e-06
8.01375514e-06
8.01374764e-06
8.01376021e-06
8.01376255e-06
8.01374868e-06
8.01376576e-06
8.01374877e-06
8.013771e-06
8.01375251e-06
8.01375838e-06
8.01375522e-06
8.01375158e-06
8.01375355e-06
8.01376165e-06
8.01374318e-06
8.01375502e-06
8.01375213e-06
8.01375256e-06
8.01375877e-06
8.01375956e-06
8.01375987e-06
8.0137506e-06
8.01377093e-06
8.01376486e-06
8.01376765e-06
8.01375777e-06
8.01375956e-06
8.01375445e-06
8.01376043e-06
8.01375956e-06
8.01375762e-06
8.01375775e-06
8.01375666e-06
8.01376263e-06
8.01375654e-06
8.01376261e-06
8.01376556e-06
8.01376344e-06
8.01375385e-06
8.0137679e-06
8.01375451e-06
8.01376568e-06
8.01375159e-06
8.01376462e-06
8.01375125e-06
8.01376219e-06
8.01374902e-06
8.01375611e-06
8.01375772e-06
8.01376257e-06
8.01375921e-06
8.01376926e-06
8.0137546e-06
8.01377052e-06
8.01375057e-06
8.01377131e-06
8.01375812e-06
8.01375709e-06
8.01375917e-06
8.01376142e-06
8.01376131e-06
8.01375651e-06
8.01376394e-06
8.01375412e-06
8.01377545e-06
8.01375121e-06
8.01375631e-06
8.01376146e-06
8.01375342e-06
8.01375823e-06
8.01376739e-06
8.01376157e-06
8.01376302e-06
8.01376571e-06
8.0137605e-06
8.0137705e-06
8.01376912e-06
8.0137621e-06
8.01375822e-06
8.01376274e-06
8.01377317e-06
8.01375449e-06
8.01377185e-06
8.01375845e-06
8.01376768e-06
8.0137625e-06
8.01375718e-06
8.01376494e-06
8.01376934e-06
8.01376069e-06
8.01376367e-06
8.01375808e-06
8.0137552e-06
8.01376347e-06
8.01377205e-06
8.0137597e-06
8.01376591e-06
8.01375851e-06
8.01376784e-06
8.01376268e-06
8.01376327e-06
8.01377211e-06
8.01375811e-06
8.01377324e-06
8.01377124e-06
8.01377576e-06
8.01376001e-06
8.01377885e-06
8.01375656e-06
8.01376901e-06
8.01375235e-06
8.01376595e-06
8.01375955e-06
8.01376701e-06
8.01376831e-06
8.01376163e-06
8.01377342e-06
8.01376092e-06
8.01377343e-06
8.01376187e-06
8.01376655e-06
8.01376708e-06
8.01376383e-06
8.01377044e-06
8.01375721e-06
8.0137691e-06
8.01376879e-06
8.01376974e-06
8.01375963e-06
8.01376601e-06
8.01375637e-06
8.01376489e-06
8.01377255e-06
8.01376153e-06
8.01376338e-06
8.01376213e-06
8.01376311e-06
8.01376872e-06
8.01375561e-06
8.01376291e-06
8.01377473e-06
8.01377579e-06
8.01376679e-06
8.01376897e-06
8.01376772e-06
8.01376533e-06
8.01377303e-06
8.01376666e-06
8.01377571e-06
8.01377289e-06
8.0137615e-06
8.01377917e-06
8.013773e-06
8.01377351e-06
8.01377097e-06
8.01376875e-06
8.01377493e-06
8.01375862e-06
8.01377725e-06
8.01378486e-06
8.01375278e-06
8.01377938e-06
8.01376319e-06
8.01377944e-06
8.01377138e-06
8.01377311e-06
8.01376655e-06
8.01376378e-06
8.01377339e-06
8.01377349e-06
8.01376946e-06
8.01377268e-06
8.01377269e-06
8.01377385e-06
8.01377671e-06
8.01376855e-06
8.01376625e-06
8.01377253e-06
8.01376484e-06
8.01377646e-06
8.01376595e-06
8.01377024e-06
8.01377277e-06
8.01377128e-06
8.01378098e-06
8.01376669e-06
8.01378237e-06
8.01376813e-06
8.01378152e-06
8.01377185e-06
8.01377804e-06
8.01377752e-06
8.0137753e-06
8.01377823e-06
8.01378228e-06
8.01377412e-06
8.01377113e-06
8.01378213e-06
8.01376745e-06
8.01378337e-06
8.01377764e-06
8.01377734e-06
8.013778e-06
8.01377648e-06
8.01377473e-06
8.01378531e-06
8.01377171e-06
8.01377338e-06
8.01378353e-06
8.01378096e-06
8.01379233e-06
8.01377566e-06
8.01378564e-06
8.01378294e-06
8.0137889e-06
8.01377609e-06
8.0137871e-06
8.01377389e-06
8.01378723e-06
8.01377393e-06
8.01377396e-06
8.0137868e-06
8.01377207e-06
8.01378653e-06
8.01377526e-06
8.01378406e-06
8.01378063e-06
8.01377876e-06
8.01377235e-06
8.01378259e-06
8.0137778e-06
8.01377066e-06
8.01378516e-06
8.01378048e-06
8.01377927e-06
8.01377975e-06
8.01378073e-06
8.01377816e-06
8.01378866e-06
8.01378384e-06
8.01378719e-06
8.01378195e-06
8.01377709e-06
8.01378217e-06
8.0137859e-06
8.01378171e-06
8.01379547e-06
8.01377347e-06
8.01379082e-06
8.01377457e-06
8.013791e-06
8.01378815e-06
8.01378234e-06
8.01378426e-06
8.01378761e-06
8.01378618e-06
8.01377877e-06
8.01379078e-06
8.01377669e-06
8.01379277e-06
8.01377932e-06
8.01378156e-06
8.01379382e-06
8.0137816e-06
8.0137865e-06
8.01377894e-06
8.01378832e-06
8.01379229e-06
8.01378601e-06
8.01378312e-06
8.01378913e-06
8.01378116e-06
8.01379583e-06
8.01378995e-06
8.01379187e-06
8.01378746e-06
8.01379769e-06
8.01379705e-06
8.01379384e-06
8.01379069e-06
8.013803e-06
8.0137841e-06
8.01379455e-06
8.01378489e-06
8.01378391e-06
8.0137917e-06
8.01378302e-06
8.01379914e-06
8.01378891e-06
8.01378813e-06
8.01379403e-06
8.01378868e-06
8.01379425e-06
8.01378655e-06
8.01378951e-06
8.01378835e-06
8.01378378e-06
8.0137902e-06
8.01379103e-06
8.01378656e-06
8.01378495e-06
8.01378987e-06
8.01378278e-06
8.01378637e-06
8.01379059e-06
8.01378661e-06
8.01379306e-06
8.01378144e-06
8.01379726e-06
8.01379876e-06
8.0137846e-06
8.01379318e-06
8.01379413e-06
8.01379542e-06
8.01378754e-06
8.01378752e-06
8.01379987e-06
8.01377798e-06
8.01380137e-06
8.01378874e-06
8.0137931e-06
8.01378279e-06
8.01378855e-06
8.0137854e-06
8.01379363e-06
8.01378606e-06
8.01378708e-06
8.01378839e-06
8.0137878e-06
8.01379717e-06
8.01378628e-06
8.01379868e-06
8.01378945e-06
8.01379162e-06
8.01379894e-06
8.0137865e-06
8.01379171e-06
8.01380273e-06
8.01378651e-06
8.01379517e-06
8.01378383e-06
8.01380064e-06
8.01377765e-06
8.01380366e-06
8.01377502e-06
8.01380083e-06
8.01378743e-06
8.01379216e-06
8.013797e-06
8.01379233e-06
8.01379325e-06
8.0137903e-06
8.01378975e-06
8.01379512e-06
8.01378915e-06
8.0137951e-06
8.01379208e-06
8.01379496e-06
8.0137951e-06
8.01379125e-06
8.01379319e-06
8.01379276e-06
8.01379145e-06
8.01379336e-06
8.01379399e-06
8.01379356e-06
8.01379314e-06
8.01379302e-06
8.01379242e-06
8.01379349e-06
8.01379355e-06
8.01379336e-06
8.01379377e-06
8.01379322e-06
8.01379383e-06
8.01379376e-06
8.01379343e-06
8.01379402e-06
8.01379384e-06
8.01379335e-06
8.01379356e-06
8.01379375e-06
8.01379385e-06
8.01379378e-06
8.01379376e-06
8.01379387e-06
8.01379375e-06
8.01379376e-06
8.0137937e-06
8.01379384e-06
8.01379352e-06
8.01379387e-06
8.01379359e-06
8.01379367e-06
8.01379372e-06
8.01379373e-06
8.01379373e-06
8.01379386e-06
8.01379373e-06
8.01379377e-06
8.0137936e-06
8.01379357e-06
8.01379385e-06
8.01379369e-06
8.01379378e-06
8.01379375e-06
8.01379361e-06
8.01379376e-06
8.01379375e-06
8.01379377e-06
8.01379384e-06
8.01379369e-06
8.01379387e-06
8.01379365e-06
8.01379383e-06
8.01379371e-06
8.01379364e-06
8.01379382e-06
8.01379366e-06
8.01379364e-06
8.01379386e-06
)
;

boundaryField
{
    closed
    {
        type            calculated;
        value           uniform 0;
    }
    open
    {
        type            calculated;
        value           uniform 0;
    }
    sides
    {
        type            empty;
    }
}


// ************************************************************************* //
