/*--------------------------------*- C++ -*----------------------------------*\
| =========                 |                                                 |
| \\      /  F ield         | OpenFOAM: The Open Source CFD Toolbox           |
|  \\    /   O peration     | Version:  2206                                  |
|   \\  /    A nd           | Website:  www.openfoam.com                      |
|    \\/     M anipulation  |                                                 |
\*---------------------------------------------------------------------------*/
FoamFile
{
    version     2.0;
    format      ascii;
    arch        "LSB;label=32;scalar=64";
    class       volVectorField;
    location    "7e-06";
    object      U;
}
// * * * * * * * * * * * * * * * * * * * * * * * * * * * * * * * * * * * * * //

dimensions      [0 1 -1 0 0 0 0];

internalField   nonuniform List<vector> 
3183
(
(1.67810533e-13 0 0)
(-1.62162708e-14 0 0)
(-1.02388971e-13 0 0)
(-6.98329901e-14 0 0)
(-7.34807077e-14 0 0)
(-2.12640324e-18 0 0)
(-1.6797007e-19 0 0)
(-7.46933359e-24 0 0)
(2.57485364e-24 0 0)
(6.44274217e-21 0 0)
(1.28746404e-18 0 0)
(1.50108664e-14 0 0)
(2.77689267e-13 0 0)
(1.42781522e-13 0 0)
(-9.78170046e-14 0 0)
(-9.92453596e-14 0 0)
(6.57136519e-14 0 0)
(-1.34392901e-13 0 0)
(-6.2105858e-13 0 0)
(2.70120434e-14 0 0)
(3.50921894e-13 0 0)
(5.7605086e-17 0 0)
(7.43322199e-18 0 0)
(1.66001113e-14 0 0)
(1.80317414e-13 0 0)
(3.06041166e-13 0 0)
(4.44133247e-13 0 0)
(2.98091024e-13 0 0)
(-2.20790641e-13 0 0)
(-9.76588251e-14 0 0)
(-3.15582578e-13 0 0)
(-3.15841658e-13 0 0)
(-2.97426687e-13 0 0)
(-2.66495355e-13 0 0)
(-1.06496817e-13 0 0)
(8.11452216e-14 0 0)
(-9.62712199e-14 0 0)
(-1.91423988e-13 0 0)
(-1.2373432e-14 0 0)
(-8.76190077e-14 0 0)
(-3.41235409e-13 0 0)
(-4.55537196e-13 0 0)
(2.82818083e-14 0 0)
(-2.13964455e-13 0 0)
(-6.47769211e-14 0 0)
(3.41185e-14 0 0)
(1.95310635e-13 0 0)
(3.93710522e-18 0 0)
(-1.77111963e-13 0 0)
(-1.86703802e-13 0 0)
(-1.53667121e-13 0 0)
(-9.2059261e-14 0 0)
(-7.15160659e-14 0 0)
(5.16290256e-14 0 0)
(5.32914128e-13 0 0)
(2.28914985e-13 0 0)
(4.44096477e-13 0 0)
(5.93887124e-13 0 0)
(5.91380043e-13 0 0)
(8.28920326e-13 0 0)
(7.30187809e-13 0 0)
(7.27766625e-13 0 0)
(7.24142296e-13 0 0)
(4.27891025e-13 0 0)
(7.1380991e-13 0 0)
(8.42968444e-13 0 0)
(7.42553829e-13 0 0)
(8.35626559e-13 0 0)
(1.29606902e-12 0 0)
(8.28470433e-13 0 0)
(1.26449791e-12 0 0)
(1.58153418e-12 0 0)
(1.43102315e-12 0 0)
(1.8092715e-12 0 0)
(2.00704722e-12 0 0)
(1.74213711e-12 0 0)
(1.91856263e-12 0 0)
(2.64195072e-12 0 0)
(3.11157251e-12 0 0)
(2.86300963e-12 0 0)
(2.92973403e-12 0 0)
(3.16090061e-12 0 0)
(3.03367172e-12 0 0)
(2.49531095e-12 0 0)
(3.18804263e-12 0 0)
(2.9573295e-12 0 0)
(3.27555773e-12 0 0)
(2.59087954e-12 0 0)
(3.07460792e-12 0 0)
(2.72578772e-12 0 0)
(1.98589276e-12 0 0)
(1.63027342e-12 0 0)
(2.49675978e-12 0 0)
(1.49401246e-12 0 0)
(1.67543494e-12 0 0)
(2.88891735e-12 0 0)
(6.24627708e-13 0 0)
(1.85756273e-12 0 0)
(9.58477455e-13 0 0)
(1.01905932e-12 0 0)
(2.2758891e-12 0 0)
(1.95565672e-12 0 0)
(2.70538294e-12 0 0)
(1.35218269e-12 0 0)
(1.78462253e-12 0 0)
(2.05809868e-12 0 0)
(1.88341852e-12 0 0)
(1.42054355e-12 0 0)
(9.52543886e-13 0 0)
(1.94296158e-12 0 0)
(2.02932736e-12 0 0)
(1.4115964e-12 0 0)
(1.60335923e-12 0 0)
(1.65820263e-12 0 0)
(1.15148974e-12 0 0)
(1.58556808e-12 0 0)
(7.24063702e-13 0 0)
(1.3425945e-12 0 0)
(1.1329363e-12 0 0)
(9.43180912e-13 0 0)
(5.10476278e-13 0 0)
(2.87301883e-14 0 0)
(5.50257027e-14 0 0)
(8.91154997e-14 0 0)
(-7.56801163e-13 0 0)
(-4.98870917e-13 0 0)
(1.28731902e-12 0 0)
(-4.00583951e-13 0 0)
(1.60381696e-13 0 0)
(-4.6936176e-13 0 0)
(-8.71366624e-13 0 0)
(-7.48265018e-13 0 0)
(-1.34579562e-12 0 0)
(-9.86344119e-13 0 0)
(-1.97121239e-13 0 0)
(-1.21231765e-12 0 0)
(-1.01574845e-12 0 0)
(-1.01128447e-12 0 0)
(-1.23454317e-12 0 0)
(-1.23492077e-12 0 0)
(-9.00550452e-13 0 0)
(-5.48125523e-13 0 0)
(-6.66647623e-13 0 0)
(-1.5726824e-12 0 0)
(-4.13170456e-13 0 0)
(-1.3351164e-12 0 0)
(-1.24130221e-12 0 0)
(-1.55382696e-12 0 0)
(-2.60019499e-13 0 0)
(-1.1123158e-12 0 0)
(-9.58139265e-13 0 0)
(-1.06572755e-12 0 0)
(9.4782609e-14 0 0)
(-1.17619825e-12 0 0)
(-1.06392053e-12 0 0)
(-1.04921855e-12 0 0)
(-1.09783138e-12 0 0)
(-1.00554107e-12 0 0)
(-7.75509998e-13 0 0)
(-1.70779707e-12 0 0)
(-1.83077297e-12 0 0)
(-1.73434247e-12 0 0)
(-2.05047538e-12 0 0)
(-2.46650302e-12 0 0)
(-2.24823038e-12 0 0)
(-1.75751082e-12 0 0)
(-3.06470615e-12 0 0)
(-2.71348763e-12 0 0)
(-3.28738936e-12 0 0)
(-3.69080799e-12 0 0)
(-3.34341711e-12 0 0)
(-2.2670418e-12 0 0)
(-3.7697874e-12 0 0)
(-2.24242623e-12 0 0)
(-3.40271633e-12 0 0)
(-2.99682145e-12 0 0)
(-3.95090341e-12 0 0)
(-3.97749471e-12 0 0)
(-3.04435488e-12 0 0)
(-4.5344612e-12 0 0)
(-3.26238934e-12 0 0)
(-5.13070192e-12 0 0)
(-3.15700361e-12 0 0)
(-3.14835137e-12 0 0)
(-4.31018472e-12 0 0)
(-3.8636313e-12 0 0)
(-4.29652161e-12 0 0)
(-3.17630245e-12 0 0)
(-5.38929048e-12 0 0)
(-3.57563877e-12 0 0)
(-3.55283241e-12 0 0)
(-4.28603415e-12 0 0)
(-3.38966448e-12 0 0)
(-3.14891222e-12 0 0)
(-4.08070755e-12 0 0)
(-3.03400105e-12 0 0)
(-3.52520171e-12 0 0)
(-3.25098289e-12 0 0)
(-3.71928761e-12 0 0)
(-3.36961915e-12 0 0)
(-3.53728998e-12 0 0)
(-3.30780631e-12 0 0)
(-3.22463955e-12 0 0)
(-3.14031531e-12 0 0)
(-4.04134663e-12 0 0)
(-3.70278453e-12 0 0)
(-4.04035808e-12 0 0)
(-4.35499238e-12 0 0)
(-5.04221196e-12 0 0)
(-4.08505369e-12 0 0)
(-4.85472529e-12 0 0)
(-5.40266976e-12 0 0)
(-4.28097191e-12 0 0)
(-4.58741829e-12 0 0)
(-4.54157072e-12 0 0)
(-4.0568751e-12 0 0)
(-5.01893475e-12 0 0)
(-5.15840551e-12 0 0)
(-3.94576156e-12 0 0)
(-4.59300925e-12 0 0)
(-5.67887787e-12 0 0)
(-5.58165764e-12 0 0)
(-5.47945966e-12 0 0)
(-3.74215637e-12 0 0)
(-5.11093934e-12 0 0)
(-5.34019081e-12 0 0)
(-5.2946016e-12 0 0)
(-5.98602318e-12 0 0)
(-6.67976932e-12 0 0)
(-5.19051382e-12 0 0)
(-5.50759653e-12 0 0)
(-5.59758433e-12 0 0)
(-5.59301795e-12 0 0)
(-6.68253095e-12 0 0)
(-6.19322635e-12 0 0)
(-6.40027967e-12 0 0)
(-7.00865684e-12 0 0)
(-6.54006523e-12 0 0)
(-6.99616806e-12 0 0)
(-6.55810574e-12 0 0)
(-8.11643574e-12 0 0)
(-6.46961236e-12 0 0)
(-6.72012709e-12 0 0)
(-6.23369419e-12 0 0)
(-6.67236874e-12 0 0)
(-7.71191706e-12 0 0)
(-7.66918218e-12 0 0)
(-6.67662772e-12 0 0)
(-8.04059126e-12 0 0)
(-8.5958571e-12 0 0)
(-7.21507948e-12 0 0)
(-7.44358692e-12 0 0)
(-8.48639387e-12 0 0)
(-8.77359317e-12 0 0)
(-8.70812953e-12 0 0)
(-7.44032118e-12 0 0)
(-8.28066186e-12 0 0)
(-7.46320414e-12 0 0)
(-7.80629169e-12 0 0)
(-8.05084863e-12 0 0)
(-7.4063179e-12 0 0)
(-8.49420849e-12 0 0)
(-8.69776804e-12 0 0)
(-6.92888698e-12 0 0)
(-9.39667965e-12 0 0)
(-7.57896913e-12 0 0)
(-9.30395276e-12 0 0)
(-8.25364817e-12 0 0)
(-8.88507574e-12 0 0)
(-8.06543058e-12 0 0)
(-6.94141979e-12 0 0)
(-8.97605008e-12 0 0)
(-8.76139736e-12 0 0)
(-7.75499783e-12 0 0)
(-9.02989084e-12 0 0)
(-7.73393361e-12 0 0)
(-9.17174072e-12 0 0)
(-8.5511431e-12 0 0)
(-8.89322758e-12 0 0)
(-7.62567512e-12 0 0)
(-9.85330662e-12 0 0)
(-1.01549148e-11 0 0)
(-9.40883216e-12 0 0)
(-9.41353686e-12 0 0)
(-8.48558824e-12 0 0)
(-1.02931277e-11 0 0)
(-9.55750313e-12 0 0)
(-9.93935464e-12 0 0)
(-9.90958169e-12 0 0)
(-9.02811766e-12 0 0)
(-8.8550193e-12 0 0)
(-8.93963514e-12 0 0)
(-9.21498062e-12 0 0)
(-9.20073156e-12 0 0)
(-8.70032957e-12 0 0)
(-9.07210925e-12 0 0)
(-9.11699245e-12 0 0)
(-9.9086824e-12 0 0)
(-8.82502184e-12 0 0)
(-1.00620683e-11 0 0)
(-9.6241155e-12 0 0)
(-9.66250218e-12 0 0)
(-9.99761336e-12 0 0)
(-1.00299801e-11 0 0)
(-1.12785186e-11 0 0)
(-1.10134996e-11 0 0)
(-9.51542883e-12 0 0)
(-1.04473255e-11 0 0)
(-1.09821344e-11 0 0)
(-1.00373356e-11 0 0)
(-1.10028958e-11 0 0)
(-1.13485978e-11 0 0)
(-1.05632554e-11 0 0)
(-1.08053938e-11 0 0)
(-1.06939976e-11 0 0)
(-1.16979205e-11 0 0)
(-1.27100307e-11 0 0)
(-1.16571418e-11 0 0)
(-1.06121083e-11 0 0)
(-1.22203932e-11 0 0)
(-1.13944613e-11 0 0)
(-1.20167114e-11 0 0)
(-1.18905836e-11 0 0)
(-1.02444388e-11 0 0)
(-1.18372815e-11 0 0)
(-1.03059885e-11 0 0)
(-1.07963578e-11 0 0)
(-1.08147365e-11 0 0)
(-1.09820992e-11 0 0)
(-1.02985952e-11 0 0)
(-9.7952936e-12 0 0)
(-1.09276915e-11 0 0)
(-1.15433261e-11 0 0)
(-9.98777497e-12 0 0)
(-8.78648727e-12 0 0)
(-1.03955075e-11 0 0)
(-9.76286558e-12 0 0)
(-1.15947917e-11 0 0)
(-1.05736869e-11 0 0)
(-9.51966341e-12 0 0)
(-1.07742275e-11 0 0)
(-1.13717536e-11 0 0)
(-1.07811017e-11 0 0)
(-1.01141546e-11 0 0)
(-1.0091956e-11 0 0)
(-1.00469436e-11 0 0)
(-1.06591867e-11 0 0)
(-9.68191413e-12 0 0)
(-1.08128212e-11 0 0)
(-1.04918917e-11 0 0)
(-1.01459188e-11 0 0)
(-1.07546882e-11 0 0)
(-1.1353057e-11 0 0)
(-1.07414365e-11 0 0)
(-9.39765987e-12 0 0)
(-9.70669417e-12 0 0)
(-1.16971774e-11 0 0)
(-1.07050166e-11 0 0)
(-1.08715229e-11 0 0)
(-9.2964288e-12 0 0)
(-9.94543519e-12 0 0)
(-1.00017652e-11 0 0)
(-1.03638628e-11 0 0)
(-9.64143018e-12 0 0)
(-9.21918119e-12 0 0)
(-9.44646984e-12 0 0)
(-9.10523546e-12 0 0)
(-9.81858772e-12 0 0)
(-8.84425084e-12 0 0)
(-1.07687124e-11 0 0)
(-9.07673802e-12 0 0)
(-1.07409145e-11 0 0)
(-8.84680383e-12 0 0)
(-1.02227702e-11 0 0)
(-9.30662716e-12 0 0)
(-9.5307535e-12 0 0)
(-9.4899152e-12 0 0)
(-8.48592899e-12 0 0)
(-9.45935671e-12 0 0)
(-9.42639927e-12 0 0)
(-9.16666255e-12 0 0)
(-8.37261833e-12 0 0)
(-8.48529576e-12 0 0)
(-9.34282452e-12 0 0)
(-7.49654886e-12 0 0)
(-9.41750568e-12 0 0)
(-9.42349921e-12 0 0)
(-8.3568808e-12 0 0)
(-8.17127766e-12 0 0)
(-6.82100174e-12 0 0)
(-7.63591735e-12 0 0)
(-9.04488099e-12 0 0)
(-7.59846399e-12 0 0)
(-8.01076598e-12 0 0)
(-7.51689786e-12 0 0)
(-6.6735457e-12 0 0)
(-7.08319291e-12 0 0)
(-7.21360642e-12 0 0)
(-7.43870101e-12 0 0)
(-6.35485826e-12 0 0)
(-5.69757497e-12 0 0)
(-6.58444496e-12 0 0)
(-7.1153467e-12 0 0)
(-7.16320742e-12 0 0)
(-6.29707225e-12 0 0)
(-6.35114089e-12 0 0)
(-6.15265587e-12 0 0)
(-6.67348578e-12 0 0)
(-6.15668444e-12 0 0)
(-6.03120907e-12 0 0)
(-6.99669984e-12 0 0)
(-6.0663287e-12 0 0)
(-6.34291318e-12 0 0)
(-6.40939551e-12 0 0)
(-7.03428106e-12 0 0)
(-5.95987543e-12 0 0)
(-6.33892315e-12 0 0)
(-6.3972433e-12 0 0)
(-6.05883828e-12 0 0)
(-5.72453395e-12 0 0)
(-5.7501805e-12 0 0)
(-4.33818116e-12 0 0)
(-5.95372381e-12 0 0)
(-4.61323832e-12 0 0)
(-5.73517806e-12 0 0)
(-5.67243184e-12 0 0)
(-4.2305727e-12 0 0)
(-4.92859262e-12 0 0)
(-4.69102292e-12 0 0)
(-4.63109542e-12 0 0)
(-4.77440686e-12 0 0)
(-6.70631024e-12 0 0)
(-5.92964556e-12 0 0)
(-5.59841049e-12 0 0)
(-4.23455436e-12 0 0)
(-4.78037191e-12 0 0)
(-4.75296708e-12 0 0)
(-4.28020243e-12 0 0)
(-3.61165288e-12 0 0)
(-3.63519377e-12 0 0)
(-3.43553967e-12 0 0)
(-4.40899928e-12 0 0)
(-3.55501286e-12 0 0)
(-2.81296647e-12 0 0)
(-4.51841344e-12 0 0)
(-3.59626492e-12 0 0)
(-4.539072e-12 0 0)
(-3.90697967e-12 0 0)
(-4.34440365e-12 0 0)
(-3.37964776e-12 0 0)
(-4.25411505e-12 0 0)
(-3.04876009e-12 0 0)
(-3.72871345e-12 0 0)
(-4.84950617e-12 0 0)
(-4.0572758e-12 0 0)
(-3.12142558e-12 0 0)
(-3.95009059e-12 0 0)
(-3.84907224e-12 0 0)
(-3.96363608e-12 0 0)
(-2.52716315e-12 0 0)
(-3.80929235e-12 0 0)
(-3.35405457e-12 0 0)
(-2.95840622e-12 0 0)
(-2.41898368e-12 0 0)
(-3.34854125e-12 0 0)
(-2.99058672e-12 0 0)
(-2.96758824e-12 0 0)
(-1.9573596e-12 0 0)
(-2.3102011e-12 0 0)
(-3.47976431e-12 0 0)
(-2.27931897e-12 0 0)
(-1.78709991e-12 0 0)
(-3.00844837e-12 0 0)
(-3.17475483e-12 0 0)
(-2.17976744e-12 0 0)
(-2.38583907e-12 0 0)
(-1.36056688e-12 0 0)
(-1.86262694e-12 0 0)
(-2.70037339e-12 0 0)
(-2.48987548e-12 0 0)
(-1.66354312e-12 0 0)
(-2.24714197e-12 0 0)
(-1.46396427e-12 0 0)
(-2.00728968e-12 0 0)
(-1.52402651e-12 0 0)
(-1.00162962e-12 0 0)
(-2.23332506e-12 0 0)
(-1.85626337e-12 0 0)
(-1.79357565e-12 0 0)
(-2.63778756e-12 0 0)
(-2.35909008e-12 0 0)
(-1.41946798e-12 0 0)
(-2.4676059e-12 0 0)
(-1.36593543e-12 0 0)
(-1.71891998e-12 0 0)
(-1.84350808e-12 0 0)
(-2.00327987e-12 0 0)
(-1.95609987e-12 0 0)
(-1.64271209e-12 0 0)
(-2.98727853e-12 0 0)
(-1.9811729e-12 0 0)
(-1.07118908e-12 0 0)
(-2.02776032e-12 0 0)
(-2.52022565e-12 0 0)
(-1.94840429e-12 0 0)
(-2.63159269e-12 0 0)
(-1.284246e-12 0 0)
(-1.84430875e-12 0 0)
(-2.08531879e-12 0 0)
(-2.6957628e-12 0 0)
(-1.77787081e-12 0 0)
(-1.9700093e-12 0 0)
(-7.16860423e-13 0 0)
(-5.09954829e-13 0 0)
(-6.6898423e-13 0 0)
(-7.31334385e-15 0 0)
(-5.87492863e-13 0 0)
(1.13272078e-14 0 0)
(-5.20130522e-13 0 0)
(5.77375924e-13 0 0)
(-1.06900276e-13 0 0)
(6.70006824e-13 0 0)
(1.41325922e-13 0 0)
(-4.30042231e-13 0 0)
(1.81854747e-12 0 0)
(1.24094477e-12 0 0)
(7.99527558e-13 0 0)
(1.47362453e-12 0 0)
(1.53906789e-12 0 0)
(-2.45795115e-13 0 0)
(8.5960323e-13 0 0)
(9.80190038e-13 0 0)
(1.38738957e-12 0 0)
(9.69479222e-13 0 0)
(6.63783038e-13 0 0)
(9.02151764e-13 0 0)
(9.91101111e-13 0 0)
(2.6082114e-12 0 0)
(1.24918855e-12 0 0)
(2.1173589e-12 0 0)
(1.79015006e-12 0 0)
(1.66749066e-12 0 0)
(2.54857098e-12 0 0)
(2.93163013e-12 0 0)
(2.79953962e-12 0 0)
(3.36540279e-12 0 0)
(2.08646702e-12 0 0)
(1.96387408e-12 0 0)
(3.09244049e-12 0 0)
(1.74139778e-12 0 0)
(2.23188302e-12 0 0)
(2.0915703e-12 0 0)
(1.75032947e-12 0 0)
(2.36542247e-12 0 0)
(1.63449697e-12 0 0)
(1.96443548e-12 0 0)
(1.99852954e-12 0 0)
(1.65133144e-12 0 0)
(1.36737459e-12 0 0)
(1.15171978e-12 0 0)
(1.79825181e-12 0 0)
(1.03316318e-12 0 0)
(1.58399656e-12 0 0)
(1.52159195e-12 0 0)
(1.33113348e-12 0 0)
(1.3913459e-12 0 0)
(1.17096965e-12 0 0)
(2.79219169e-12 0 0)
(2.18401559e-12 0 0)
(1.94393038e-12 0 0)
(1.5302379e-12 0 0)
(2.30514809e-12 0 0)
(2.14442713e-12 0 0)
(3.03660484e-12 0 0)
(2.84405313e-12 0 0)
(2.14365168e-12 0 0)
(2.93783822e-12 0 0)
(2.12659132e-12 0 0)
(3.50156251e-12 0 0)
(3.01486895e-12 0 0)
(2.44585742e-12 0 0)
(2.30590235e-12 0 0)
(4.6174047e-12 0 0)
(2.69229192e-12 0 0)
(4.40600684e-12 0 0)
(3.39157028e-12 0 0)
(3.83058674e-12 0 0)
(4.6037325e-12 0 0)
(2.9233061e-12 0 0)
(4.28372248e-12 0 0)
(3.60604579e-12 0 0)
(4.51383254e-12 0 0)
(4.71127526e-12 0 0)
(5.29420276e-12 0 0)
(4.64340811e-12 0 0)
(4.60989353e-12 0 0)
(3.50165028e-12 0 0)
(4.20205207e-12 0 0)
(4.36241769e-12 0 0)
(3.56986917e-12 0 0)
(3.41308431e-12 0 0)
(4.70803746e-12 0 0)
(3.14863835e-12 0 0)
(3.35855602e-12 0 0)
(3.79361281e-12 0 0)
(3.08882161e-12 0 0)
(4.50852673e-12 0 0)
(4.99043155e-12 0 0)
(3.91342561e-12 0 0)
(3.91974067e-12 0 0)
(3.23851895e-12 0 0)
(3.34893843e-12 0 0)
(4.24351254e-12 0 0)
(3.56078429e-12 0 0)
(4.50527054e-12 0 0)
(4.43375885e-12 0 0)
(4.23155582e-12 0 0)
(3.0483872e-12 0 0)
(2.89406715e-12 0 0)
(3.51114854e-12 0 0)
(4.00284746e-12 0 0)
(2.68199889e-12 0 0)
(2.74784463e-12 0 0)
(3.05608341e-12 0 0)
(3.23397645e-12 0 0)
(3.42559484e-12 0 0)
(3.14295837e-12 0 0)
(2.85463029e-12 0 0)
(3.33598596e-12 0 0)
(3.24177061e-12 0 0)
(3.45075087e-12 0 0)
(4.11878746e-12 0 0)
(4.18336241e-12 0 0)
(3.82876547e-12 0 0)
(3.66304597e-12 0 0)
(3.75032456e-12 0 0)
(2.35892494e-12 0 0)
(3.5055873e-12 0 0)
(3.56395831e-12 0 0)
(3.07460192e-12 0 0)
(1.65985516e-12 0 0)
(2.82180431e-12 0 0)
(3.34985866e-12 0 0)
(2.26627221e-12 0 0)
(2.31799047e-12 0 0)
(2.21436407e-12 0 0)
(2.21876114e-12 0 0)
(6.62158791e-13 0 0)
(1.57916022e-12 0 0)
(1.81144263e-12 0 0)
(2.18408388e-12 0 0)
(1.54207862e-12 0 0)
(2.75274295e-12 0 0)
(2.26260369e-12 0 0)
(1.73091841e-12 0 0)
(1.82146352e-12 0 0)
(1.37888818e-12 0 0)
(9.45515675e-13 0 0)
(5.71371969e-13 0 0)
(5.08923682e-13 0 0)
(4.24296934e-13 0 0)
(9.85283971e-13 0 0)
(2.13103324e-12 0 0)
(1.385352e-12 0 0)
(5.0297452e-13 0 0)
(1.38918152e-12 0 0)
(2.24399299e-12 0 0)
(1.43352759e-12 0 0)
(1.90672577e-12 0 0)
(1.62838131e-12 0 0)
(1.48537722e-12 0 0)
(2.03769844e-12 0 0)
(2.5018811e-12 0 0)
(2.54100667e-12 0 0)
(2.75539336e-12 0 0)
(1.0840954e-12 0 0)
(1.72974625e-12 0 0)
(1.59110995e-12 0 0)
(1.64390096e-12 0 0)
(1.91730169e-12 0 0)
(1.18727776e-12 0 0)
(1.33204634e-12 0 0)
(7.14284894e-13 0 0)
(1.56735678e-12 0 0)
(2.12807927e-12 0 0)
(1.6327066e-12 0 0)
(1.82281984e-12 0 0)
(8.55101602e-13 0 0)
(1.86522396e-12 0 0)
(1.62818513e-12 0 0)
(2.13990042e-12 0 0)
(2.06521878e-12 0 0)
(2.0263054e-12 0 0)
(1.20780835e-12 0 0)
(2.40282666e-12 0 0)
(1.65554444e-12 0 0)
(1.21561101e-12 0 0)
(2.5303379e-12 0 0)
(1.68749637e-12 0 0)
(2.51147564e-12 0 0)
(2.7300969e-12 0 0)
(2.46025142e-12 0 0)
(2.64688355e-12 0 0)
(3.51085604e-12 0 0)
(3.31887751e-12 0 0)
(3.94982204e-12 0 0)
(4.10524822e-12 0 0)
(4.39073069e-12 0 0)
(4.24140399e-12 0 0)
(3.52757046e-12 0 0)
(3.15291005e-12 0 0)
(3.79517046e-12 0 0)
(4.17642286e-12 0 0)
(3.12217274e-12 0 0)
(3.05643997e-12 0 0)
(4.64789696e-12 0 0)
(2.67340111e-12 0 0)
(4.63664274e-12 0 0)
(3.85065286e-12 0 0)
(4.47381044e-12 0 0)
(3.23557891e-12 0 0)
(4.13865052e-12 0 0)
(4.54289531e-12 0 0)
(3.57438338e-12 0 0)
(3.1729528e-12 0 0)
(3.98356059e-12 0 0)
(3.45228592e-12 0 0)
(2.95266689e-12 0 0)
(3.65692091e-12 0 0)
(3.49497564e-12 0 0)
(2.12986359e-12 0 0)
(3.93243324e-12 0 0)
(2.69186166e-12 0 0)
(3.29417576e-12 0 0)
(4.20897812e-12 0 0)
(4.02388684e-12 0 0)
(4.23759633e-12 0 0)
(4.34829152e-12 0 0)
(3.79550156e-12 0 0)
(4.57718886e-12 0 0)
(5.01024618e-12 0 0)
(3.72841707e-12 0 0)
(4.17056505e-12 0 0)
(3.6234607e-12 0 0)
(4.46278666e-12 0 0)
(3.50092305e-12 0 0)
(4.42263132e-12 0 0)
(3.57583406e-12 0 0)
(3.86673296e-12 0 0)
(3.30213691e-12 0 0)
(2.98364483e-12 0 0)
(3.76431862e-12 0 0)
(3.83555437e-12 0 0)
(3.06161013e-12 0 0)
(2.80042119e-12 0 0)
(3.08742052e-12 0 0)
(3.53685033e-12 0 0)
(2.85044152e-12 0 0)
(2.00010591e-12 0 0)
(2.25596686e-12 0 0)
(2.58733916e-12 0 0)
(3.19507976e-12 0 0)
(2.23403215e-12 0 0)
(2.97848813e-12 0 0)
(2.98570156e-12 0 0)
(3.23651688e-12 0 0)
(3.67402725e-12 0 0)
(2.79180118e-12 0 0)
(3.39636159e-12 0 0)
(3.10588423e-12 0 0)
(3.7556673e-12 0 0)
(3.92483067e-12 0 0)
(3.98733553e-12 0 0)
(3.97796229e-12 0 0)
(3.57685075e-12 0 0)
(3.41612633e-12 0 0)
(3.37809506e-12 0 0)
(2.88672653e-12 0 0)
(3.74504683e-12 0 0)
(3.32970795e-12 0 0)
(3.38889105e-12 0 0)
(3.26665522e-12 0 0)
(3.46374051e-12 0 0)
(3.74946688e-12 0 0)
(3.52359667e-12 0 0)
(3.05375624e-12 0 0)
(1.9201486e-12 0 0)
(3.25682787e-12 0 0)
(2.92616262e-12 0 0)
(3.28706796e-12 0 0)
(2.66639563e-12 0 0)
(2.82237799e-12 0 0)
(3.75334518e-12 0 0)
(2.58524085e-12 0 0)
(2.09734953e-12 0 0)
(1.7718764e-12 0 0)
(2.90131746e-12 0 0)
(3.29509352e-12 0 0)
(2.97170784e-12 0 0)
(3.26939422e-12 0 0)
(1.55977452e-12 0 0)
(2.65150527e-12 0 0)
(2.31891546e-12 0 0)
(2.59699608e-12 0 0)
(2.90713142e-12 0 0)
(2.7832789e-12 0 0)
(3.47607891e-12 0 0)
(2.93247435e-12 0 0)
(2.96042876e-12 0 0)
(2.5740755e-12 0 0)
(1.98698216e-12 0 0)
(1.64739199e-12 0 0)
(1.38426606e-12 0 0)
(1.38028206e-12 0 0)
(2.29599693e-12 0 0)
(2.26129563e-12 0 0)
(1.86299314e-12 0 0)
(1.88645951e-12 0 0)
(1.80980233e-12 0 0)
(2.49648232e-12 0 0)
(1.96293532e-12 0 0)
(1.80506428e-12 0 0)
(1.94828079e-12 0 0)
(1.68329939e-12 0 0)
(1.7163809e-12 0 0)
(1.92931085e-12 0 0)
(9.82491281e-13 0 0)
(1.90213326e-12 0 0)
(1.47085823e-12 0 0)
(1.38259084e-12 0 0)
(2.26862361e-12 0 0)
(1.78438605e-12 0 0)
(1.0618619e-12 0 0)
(2.36816792e-12 0 0)
(2.70767447e-12 0 0)
(1.74402608e-12 0 0)
(1.77776744e-12 0 0)
(3.60663088e-12 0 0)
(2.24054533e-12 0 0)
(3.60054618e-12 0 0)
(3.03674683e-12 0 0)
(2.38220855e-12 0 0)
(3.21431233e-12 0 0)
(2.56422192e-12 0 0)
(2.96948283e-12 0 0)
(2.80634411e-12 0 0)
(2.96057569e-12 0 0)
(3.13030969e-12 0 0)
(1.88006662e-12 0 0)
(2.95922982e-12 0 0)
(3.75936587e-12 0 0)
(2.53338611e-12 0 0)
(2.58757417e-12 0 0)
(3.58040793e-12 0 0)
(3.32909353e-12 0 0)
(3.04793139e-12 0 0)
(2.11028869e-12 0 0)
(3.18878317e-12 0 0)
(3.0868314e-12 0 0)
(2.82551082e-12 0 0)
(3.08584806e-12 0 0)
(2.92190537e-12 0 0)
(2.57621352e-12 0 0)
(2.48546945e-12 0 0)
(3.56453881e-12 0 0)
(2.69287172e-12 0 0)
(3.8234318e-12 0 0)
(2.19669608e-12 0 0)
(2.95421767e-12 0 0)
(2.33296369e-12 0 0)
(2.99475513e-12 0 0)
(3.41165123e-12 0 0)
(2.26752287e-12 0 0)
(3.55629893e-12 0 0)
(2.8101956e-12 0 0)
(3.76840068e-12 0 0)
(4.1089689e-12 0 0)
(3.43610834e-12 0 0)
(3.79681421e-12 0 0)
(5.71324079e-12 0 0)
(3.54556444e-12 0 0)
(4.5353842e-12 0 0)
(4.12862857e-12 0 0)
(5.95425398e-12 0 0)
(5.61291848e-12 0 0)
(5.84537651e-12 0 0)
(5.07154157e-12 0 0)
(5.30676976e-12 0 0)
(6.08438754e-12 0 0)
(5.29344986e-12 0 0)
(6.22923737e-12 0 0)
(5.51190863e-12 0 0)
(5.17479638e-12 0 0)
(6.02728083e-12 0 0)
(4.80782412e-12 0 0)
(5.30770704e-12 0 0)
(5.58475251e-12 0 0)
(5.84148381e-12 0 0)
(5.39597186e-12 0 0)
(5.22620829e-12 0 0)
(6.52351057e-12 0 0)
(5.64677952e-12 0 0)
(5.86712251e-12 0 0)
(4.42222089e-12 0 0)
(5.41503292e-12 0 0)
(5.03454191e-12 0 0)
(5.30615734e-12 0 0)
(5.4947023e-12 0 0)
(5.30084511e-12 0 0)
(4.70803413e-12 0 0)
(4.12725715e-12 0 0)
(5.42485585e-12 0 0)
(4.44634127e-12 0 0)
(4.7208899e-12 0 0)
(3.53975634e-12 0 0)
(5.23225603e-12 0 0)
(5.02825962e-12 0 0)
(3.78459448e-12 0 0)
(4.37880881e-12 0 0)
(4.41284342e-12 0 0)
(4.74085594e-12 0 0)
(5.50502878e-12 0 0)
(5.97745723e-12 0 0)
(5.47837687e-12 0 0)
(5.89010857e-12 0 0)
(6.26792463e-12 0 0)
(6.02192788e-12 0 0)
(5.38324364e-12 0 0)
(6.03533387e-12 0 0)
(5.25467284e-12 0 0)
(5.50858158e-12 0 0)
(5.60454675e-12 0 0)
(6.08536068e-12 0 0)
(5.92885198e-12 0 0)
(5.34401806e-12 0 0)
(4.73573077e-12 0 0)
(5.2227394e-12 0 0)
(4.501211e-12 0 0)
(4.81066225e-12 0 0)
(4.65259971e-12 0 0)
(5.70300461e-12 0 0)
(4.51753417e-12 0 0)
(5.41804158e-12 0 0)
(4.18449272e-12 0 0)
(5.35310939e-12 0 0)
(4.597939e-12 0 0)
(5.25106374e-12 0 0)
(5.55305984e-12 0 0)
(5.04357434e-12 0 0)
(5.5378772e-12 0 0)
(5.37096261e-12 0 0)
(5.69534217e-12 0 0)
(5.4886371e-12 0 0)
(5.07057297e-12 0 0)
(5.29406972e-12 0 0)
(4.6664133e-12 0 0)
(5.02911134e-12 0 0)
(5.50365598e-12 0 0)
(4.72969909e-12 0 0)
(4.35156308e-12 0 0)
(4.75961294e-12 0 0)
(5.03131913e-12 0 0)
(4.98401484e-12 0 0)
(4.38787912e-12 0 0)
(3.77244294e-12 0 0)
(4.38409034e-12 0 0)
(4.81467035e-12 0 0)
(4.62785498e-12 0 0)
(5.57625948e-12 0 0)
(5.36237723e-12 0 0)
(4.42887142e-12 0 0)
(5.26225181e-12 0 0)
(4.96580848e-12 0 0)
(4.74387649e-12 0 0)
(4.60303135e-12 0 0)
(5.81588649e-12 0 0)
(4.82866545e-12 0 0)
(5.27555679e-12 0 0)
(4.93515302e-12 0 0)
(5.7257602e-12 0 0)
(5.23548147e-12 0 0)
(4.99860128e-12 0 0)
(5.57621896e-12 0 0)
(5.84129862e-12 0 0)
(4.71288272e-12 0 0)
(4.22906974e-12 0 0)
(4.26969014e-12 0 0)
(5.00695258e-12 0 0)
(4.61362299e-12 0 0)
(4.03080192e-12 0 0)
(4.74129884e-12 0 0)
(4.66990109e-12 0 0)
(5.50009544e-12 0 0)
(4.46186714e-12 0 0)
(4.35561809e-12 0 0)
(5.32748201e-12 0 0)
(4.22304345e-12 0 0)
(4.77228882e-12 0 0)
(4.58323091e-12 0 0)
(6.20506269e-12 0 0)
(5.38257021e-12 0 0)
(4.57985722e-12 0 0)
(5.58304986e-12 0 0)
(5.76615627e-12 0 0)
(5.50884696e-12 0 0)
(5.23601215e-12 0 0)
(4.948843e-12 0 0)
(5.06375518e-12 0 0)
(4.52294562e-12 0 0)
(4.81036748e-12 0 0)
(5.42528224e-12 0 0)
(4.86944835e-12 0 0)
(4.33846794e-12 0 0)
(4.77752596e-12 0 0)
(4.61890204e-12 0 0)
(4.03966284e-12 0 0)
(5.24252102e-12 0 0)
(4.52496969e-12 0 0)
(4.5965513e-12 0 0)
(5.37896393e-12 0 0)
(3.87109027e-12 0 0)
(4.15151608e-12 0 0)
(5.1533458e-12 0 0)
(5.21604852e-12 0 0)
(5.54664752e-12 0 0)
(4.57175302e-12 0 0)
(5.13012395e-12 0 0)
(4.8201458e-12 0 0)
(3.98975946e-12 0 0)
(4.749295e-12 0 0)
(5.56511537e-12 0 0)
(3.91300999e-12 0 0)
(5.22357498e-12 0 0)
(4.33201962e-12 0 0)
(5.52095625e-12 0 0)
(5.32429949e-12 0 0)
(4.89531963e-12 0 0)
(4.93913566e-12 0 0)
(5.30272953e-12 0 0)
(4.30491594e-12 0 0)
(4.27644415e-12 0 0)
(4.32438141e-12 0 0)
(4.26794962e-12 0 0)
(4.33168887e-12 0 0)
(4.29646747e-12 0 0)
(5.19775597e-12 0 0)
(3.96767425e-12 0 0)
(4.46600666e-12 0 0)
(4.22237316e-12 0 0)
(3.66389617e-12 0 0)
(4.17845231e-12 0 0)
(4.22219363e-12 0 0)
(2.75806799e-12 0 0)
(3.43318985e-12 0 0)
(3.12757435e-12 0 0)
(2.97164011e-12 0 0)
(3.98482662e-12 0 0)
(3.83725246e-12 0 0)
(3.55952066e-12 0 0)
(3.10013915e-12 0 0)
(3.14500515e-12 0 0)
(2.82728007e-12 0 0)
(2.70810216e-12 0 0)
(2.97671117e-12 0 0)
(3.00279851e-12 0 0)
(3.38609533e-12 0 0)
(2.74049491e-12 0 0)
(3.26788921e-12 0 0)
(2.37121671e-12 0 0)
(2.37252228e-12 0 0)
(2.94200415e-12 0 0)
(2.7978692e-12 0 0)
(2.598292e-12 0 0)
(2.97008426e-12 0 0)
(3.06003421e-12 0 0)
(1.83371606e-12 0 0)
(1.97715321e-12 0 0)
(2.55191942e-12 0 0)
(2.60932418e-12 0 0)
(3.14281768e-12 0 0)
(2.43718839e-12 0 0)
(2.01940562e-12 0 0)
(2.27674242e-12 0 0)
(1.68113568e-12 0 0)
(1.07371823e-12 0 0)
(1.9122898e-12 0 0)
(1.62565102e-12 0 0)
(8.71330115e-13 0 0)
(1.38896414e-12 0 0)
(7.55982708e-13 0 0)
(1.2226189e-12 0 0)
(1.38249207e-12 0 0)
(-9.37674434e-14 0 0)
(1.03745864e-12 0 0)
(5.50188816e-13 0 0)
(-3.49126428e-13 0 0)
(1.56339948e-13 0 0)
(-5.01595799e-14 0 0)
(2.09110475e-13 0 0)
(-2.17082571e-13 0 0)
(-1.1307754e-13 0 0)
(-2.13633943e-13 0 0)
(1.87272989e-13 0 0)
(-5.05562125e-13 0 0)
(-1.21267789e-12 0 0)
(-8.79193252e-13 0 0)
(-8.30901958e-13 0 0)
(-6.43100638e-13 0 0)
(-8.40113562e-13 0 0)
(-1.09006943e-12 0 0)
(-1.1271261e-12 0 0)
(-1.18340345e-12 0 0)
(-6.09747316e-13 0 0)
(-1.21128469e-12 0 0)
(-1.68903347e-12 0 0)
(-1.94740669e-12 0 0)
(-1.93207664e-12 0 0)
(-1.62499755e-12 0 0)
(-2.14699408e-12 0 0)
(-2.03405188e-12 0 0)
(-2.48315841e-12 0 0)
(-2.56237293e-12 0 0)
(-3.44413984e-12 0 0)
(-2.68205797e-12 0 0)
(-2.93317871e-12 0 0)
(-3.55869986e-12 0 0)
(-2.92078231e-12 0 0)
(-2.31777792e-12 0 0)
(-3.7374134e-12 0 0)
(-3.35511324e-12 0 0)
(-2.28253977e-12 0 0)
(-3.17892479e-12 0 0)
(-2.04379937e-12 0 0)
(-2.81668356e-12 0 0)
(-2.82119177e-12 0 0)
(-2.75081505e-12 0 0)
(-2.48393313e-12 0 0)
(-2.58483894e-12 0 0)
(-3.30682118e-12 0 0)
(-3.23630124e-12 0 0)
(-3.57566833e-12 0 0)
(-2.94578461e-12 0 0)
(-2.75158317e-12 0 0)
(-2.73540237e-12 0 0)
(-3.19041353e-12 0 0)
(-2.94428252e-12 0 0)
(-3.76354209e-12 0 0)
(-3.62893642e-12 0 0)
(-3.09696479e-12 0 0)
(-2.10646932e-12 0 0)
(-2.4192751e-12 0 0)
(-3.70125186e-12 0 0)
(-2.93004412e-12 0 0)
(-3.29632783e-12 0 0)
(-3.69556287e-12 0 0)
(-2.72235676e-12 0 0)
(-2.06970962e-12 0 0)
(-2.678232e-12 0 0)
(-2.10415838e-12 0 0)
(-1.93441448e-12 0 0)
(-3.21130063e-12 0 0)
(-2.72683788e-12 0 0)
(-2.53511106e-12 0 0)
(-3.77160548e-12 0 0)
(-2.67399933e-12 0 0)
(-2.94051659e-12 0 0)
(-2.62662844e-12 0 0)
(-3.0243049e-12 0 0)
(-4.1945414e-12 0 0)
(-3.03821224e-12 0 0)
(-2.68748158e-12 0 0)
(-3.20777956e-12 0 0)
(-3.70956514e-12 0 0)
(-3.004655e-12 0 0)
(-3.84085821e-12 0 0)
(-3.32740725e-12 0 0)
(-4.05470809e-12 0 0)
(-3.67802783e-12 0 0)
(-3.13282024e-12 0 0)
(-3.15954056e-12 0 0)
(-4.66780776e-12 0 0)
(-3.9748796e-12 0 0)
(-4.54401546e-12 0 0)
(-4.94468694e-12 0 0)
(-5.7099917e-12 0 0)
(-6.0366017e-12 0 0)
(-5.66837252e-12 0 0)
(-5.92416726e-12 0 0)
(-6.71492265e-12 0 0)
(-6.65006791e-12 0 0)
(-6.07323966e-12 0 0)
(-6.48897602e-12 0 0)
(-7.66742554e-12 0 0)
(-6.30760168e-12 0 0)
(-5.15044853e-12 0 0)
(-6.16970218e-12 0 0)
(-6.46017105e-12 0 0)
(-6.55009031e-12 0 0)
(-7.39825102e-12 0 0)
(-8.01993158e-12 0 0)
(-7.01892601e-12 0 0)
(-7.62678475e-12 0 0)
(-7.32171665e-12 0 0)
(-7.17932505e-12 0 0)
(-6.77773581e-12 0 0)
(-7.51599276e-12 0 0)
(-5.79649685e-12 0 0)
(-7.89150654e-12 0 0)
(-7.00105727e-12 0 0)
(-6.34836747e-12 0 0)
(-6.69635034e-12 0 0)
(-7.63694731e-12 0 0)
(-6.42800095e-12 0 0)
(-7.5443607e-12 0 0)
(-6.64027099e-12 0 0)
(-6.97227632e-12 0 0)
(-6.43856441e-12 0 0)
(-7.57434715e-12 0 0)
(-7.74174463e-12 0 0)
(-6.39259337e-12 0 0)
(-6.7193733e-12 0 0)
(-6.37674566e-12 0 0)
(-7.82574003e-12 0 0)
(-7.0667547e-12 0 0)
(-6.62363177e-12 0 0)
(-6.92639377e-12 0 0)
(-7.323827e-12 0 0)
(-6.44766261e-12 0 0)
(-7.77424122e-12 0 0)
(-6.07974217e-12 0 0)
(-7.37874534e-12 0 0)
(-5.64272815e-12 0 0)
(-6.22899636e-12 0 0)
(-6.25931307e-12 0 0)
(-6.84137168e-12 0 0)
(-6.26170469e-12 0 0)
(-6.65602617e-12 0 0)
(-6.38404503e-12 0 0)
(-5.36997285e-12 0 0)
(-6.0426896e-12 0 0)
(-6.7436869e-12 0 0)
(-7.58588665e-12 0 0)
(-5.09925486e-12 0 0)
(-6.63292539e-12 0 0)
(-5.07110367e-12 0 0)
(-5.46021823e-12 0 0)
(-5.02465496e-12 0 0)
(-5.61077635e-12 0 0)
(-5.14019172e-12 0 0)
(-5.70725175e-12 0 0)
(-4.09191689e-12 0 0)
(-4.87834779e-12 0 0)
(-4.64596944e-12 0 0)
(-4.66478088e-12 0 0)
(-5.05418037e-12 0 0)
(-3.28965919e-12 0 0)
(-3.98151287e-12 0 0)
(-4.88058046e-12 0 0)
(-4.22498942e-12 0 0)
(-4.08151756e-12 0 0)
(-3.99488215e-12 0 0)
(-4.38790643e-12 0 0)
(-4.56274342e-12 0 0)
(-3.70282e-12 0 0)
(-3.97413744e-12 0 0)
(-4.14469902e-12 0 0)
(-3.15068063e-12 0 0)
(-4.49458235e-12 0 0)
(-3.12632029e-12 0 0)
(-4.50250841e-12 0 0)
(-5.2671522e-12 0 0)
(-4.81884898e-12 0 0)
(-3.7220698e-12 0 0)
(-4.34110059e-12 0 0)
(-4.30735071e-12 0 0)
(-4.25252016e-12 0 0)
(-4.83657477e-12 0 0)
(-3.89804781e-12 0 0)
(-3.16690277e-12 0 0)
(-3.23646159e-12 0 0)
(-5.00794193e-12 0 0)
(-4.31431912e-12 0 0)
(-3.09197853e-12 0 0)
(-4.14176867e-12 0 0)
(-3.79579239e-12 0 0)
(-3.86078783e-12 0 0)
(-3.91579213e-12 0 0)
(-3.4948777e-12 0 0)
(-4.02396434e-12 0 0)
(-3.83614015e-12 0 0)
(-3.43362964e-12 0 0)
(-2.75736704e-12 0 0)
(-3.53287026e-12 0 0)
(-2.94109486e-12 0 0)
(-3.22027014e-12 0 0)
(-3.67136664e-12 0 0)
(-2.98988017e-12 0 0)
(-2.87703249e-12 0 0)
(-3.06656574e-12 0 0)
(-2.67005772e-12 0 0)
(-3.28088612e-12 0 0)
(-2.43695749e-12 0 0)
(-3.66004712e-12 0 0)
(-3.41086516e-12 0 0)
(-3.01952284e-12 0 0)
(-1.8691125e-12 0 0)
(-2.76197917e-12 0 0)
(-2.88895251e-12 0 0)
(-2.92271303e-12 0 0)
(-2.42347579e-12 0 0)
(-1.84585758e-12 0 0)
(-3.66243158e-12 0 0)
(-1.48779662e-12 0 0)
(-2.06301078e-12 0 0)
(-2.39436247e-12 0 0)
(-2.43973208e-12 0 0)
(-1.50862948e-12 0 0)
(-2.10501472e-12 0 0)
(-2.00093331e-12 0 0)
(-1.71312652e-12 0 0)
(-2.49900273e-12 0 0)
(-2.46038544e-12 0 0)
(-3.39322548e-12 0 0)
(-2.59569109e-12 0 0)
(-3.2891739e-12 0 0)
(-3.14999569e-12 0 0)
(-2.65534112e-12 0 0)
(-2.76197232e-12 0 0)
(-2.34719981e-12 0 0)
(-2.7410539e-12 0 0)
(-2.25915368e-12 0 0)
(-3.28692436e-12 0 0)
(-3.01171827e-12 0 0)
(-3.21501924e-12 0 0)
(-3.40151761e-12 0 0)
(-2.84743106e-12 0 0)
(-4.02367569e-12 0 0)
(-3.24961352e-12 0 0)
(-4.20901076e-12 0 0)
(-3.65097425e-12 0 0)
(-3.54843958e-12 0 0)
(-3.09262744e-12 0 0)
(-4.19314963e-12 0 0)
(-4.94426623e-12 0 0)
(-3.172742e-12 0 0)
(-3.04072309e-12 0 0)
(-3.19918183e-12 0 0)
(-3.28375926e-12 0 0)
(-3.60701135e-12 0 0)
(-3.73110441e-12 0 0)
(-2.60209136e-12 0 0)
(-3.55872548e-12 0 0)
(-3.33361641e-12 0 0)
(-3.24033922e-12 0 0)
(-2.60619501e-12 0 0)
(-3.18424325e-12 0 0)
(-2.08274421e-12 0 0)
(-1.76768725e-12 0 0)
(-1.6860442e-12 0 0)