/*--------------------------------*- C++ -*----------------------------------*\
| =========                 |                                                 |
| \\      /  F ield         | OpenFOAM: The Open Source CFD Toolbox           |
|  \\    /   O peration     | Version:  2206                                  |
|   \\  /    A nd           | Website:  www.openfoam.com                      |
|    \\/     M anipulation  |                                                 |
\*---------------------------------------------------------------------------*/
FoamFile
{
    version     2.0;
    format      ascii;
    arch        "LSB;label=32;scalar=64";
    class       volScalarField;
    location    "7.8e-06";
    object      p;
}
// * * * * * * * * * * * * * * * * * * * * * * * * * * * * * * * * * * * * * //

dimensions      [1 -1 -2 0 0 0 0];

internalField   nonuniform List<scalar> 
3183
(
101325
101325
101325
101325
101325
101325
101325
101325
101325
101325
101325
101325
101325
101325
101325
101325
101325
101325
101325
101325
101325
101325
101325
101325
101325
101325
101325
101325
101325
101325
101325
101325
101325
101325
101325
101325
101325
101325
101325
101325
101325
101325
101325
101325
101325
101325
101325
101325
101325
101325
101325
101325
101325
101325
101325
101325
101325
101325
101325
101325
101325
101325
101325
101325
101325
101325
101325
101325
101325
101325
101325
101325
101325
101325
101325
101325
101325
101325
101325
101325
101325
101325
101325
101325
101325
101325
101325
101325
101325
101325
101325
101325
101325
101325
101325
101325
101325
101325
101325
101325
101325
101325
101325
101325
101325
101325
101325
101325
101325
101325
101325
101325
101325
101325
101325
101325
101325
101325
101325
101325
101325
101325
101325
101325
101325
101325
101325
101325
101325
101325
101325
101325
101325
101325
101325
101325
101325
101325
101325
101325
101325
101325
101325
101325
101325
101325
101325
101325
101325
101325
101325
101325
101325
101325
101325
101325
101325
101325
101325
101325
101325
101325
101325
101325
101325
101325
101325
101325
101325
101325
101325
101325
101325
101325
101325
101325
101325
101325
101325
101325
101325
101325
101325
101325
101325
101325
101325
101325
101325
101325
101325
101325
101325
101325
101325
101325
101325
101325
101325
101325
101325
101325
101325
101325
101325
101325
101325
101325
101325
101325
101325
101325
101325
101325
101325
101325
101325
101325
101325
101325
101325
101325
101325
101325
101325
101325
101325
101325
101325
101325
101325
101325
101325
101325
101325
101325
101325
101325
101325
101325
101325
101325
101325
101325
101325
101325
101325
101325
101325
101325
101325
101325
101325
101325
101325
101325
101325
101325
101325
101325
101325
101325
101325
101325
101325
101325
101325
101325
101325
101325
101325
101325
101325
101325
101325
101325
101325
101325
101325
101325
101325
101325
101325
101325
101325
101325
101325
101325
101325
101325
101325
101325
101325
101325
101325
101325
101325
101325
101325
101325
101325
101325
101325
101325
101325
101325
101325
101325
101325
101325
101325
101325
101325
101325
101325
101325
101325
101325
101325
101325
101325
101325
101325
101325
101325
101325
101325
101325
101325
101325
101325
101325
101325
101325
101325
101325
101325
101325
101325
101325
101325
101325
101325
101325
101325
101325
101325
101325
101325
101325
101325
101325
101325
101325
101325
101325
101325
101325
101325
101325
101325
101325
101325
101325
101325
101325
101325
101325
101325
101325
101325
101325
101325
101325
101325
101325
101325
101325
101325
101325
101325
101325
101325
101325
101325
101325
101325
101325
101325
101325
101325
101325
101325
101325
101325
101325
101325
101325
101325
101325
101325
101325
101325
101325
101325
101325
101325
101325
101325
101325
101325
101325
101325
101325
101325
101325
101325
101325
101325
101325
101325
101325
101325
101325
101325
101325
101325
101325
101325
101325
101325
101325
101325
101325
101325
101325
101325
101325
101325
101325
101325
101325
101325
101325
101325
101325
101325
101325
101325
101325
101325
101325
101325
101325
101325
101325
101325
101325
101325
101325
101325
101325
101325
101325
101325
101325
101325
101325
101325
101325
101325
101325
101325
101325
101325
101325
101325
101325
101325
101325
101325
101325
101325
101325
101325
101325
101325
101325
101325
101325
101325
101325
101325
101325
101325
101325
101325
101325
101325
101325
101325
101325
101325
101325
101325
101325
101325
101325
101325
101325
101325
101325
101325
101325
101325
101325
101325
101325
101325
101325
101325
101325
101325
101325
101325
101325
101325
101325
101325
101325
101325
101325
101325
101325
101325
101325
101325
101325
101325
101325
101325
101325
101325
101325
101325
101325
101325
101325
101325
101325
101325
101325
101325
101325
101325
101325
101325
101325
101325
101325
101325
101325
101325
101325
101325
101325
101325
101325
101325
101325
101325
101325
101325
101325
101325
101325
101325
101325
101325
101325
101325
101325
101325
101325
101325
101325
101325
101325
101325
101325
101325
101325
101325
101325
101325
101325
101325
101325
101325
101325
101325
101325
101325
101325
101325
101325
101325
101325
101325
101325
101325
101325
101325
101325
101325
101325
101325
101325
101325
101325
101325
101325
101325
101325
101325
101325
101325
101325
101325
101325
101325
101325
101325
101325
101325
101325
101325
101325
101325
101325
101325
101325
101325
101325
101325
101325
101325
101325
101325
101325
101325
101325
101325
101325
101325
101325
101325
101325
101325
101325
101325
101325
101325
101325
101325
101325
101325
101325
101325
101325
101325
101325
101325
101325
101325
101325
101325
101325
101325
101325
101325
101325
101325
101325
101325
101325
101325
101325
101325
101325
101325
101325
101325
101325
101325
101325
101325
101325
101325
101325
101325
101325
101325
101325
101325
101325
101325
101325
101325
101325
101325
101325
101325
101325
101325
101325
101325
101325
101325
101325
101325
101325
101325
101325
101325
101325
101325
101325
101325
101325
101325
101325
101325
101325
101325
101325
101325
101325
101325
101325
101325
101325
101325
101325
101325
101325
101325
101325
101325
101325
101325
101325
101325
101325
101325
101325
101325
101325
101325
101325
101325
101325
101325
101325
101325
101325
101325
101325
101325
101325
101325
101325
101325
101325
101325
101325
101325
101325
101325
101325
101325
101325
101325
101325
101325
101325
101325
101325
101325
101325
101325
101325
101325
101325
101325
101325
101325
101325
101325
101325
101325
101325
101325
101325
101325
101325
101325
101325
101325
101325
101325
101325
101325
101325
101325
101325
101325
101325
101325
101325
101325
101325
101325
101325
101325
101325
101325
101325
101325
101325
101325
101325
101325
101325
101325
101325
101325
101325
101325
101325
101325
101325
101325
101325
101325
101325
101325
101325
101325
101325
101325
101325
101325
101325
101325
101325
101325
101325
101325
101325
101325
101325
101325
101325
101325
101325
101325
101325
101325
101325
101325
101325
101325
101325
101325
101325
101325
101325
101325
101325
101325
101325
101325
101325
101325
101325
101325
101325
101325
101325
101325
101325
101325
101325
101325
101325
101325
101325
101325
101325
101325
101325
101325
101325
101325
101325
101325
101325
101325
101325
101325
101325
101325
101325
101325
101325
101325
101325
101325
101325
101325
101325
101325
101325
101325
101325
101325
101325
101325
101325
101325
101325
101325
101325
101325
101325
101325
101325
101325
101325
101325
101325
101325
101325
101325
101325
101325
101325
101325
101325
101325
101325
101325
101325
101325
101325
101325
101325
101325
101325
101325
101325
101325
101325
101325
101325
101325
101325
101325
101325
101325
101325
101325
101325
101325
101325
101325
101325
101325
101325
101325
101325
101325
101325
101325
101325
101325
101325
101325
101325
101325
101325
101325
101325
101325
101325
101325
101325
101325
101325
101325
101325
101325
101325
101325
101325
101325
101325
101325
101325
101325
101325
101325
101325
101325
101325
101325
101325
101325
101325
101325
101325
101325
101325
101325
101325
101325
101325
101325
101325
101325
101325
101325
101325
101325
101325
101325
101325
101325
101325
101325
101325
101325
101325
101325
101325
101325
101325
101325
101325
101325
101325
101325
101325
101325
101325
101325
101325
101325
101325
101325
101325
101325
101325
101325
101325
101325
101325
101325
101325
101325
101325
101325
101325
101325
101325
101325
101325
101325
101325
101325
101325
101325
101325
101325
101325
101325
101325
101325
101325
101325
101325
101325
101325
101325
101325
101325
101325
101325
101325
101325
101325
101325
101325
101325
101325
101325
101325
101325
101325
101325
101325
101325
101325
101325
101325
101325
101325
101325
101325
101325
101325
101325
101325
101325
101325
101325
101325
101325
101325
101325
101325
101325
101325
101325
101325
101325
101325
101325
101325
101325
101325
101325
101325
101325
101325
101325
101325
101325
101325
101325
101325
101325
101325
101325
101325
101325
101325
101325
101325
101325
101325
101325
101325
101325
101325
101325
101325
101325
101325
101325
101325
101325
101325
101325
101325
101325
101325
101325
101325
101325
101325
101325
101325
101325
101325
101325
101325
101325
101325
101325
101325
101325
101325
101325
101325
101325
101325
101325
101325
101325
101325
101325
101325
101325
101325
101325
101325
101325
101325
101325
101325
101325
101325
101325
101325
101325
101325
101325
101325
101325
101325
101325
101325
101325
101325
101325
101325
101325
101325
101325
101325
101325
101325
101325
101325
101325
101325
101325
101325
101325
101325
101325
101325
101325
101325
101325
101325
101325
101325
101325
101325
101325
101325
101325
101325
101325
101325
101325
101325
101325
101325
101325
101325
101325
101325
101325
101325
101325
101325
101325
101325
101325
101325
101325
101325
101325
101325
101325
101325
101325
101325
101325
101325
101325
101325
101325
101325
101325
101325
101325
101325
101325
101325
101325
101325
101325
101325
101325
101325
101325
101325
101325
101325
101325
101325
101325
101325
101325
101325
101325
101325
101325
101325
101325
101325
101325
101325
101325
101325
101325
101325
101325
101325
101325
101325
101325
101325
101325
101325
101325
101325
101325
101325
101325
101325
101325
101325
101325
101325
101325
101325
101325
101325
101325
101325
101325
101325
101325
101325
101325
101325
101325
101325
101325
101325
101325
101325
101325
101325
101325
101325
101325
101325
101325
101325
101325
101325
101325
101325
101325
101325
101325
101325
101325
101325
101325
101325
101325
101325
101325
101325
101325
101325
101325
101325
101325
101325
101325
101325
101325
101325
101325
101325
101325
101325
101325
101325
101325
101325
101325
101325
101325
101325
101325
101325
101325
101325
101325
101325
101325
101325
101325
101325
101325
101325
101325
101325
101325
101325
101325
101325
101325
101325
101325
101325
101325
101325
101325
101325
101325
101325
101325
101325
101325
101325
101325
101325
101325
101325
101325
101325
101325
101325
101325
101325
101325
101325
101325
101325
101325
101325
101325
101325
101325
101325
101325
101325
101325
101325
101325
101325
101325
101325
101325
101325
101325
101325
101325
101325
101325
101325
101325
101325
101325
101325
101325
101325
101325
101325
101325
101325
101325
101325
101325
101325
101325
101325
101325
101325
101325
101325
101325
101325
101325
101325
101325
101325
101325
101325
101325
101325
101325
101325
101325
101325
101325
101325
101325
101325
101325
101325
101325
101325
101325
101325
101325
101325
101325
101325
101325
101325
101325
101325
101325
101325
101325
101325
101325
101325
101325
101325
101325
101325
101325
101325
101325
101325
101325
101325
101325
101325
101325
101325
101325
101325
101325
101325
101325
101325
101325
101325
101325
101325
101325
101325
101325
101325
101325
101325
101325
101325
101325
101325
101325
101325
101325
101325
101325
101325
101325
101325
101325
101325
101325
101325
101325
101325
101325
101325
101325
101325
101325
101325
101325
101325
101325
101325
101325
101325
101325
101325
101325
101325
101325
101325
101325
101325
101325
101325
101325
101325
101325
101325
101325
101325
101325
101325
101325
101325
101325
101325
101325
101325
101325
101325
101325
101325
101325
101325
101325
101325
101325
101325
101325
101325
101325
101325
101325
101325
101325
101325
101325
101325
101325
101325
101325
101325
101325
101325
101325
101325
101325
101325
101325
101325
101325
101325
101325
101325
101325
101325
101325
101325
101325
101325
101325
101325
101325
101325
101325
101325
101325
101325
101325
101325
101325
101325
101325
101325
101325
101325
101325
101325
101325
101325
101325
101325
101325
101325
101325
101325
101325
101325
101325
101325
101325
101325
101325
101325
101325
101325
101325
101325
101325
101325
101325
101325
101325
101325
101325
101325
101325
101325
101325
101325
101325
101325
101325
101325
101325
101325
101325
101325
101325
101325
101325
101325
101325
101325
101325
101325
101325
101325
101325
101325
101325
101325
101325
101325
101325
101325
101325
101325
101325
101325
101325
101325
101325
101325
101325
101325
101325
101325
101325
101325
101325
101325
101325
101325
101325
101325
101325
101325
101325
101325
101325
101325
101325
101325
101325
101325
101325
101325
101325
101325
101325
101325
101325
101325
101325
101325
101325
101325
101325
101325
101325
101325
101325
101325
101325
101325
101325
101325
101325
101325
101325
101325
101325
101325
101325
101325
101325
101325
101325
101325
101325
101325
101325
101325
101325
101325
101325
101325
101325
101325
101325
101325
101325
101325
101325
101325
101325
101325
101325
101325
101325
101325
101325
101325
101325
101325
101325
101325
101325
101325
101325
101325
101325
101325
101325
101325
101325
101325
101325
101325
101325
101325
101325
101325
101325
101325
101325
101325
101325
101325
101325
101325
101325
101325
101325
101325
101325
101325
101325
101325
101325
101325
101325
101325
101325
101325
101325
101325
101325
101325
101325
101325
101325
101325
101325
101325
101325
101325
101325
101325
101325
101325
101325
101325
101325
101325
101325
101325
101325
101325
101325
101325
101325
101325
101325
101325
101325
101325
101325
101325
101325
101325
101325
101325
101325
101325
101325
101325
101325
101325
101325
101325
101325
101325
101325
101325
101325
101325
101325
101325
101325
101325
101325
101325
101325
101325
101325
101325
101325
101325
101325
101325
101325
101325
101325
101325
101325
101325
101325
101325
101325
101325
101325
101325
101325
101325
101325
101325
101325
101325
101325
101325
101325
101325
101325
101325
101325
101325
101325
101325
101325
101325
101325
101325
101325
101325
101325
101325
101325
101325
101325
101325
101325
101325
101325
101325
101325
101325
101325
101325
101325
101325
101325
101325
101325
101325
101325
101325
101325
101325
101325
101325
101325
101325
101325
101325
101325
101325
101325
101325
101325
101325
101325
101325
101325
101325
101325
101325
101325
101325
101325
101325
101325
101325
101325
101325
101325
101325
101325
101325
101325
101325
101325
101325
101325
101325
101325
101325
101325
101325
101325
101325
101325
101325
101325
101325
101325
101325
101325
101325
101325
101325
101325
101325
101325
101325
101325
101325
101325
101325
101325
101325
101325
101325
101325
101325
101325
101325
101325
101325
101325
101325
101325
101325
101325
101325
101325
101325
101325
101325
101325
101325
101325
101325
101325
101325
101325
101325
101325
101325
101325
101325
101325
101325
101325
101325
101325
101325
101325
101325
101325
101325
101325
101325
101325
101325
101325
101325
101325
101325
101325
101325
101325
101325
101325
101325
101325
101325
101325
101325
101325
101325
101325
101325
101325
101325
101325
101325
101325
101325
101325
101325
101325
101325
101325
101325
101325
101325
101325
101325
101325
101325
101325
101325
101325
101325
101325
101325
101325
101325
101325
101325
101325
101325
101325
101325
101325
101325
101325
101325
101325
101325
101325
101324.999
101324.999
101324.999
101324.999
101324.999
101324.999
101324.999
101324.999
101324.999
101324.999
101324.999
101324.999
101324.999
101324.999
101324.998
101324.998
101324.998
101324.998
101324.998
101324.998
101324.998
101324.997
101324.997
101324.997
101324.997
101324.996
101324.996
101324.996
101324.996
101324.995
101324.995
101324.994
101324.994
101324.994
101324.993
101324.993
101324.992
101324.992
101324.991
101324.99
101324.99
101324.989
101324.988
101324.987
101324.986
101324.985
101324.984
101324.983
101324.982
101324.98
101324.979
101324.978
101324.976
101324.974
101324.973
101324.971
101324.969
101324.966
101324.964
101324.962
101324.959
101324.956
101324.953
101324.95
101324.947
101324.943
101324.939
101324.935
101324.931
101324.926
101324.921
101324.916
101324.911
101324.905
101324.899
101324.892
101324.885
101324.878
101324.87
101324.862
101324.853
101324.844
101324.834
101324.824
101324.813
101324.801
101324.789
101324.776
101324.762
101324.748
101324.732
101324.716
101324.699
101324.681
101324.662
101324.642
101324.621
101324.599
101324.576
101324.551
101324.525
101324.498
101324.469
101324.439
101324.407
101324.374
101324.339
101324.302
101324.263
101324.223
101324.18
101324.135
101324.088
101324.039
101323.988
101323.934
101323.878
101323.819
101323.757
101323.692
101323.625
101323.554
101323.481
101323.404
101323.323
101323.24
101323.152
101323.061
101322.966
101322.867
101322.764
101322.657
101322.545
101322.429
101322.308
101322.183
101322.052
101321.917
101321.777
101321.631
101321.48
101321.323
101321.161
101320.993
101320.819
101320.639
101320.452
101320.26
101320.061
101319.855
101319.643
101319.425
101319.199
101318.966
101318.727
101318.48
101318.226
101317.965
101317.696
101317.42
101317.137
101316.846
101316.547
101316.241
101315.927
101315.606
101315.276
101314.94
101314.596
101314.244
101313.884
101313.518
101313.144
101312.762
101312.374
101311.978
101311.575
101311.166
101310.75
101310.327
101309.899
101309.464
101309.023
101308.577
101308.125
101307.669
101307.207
101306.741
101306.271
101305.798
101305.32
101304.84
101304.357
101303.871
101303.384
101302.895
101302.405
101301.915
101301.424
101300.934
101300.445
101299.957
101299.471
101298.987
101298.507
101298.03
101297.556
101297.088
101296.624
101296.167
101295.715
101295.27
101294.833
101294.403
101293.982
101293.569
101293.167
101292.774
101292.392
101292.02
101291.661
101291.313
101290.978
101290.655
101290.346
101290.051
101289.77
101289.504
101289.252
101289.015
101288.794
101288.589
101288.4
101288.227
101288.07
101287.93
101287.806
101287.7
101287.61
101287.537
101287.481
101287.441
101287.419
101287.413
101287.424
101287.451
101287.494
101287.553
101287.628
101287.719
101287.824
101287.945
101288.079
101288.228
101288.391
101288.566
101288.754
101288.955
101289.167
101289.39
101289.624
101289.868
101290.122
101290.384
101290.655
101290.933
101291.219
101291.511
101291.809
101292.112
101292.419
101292.731
101293.046
101293.364
101293.684
101294.006
101294.329
101294.652
101294.975
101295.297
101295.618
101295.938
101296.255
101296.57
101296.881
101297.189
101297.493
101297.792
101298.087
101298.377
101298.662
101298.94
101299.213
101299.48
101299.74
101299.994
101300.241
101300.481
101300.715
101300.941
101301.16
101301.372
101301.577
101301.775
101301.966
101302.15
101302.327
101302.497
101302.661
101302.818
101302.969
101303.113
101303.252
101303.385
101303.512
101303.634
101303.75
101303.862
101303.97
101304.073
101304.171
101304.266
101304.358
101304.446
101304.531
101304.613
101304.693
101304.771
101304.846
101304.919
101304.991
101305.061
101305.13
101305.198
101305.265
101305.331
101305.396
101305.461
101305.524
101305.588
101305.65
101305.712
101305.774
101305.834
101305.894
101305.954
101306.012
101306.07
101306.126
101306.181
101306.235
101306.287
101306.337
101306.386
101306.432
101306.476
101306.518
101306.557
101306.593
101306.627
101306.657
101306.684
101306.708
101306.728
101306.745
101306.758
101306.768
101306.775
101306.778
101306.778
101306.774
101306.768
101306.759
101306.748
101306.734
101306.719
101306.701
101306.683
101306.664
101306.645
101306.626
101306.608
101306.592
101306.577
101306.564
101306.555
101306.549
101306.547
101306.55
101306.559
101306.573
101306.593
101306.62
101306.654
101306.695
101306.744
101306.801
101306.866
101306.94
101307.021
101307.11
101307.207
101307.312
101307.424
101307.542
101307.667
101307.797
101307.931
101308.07
101308.211
101308.355
101308.499
101308.643
101308.785
101308.925
101309.062
101309.193
101309.319
101309.438
101309.549
101309.651
101309.744
101309.827
101309.899
101309.961
101310.012
101310.052
101310.081
101310.1
101310.11
101310.11
101310.104
101310.09
101310.072
101310.049
101310.023
101309.997
101309.97
101309.944
101309.92
101309.9
101309.884
101309.872
101309.866
101309.866
101309.871
101309.882
101309.9
101309.926
101309.959
101310.003
101310.056
101310.11
101310.175
101310.571
101310.782
101310.697
101309.568
101309.494
101309.532
101309.718
101309.739
101309.822
101309.816
101309.812
101309.782
101309.756
101309.727
101309.701
101309.678
101309.658
101309.639
101309.623
101309.609
101309.596
101309.585
101309.576
101309.569
101309.563
101309.559
101309.556
101309.556
101309.556
101309.559
101309.563
101309.569
101309.576
101309.584
101309.594
101309.605
101309.617
101309.63
101309.643
101309.657
101309.671
101309.685
101309.699
101309.712
101309.725
101309.737
101309.747
101309.756
101309.764
101309.77
101309.774
101309.775
101309.775
101309.772
101309.766
101309.757
101309.746
101309.731
101309.714
101309.694
101309.67
101309.643
101309.614
101309.581
101309.545
101309.506
101309.464
101309.42
101309.372
101309.322
101309.269
101309.214
101309.156
101309.097
101309.035
101308.971
101308.906
101308.839
101308.771
101308.701
101308.631
101308.559
101308.487
101308.414
101308.341
101308.267
101308.194
101308.12
101308.047
101307.974
101307.902
101307.83
101307.759
101307.689
101307.62
101307.552
101307.486
101307.421
101307.357
101307.295
101307.234
101307.175
101307.118
101307.063
101307.01
101306.959
101306.909
101306.862
101306.816
101306.773
101306.732
101306.693
101306.656
101306.621
101306.588
101306.558
101306.529
101306.502
101306.477
101306.455
101306.434
101306.415
101306.398
101306.383
101306.369
101306.357
101306.347
101306.338
101306.331
101306.325
101306.321
101306.318
101306.316
101306.315
101306.316
101306.317
101306.32
101306.323
101306.327
101306.332
101306.337
101306.343
101306.349
101306.356
101306.363
101306.371
101306.379
101306.387
101306.395
101306.403
101306.411
101306.418
101306.426
101306.434
101306.441
101306.448
101306.454
101306.46
101306.466
101306.471
101306.476
101306.48
101306.483
101306.486
101306.488
101306.489
101306.489
101306.489
101306.488
101306.486
101306.484
101306.48
101306.476
101306.471
101306.465
101306.458
101306.45
101306.441
101306.432
101306.421
101306.409
101306.397
101306.383
101306.369
101306.354
101306.338
101306.321
101306.304
101306.286
101306.268
101306.248
101306.228
101306.207
101306.186
101306.164
101306.141
101306.117
101306.093
101306.069
101306.043
101306.018
101305.991
101305.965
101305.938
101305.91
101305.882
101305.854
101305.825
101305.796
101305.767
101305.737
101305.707
101305.677
101305.646
101305.616
101305.585
101305.554
101305.523
101305.491
101305.46
101305.428
101305.396
101305.364
101305.332
101305.3
101305.268
101305.235
101305.203
101305.17
101305.138
101305.105
101305.072
101305.039
101305.006
101304.973
101304.94
101304.906
101304.873
101304.839
101304.805
101304.771
101304.736
101304.702
101304.667
101304.632
101304.597
101304.561
101304.525
101304.489
101304.453
101304.416
101304.378
101304.341
101304.302
101304.264
101304.224
101304.184
101304.144
101304.103
101304.061
101304.019
101303.976
101303.932
101303.888
101303.843
101303.796
101303.749
101303.702
101303.653
101303.603
101303.552
101303.5
101303.448
101303.394
101303.339
101303.282
101303.225
101303.166
101303.106
101303.045
101302.983
101302.919
101302.854
101302.787
101302.719
101302.649
101302.578
101302.506
101302.432
101302.356
101302.279
101302.2
101302.119
101302.037
101301.953
101301.868
101301.78
101301.691
101301.6
101301.508
101301.413
101301.317
101301.219
101301.12
101301.018
101300.914
101300.809
101300.702
101300.593
101300.482
101300.369
101300.255
101300.138
101300.02
101299.9
101299.778
101299.654
101299.528
101299.401
101299.272
101299.141
101299.008
101298.873
101298.737
101298.599
101298.459
101298.318
101298.175
101298.03
101297.884
101297.736
101297.587
101297.436
101297.284
101297.13
101296.975
101296.819
101296.661
101296.502
101296.342
101296.181
101296.019
101295.855
101295.691
101295.525
101295.359
101295.192
101295.024
101294.855
101294.686
101294.516
101294.346
101294.175
101294.003
101293.832
101293.66
101293.487
101293.315
101293.143
101292.97
101292.798
101292.626
101292.454
101292.283
101292.111
101291.941
101291.77
101291.601
101291.432
101291.264
101291.097
101290.93
101290.765
101290.601
101290.438
101290.276
101290.116
101289.957
101289.799
101289.643
101289.489
101289.337
101289.186
101289.038
101288.891
101288.747
101288.604
101288.464
101288.327
101288.191
101288.058
101287.928
101287.801
101287.676
101287.554
101287.434
101287.318
101287.205
101287.095
101286.987
101286.884
101286.783
101286.686
101286.592
101286.502
101286.415
101286.332
101286.253
101286.177
101286.105
101286.037
101285.973
101285.912
101285.856
101285.804
101285.755
101285.711
101285.671
101285.635
101285.604
101285.577
101285.553
101285.535
101285.52
101285.51
101285.505
101285.504
101285.507
101285.515
101285.527
101285.543
101285.564
101285.59
101285.62
101285.655
101285.694
101285.738
101285.786
101285.839
101285.896
101285.957
101286.024
101286.094
101286.169
101286.249
101286.333
101286.421
101286.514
101286.611
101286.712
101286.817
101286.927
101287.041
101287.159
101287.282
101287.408
101287.539
101287.673
101287.812
101287.954
101288.101
101288.251
101288.405
101288.563
101288.724
101288.889
101289.057
101289.23
101289.405
101289.584
101289.766
101289.952
101290.141
101290.332
101290.527
101290.725
101290.926
101291.13
101291.337
101291.546
101291.758
101291.973
101292.19
101292.41
101292.632
101292.856
101293.082
101293.311
101293.542
101293.775
101294.01
101294.246
101294.485
101294.725
101294.967
101295.21
101295.455
101295.701
101295.949
101296.197
101296.448
101296.699
101296.951
101297.214
101297.497
101297.801
101298.128
101298.48
101298.857
101299.263
101299.698
101300.165
101300.665
101301.201
101301.775
101302.388
101303.041
101303.738
101304.478
101305.263
101306.092
101306.967
101307.885
101308.845
101309.844
101310.877
101311.939
101313.023
101314.121
101315.221
101316.313
101317.384
101318.421
101319.408
101320.334
101321.185
101321.951
101322.624
101323.2
101323.678
101324.062
101324.36
101324.581
101324.739
101324.845
101324.913
101324.954
101324.977
101324.99
101324.996
101324.999
101325
101325
101325
101325
101325
101325
101325
101325
101325
101325
101325
101325
101325
101325
101325
101325
101325
101325
101325
101325
101325
101325
101325
101325
101325
101325
101325
101325
101325
)
;

boundaryField
{
    closed
    {
        type            zeroGradient;
    }
    open
    {
        type            waveTransmissive;
        gamma           1.25;
        fieldInf        101325;
        lInf            1;
        value           uniform 101325;
    }
    sides
    {
        type            empty;
    }
}


// ************************************************************************* //
