/*--------------------------------*- C++ -*----------------------------------*\
| =========                 |                                                 |
| \\      /  F ield         | OpenFOAM: The Open Source CFD Toolbox           |
|  \\    /   O peration     | Version:  2206                                  |
|   \\  /    A nd           | Website:  www.openfoam.com                      |
|    \\/     M anipulation  |                                                 |
\*---------------------------------------------------------------------------*/
FoamFile
{
    version     2.0;
    format      ascii;
    arch        "LSB;label=32;scalar=64";
    class       surfaceScalarField;
    location    "7.8e-06";
    object      phi;
}
// * * * * * * * * * * * * * * * * * * * * * * * * * * * * * * * * * * * * * //

dimensions      [1 0 -1 0 0 0 0];

oriented        oriented;

internalField   nonuniform List<scalar> 
3182
(
2.72508045e-18
-2.43789815e-18
5.13250995e-19
-1.06674533e-18
-8.52203364e-22
-9.03261663e-24
-6.58854935e-25
-1.95148172e-29
1.064008e-25
6.36871319e-24
9.7432151e-23
5.54409997e-19
3.61137392e-18
-1.46129866e-18
1.44215156e-19
-6.2215822e-19
3.92352853e-19
-3.27483231e-18
-3.9943578e-18
4.73571179e-18
2.42078188e-20
2.53678806e-22
1.82846563e-22
5.17971785e-19
2.14173048e-18
1.84838885e-18
3.39981926e-18
4.58173665e-19
-1.45042372e-18
-1.02935546e-18
-2.03961764e-18
-4.23487838e-18
-2.38446033e-18
-2.14556157e-18
-5.98477622e-19
4.76985934e-19
-4.89694077e-19
-1.02364203e-18
-1.69402301e-19
-4.10017304e-19
-1.8402982e-18
-2.54584091e-18
-1.41333378e-18
-9.76513496e-19
-6.44270766e-19
-6.56966069e-19
-2.20585872e-19
-1.08896755e-18
-5.44874955e-19
-7.54667448e-19
-2.18773449e-19
2.36561586e-19
1.73783612e-18
1.18975335e-18
2.60399062e-18
2.83450385e-18
4.34750408e-18
4.997341e-18
5.64924741e-18
4.34358975e-18
5.21832247e-18
5.20832818e-18
6.93597383e-18
6.51053304e-18
6.9841088e-18
6.97443794e-18
9.57647498e-18
9.55940822e-18
1.13299761e-17
1.26008499e-17
1.47814231e-17
1.48834478e-17
1.61099061e-17
1.65077011e-17
1.65009969e-17
1.65337619e-17
1.78179161e-17
1.83462098e-17
1.84243082e-17
1.85428432e-17
1.80410233e-17
1.81770255e-17
1.64300356e-17
1.54729182e-17
1.62196032e-17
1.55211964e-17
1.50000606e-17
1.14639796e-17
1.20419793e-17
1.18657224e-17
1.12219113e-17
1.05639384e-17
6.45112306e-18
7.30009264e-18
6.30340986e-18
6.82858495e-18
2.93318292e-18
2.03828604e-18
7.29008735e-18
3.71797983e-18
2.42807386e-18
5.95138321e-18
3.4411007e-18
6.25169504e-18
5.86484599e-18
3.53045272e-18
3.1623877e-18
1.07093174e-18
3.53213409e-18
3.14234429e-18
2.87444789e-18
3.67869412e-18
4.163475e-18
4.42136487e-18
4.09736165e-18
4.44329259e-19
8.43429253e-19
3.19186765e-18
-2.85782466e-19
-7.95327387e-19
-1.22967209e-18
-1.28421024e-18
-5.2254092e-19
-3.66118419e-18
-2.87140905e-18
-2.93982538e-18
-4.63018298e-18
-4.70091497e-18
-2.68955289e-18
-1.31728525e-18
-4.16480446e-18
-6.45432664e-18
-7.18598188e-18
-7.22742828e-18
-6.74715765e-18
-6.09228741e-18
-3.17392495e-18
-3.76143404e-18
-6.86980178e-18
-6.54223114e-18
-1.0898596e-17
-1.24389825e-17
-8.51437575e-18
-9.89508428e-18
-1.05689162e-17
-1.15749215e-17
-1.54372553e-17
-1.83790029e-17
-1.93064888e-17
-1.68124317e-17
-1.87569519e-17
-1.87146913e-17
-1.92564247e-17
-2.21301139e-17
-2.20871239e-17
-2.2723295e-17
-2.05907695e-17
-2.12458241e-17
-1.8403205e-17
-2.08970697e-17
-2.30134381e-17
-1.90991988e-17
-1.86389391e-17
-1.66413076e-17
-1.95850935e-17
-2.0579913e-17
-2.32817109e-17
-2.38529814e-17
-2.81769545e-17
-2.48993546e-17
-2.51130094e-17
-2.33173908e-17
-2.24664703e-17
-2.57787575e-17
-2.74099074e-17
-2.82952941e-17
-3.07101639e-17
-2.62849783e-17
-2.6487852e-17
-2.64643897e-17
-2.82396459e-17
-2.8187291e-17
-2.96272055e-17
-3.10360356e-17
-3.37778677e-17
-3.22396221e-17
-3.19218044e-17
-3.13978498e-17
-3.29485424e-17
-3.24971446e-17
-3.22606498e-17
-3.40616268e-17
-3.40333606e-17
-3.49145423e-17
-3.52891971e-17
-3.81431198e-17
-3.56015076e-17
-3.63321101e-17
-3.54317569e-17
-3.73470981e-17
-3.53387881e-17
-3.5559244e-17
-3.55403195e-17
-3.88638457e-17
-3.87018034e-17
-3.72973903e-17
-3.37241622e-17
-3.18117907e-17
-3.228843e-17
-3.59870571e-17
-3.63314715e-17
-3.50144325e-17
-3.72492133e-17
-3.60425812e-17
-3.87420307e-17
-3.72361881e-17
-3.91500243e-17
-3.67402682e-17
-3.99545584e-17
-3.91951544e-17
-3.99273251e-17
-4.25964443e-17
-4.08807342e-17
-3.96645521e-17
-4.27199364e-17
-4.17705313e-17
-4.62363102e-17
-4.83805579e-17
-4.93096314e-17
-4.85655087e-17
-5.04380022e-17
-5.04004332e-17
-5.16508563e-17
-5.30280202e-17
-5.65173211e-17
-5.87590664e-17
-5.43775095e-17
-5.35240111e-17
-5.42700002e-17
-5.22164491e-17
-5.02392612e-17
-5.12079657e-17
-5.13142963e-17
-5.35845741e-17
-5.35665591e-17
-5.40808019e-17
-5.66449349e-17
-5.38779909e-17
-5.54484492e-17
-5.11168784e-17
-5.4390485e-17
-5.56553295e-17
-5.22049904e-17
-5.46656466e-17
-5.46068008e-17
-5.32154052e-17
-5.60641481e-17
-5.68863027e-17
-5.8924612e-17
-6.01113864e-17
-6.11071712e-17
-6.03243776e-17
-6.29788981e-17
-6.41484324e-17
-6.50171197e-17
-6.52358773e-17
-6.45379057e-17
-6.64665364e-17
-6.40922832e-17
-6.49757427e-17
-6.29996725e-17
-6.0072836e-17
-6.25418596e-17
-6.39082e-17
-6.32741428e-17
-6.3013329e-17
-6.00580862e-17
-6.23569279e-17
-6.31344783e-17
-6.44103713e-17
-6.51547007e-17
-6.52338051e-17
-6.61546251e-17
-6.60465891e-17
-6.41741668e-17
-6.60080789e-17
-6.8552469e-17
-6.71937003e-17
-6.44550631e-17
-6.81190705e-17
-6.73217663e-17
-6.81842443e-17
-6.76043428e-17
-6.72870136e-17
-6.73352811e-17
-6.81833948e-17
-6.70445862e-17
-6.71141133e-17
-6.70883156e-17
-7.182577e-17
-7.36498262e-17
-6.98348042e-17
-7.24294482e-17
-7.373726e-17
-7.37499972e-17
-7.81549644e-17
-7.59227369e-17
-7.22860724e-17
-7.35049551e-17
-7.35764007e-17
-7.39167757e-17
-7.65004769e-17
-7.40630206e-17
-7.67745263e-17
-7.39825316e-17
-7.86089111e-17
-7.53650354e-17
-7.85311284e-17
-7.89086434e-17
-8.0856989e-17
-8.46396416e-17
-8.28005239e-17
-8.61509755e-17
-8.35257019e-17
-8.17424831e-17
-8.07771642e-17
-7.90358199e-17
-8.30693107e-17
-8.39354116e-17
-8.17240633e-17
-7.66406871e-17
-7.9400292e-17
-8.02446719e-17
-7.66493769e-17
-7.76164562e-17
-7.79731585e-17
-7.60538076e-17
-8.01012911e-17
-7.68234926e-17
-7.40012278e-17
-7.68081252e-17
-7.62913223e-17
-7.68577544e-17
-7.8965658e-17
-7.93334069e-17
-8.03134621e-17
-7.94947382e-17
-7.80065141e-17
-8.10844703e-17
-7.86878587e-17
-7.64354103e-17
-7.34781323e-17
-7.72670015e-17
-7.59097017e-17
-7.53683559e-17
-7.44421555e-17
-7.28833857e-17
-7.58723527e-17
-7.6178819e-17
-7.52485193e-17
-7.47873438e-17
-7.41735057e-17
-7.40699301e-17
-7.59235294e-17
-7.63660156e-17
-7.75837319e-17
-7.58858802e-17
-7.44886257e-17
-6.97106919e-17
-7.18362798e-17
-6.70299079e-17
-6.74339117e-17
-6.58495769e-17
-6.53158337e-17
-6.32550474e-17
-6.28778197e-17
-5.83832821e-17
-5.7921787e-17
-5.7057737e-17
-5.48328767e-17
-5.7006857e-17
-5.48330758e-17
-5.64814434e-17
-5.56319552e-17
-5.41904057e-17
-5.5831342e-17
-5.68084915e-17
-5.82216465e-17
-5.43648928e-17
-5.76918785e-17
-5.72272567e-17
-5.30770765e-17
-5.43166247e-17
-5.04178432e-17
-5.08960297e-17
-5.20586259e-17
-5.36722637e-17
-5.3171472e-17
-5.18240739e-17
-5.07386802e-17
-4.60948045e-17
-5.0463232e-17
-5.05415276e-17
-4.98257338e-17
-4.92876477e-17
-4.87685243e-17
-4.29544602e-17
-4.74263036e-17
-4.62547816e-17
-4.61578816e-17
-4.65766028e-17
-4.52976927e-17
-4.62446488e-17
-4.62434955e-17
-4.63042692e-17
-4.35973285e-17
-4.49442485e-17
-4.32916165e-17
-4.39941544e-17
-4.36494632e-17
-4.40709612e-17
-4.4410656e-17
-4.06761585e-17
-4.13827681e-17
-4.31273741e-17
-4.15004959e-17
-4.08195655e-17
-3.8066294e-17
-3.66905158e-17
-3.87232369e-17
-3.87209955e-17
-3.64383424e-17
-3.86461028e-17
-3.58552358e-17
-3.79107243e-17
-3.35549612e-17
-3.27680683e-17
-3.48412196e-17
-3.28876009e-17
-2.93845201e-17
-3.46190137e-17
-3.28870964e-17
-3.60257019e-17
-3.57389238e-17
-3.51947602e-17
-3.73267054e-17
-3.6794817e-17
-3.57986248e-17
-3.69482491e-17
-3.40533619e-17
-3.78243736e-17
-3.80911595e-17
-3.75605549e-17
-3.62683012e-17
-3.53113811e-17
-3.37999049e-17
-3.26966554e-17
-3.1280149e-17
-3.07204527e-17
-3.23414376e-17
-3.09463215e-17
-2.89449075e-17
-2.81706336e-17
-3.03660934e-17
-2.79471449e-17
-2.94320343e-17
-2.84250707e-17
-2.43898294e-17
-2.27683725e-17
-2.06536391e-17
-1.99452345e-17
-1.83671361e-17
-1.87372621e-17
-1.73674999e-17
-1.78411076e-17
-1.85749188e-17
-1.68491458e-17
-1.4410483e-17
-1.59376102e-17
-1.58444178e-17
-1.55946332e-17
-1.9222938e-17
-1.68558438e-17
-1.49598489e-17
-1.26609511e-17
-1.18348129e-17
-1.53686237e-17
-1.74378598e-17
-1.66959943e-17
-2.05752397e-17
-1.83789987e-17
-2.00560974e-17
-2.20683199e-17
-2.2663257e-17
-2.0067044e-17
-1.95760371e-17
-1.87777897e-17
-1.6040446e-17
-1.47599889e-17
-1.50526622e-17
-1.39264021e-17
-1.19645247e-17
-1.07225092e-17
-1.06850014e-17
-6.62608623e-18
-6.59608167e-18
-6.62015063e-18
-6.77425432e-18
-6.83617281e-18
-7.9477229e-18
-4.71132325e-18
-7.09665922e-18
-6.47058224e-18
-6.98760811e-18
-5.12218985e-18
-7.7767743e-18
-9.67903275e-18
-5.76429877e-18
-2.70149255e-18
-3.4674887e-18
-1.93596548e-18
-1.50899461e-18
-3.05484949e-18
-5.60087178e-18
-6.59994235e-18
-6.39200798e-18
-5.37803123e-18
-4.90624563e-18
-1.93662151e-18
-1.314731e-18
-2.81357102e-18
-2.30993811e-18
-1.88575449e-18
3.83616074e-19
1.43619389e-18
1.37815405e-18
2.70714559e-18
3.73727488e-18
4.333331e-18
3.08391205e-18
3.81324132e-18
3.34063411e-18
5.58028839e-18
5.63754899e-18
4.85464794e-18
2.33797479e-18
6.13983011e-18
4.95805186e-18
5.44760412e-18
7.04291795e-18
6.99379309e-18
7.97216809e-18
9.5016519e-18
8.98483505e-18
9.55677501e-18
1.085611e-17
8.39031623e-18
8.59549724e-18
6.72633669e-18
7.94131097e-18
1.11989172e-17
1.24997496e-17
1.42279697e-17
1.32176748e-17
1.40672587e-17
1.39159614e-17
1.45839777e-17
1.8698328e-17
2.06630557e-17
1.97205716e-17
2.31682708e-17
2.58113111e-17
2.45299585e-17
2.44075992e-17
2.65251626e-17
2.5158051e-17
2.54513354e-17
2.56954859e-17
2.5811534e-17
2.5533827e-17
2.81065997e-17
3.2169952e-17
2.92850354e-17
3.27307616e-17
2.94498942e-17
2.74584931e-17
2.8923915e-17
2.77501878e-17
2.77001122e-17
2.77519292e-17
2.86184481e-17
2.65053197e-17
2.72330921e-17
2.68865862e-17
2.51958632e-17
2.54837188e-17
2.47663618e-17
2.67238683e-17
2.6334914e-17
2.36850885e-17
2.07522155e-17
2.16131012e-17
2.28385558e-17
2.48268343e-17
2.54350309e-17
2.34792152e-17
2.47929571e-17
2.33730024e-17
2.21987432e-17
2.3314305e-17
2.1289638e-17
2.02187056e-17
2.06333127e-17
1.95840607e-17
2.18673349e-17
2.112967e-17
1.97489144e-17
2.00409482e-17
2.25162756e-17
2.23436118e-17
2.2680116e-17
2.22584809e-17
2.46882613e-17
2.35681062e-17
2.1164865e-17
1.95126076e-17
1.76718926e-17
1.90742032e-17
1.40008482e-17
1.74012076e-17
1.94056026e-17
1.83027522e-17
2.20965342e-17
1.6372631e-17
1.75714679e-17
2.17431439e-17
2.11835493e-17
1.99175341e-17
2.10267067e-17
2.04965924e-17
1.75483415e-17
1.75277732e-17
1.95732725e-17
2.17667997e-17
2.09903811e-17
2.09969891e-17
1.9126705e-17
2.17903375e-17
2.17636707e-17
2.02468995e-17
1.93463359e-17
1.67599006e-17
1.84034663e-17
1.68661835e-17
1.66895185e-17
1.87232574e-17
1.59277598e-17
1.37099197e-17
1.35145197e-17
1.325274e-17
1.59316152e-17
1.37904513e-17
1.12832207e-17
1.27389176e-17
1.28958509e-17
1.63805728e-17
1.48479237e-17
1.4045149e-17
1.52845131e-17
1.58109928e-17
1.58462253e-17
1.58654879e-17
1.80314305e-17
1.95173487e-17
2.09906805e-17
2.14506889e-17
2.0289155e-17
2.16879453e-17
1.97879329e-17
2.13844928e-17
2.08247429e-17
1.96636687e-17
2.45145938e-17
2.57031108e-17
2.4605115e-17
2.59987668e-17
2.7706437e-17
2.44399787e-17
2.37214756e-17
2.33857772e-17
2.432035e-17
2.66689137e-17
2.67817615e-17
2.87420015e-17
2.87063705e-17
2.93837977e-17
2.87661839e-17
2.74065414e-17
2.78755444e-17
3.00834021e-17
3.26630039e-17
3.44351753e-17
3.47235498e-17
3.45397518e-17
3.49676317e-17
3.3884142e-17
3.57366002e-17
3.55303589e-17
3.20747779e-17
3.55406987e-17
3.55509315e-17
3.35232634e-17
3.1533793e-17
3.14263875e-17
3.35825551e-17
3.36240588e-17
3.10987895e-17
2.8552439e-17
2.89091709e-17
2.80047526e-17
2.68574832e-17
2.68149479e-17
2.75474204e-17
2.43922005e-17
2.250654e-17
2.0651208e-17
2.43304262e-17
2.22959784e-17
1.714278e-17
1.93145868e-17
1.67546846e-17
1.80411449e-17
1.86533341e-17
2.12897783e-17
2.05104321e-17
2.06738116e-17
2.2625986e-17
2.18536007e-17
2.14487325e-17
2.48476947e-17
2.17330776e-17
2.28419873e-17
2.39701776e-17
2.4582326e-17
2.33717628e-17
2.31412285e-17
2.14375844e-17
2.20277595e-17
2.19387028e-17
2.08228195e-17
2.16074316e-17
1.99778739e-17
2.05808621e-17
2.06490713e-17
2.1015606e-17
2.27644605e-17
2.15490766e-17
1.92432465e-17
1.90142788e-17
2.11518525e-17
2.03574008e-17
2.23603615e-17
1.83461045e-17
1.9291027e-17
1.92078861e-17
2.0547032e-17
2.33236224e-17
2.09227752e-17
1.96245431e-17
2.11692653e-17
2.00755893e-17
2.28035684e-17
1.9105542e-17
1.78447248e-17
2.09768748e-17
2.0150767e-17
2.43259553e-17
2.69577194e-17
2.54342982e-17
2.44322537e-17
2.6943336e-17
2.65945381e-17
2.63764699e-17
2.41042016e-17
2.5922812e-17
2.30470035e-17
2.6803103e-17
2.90373543e-17
2.9588359e-17
2.79680646e-17
2.50383533e-17
2.47491206e-17
1.98788454e-17
2.24592369e-17
2.12292114e-17
2.05137329e-17
2.01473501e-17
1.37832339e-17
1.413598e-17
1.20854138e-17
1.47502499e-17
1.53115779e-17
1.51228957e-17
1.93950704e-17
1.96215767e-17
2.26828167e-17
2.3671587e-17
2.12200936e-17
1.92531644e-17
1.51771203e-17
1.44496071e-17
1.58907151e-17
1.50643341e-17
1.52759056e-17
1.51558443e-17
1.48236989e-17
1.45690798e-17
1.45906232e-17
1.29911999e-17
1.611826e-17
1.51575082e-17
1.80374357e-17
1.78308809e-17
1.60348605e-17
1.99527481e-17
1.80857915e-17
1.75600374e-17
1.60504695e-17
1.93874209e-17
2.10973978e-17
1.94097607e-17
1.80252649e-17
1.40888343e-17
1.38085017e-17
1.34513441e-17
1.52686027e-17
1.77877783e-17
1.52720228e-17
1.59447637e-17
1.67689274e-17
1.52992114e-17
1.69036093e-17
1.60533018e-17
2.04801787e-17
1.90301915e-17
1.70411219e-17
2.02372031e-17
2.22437424e-17
2.03059327e-17
1.72849246e-17
1.77812697e-17
1.91352831e-17
2.06230157e-17
2.38067543e-17
2.37455153e-17
2.50921043e-17
2.65565385e-17
2.41687311e-17
2.43562825e-17
2.76184524e-17
2.73001829e-17
2.8123061e-17
2.74127972e-17
2.94085239e-17
3.06146852e-17
3.0529862e-17
3.09320301e-17
2.94063099e-17
3.2205584e-17
3.54410849e-17
3.50637464e-17
3.37550292e-17
3.39441574e-17
3.50451489e-17
3.53755492e-17
3.90425649e-17
3.88202394e-17
3.99109024e-17
3.69061693e-17
3.60641751e-17
3.75983909e-17
3.61022464e-17
3.74270771e-17
3.42559551e-17
3.34528174e-17
3.10779548e-17
3.40043316e-17
3.48840917e-17
3.47455804e-17
3.72923226e-17
3.72499234e-17
3.711753e-17
3.42704148e-17
3.78695274e-17
3.57849751e-17
3.72487791e-17
3.67496461e-17
3.93791603e-17
3.75513295e-17
4.00802654e-17
3.67354024e-17
3.79315433e-17
3.7966741e-17
3.86897774e-17
3.75314381e-17
3.85677893e-17
3.89712321e-17
4.07067577e-17
4.00634393e-17
4.33039074e-17
4.12932175e-17
3.92478514e-17
4.15403339e-17
4.26029697e-17
4.30592226e-17
4.24440004e-17
4.38812517e-17
4.43439118e-17
4.40145769e-17
4.96749497e-17
4.50271062e-17
4.70543186e-17
4.80180352e-17
4.87369507e-17
4.69187565e-17
4.56957835e-17
4.26580698e-17
4.32595329e-17
4.52163501e-17
4.4426236e-17
4.26239086e-17
4.07701504e-17
4.08007815e-17
4.30379634e-17
4.52755673e-17
4.46437516e-17
4.51266047e-17
4.05515557e-17
4.06033348e-17
3.97861516e-17
3.94031628e-17
4.03924699e-17
4.46062712e-17
4.41069697e-17
3.95153361e-17
4.32252551e-17
4.32847785e-17
4.24611732e-17
4.53241223e-17
4.3333295e-17
4.02550423e-17
4.17794754e-17
3.78966844e-17
3.5969055e-17
3.55404357e-17
3.32346216e-17
3.48117548e-17
3.61580416e-17
3.8820328e-17
4.28663417e-17
4.44388516e-17
4.22456514e-17
4.16396881e-17
4.06608648e-17
3.7540891e-17
3.68903165e-17
3.77790804e-17
3.82936679e-17
3.55382436e-17
3.59384859e-17
3.42641369e-17
3.52327264e-17
3.5328937e-17
3.63970915e-17
3.42238227e-17
3.56366782e-17
3.36445527e-17
3.18098804e-17
3.34133591e-17
3.35542756e-17
3.27627757e-17
3.51437684e-17
3.29570536e-17
3.43778068e-17
3.32608851e-17
3.298801e-17
3.24920293e-17
3.51570884e-17
3.62356725e-17
3.62655272e-17
3.84449438e-17
3.74591637e-17
3.71603108e-17
3.43948243e-17
3.28571238e-17
3.37407446e-17
3.65686211e-17
3.73374733e-17
3.90351396e-17
4.33875763e-17
4.19891009e-17
4.02812724e-17
4.24399081e-17
4.49582183e-17
4.37206075e-17
4.69437052e-17
4.77057618e-17
4.74672315e-17
4.63340166e-17
4.41553199e-17
4.65439568e-17
4.18825526e-17
4.2495605e-17
4.31804433e-17
4.30949598e-17
3.96335553e-17
4.21662006e-17
4.22973033e-17
4.0141576e-17
3.88316385e-17
3.85908148e-17
4.27423803e-17
3.98785436e-17
3.79424076e-17
4.16748492e-17
4.10629899e-17
3.73150533e-17
3.53491333e-17
3.36880593e-17
3.4107859e-17
3.2386068e-17
3.11415795e-17
2.79101502e-17
2.82681513e-17
2.5608182e-17
2.5428814e-17
2.87551418e-17
2.76136866e-17
2.54898962e-17
2.3844189e-17
2.25670042e-17
2.04771829e-17
2.17440978e-17
2.21482889e-17
2.00244897e-17
1.89015872e-17
1.99512493e-17
2.1912392e-17
1.85545929e-17
1.72539843e-17
1.38718674e-17
1.38852041e-17
1.66263675e-17
1.64635071e-17
1.36692084e-17
1.514037e-17
1.35496465e-17
1.5443969e-17
1.61957785e-17
1.46798831e-17
1.18731295e-17
1.3298947e-17
1.03266162e-17
1.4256826e-17
1.28401794e-17
1.24100228e-17
1.2648737e-17
1.3241688e-17
8.41054571e-18
8.30694548e-18
9.99575561e-18
1.10132675e-17
8.92391725e-18
8.28311483e-18
8.70813198e-18
1.16887455e-17
8.55026973e-18
6.51796118e-18
7.48281651e-18
7.38931879e-18
7.26530657e-18
7.62466199e-18
7.23764947e-18
8.49258254e-18
4.4148332e-18
1.32681517e-18
3.46068547e-20
-5.98392501e-19
-8.85086625e-19
1.41729771e-18
-4.3757893e-18
-2.14710573e-18
-2.56183067e-18
-1.76513829e-18
-2.7006647e-18
-1.40874929e-18
-3.17455217e-18
-1.94646805e-18
-5.87199531e-18
-5.20476665e-18
-8.47615393e-18
-9.56262866e-18
-9.86147214e-18
-8.30154272e-18
-6.38688686e-18
-7.28938339e-18
-7.8196969e-18
-6.00185954e-18
-5.35473283e-18
-6.83502799e-18
-6.12428007e-18
-7.93927918e-18
-1.08108361e-17
-7.13060635e-18
-9.62825582e-18
-1.0789998e-17
-9.80188286e-18
-1.08533237e-17
-8.00695436e-18
-1.06077509e-17
-1.21207529e-17
-1.39272671e-17
-1.30812652e-17
-1.53919184e-17
-1.25656694e-17
-1.56320562e-17
-1.45504149e-17
-1.56962426e-17
-1.31461775e-17
-1.65820769e-17
-1.06262033e-17
-1.07146301e-17
-1.48578211e-17
-1.67627043e-17
-1.85799595e-17
-1.86859895e-17
-2.08475631e-17
-2.01339862e-17
-1.94304833e-17
-1.98220578e-17
-2.06333599e-17
-1.67620543e-17
-1.88970283e-17
-2.24848021e-17
-2.24603776e-17
-2.58177454e-17
-2.44396027e-17
-2.63831767e-17
-2.63877427e-17
-2.12860283e-17
-1.88374179e-17
-1.8312619e-17
-2.04526755e-17
-1.69203117e-17
-1.82988238e-17
-1.89089183e-17
-1.97449157e-17
-2.20195864e-17
-2.08841174e-17
-1.91361713e-17
-2.17296986e-17
-1.93570613e-17
-2.20578625e-17
-1.95361086e-17
-1.88970562e-17
-2.14815422e-17
-2.02144084e-17
-2.08472505e-17
-2.21625317e-17
-1.82886618e-17
-2.00394423e-17
-1.89556586e-17
-1.68678588e-17
-1.71423387e-17
-1.95302553e-17
-1.95246274e-17
-2.34591002e-17
-2.45871009e-17
-2.39649244e-17
-2.54498147e-17
-2.78409879e-17
-2.61361232e-17
-2.77770848e-17
-2.85376781e-17
-2.75382843e-17
-2.76801778e-17
-3.22091363e-17
-3.05998478e-17
-3.5741165e-17
-2.93853638e-17
-2.81413733e-17
-3.18873487e-17
-2.94241189e-17
-2.23508124e-17
-2.92637641e-17
-2.90035545e-17
-2.84539703e-17
-3.35568643e-17
-3.75047787e-17
-3.52711864e-17
-3.9374042e-17
-3.78231738e-17
-4.11551417e-17
-4.19003434e-17
-3.86919383e-17
-4.28374099e-17
-4.06956189e-17
-4.05912567e-17
-4.63589301e-17
-4.43379753e-17
-4.55950416e-17
-4.57250053e-17
-4.82827267e-17
-4.61371775e-17
-4.60997651e-17
-4.54300242e-17
-4.37548836e-17
-4.79939363e-17
-4.61896143e-17
-4.89750277e-17
-4.59010718e-17
-4.86760584e-17
-4.63106736e-17
-4.89111799e-17
-4.66575413e-17
-4.92789961e-17
-4.86234096e-17
-4.91373464e-17
-4.44276037e-17
-4.47555366e-17
-4.52990194e-17
-4.62790303e-17
-4.57677323e-17
-4.78846343e-17
-4.86314292e-17
-4.88117412e-17
-4.69691941e-17
-4.86229905e-17
-4.78457916e-17
-4.53204961e-17
-4.64156487e-17
-4.35644718e-17
-4.4847614e-17
-4.52382167e-17
-4.09112034e-17
-4.28133289e-17
-4.7337667e-17
-4.63206131e-17
-4.41878536e-17
-4.19902061e-17
-4.0894839e-17
-3.9187868e-17
-4.11066145e-17
-4.3024824e-17
-4.01838982e-17
-3.89560021e-17
-4.12572604e-17
-4.49164872e-17
-4.3416016e-17
-4.13975615e-17
-4.32881861e-17
-4.24708305e-17
-4.15705373e-17
-4.01457948e-17
-3.74272429e-17
-3.46599136e-17
-3.63459807e-17
-3.53016398e-17
-3.55899354e-17
-3.51334838e-17
-3.47233308e-17
-3.30350121e-17
-3.52205017e-17
-3.44010954e-17
-3.37199181e-17
-3.5962316e-17
-3.22620128e-17
-3.42798097e-17
-3.35407121e-17
-3.50807504e-17
-3.25281113e-17
-2.99177484e-17
-3.27924624e-17
-3.43478879e-17
-3.24518676e-17
-3.30569811e-17
-3.25326809e-17
-3.28320379e-17
-3.07602723e-17
-3.129405e-17
-3.0530689e-17
-2.80165862e-17
-2.69639442e-17
-2.57255474e-17
-2.73355457e-17
-2.49546825e-17
-2.86687987e-17
-2.85697799e-17
-2.80182711e-17
-2.74630878e-17
-2.65092582e-17
-2.44074478e-17
-1.96455511e-17
-2.21587983e-17
-2.49677759e-17
-2.27943636e-17
-2.21903204e-17
-2.31762369e-17
-2.27645073e-17
-2.73909766e-17
-2.55209222e-17
-2.71642264e-17
-2.42896283e-17
-2.65683368e-17
-2.74250962e-17
-2.669781e-17
-2.96100246e-17
-2.86812378e-17
-2.44110608e-17
-2.34804496e-17
-2.02645089e-17
-2.06651237e-17
-1.95198458e-17
-2.07867e-17
-2.11637863e-17
-2.20941828e-17
-2.24055306e-17
-2.04720123e-17
-1.93298737e-17
-1.7600828e-17
-1.67561899e-17
-1.4053101e-17
-1.75208818e-17
-1.56761083e-17
-1.61097695e-17
-1.70822452e-17
-1.58371342e-17
-1.80237209e-17
-1.87040314e-17
-1.92190682e-17
-2.12774828e-17
-1.97484952e-17
-2.0208963e-17
-1.66429565e-17
-1.93886024e-17
-2.12308708e-17
-1.94110298e-17
-2.4378915e-17
-2.36576719e-17
-2.43541601e-17
-2.42019936e-17
-2.2558978e-17
-2.36622547e-17
-2.3315286e-17
-2.42744169e-17
-2.49443661e-17
-2.79198737e-17
-2.73351183e-17
-2.68052921e-17
-2.72742078e-17
-2.82370617e-17
-2.9342505e-17
-2.59518827e-17
-2.83568784e-17
-2.95488377e-17
-2.91741875e-17
-2.82563679e-17
-2.91406581e-17
-2.92093711e-17
-2.69594067e-17
-2.99048855e-17
-2.77261366e-17
-2.75238934e-17
-2.57311166e-17
-2.57191554e-17
-2.6623903e-17
-2.61005323e-17
-2.79965356e-17
-2.80095432e-17
-2.83837032e-17
-2.68740522e-17
-2.50953156e-17
-2.52708319e-17
-2.68906487e-17
-2.70949275e-17
-2.62434442e-17
-2.56479401e-17
-2.52570458e-17
-2.71403288e-17
-2.53027696e-17
-2.43165233e-17
-2.34655583e-17
-2.79321448e-17
-2.79953646e-17
-2.55857582e-17
-2.92418104e-17
-2.79573377e-17
-2.76486476e-17
-2.7609927e-17
-2.86756311e-17
-3.08813873e-17
-3.31375065e-17
-3.37400431e-17
-3.20632845e-17
-2.97571679e-17
-2.96435813e-17
-3.16903319e-17
-3.11395588e-17
-2.73834427e-17
-3.04868192e-17
-2.85279512e-17
-2.89855658e-17
-2.71413822e-17
-2.8563001e-17
-2.75852936e-17
-2.83749457e-17
-2.6926073e-17
-3.20950477e-17
-2.98875128e-17
-3.11300949e-17
-2.83513745e-17
-2.67277351e-17
-2.54377272e-17
-2.71162933e-17
-2.21048353e-17
-2.04831793e-17
-2.03204232e-17
-2.07843534e-17
-2.15284966e-17
-1.89853165e-17
-1.55738014e-17
-1.58822593e-17
-1.67945265e-17
-1.6093042e-17
-1.47822374e-17
-1.29596988e-17
-1.17554801e-17
-1.32413759e-17
-1.27152964e-17
-1.24144737e-17
-1.32338999e-17
-1.42647979e-17
-1.61570524e-17
-1.61029323e-17
-2.02780974e-17
-2.13568489e-17
-2.17011406e-17
-2.15363771e-17
-1.96007233e-17
-2.31227634e-17
-2.33903459e-17
-2.31737661e-17
-2.46010626e-17
-2.03654268e-17
-2.21018989e-17
-2.39865142e-17
-2.0959137e-17
-2.41501288e-17
-2.12647273e-17
-1.89190217e-17
-1.88317804e-17
-1.99441018e-17
-2.336047e-17
-1.82008909e-17
-1.93081828e-17
-2.12430748e-17
-2.19787087e-17
-2.37111781e-17
-2.36374982e-17
-2.50779748e-17
-2.1177606e-17
-2.37193272e-17
-2.49444262e-17
-2.32692951e-17
-2.47027901e-17
-2.63597066e-17
-2.35923545e-17
-2.57797664e-17
-2.80738725e-17
-2.81001509e-17
-2.8122715e-17
-2.81687348e-17
-2.71184866e-17
-2.5757539e-17
-2.72529456e-17
-3.20616169e-17
-2.97875376e-17
-2.93241587e-17
-2.78313444e-17
-2.86697745e-17
-2.73028675e-17
-3.19565468e-17
-2.90467466e-17
-2.94877084e-17
-2.93434601e-17
-2.84868908e-17
-2.76867036e-17
-2.59560813e-17
-2.85994572e-17
-2.715067e-17
-3.01885815e-17
-3.01844689e-17
-2.93649321e-17
-2.76992233e-17
-2.99650071e-17
-3.29861123e-17
-3.0156589e-17
-3.18989161e-17
-3.28765661e-17
-3.16723878e-17
-3.25319294e-17
-3.06968553e-17
-3.09849735e-17
-3.01386521e-17
-2.96437433e-17
-2.83937877e-17
-2.9331448e-17
-2.9374338e-17
-2.83283138e-17
-3.26673813e-17
-3.13012237e-17
-3.20647633e-17
-3.2200652e-17
-3.30965021e-17
-2.96413669e-17
-3.01027839e-17
-2.86865641e-17
-2.6196114e-17
-2.68069188e-17
-2.52897145e-17
-2.62631567e-17
-2.94747583e-17
-2.82864271e-17
-2.9307603e-17
-2.88550242e-17
-2.81401611e-17
-3.00722632e-17
-2.83189851e-17
-2.81495866e-17
-3.01815035e-17
-2.90568936e-17
-2.70290548e-17
-2.8530205e-17
-2.45525854e-17
-2.42781682e-17
-2.16039112e-17
-2.3988507e-17
-2.47262933e-17
-2.12989193e-17
-2.10581272e-17
-1.55401321e-17
-1.68461298e-17
-1.6180977e-17
-1.72130673e-17
-1.81931935e-17
-1.82769805e-17
-2.04398749e-17
-2.10042102e-17
-2.05195896e-17
-2.08223616e-17
-2.09040932e-17
-2.08609434e-17
-1.87530466e-17
-2.18266434e-17
-2.2777058e-17
-2.11246749e-17
-2.21207858e-17
-2.30895537e-17
-2.50794497e-17
-2.40529606e-17
-2.40049217e-17
-2.31723285e-17
-2.61062954e-17
-2.25361734e-17
-2.23981618e-17
-2.45677764e-17
-2.50456531e-17
-2.29884889e-17
-2.17547314e-17
-2.7585456e-17
-2.68320717e-17
-2.90244904e-17
-2.78447358e-17
-2.42638169e-17
-2.59210343e-17
-2.66276569e-17
-2.34017913e-17
-2.61750815e-17
-2.47751738e-17
-2.96860149e-17
-2.70822687e-17
-2.18479737e-17
-2.29247871e-17
-2.47110679e-17
-2.15801148e-17
-2.36321825e-17
-2.22319656e-17
-2.3509674e-17
-2.29960644e-17
-2.17762941e-17
-1.7713054e-17
-2.09579833e-17
-2.20096111e-17
-2.06599098e-17
-1.88047179e-17
-1.92941702e-17
-1.7669139e-17
-2.05522637e-17
-1.97755758e-17
-1.61531822e-17
-1.77148205e-17
-1.71336925e-17
-1.96831169e-17
-1.74285727e-17
-1.7989012e-17
-1.62326624e-17
-1.86960579e-17
-2.13194189e-17
-1.87827724e-17
-1.88811611e-17
-1.5708388e-17
-1.87877419e-17
-1.71052627e-17
-1.66616913e-17
-1.91650306e-17
-2.00750286e-17
-1.87246287e-17
-1.95561822e-17
-1.75264304e-17
-1.78133059e-17
-1.61405944e-17
-1.71221647e-17
-1.96973205e-17
-1.90432857e-17
-2.17411134e-17
-1.78432186e-17
-1.80128249e-17
-1.96452839e-17
-1.63595387e-17
-1.76545573e-17
-1.51866065e-17
-1.55644912e-17
-1.31452482e-17
-9.95770284e-18
-7.51181374e-18
-5.58361714e-18
-1.42190924e-18
1.48640181e-18
5.6780227e-19
-1.07255514e-18
3.8234238e-19
-1.04079581e-19
-1.09616695e-18
-2.13394165e-18
-6.84940073e-19
1.05567863e-18
-1.14924414e-19
2.56199743e-19
4.75483899e-19
-1.10761731e-20
3.09067533e-19
2.07478079e-18
4.78440788e-18
6.86974492e-18
1.67583678e-18
2.7941152e-18
1.17875268e-18
9.81749592e-19
1.14204589e-18
1.83887866e-18
-9.89885256e-19
2.07047583e-18
-9.11077046e-19
2.42551582e-18
2.8973365e-18
4.38623748e-18
4.25526166e-18
3.52688995e-18
1.84685145e-18
2.54327625e-18
4.56426304e-18
3.67975715e-18
7.45573513e-18
5.13637753e-18
5.97691751e-18
7.91890425e-18
1.08585109e-17
1.17632166e-17
1.23809735e-17
1.3360765e-17
1.38239253e-17
1.49627347e-17
1.5002862e-17
1.4465673e-17
1.2406189e-17
1.29407932e-17
1.14368406e-17
1.48381187e-17
1.13365773e-17
1.3313989e-17
1.6585821e-17
1.67456213e-17
1.66278746e-17
1.57322276e-17
1.56037752e-17
1.62766942e-17
1.5545636e-17
1.37032439e-17
1.23719559e-17
1.4073757e-17
2.00658872e-17
1.95162549e-17
1.99603806e-17
2.30593738e-17
1.88302289e-17
2.00936844e-17
1.80219687e-17
1.85685267e-17
1.82793204e-17
2.0216219e-17
1.78714434e-17
1.82893373e-17
1.93147998e-17
2.25334253e-17
2.29025835e-17
2.01087849e-17
2.03773075e-17
2.09335503e-17
2.37978087e-17
2.55270219e-17
2.33040887e-17
2.30920789e-17
2.58041374e-17
2.44275383e-17
2.39593932e-17
2.44760889e-17
2.60330617e-17
2.48086971e-17
2.47546486e-17
2.49352388e-17
2.69622316e-17
2.57688702e-17
2.77681226e-17
2.5871026e-17
2.52223472e-17
2.57547612e-17
2.58769128e-17
2.85867238e-17
2.845575e-17
2.90415248e-17
2.80796319e-17
3.14447549e-17
3.21113175e-17
3.22559338e-17
3.19727722e-17
3.32620551e-17
3.88426992e-17
3.80956574e-17
3.89790424e-17
4.16509937e-17
4.1184375e-17
4.24873817e-17
4.07403469e-17
4.27963738e-17
4.50420434e-17
4.50034507e-17
4.48977084e-17
4.47171132e-17
4.1536873e-17
4.08651097e-17
3.94778713e-17
4.4684284e-17
4.35090172e-17
4.43560339e-17
4.88351051e-17
4.86254435e-17
4.86662925e-17
4.96941746e-17
4.84132431e-17
4.75574679e-17
4.37604146e-17
4.66853037e-17
4.59156923e-17
4.57760483e-17
4.74099239e-17
4.69371128e-17
4.4881276e-17
4.77183726e-17
4.76947917e-17
4.5059031e-17
4.65096674e-17
4.66115802e-17
4.90423352e-17
4.90355663e-17
5.28921192e-17
5.13321942e-17
5.36896069e-17
5.48903862e-17
5.70137476e-17
5.88725803e-17
5.97850676e-17
6.18368166e-17
6.25554884e-17
6.25366842e-17
6.41063916e-17
6.67489179e-17
6.67961094e-17
6.75322422e-17
7.07643824e-17
7.40996513e-17
7.49314502e-17
7.62149599e-17
7.32881289e-17
7.25683564e-17
7.19187918e-17
7.45182513e-17
7.22655008e-17
7.00072055e-17
7.32321646e-17
7.4514673e-17
7.34074671e-17
7.33248504e-17
7.60835173e-17
7.3644018e-17
7.37431365e-17
7.05019919e-17
7.06619004e-17
7.1281602e-17
7.31957879e-17
7.03426497e-17
7.30084151e-17
7.38538955e-17
7.31984363e-17
7.76554152e-17
7.90490133e-17
7.53173866e-17
7.46973171e-17
7.8827767e-17
7.78666686e-17
7.78149204e-17
7.72966445e-17
7.9973463e-17
7.87848864e-17
7.90260073e-17
7.66966605e-17
7.86207348e-17
7.71610687e-17
7.65999798e-17
7.68858701e-17
7.84147427e-17
8.03063031e-17
7.63558175e-17
7.77964833e-17
7.92213828e-17
7.99736306e-17
7.97144568e-17
7.99720927e-17
8.03064277e-17
8.13984241e-17
8.2222443e-17
8.26619742e-17
8.12203285e-17
8.3452051e-17
8.23579339e-17
7.9813869e-17
7.92399721e-17
7.94186452e-17
7.86917394e-17
7.94443057e-17
8.04357882e-17
8.21369613e-17
8.14569997e-17
7.96680366e-17
8.29725589e-17
8.2089702e-17
8.42234746e-17
8.46871067e-17
8.43602844e-17
8.3270116e-17
8.34410699e-17
8.67546543e-17
8.64752115e-17
8.58663871e-17
8.38300745e-17
8.74847084e-17