/*--------------------------------*- C++ -*----------------------------------*\
| =========                 |                                                 |
| \\      /  F ield         | OpenFOAM: The Open Source CFD Toolbox           |
|  \\    /   O peration     | Version:  2206                                  |
|   \\  /    A nd           | Website:  www.openfoam.com                      |
|    \\/     M anipulation  |                                                 |
\*---------------------------------------------------------------------------*/
FoamFile
{
    version     2.0;
    format      ascii;
    arch        "LSB;label=32;scalar=64";
    class       volScalarField;
    location    "7.8e-06";
    object      sourcePV;
}
// * * * * * * * * * * * * * * * * * * * * * * * * * * * * * * * * * * * * * //

dimensions      [1 -3 -1 0 0 0 0];

internalField   nonuniform List<scalar> 
3183
(
0
0
0
0
0
0
0
0
0
0
0
0
0
0
0
0
0
0
0
0
0
0
0
0
0
0
0
0
0
0
0
0
0
0
0
0
0
0
0
0
0
0
0
0
0
0
0
0
0
0
0
0
0
0
0
0
0
0
0
0
0
0
0
0
0
0
0
0
0
0
0
0
0
0
0
0
0
0
0
0
0
0
0
0
0
0
0
0
0
0
0
0
0
0
0
0
0
0
0
0
0
0
0
0
0
0
0
0
0
0
0
0
0
0
0
0
0
0
0
0
0
0
0
0
0
0
0
0
0
0
0
0
0
0
0
0
0
0
0
0
0
0
0
0
0
0
0
0
0
0
0
0
0
0
0
0
0
0
0
0
0
0
0
0
0
0
0
0
0
0
0
0
0
0
0
0
0
0
0
0
0
0
0
0
0
0
0
0
0
0
0
0
0
0
0
0
0
0
0
0
0
0
0
0
0
0
0
0
0
0
0
0
0
0
0
0
0
0
0
0
0
0
0
0
0
0
0
0
0
0
0
0
0
0
0
0
0
0
0
0
0
0
0
0
0
0
0
0
0
0
0
0
0
0
0
0
0
0
0
0
0
0
0
0
0
0
0
0
0
0
0
0
0
0
0
0
0
0
0
0
0
0
0
0
0
0
0
0
0
0
0
0
0
0
0
0
0
0
0
0
0
0
0
0
0
0
0
0
0
0
0
0
0
0
0
0
0
0
0
0
0
0
0
0
0
0
0
0
0
0
0
0
0
0
0
0
0
0
0
0
0
0
0
0
0
0
0
0
0
0
0
0
0
0
0
0
0
0
0
0
0
0
0
0
0
0
0
0
0
0
0
0
0
0
0
0
0
0
0
0
0
0
0
0
0
0
0
0
0
0
0
0
0
0
0
0
0
0
0
0
0
0
0
0
0
0
0
0
0
0
0
0
0
0
0
0
0
0
0
0
0
0
0
0
0
0
0
0
0
0
0
0
0
0
0
0
0
0
0
0
0
0
0
0
0
0
0
0
0
0
0
0
0
0
0
0
0
0
0
0
0
0
0
0
0
0
0
0
0
0
0
0
0
0
0
0
0
0
0
0
0
0
0
0
0
0
0
0
0
0
0
0
0
0
0
0
0
0
0
0
0
0
0
0
0
0
0
0
0
0
0
0
0
0
0
0
0
0
0
0
0
0
0
0
0
0
0
0
0
0
0
0
0
0
0
0
0
0
0
0
0
0
0
0
0
0
0
0
0
0
0
0
0
0
0
0
0
0
0
0
0
0
0
0
0
0
0
0
0
0
0
0
0
0
0
0
0
0
0
0
0
0
0
0
0
0
0
0
0
0
0
0
0
0
0
0
0
0
0
0
0
0
0
0
0
0
0
0
0
0
0
0
0
0
0
0
0
0
0
0
0
0
0
0
0
0
0
0
0
0
0
0
0
0
0
0
0
0
0
0
0
0
0
0
0
0
0
0
0
0
0
0
0
0
0
0
0
0
0
0
0
0
0
0
0
0
0
0
0
0
0
0
0
0
0
0
0
0
0
0
0
0
0
0
0
0
0
0
0
0
0
0
0
0
0
0
0
0
0
0
0
0
0
0
0
0
0
0
0
0
0
0
0
0
0
0
0
0
0
0
0
0
0
0
0
0
0
0
0
0
0
0
0
0
0
0
0
0
0
0
0
0
0
0
0
0
0
0
0
0
0
0
0
0
0
0
0
0
0
0
0
0
0
0
0
0
0
0
0
0
0
0
0
0
0
0
0
0
0
0
0
0
0
0
0
0
0
0
0
0
0
0
0
0
0
0
0
0
0
0
0
0
0
0
0
0
0
0
0
0
0
0
0
0
0
0
0
0
0
0
0
0
0
0
0
0
0
0
0
0
0
0
0
0
0
0
0
0
0
0
0
0
0
0
0
0
0
0
0
0
0
0
0
0
0
0
0
0
0
0
0
0
0
0
0
0
0
0
0
0
0
0
0
0
0
0
0
0
0
0
0
0
0
0
0
0
0
0
0
0
0
0
0
0
0
0
0
0
0
0
0
0
0
0
0
0
0
0
0
0
0
0
0
0
0
0
0
0
0
0
0
0
0
0
0
0
0
0
0
0
0
0
0
0
0
0
0
0
0
0
0
0
0
0
0
0
0
0
0
0
0
0
0
0
0
0
0
0
0
0
0
0
0
0
0
0
0
0
0
0
0
0
0
0
0
0
0
0
0
0
0
0
0
0
0
0
0
0
0
0
0
0
0
0
0
0
0
0
0
0
0
0
0
0
0
0
0
0
0
0
0
0
0
0
0
0
0
0
0
0
0
0
0
0
0
0
0
0
0
0
0
0
0
0
0
0
0
0
0
0
0
0
0
0
0
0
0
0
0
0
0
0
0
0
0
0
0
0
0
0
0
0
0
0
0
0
0
0
0
0
0
0
0
0
0
0
0
0
0
0
0
0
0
0
0
0
0
0
0
0
0
0
0
0
0
0
0
0
0
0
0
0
0
0
0
0
0
0
0
0
0
0
0
0
0
0
0
0
0
0
0
0
0
0
0
0
0
0
0
0
0
0
0
0
0
0
0
0
0
0
0
0
0
0
0
0
0
0
0
0
0
0
0
0
0
0
0
0
0
0
0
0
0
0
0
0
0
0
0
0
0
0
0
0
0
0
0
0
0
0
0
0
0
0
0
0
0
0
0
0
0
0
0
0
0
0
0
0
0
0
0
0
0
0
0
0
0
0
0
0
0
0
0
0
0
0
0
0
0
0
0
0
0
0
0
0
0
0
0
0
0
0
0
0
0
0
0
0
0
0
0
0
0
0
0
0
0
0
0
0
0
0
0
0
0
0
0
0
0
0
0
0
0
0
0
0
0
0
0
0
0
0
0
0
0
0
0
0
0
0
0
0
0
0
0
0
0
0
0
0
0
0
0
0
0
0
0
0
0
0
0
0
0
0
0
0
0
0
0
0
0
0
0
0
0
0
0
0
0
0
0
0
0
0
0
0
0
0
0
0
0
0
0
0
0
0
0
0
0
0
0
0
0
0
0
0
0
0
0
0
0
0
0
0
0
0
0
0
0
0
0
0
0
0
0
0
0
0
0
0
0
0
0
0
0
0
0
0
0
0
0
0
0
0
0
0
0
0
0
0
0
0
0
0
0
0
0
0
0
0
0
0
0
0
0
0
0
0
0
0
0
0
0
0
0
0
0
0
0
0
0
0
0
0
0
0
0
0
0
0
0
0
0
0
0
0
0
0
0
0
0
0
0
0
0
0
0
0
0
0
0
0
0
0
0
0
0
0
0
0
0
0
0
0
0
0
0
0
0
0
0
0
0
0
0
0
0
0
0
0
0
0
0
0
0
0
0
0
0
0
0
0
0
0
0
0
0
0
0
0
0
0
0
0
0
0
0
0
0
0
0
0
0
0
0
0
0
0
0
0
0
0
0
0
0
0
0
0
0
0
0
0
0
0
0
0
0
0
0
0
0
0
0
0
0
0
0
0
0
0
0
0
0
0
0
0
0
0
0
0
0
0
0
0
0
0
0
0
0
0
0
0
0
0
0
0
0
0
0
0
0
0
0
0
0
0
0
0
0
0
0
0
0
0
0
0
0
0
0
0
0
0
0
0
0
0
0
0
0
0
0
0
0
0
0
0
0
0
0
0
0
0
0
0
0
0
0
0
0
0
0
0
0
0
0
0
0
0
0
0
0
0
0
0
0
0
0
0
0
0
0
0
0
0
0
0
0
0
0
0
0
0
0
0
0
0
0
0
0
0
0
0
0
0
0
0
0
0
0
0
0
0
0
0
0
0
0
0
0
0
0
0
0
0
0
0
0
0
0
0
0
0
0
0
0
0
0
0
0
0
0
0
0
0
0
0
0
0
0
0
0
0
0
0
0
0
0
0
0
0
0
0
0
0
0
0
0
0
0
0
0
0
0
0
0
0
0
0
0
0
0
0
0
0
0
0
0
0
0
0
0
0
0
0
0
0
0
0
0
0
0
0
0
0
0
0
0
0
0
0
0
0
0
0
0
0
0
0
0
0
0
0
0
0
0
0
0
0
0
0
0
0
0
0
0
0
0
0
0
0
0
0
0
0
0
0
0
0
0
0
0
0
0
0
0
0
0
0
0
0
0
0
0
0
0
0
0
0
0
0
0
0
0
0
0
0
0
0
0
0
0
0
0
0
0
0
0
0
0
0
0
0
0
0
0
0
0
0
0
0
0
0
0
0
0
0
0
0
0
0
0
0
0
0
0
0
0
0
0
0
0
0
0
0
0
0
0
0
0
0
0
0
0
0
0
0
0
0
0
0
0
0
0
0
0
0
0
0
0
0
0
0
0
0
0
0
0
0
0
0
0
0
0
0
0
0
0
0
0
0
0
0
0
0
0
0
0
0
0
0
0
0
0
0
0
0
0
0
0
0
0
0
0
0
0
0
0
0
0
0
0
0
0
0
0
0
0
0
0
0
0
0
0
0
0
0
0
0
0
0
0
0
0
0
0
0
0
0
0
0
0
0
0
0
0
0
0
0
0
0
0
0
0
0
0
0
0
0
0
0
0
0
0
0
0
0
0
0
0
0
0
0
0
0
0
0
0
0
0
0
0
0
0
0
0
0
0
0
0
0
0
0
0
0
0
0
0
0
0
0
0
0
0
0
0
0
0
0
0
0
0
0
0
0
0
0
0
0
0
0
0
0
0
0
0
0
0
0
0
0
0
0
0
0
0
0
0
0
0
0
0
0
0
0
0
0
0
0
0
0
0
0
0
0
0
0
0
0
0
0
0
0
0
0
0
0
0
0
0
0
0
0
0
0
0
0
0
0
0
0
0
0
0
0
0
0
0
0
0
0
0
0
0
0
0
0
0
0
0
0
0
0
0
0
0
0
0
0
0
0
0
0
0
0
0
0
0
0
0
0
0
0
0
0
0
0
0
0
0
0
0
0
0
0
0
0
0
0
0
0
0
0
0
0
0
0
0
0
0
0
0
0
0
0
0
0
0
0
0
0
0
0
0
0
0
0
0
0
0
0
0
0
0
0
0
0
0
0
0
0
0
0
0
0
0
0
0
0
0
0
0
0
0
0
0
0
0
0
0
0
0
0
0
0
0
0
0
0
0
0
0
0
0
0
0
0
0
0
0
0
0
0
0
0
0
0
0
0
0
0
0
0
0
0
0
0
0
0
0
0
0
0
0
0
0
0
0
0
0
0
0
0
0
0
0
0
0
0
0
0
0
0
0
0
0
0
0
0
0
0
0
0
0
0
0
0
0
0
0
0
0
0
0
0
0
0
0
0
0
0
0
0
0
0
0
0
0
0
0
0
0
0
0
0
0
0
0
0
0
0
0
0
0
0
0
0
0
0
0
0
0
0
0
0
0
0
0
1.90583591e-300
0
5.423403e-297
0
1.41401234e-293
0
3.40840623e-290
0
7.65169832e-287
0
1.60958494e-283
0
3.18886782e-280
0
5.97597996e-277
0
1.06328214e-273
0
1.80200134e-270
0
2.91710164e-267
0
4.52181491e-264
0
6.72650732e-261
0
9.62116849e-258
0
1.32551103e-254
0
1.76171186e-251
0
2.26200807e-248
0
2.80940596e-245
0
3.37907686e-242
0
3.94005118e-239
0
4.45802892e-236
0
4.89894458e-233
0
5.2327546e-230
0
5.4368506e-227
0
5.49855857e-224
0
5.41634937e-221
0
5.19962009e-218
0
4.86715493e-215
0
4.44458478e-212
0
3.96129651e-209
8.14345679e-211
3.44727877e-206
1.47637171e-207
2.93033555e-203
1.8745408e-204
2.43397678e-200
2.04685026e-201
1.9761413e-197
2.04135262e-198
1.56875571e-194
1.90878632e-195
1.21801126e-191
1.69672246e-192
9.25164741e-189
1.44563872e-189
6.87642259e-186
1.18692534e-186
5.00238333e-183
9.42534079e-184
3.56245367e-180
7.25821291e-181
2.48403864e-177
5.43098823e-178
1.69619504e-174
3.95460307e-175
1.13439872e-171
2.80555472e-172
7.43165118e-169
1.94106263e-169
4.76963244e-166
1.31069045e-166
2.99921952e-163
8.64320285e-164
1.84796021e-160
5.56915688e-161
1.11575527e-157
3.50777538e-158
6.60179371e-155
2.1605142e-155
3.82816086e-152
1.3016498e-152
2.17553499e-149
7.67270822e-150
1.21170246e-146
4.42595235e-147
6.61424392e-144
2.49883129e-144
3.53844874e-141
1.38099591e-141
1.85516331e-138
7.47157495e-139
9.53168708e-136
3.95751345e-136
4.79900691e-133
2.05228335e-133
2.36753356e-130
1.04198117e-130
1.14437082e-127
5.17943379e-128
5.41900185e-125
2.52049881e-125
2.51363906e-122
1.20072739e-122
1.14198338e-119
5.59909875e-120
5.08071445e-117
2.55540626e-117
2.2132235e-114
1.14133329e-114
9.43801678e-112
4.98779389e-112
3.93915005e-109
2.13241049e-109
1.60876777e-106
8.91686231e-107
6.42757262e-104
3.64614914e-104
2.51158378e-101
1.45756948e-101
9.59554369e-99
5.69477617e-99
3.58324299e-96
2.17392673e-96
1.30743416e-93
8.10568833e-94
4.65951005e-91
2.95089971e-91
1.62130393e-88
1.04849757e-88
5.50560684e-86
3.63448479e-86
1.82372827e-83
1.22851038e-83
5.88993263e-81
4.04721505e-81
1.85361226e-78
1.29878596e-78
5.68105892e-76
4.05755983e-76
1.69458537e-73
1.23327094e-73
4.91608742e-71
3.64430148e-71
1.38602087e-68
1.0461688e-68
3.7945212e-66
2.91514999e-66
1.00784082e-63
7.87769283e-64
2.5944735e-61
2.062467e-61
6.46640487e-59
5.22582304e-59
1.5585516e-56
1.27992897e-56
3.62794366e-54
3.02629999e-54
8.14438368e-52
6.89770932e-52
1.76045025e-49
1.51310182e-49
3.65753419e-47
3.1887942e-47
7.28941184e-45
6.44336929e-45
1.3904966e-42
1.24552838e-42
2.5323801e-40
2.29745787e-40
4.39063853e-38
4.03220996e-38
7.22344086e-36
6.71130522e-36
1.12340434e-33
1.05532052e-33
1.64433389e-31
1.56080075e-31
2.2534717e-29
2.15986394e-29
2.87365851e-27
2.77917407e-27
3.38445273e-25
3.30022815e-25
3.64763704e-23
3.58331518e-23
3.55613798e-21
3.51620245e-21
3.08966445e-19
3.07141623e-19
2.34523313e-17
2.33999929e-17
1.51295814e-15
1.50985738e-15
7.96550895e-14
7.87957472e-14
3.20688766e-12
3.20120792e-12
1.80633748e-09
1.88776428e-09
0.916360229
2.61310256
10.0794777
9.39426366
2.62777535
2.11466476
0.267698242
0.238676859
0.0382034749
0.0361189662
0.00476266726
0.00471123288
0.000547058939
0.00054850229
6.36031403e-05
6.37834732e-05
1.32372537e-05
1.32392182e-05
8.44636229e-06
8.44829392e-06
8.03126483e-06
8.03147079e-06
7.99784767e-06
7.99787007e-06
7.99534918e-06
7.99534602e-06
7.99517185e-06
7.99518158e-06
7.99514249e-06
7.99517216e-06
7.99514424e-06
7.9951663e-06
7.99514554e-06
7.99517825e-06
7.99513816e-06
7.99516197e-06
7.99515258e-06
7.99514354e-06
7.99515531e-06
7.99514576e-06
7.99515741e-06
7.99514764e-06
7.99516565e-06
7.99515286e-06
7.99516127e-06
7.99515297e-06
7.99516511e-06
7.99515322e-06
7.99516193e-06
7.9951457e-06
7.99515694e-06
7.99514992e-06
7.99516223e-06
7.99514379e-06
7.99516182e-06
7.99515835e-06
7.99515221e-06
7.99516087e-06
7.99515642e-06
7.99515156e-06
7.9951555e-06
7.99515805e-06
7.99515233e-06
7.99516131e-06
7.99515536e-06
7.99514927e-06
7.99516228e-06
7.99514833e-06
7.9951575e-06
7.99514135e-06
7.99515675e-06
7.99514544e-06
7.99514975e-06
7.99515426e-06
7.99514262e-06
7.99516882e-06
7.99514643e-06
7.99516732e-06
7.99515972e-06
7.9951593e-06
7.99515148e-06
7.99516162e-06
7.99515454e-06
7.99516616e-06
7.99515118e-06
7.99516111e-06
7.99515489e-06
7.99515094e-06
7.99516326e-06
7.99514773e-06
7.99516153e-06
7.99515877e-06
7.99515593e-06
7.99516203e-06
7.99516153e-06
7.99516152e-06
7.99514622e-06
7.99515661e-06
7.99515705e-06
7.99515884e-06
7.99516622e-06
7.99515709e-06
7.99516551e-06
7.99516552e-06
7.99515324e-06
7.99515491e-06
7.99516241e-06
7.99516448e-06
7.99515272e-06
7.99515532e-06
7.99516145e-06
7.99514257e-06
7.9951601e-06
7.99514986e-06
7.99515854e-06
7.99515578e-06
7.99515818e-06
7.99515783e-06
7.99515902e-06
7.99516192e-06
7.99515254e-06
7.99516046e-06
7.99515405e-06
7.99517536e-06
7.99515391e-06
7.99516075e-06
7.99515006e-06
7.99516828e-06
7.99515884e-06
7.99516336e-06
7.99515023e-06
7.99516487e-06
7.99516731e-06
7.99517304e-06
7.99516641e-06
7.99516053e-06
7.99517572e-06
7.99515291e-06
7.99516804e-06
7.99515085e-06
7.99516176e-06
7.99515405e-06
7.99515575e-06
7.99515724e-06
7.99515915e-06
7.99516376e-06
7.99515746e-06
7.99515272e-06
7.99516583e-06
7.99515999e-06
7.99516703e-06
7.99514827e-06
7.9951687e-06
7.99516121e-06
7.99515788e-06
7.99517028e-06
7.99515964e-06
7.99516031e-06
7.99515721e-06
7.99517371e-06
7.99516963e-06
7.99515807e-06
7.99516887e-06
7.99515959e-06
7.9951735e-06
7.99516359e-06
7.99516661e-06
7.9951636e-06
7.99516255e-06
7.99515975e-06
7.99517035e-06
7.99515002e-06
7.99515894e-06
7.99516121e-06
7.99516038e-06
7.99516415e-06
7.9951615e-06
7.99516963e-06
7.99515785e-06
7.99517996e-06
7.99516864e-06
7.99517551e-06
7.99517227e-06
7.99516392e-06
7.99516736e-06
7.99516349e-06
7.99516776e-06
7.99516417e-06
7.99516109e-06
7.99516608e-06
7.99516974e-06
7.99516222e-06
7.99517004e-06
7.99516667e-06
7.99517344e-06
7.99516022e-06
7.99517e-06
7.99516325e-06
7.99517119e-06
7.99516125e-06
7.995169e-06
7.99515989e-06
7.99516817e-06
7.99516181e-06
7.9951619e-06
7.99516659e-06
7.99516635e-06
7.99516566e-06
7.99518062e-06
7.99516734e-06
7.99517277e-06
7.99516104e-06
7.99518124e-06
7.99516622e-06
7.99516079e-06
7.99517083e-06
7.99516626e-06
7.99517079e-06
7.99516366e-06
7.99517478e-06
7.99516184e-06
7.99517522e-06
7.9951573e-06
7.99516454e-06
7.99516764e-06
7.99516285e-06
7.99516634e-06
7.9951747e-06
7.99517247e-06
7.99517042e-06
7.99517398e-06
7.99516555e-06
7.99517227e-06
7.99517949e-06
7.99516438e-06
7.99516911e-06
7.99516917e-06
7.99518338e-06
7.99516643e-06
7.99518295e-06
7.99516662e-06
7.9951754e-06
7.99517071e-06
7.99516139e-06
7.99517111e-06
7.99518416e-06
7.99516154e-06
7.99517336e-06
7.99516188e-06
7.99516879e-06
7.99517083e-06
7.99517725e-06
7.99516581e-06
7.99517262e-06
7.99516268e-06
7.99517853e-06
7.99516561e-06
7.9951735e-06
7.99517676e-06
7.99516734e-06
7.99518041e-06
7.99517253e-06
7.99518007e-06
7.9951673e-06
7.99518265e-06
7.99516368e-06
7.9951735e-06
7.99516458e-06
7.99517522e-06
7.99516341e-06
7.99517903e-06
7.99516579e-06
7.99516719e-06
7.99518302e-06
7.99516622e-06
7.99518305e-06
7.99516609e-06
7.99517534e-06
7.9951749e-06
7.99516685e-06
7.99518267e-06
7.99516528e-06
7.99517655e-06
7.99517448e-06
7.99518004e-06
7.99516088e-06
7.99517542e-06
7.99516443e-06
7.99517466e-06
7.99517626e-06
7.99516797e-06
7.99516956e-06
7.99516824e-06
7.99517354e-06
7.99517514e-06
7.99516216e-06
7.99516623e-06
7.99517647e-06
7.99518519e-06
7.99517355e-06
7.99517249e-06
7.99517128e-06
7.99517585e-06
7.99518151e-06
7.99516748e-06
7.995181e-06
7.99517692e-06
7.99517168e-06
7.9951803e-06
7.99517734e-06
7.99518188e-06
7.99517291e-06
7.99517674e-06
7.9951796e-06
7.9951697e-06
7.99517961e-06
7.99518779e-06
7.99516289e-06
7.99518725e-06
7.99516784e-06
7.99518051e-06
7.99517395e-06
7.99518223e-06
7.99517484e-06
7.99517243e-06
7.99517686e-06
7.99518142e-06
7.99517355e-06
7.99518065e-06
7.99517802e-06
7.9951755e-06
7.99518828e-06
7.99517311e-06
7.99517144e-06
7.99517902e-06
7.9951693e-06
7.99518543e-06
7.99517309e-06
7.99517144e-06
7.99518421e-06
7.99517293e-06
7.99518362e-06
7.99517238e-06
7.99518581e-06
7.99517142e-06
7.99518477e-06
7.99518128e-06
7.99517592e-06
7.99518442e-06
7.99517769e-06
7.99518472e-06
7.9951839e-06
7.99517754e-06
7.99517437e-06
7.99519019e-06
7.99516545e-06
7.99518828e-06
7.99518338e-06
7.99518194e-06
7.99518425e-06
7.99517932e-06
7.99517662e-06
7.99518814e-06
7.99517605e-06
7.9951785e-06
7.99518311e-06
7.99518103e-06
7.99519547e-06
7.99517935e-06
7.99519214e-06
7.99518335e-06
7.99519402e-06
7.99518081e-06
7.99519422e-06
7.99517388e-06
7.99519365e-06
7.99517814e-06
7.99517818e-06
7.99518946e-06
7.99517789e-06
7.99518635e-06
7.99518712e-06
7.99518501e-06
7.99518549e-06
7.99518352e-06
7.99517219e-06
7.9951871e-06
7.99518171e-06
7.99517509e-06
7.99518903e-06
7.99518477e-06
7.99517934e-06
7.9951833e-06
7.99518524e-06
7.99518711e-06
7.99518828e-06
7.99519281e-06
7.9951929e-06
7.99518439e-06
7.9951847e-06
7.99518548e-06
7.99519319e-06
7.99517993e-06
7.99520355e-06
7.99517556e-06
7.99519428e-06
7.9951813e-06
7.99519204e-06
7.99518913e-06
7.99519047e-06
7.99518742e-06
7.99519074e-06
7.99518924e-06
7.99518417e-06
7.99519127e-06
7.99518804e-06
7.99518918e-06
7.99519024e-06
7.9951865e-06
7.99519111e-06
7.9951873e-06
7.99519175e-06
7.99517857e-06
7.99519832e-06
7.99518756e-06
7.99518828e-06
7.995192e-06
7.99519246e-06
7.9951868e-06
7.99519898e-06
7.9951929e-06
7.99519032e-06
7.99519223e-06
7.99520068e-06
7.99520101e-06
7.99519629e-06
7.99519337e-06
7.99520539e-06
7.99519468e-06
7.99519813e-06
7.99518722e-06
7.99519354e-06
7.99519168e-06
7.99519404e-06
7.99519898e-06
7.99519254e-06
7.99519502e-06
7.99520408e-06
7.99519591e-06
7.9951965e-06
7.99519249e-06
7.9951934e-06
7.99519359e-06
7.99518754e-06
7.99520411e-06
7.99519853e-06
7.99519197e-06
7.99518855e-06
7.9951931e-06
7.99519111e-06
7.99519223e-06
7.9951963e-06
7.99519104e-06
7.99520044e-06
7.99519275e-06
7.995207e-06
7.99520249e-06
7.9951943e-06
7.99519976e-06
7.99519643e-06
7.99520588e-06
7.99519074e-06
7.9951915e-06
7.99520809e-06
7.99517781e-06
7.99521364e-06
7.99518593e-06
7.99520319e-06
7.99519318e-06
7.99519562e-06
7.99519083e-06
7.99519916e-06
7.99518935e-06
7.99519476e-06
7.99519504e-06
7.99519242e-06
7.9952045e-06
7.995188e-06
7.99520193e-06
7.99519376e-06
7.99520373e-06
7.99520291e-06
7.99519786e-06
7.99519438e-06
7.99521447e-06
7.99518932e-06
7.99520406e-06
7.99519036e-06
7.99520972e-06
7.99518396e-06
7.99520815e-06
7.99518685e-06
7.99520937e-06
7.99519694e-06
7.99519955e-06
7.99520242e-06
7.9951995e-06
7.9952014e-06
7.99519873e-06
7.99519886e-06
7.99520236e-06
7.99519859e-06
7.99520319e-06
7.99520113e-06
7.99520401e-06
7.99520331e-06
7.99519945e-06
7.99520176e-06
7.99520157e-06
7.99519946e-06
7.99520245e-06
7.99520319e-06
7.99520277e-06
7.99520263e-06
7.99520244e-06
7.99520211e-06
7.99520373e-06
7.99520321e-06
7.99520331e-06
7.99520385e-06
7.99520349e-06
7.99520416e-06
7.99520436e-06
7.99520382e-06
7.99520462e-06
7.99520465e-06
7.99520403e-06
7.99520425e-06
7.99520457e-06
7.99520482e-06
7.99520457e-06
7.99520459e-06
7.99520477e-06
7.99520459e-06
7.99520467e-06
7.99520465e-06
7.99520472e-06
7.99520434e-06
7.99520479e-06
7.99520452e-06
7.99520458e-06
7.9952046e-06
7.99520463e-06
7.99520462e-06
7.99520477e-06
7.99520464e-06
7.99520466e-06
7.99520447e-06
7.99520443e-06
7.99520472e-06
7.99520457e-06
7.99520464e-06
7.99520463e-06
7.99520452e-06
7.99520468e-06
7.99520463e-06
7.99520464e-06
7.99520475e-06
7.99520456e-06
7.99520479e-06
7.99520454e-06
7.99520472e-06
7.99520464e-06
7.99520456e-06
7.99520467e-06
7.99520451e-06
7.99520449e-06
7.99520482e-06
)
;

boundaryField
{
    closed
    {
        type            calculated;
        value           uniform 0;
    }
    open
    {
        type            calculated;
        value           uniform 0;
    }
    sides
    {
        type            empty;
    }
}


// ************************************************************************* //
