/*--------------------------------*- C++ -*----------------------------------*\
| =========                 |                                                 |
| \\      /  F ield         | OpenFOAM: The Open Source CFD Toolbox           |
|  \\    /   O peration     | Version:  2206                                  |
|   \\  /    A nd           | Website:  www.openfoam.com                      |
|    \\/     M anipulation  |                                                 |
\*---------------------------------------------------------------------------*/
FoamFile
{
    version     2.0;
    format      ascii;
    arch        "LSB;label=32;scalar=64";
    class       volVectorField;
    location    "7.8e-06";
    object      U;
}
// * * * * * * * * * * * * * * * * * * * * * * * * * * * * * * * * * * * * * //

dimensions      [0 1 -1 0 0 0 0];

internalField   nonuniform List<vector> 
3183
(
(1.95207007e-13 0 0)
(-2.34236838e-14 0 0)
(-1.17557288e-13 0 0)
(-7.78140473e-14 0 0)
(-8.18782529e-14 0 0)
(-2.63487604e-18 0 0)
(-2.08158731e-19 0 0)
(-1.02567687e-23 0 0)
(3.88774048e-24 0 0)
(3.19445461e-20 0 0)
(1.8819321e-18 0 0)
(3.90067415e-14 0 0)
(3.1555361e-13 0 0)
(1.29497118e-13 0 0)
(-6.98579571e-14 0 0)
(-5.5119303e-14 0 0)
(1.92758459e-14 0 0)
(-1.99540901e-13 0 0)
(-6.63870886e-13 0 0)
(2.70032135e-14 0 0)
(3.603868e-13 0 0)
(6.88332756e-17 0 0)
(1.07560327e-17 0 0)
(6.08224324e-14 0 0)
(2.15211472e-13 0 0)
(3.1828167e-13 0 0)
(4.44115627e-13 0 0)
(3.25172745e-13 0 0)
(-1.63702796e-13 0 0)
(-1.44822328e-16 0 0)
(-2.76094795e-13 0 0)
(-4.15528716e-13 0 0)
(-4.80995127e-13 0 0)
(-2.84891747e-13 0 0)
(-1.45214389e-13 0 0)
(9.79692825e-15 0 0)
(-9.62677509e-14 0 0)
(-2.13928813e-13 0 0)
(-3.61580683e-14 0 0)
(-8.76543056e-14 0 0)
(-2.75500345e-13 0 0)
(-3.58614072e-13 0 0)
(-3.01064416e-14 0 0)
(-3.51619488e-13 0 0)
(-1.13138599e-13 0 0)
(-3.37080747e-14 0 0)
(-1.88710735e-14 0 0)
(-1.3137737e-13 0 0)
(-2.16515833e-13 0 0)
(-1.03574971e-13 0 0)
(-8.79821381e-14 0 0)
(9.19731198e-14 0 0)
(9.80439018e-14 0 0)
(1.28429798e-13 0 0)
(5.59044944e-13 0 0)
(2.8602792e-13 0 0)
(6.51760819e-13 0 0)
(8.12357273e-13 0 0)
(8.5459842e-13 0 0)
(8.6309053e-13 0 0)
(7.66936779e-13 0 0)
(8.42651244e-13 0 0)
(9.65490731e-13 0 0)
(8.10694595e-13 0 0)
(1.07080613e-12 0 0)
(1.26493039e-12 0 0)
(1.18834405e-12 0 0)
(1.56411156e-12 0 0)
(1.94980421e-12 0 0)
(1.63853529e-12 0 0)
(2.23257294e-12 0 0)
(2.47226444e-12 0 0)
(2.4394532e-12 0 0)
(2.58484528e-12 0 0)
(2.74604441e-12 0 0)
(2.2930837e-12 0 0)
(2.49904204e-12 0 0)
(2.81402791e-12 0 0)
(3.10558056e-12 0 0)
(2.86615111e-12 0 0)
(2.73226444e-12 0 0)
(3.04522001e-12 0 0)
(2.90740533e-12 0 0)
(1.93327347e-12 0 0)
(2.55194009e-12 0 0)
(2.18943196e-12 0 0)
(2.30262925e-12 0 0)
(1.75933444e-12 0 0)
(2.14620661e-12 0 0)
(2.07107822e-12 0 0)
(1.34924033e-12 0 0)
(1.30914543e-12 0 0)
(1.68469139e-12 0 0)
(7.79467251e-13 0 0)
(1.07552189e-12 0 0)
(1.83883485e-12 0 0)
(-4.87920695e-13 0 0)
(5.65726964e-13 0 0)
(4.87971915e-13 0 0)
(8.70290114e-14 0 0)
(1.31994546e-12 0 0)
(8.25909389e-13 0 0)
(1.58327551e-12 0 0)
(1.02545379e-14 0 0)
(7.75864934e-13 0 0)
(9.06482296e-13 0 0)
(1.09485654e-12 0 0)
(2.64738933e-13 0 0)
(-5.53671868e-13 0 0)
(4.19121093e-13 0 0)
(1.08826851e-12 0 0)
(3.72156548e-13 0 0)
(5.07613337e-13 0 0)
(2.98329096e-13 0 0)
(7.71642142e-13 0 0)
(1.2594035e-12 0 0)
(-4.56844489e-13 0 0)
(4.44408453e-13 0 0)
(5.96128531e-13 0 0)
(-6.86844242e-13 0 0)
(-5.46343873e-13 0 0)
(4.604733e-14 0 0)
(3.3614027e-13 0 0)
(-8.51626128e-14 0 0)
(-1.15258272e-12 0 0)
(-6.55735461e-13 0 0)
(4.93924612e-13 0 0)
(-1.55573644e-12 0 0)
(9.95398635e-15 0 0)
(-2.81059374e-13 0 0)
(-7.34335165e-13 0 0)
(-4.43128275e-13 0 0)
(-8.41015984e-13 0 0)
(-1.15543431e-12 0 0)
(-6.20865894e-13 0 0)
(-1.08615975e-12 0 0)
(-9.703968e-13 0 0)
(-3.93208243e-13 0 0)
(-1.19168559e-12 0 0)
(-1.01105861e-12 0 0)
(-1.30359848e-12 0 0)
(-1.91035722e-12 0 0)
(-2.09234445e-12 0 0)
(-1.14257536e-12 0 0)
(-1.08551914e-12 0 0)
(-1.66462293e-12 0 0)
(-2.58309466e-12 0 0)
(-2.7139116e-12 0 0)
(-2.53446995e-12 0 0)
(-2.62973107e-12 0 0)
(-2.96150129e-12 0 0)
(-2.92083552e-12 0 0)
(-2.55343299e-12 0 0)
(-2.89830048e-12 0 0)
(-4.20279209e-12 0 0)
(-3.18146844e-12 0 0)
(-3.17620714e-12 0 0)
(-3.29065118e-12 0 0)
(-2.43445559e-12 0 0)
(-3.83423024e-12 0 0)
(-2.95742085e-12 0 0)
(-3.35274939e-12 0 0)
(-2.64642035e-12 0 0)
(-2.73024906e-12 0 0)
(-2.81176101e-12 0 0)
(-3.18219819e-12 0 0)
(-3.71215467e-12 0 0)
(-3.47537068e-12 0 0)
(-3.65255287e-12 0 0)
(-4.26627907e-12 0 0)
(-4.0255938e-12 0 0)
(-3.55823368e-12 0 0)
(-4.10794941e-12 0 0)
(-3.38877101e-12 0 0)
(-4.44809492e-12 0 0)
(-3.97004864e-12 0 0)
(-4.90537346e-12 0 0)
(-4.7574953e-12 0 0)
(-3.08643649e-12 0 0)
(-5.06245134e-12 0 0)
(-3.44585327e-12 0 0)
(-5.50198264e-12 0 0)
(-3.78631467e-12 0 0)
(-3.80877055e-12 0 0)
(-6.10864355e-12 0 0)
(-5.36159853e-12 0 0)
(-5.07316538e-12 0 0)
(-4.20085309e-12 0 0)
(-5.52205842e-12 0 0)
(-4.21233745e-12 0 0)
(-4.90619283e-12 0 0)
(-5.34792093e-12 0 0)
(-5.39981889e-12 0 0)
(-4.74663447e-12 0 0)
(-6.43403921e-12 0 0)
(-5.01439955e-12 0 0)
(-5.85453563e-12 0 0)
(-5.36933067e-12 0 0)
(-5.24412748e-12 0 0)
(-6.44361523e-12 0 0)
(-5.61128124e-12 0 0)
(-5.65098309e-12 0 0)
(-5.07663468e-12 0 0)
(-5.34141783e-12 0 0)
(-6.6823018e-12 0 0)
(-5.0274869e-12 0 0)
(-6.25401073e-12 0 0)
(-5.07392436e-12 0 0)
(-4.46633464e-12 0 0)
(-4.6248827e-12 0 0)
(-5.55799142e-12 0 0)
(-6.53682058e-12 0 0)
(-4.98360661e-12 0 0)
(-6.21720426e-12 0 0)
(-5.28923789e-12 0 0)
(-5.93510277e-12 0 0)
(-6.31796148e-12 0 0)
(-6.29011685e-12 0 0)
(-5.54694637e-12 0 0)
(-5.43632523e-12 0 0)
(-6.2591836e-12 0 0)
(-7.0170671e-12 0 0)
(-7.17449393e-12 0 0)
(-4.97191007e-12 0 0)
(-6.29847381e-12 0 0)
(-6.2944193e-12 0 0)
(-6.92857832e-12 0 0)
(-7.34786137e-12 0 0)
(-8.65313713e-12 0 0)
(-6.79610709e-12 0 0)
(-7.44628231e-12 0 0)
(-7.50172613e-12 0 0)
(-7.45906982e-12 0 0)
(-8.6225194e-12 0 0)
(-8.28566566e-12 0 0)
(-8.44035101e-12 0 0)
(-8.63712278e-12 0 0)
(-8.58823419e-12 0 0)
(-8.59781968e-12 0 0)
(-7.88502042e-12 0 0)
(-8.75097519e-12 0 0)
(-8.00810345e-12 0 0)
(-7.98940738e-12 0 0)
(-7.49017885e-12 0 0)
(-8.17979977e-12 0 0)
(-9.12153608e-12 0 0)
(-8.43869691e-12 0 0)
(-7.4102262e-12 0 0)
(-8.60694298e-12 0 0)
(-8.77024171e-12 0 0)
(-7.40520049e-12 0 0)
(-7.8821145e-12 0 0)
(-8.68710263e-12 0 0)
(-8.6554735e-12 0 0)
(-8.61526055e-12 0 0)
(-8.1349447e-12 0 0)
(-8.7622114e-12 0 0)
(-8.3925352e-12 0 0)
(-8.57165243e-12 0 0)
(-9.29081017e-12 0 0)
(-9.33011891e-12 0 0)
(-9.78187273e-12 0 0)
(-1.0096588e-11 0 0)
(-8.27131897e-12 0 0)
(-1.05759825e-11 0 0)
(-9.38203449e-12 0 0)
(-1.06306553e-11 0 0)
(-9.77382517e-12 0 0)
(-1.09234128e-11 0 0)
(-9.36712875e-12 0 0)
(-8.76705362e-12 0 0)
(-1.00716426e-11 0 0)
(-9.72183219e-12 0 0)
(-9.20747792e-12 0 0)
(-1.06082401e-11 0 0)
(-8.66843872e-12 0 0)
(-1.00312833e-11 0 0)
(-1.01695806e-11 0 0)
(-9.31059172e-12 0 0)
(-8.72269611e-12 0 0)
(-1.05193894e-11 0 0)
(-1.07275309e-11 0 0)
(-1.06889524e-11 0 0)
(-1.00240885e-11 0 0)
(-9.43072278e-12 0 0)
(-1.0406114e-11 0 0)
(-1.02470602e-11 0 0)
(-1.06616377e-11 0 0)
(-1.02045762e-11 0 0)
(-1.07655078e-11 0 0)
(-9.72132288e-12 0 0)
(-1.05965255e-11 0 0)
(-1.00574669e-11 0 0)
(-1.10778071e-11 0 0)
(-9.62422807e-12 0 0)
(-1.01359805e-11 0 0)
(-1.04496814e-11 0 0)
(-1.02126392e-11 0 0)
(-1.00914223e-11 0 0)
(-1.15318368e-11 0 0)
(-1.12892988e-11 0 0)
(-1.07362138e-11 0 0)
(-1.01246606e-11 0 0)
(-1.17876702e-11 0 0)
(-1.20265537e-11 0 0)
(-1.24851725e-11 0 0)
(-1.11858182e-11 0 0)
(-1.1357413e-11 0 0)
(-1.15104263e-11 0 0)
(-1.10078899e-11 0 0)
(-1.18623706e-11 0 0)
(-1.16304791e-11 0 0)
(-1.13578835e-11 0 0)
(-1.08319478e-11 0 0)
(-1.11728804e-11 0 0)
(-1.19669081e-11 0 0)
(-1.22572819e-11 0 0)
(-1.22504269e-11 0 0)
(-1.12870099e-11 0 0)
(-1.26161633e-11 0 0)
(-1.28610117e-11 0 0)
(-1.3015561e-11 0 0)
(-1.31044086e-11 0 0)
(-1.21072704e-11 0 0)
(-1.3696847e-11 0 0)
(-1.17742509e-11 0 0)
(-1.21359256e-11 0 0)
(-1.27530219e-11 0 0)
(-1.31443191e-11 0 0)
(-1.23754283e-11 0 0)
(-1.17521353e-11 0 0)
(-1.2689374e-11 0 0)
(-1.2441945e-11 0 0)
(-1.17648068e-11 0 0)
(-1.06308133e-11 0 0)
(-1.24655487e-11 0 0)
(-1.09744675e-11 0 0)
(-1.31928724e-11 0 0)
(-1.26475605e-11 0 0)
(-1.08780239e-11 0 0)
(-1.14794122e-11 0 0)
(-1.25133518e-11 0 0)
(-1.18224938e-11 0 0)
(-1.12754976e-11 0 0)
(-1.1714952e-11 0 0)
(-1.18703824e-11 0 0)
(-1.34545953e-11 0 0)
(-1.1113777e-11 0 0)
(-1.24986191e-11 0 0)
(-1.24484302e-11 0 0)
(-1.17167552e-11 0 0)
(-1.17305311e-11 0 0)
(-1.19710287e-11 0 0)
(-1.2314228e-11 0 0)
(-1.00982477e-11 0 0)
(-1.09722445e-11 0 0)
(-1.23626888e-11 0 0)
(-1.12290186e-11 0 0)
(-1.26014217e-11 0 0)
(-1.06125567e-11 0 0)
(-1.15363731e-11 0 0)
(-1.16541243e-11 0 0)
(-1.24257234e-11 0 0)
(-1.11111154e-11 0 0)
(-1.12903464e-11 0 0)
(-1.1933975e-11 0 0)
(-1.18471526e-11 0 0)
(-1.22011892e-11 0 0)
(-1.08790052e-11 0 0)
(-1.11283115e-11 0 0)
(-1.0130352e-11 0 0)
(-1.16118189e-11 0 0)
(-9.89515831e-12 0 0)
(-1.03737783e-11 0 0)
(-9.51200037e-12 0 0)
(-9.63599999e-12 0 0)
(-1.00217616e-11 0 0)
(-8.76885605e-12 0 0)
(-9.03455464e-12 0 0)
(-9.39991687e-12 0 0)
(-7.98333962e-12 0 0)
(-8.52348971e-12 0 0)
(-8.56648214e-12 0 0)
(-8.889963e-12 0 0)
(-7.9926148e-12 0 0)
(-9.19475854e-12 0 0)
(-8.76581905e-12 0 0)
(-8.54947262e-12 0 0)
(-8.53794293e-12 0 0)
(-8.08839836e-12 0 0)
(-7.96601926e-12 0 0)
(-9.99357899e-12 0 0)
(-8.211096e-12 0 0)
(-8.30951426e-12 0 0)
(-7.56203542e-12 0 0)
(-7.76629392e-12 0 0)
(-8.40257767e-12 0 0)
(-7.91728475e-12 0 0)
(-8.28726206e-12 0 0)
(-8.07621657e-12 0 0)
(-6.63696091e-12 0 0)
(-8.09543063e-12 0 0)
(-7.80921363e-12 0 0)
(-8.57323367e-12 0 0)
(-7.40351549e-12 0 0)
(-6.58905661e-12 0 0)
(-7.00564772e-12 0 0)
(-7.33018095e-12 0 0)
(-7.54841337e-12 0 0)
(-6.93480153e-12 0 0)
(-7.4584197e-12 0 0)
(-6.65221146e-12 0 0)
(-6.93436682e-12 0 0)
(-7.08948603e-12 0 0)
(-7.70059114e-12 0 0)
(-6.48323992e-12 0 0)
(-6.96536678e-12 0 0)
(-6.66938806e-12 0 0)
(-7.19881019e-12 0 0)
(-7.01524891e-12 0 0)
(-6.19446592e-12 0 0)
(-5.77416612e-12 0 0)
(-6.96218161e-12 0 0)
(-5.86399391e-12 0 0)
(-7.68038617e-12 0 0)
(-6.24399711e-12 0 0)
(-5.14979409e-12 0 0)
(-6.67387421e-12 0 0)
(-5.7017743e-12 0 0)
(-5.6349404e-12 0 0)
(-5.09895273e-12 0 0)
(-6.95023319e-12 0 0)
(-6.25753968e-12 0 0)
(-5.81982072e-12 0 0)
(-4.82114037e-12 0 0)
(-5.43537233e-12 0 0)
(-5.7086318e-12 0 0)
(-5.02570451e-12 0 0)
(-5.13819828e-12 0 0)
(-5.15854543e-12 0 0)
(-4.73989918e-12 0 0)
(-5.62840219e-12 0 0)
(-5.23613204e-12 0 0)
(-4.45831338e-12 0 0)
(-5.91062324e-12 0 0)
(-5.48727078e-12 0 0)
(-5.91794504e-12 0 0)
(-5.77929324e-12 0 0)
(-6.06186107e-12 0 0)
(-4.47775787e-12 0 0)
(-5.99347332e-12 0 0)
(-4.98609277e-12 0 0)
(-6.10376695e-12 0 0)
(-6.31196245e-12 0 0)
(-6.25777694e-12 0 0)
(-4.17180225e-12 0 0)
(-4.92174153e-12 0 0)
(-5.77706572e-12 0 0)
(-5.16549289e-12 0 0)
(-3.70257015e-12 0 0)
(-5.53303119e-12 0 0)
(-4.67986378e-12 0 0)
(-4.25694569e-12 0 0)
(-3.95463964e-12 0 0)
(-5.06396431e-12 0 0)
(-4.33255167e-12 0 0)
(-4.29339128e-12 0 0)
(-3.39168753e-12 0 0)
(-3.68938711e-12 0 0)
(-3.77270311e-12 0 0)
(-2.53349272e-12 0 0)
(-2.88328192e-12 0 0)
(-2.94507147e-12 0 0)
(-3.37769729e-12 0 0)
(-2.63797702e-12 0 0)
(-3.10212628e-12 0 0)
(-2.8244537e-12 0 0)
(-1.60018e-12 0 0)
(-2.66942058e-12 0 0)
(-3.19601539e-12 0 0)
(-1.73543722e-12 0 0)
(-2.91076587e-12 0 0)
(-2.34306877e-12 0 0)
(-2.55902134e-12 0 0)
(-2.32322762e-12 0 0)
(-1.50769607e-12 0 0)
(-2.21946745e-12 0 0)
(-2.84542097e-12 0 0)
(-2.52695217e-12 0 0)
(-3.11684733e-12 0 0)
(-2.71616865e-12 0 0)
(-2.82189321e-12 0 0)
(-4.34778578e-12 0 0)
(-2.64224598e-12 0 0)
(-3.26837691e-12 0 0)
(-3.41807291e-12 0 0)
(-2.14980844e-12 0 0)
(-2.8671673e-12 0 0)
(-2.26880295e-12 0 0)
(-2.49059591e-12 0 0)
(-2.07553717e-12 0 0)
(-1.63461694e-12 0 0)
(-1.63860681e-12 0 0)
(-1.48374861e-12 0 0)
(-1.42797639e-12 0 0)
(-1.67141501e-12 0 0)
(-7.85381254e-13 0 0)
(-8.3935182e-13 0 0)
(-7.69230753e-13 0 0)
(-1.21991103e-12 0 0)
(-6.11910891e-13 0 0)
(-1.66351459e-12 0 0)
(-7.82120718e-13 0 0)
(-9.41513049e-13 0 0)
(-8.66120173e-13 0 0)
(-1.30821448e-12 0 0)
(-1.11305556e-12 0 0)
(-1.2830649e-12 0 0)
(-9.74978339e-13 0 0)
(-4.78914886e-13 0 0)
(-8.08779068e-14 0 0)
(-3.54476034e-13 0 0)
(-2.30382438e-13 0 0)
(-1.73782017e-12 0 0)
(1.24900615e-13 0 0)
(-8.1072817e-13 0 0)
(-1.39648838e-12 0 0)
(2.28975834e-13 0 0)
(-3.48382833e-14 0 0)
(-1.30273214e-12 0 0)
(-4.96167816e-13 0 0)
(-4.15905897e-13 0 0)
(-9.63983457e-14 0 0)
(-3.18610238e-13 0 0)
(3.0299085e-13 0 0)
(2.35779514e-13 0 0)
(4.23042696e-13 0 0)
(9.15771414e-13 0 0)
(9.19912509e-13 0 0)
(2.43043108e-13 0 0)
(3.21829504e-13 0 0)
(2.8588856e-13 0 0)
(3.61953597e-13 0 0)
(1.08118989e-12 0 0)
(1.28295164e-12 0 0)
(4.63687729e-13 0 0)
(-3.09010333e-13 0 0)
(1.18874811e-12 0 0)
(1.19154046e-12 0 0)
(3.81674216e-13 0 0)
(1.50355154e-12 0 0)
(1.70156103e-12 0 0)
(1.19009829e-12 0 0)
(9.69356927e-13 0 0)
(1.32397422e-12 0 0)
(1.65975353e-12 0 0)
(1.54624151e-12 0 0)
(1.4206359e-12 0 0)
(1.93130026e-12 0 0)
(5.0540039e-13 0 0)
(1.66398118e-12 0 0)
(1.79035032e-12 0 0)
(1.98710164e-12 0 0)
(2.20042234e-12 0 0)
(2.02539014e-12 0 0)
(1.65898996e-12 0 0)
(1.75116389e-12 0 0)
(2.96836098e-12 0 0)
(3.26380532e-12 0 0)
(3.58241794e-12 0 0)
(3.3097004e-12 0 0)
(3.36722717e-12 0 0)
(3.58242919e-12 0 0)
(4.84917382e-12 0 0)
(3.63278985e-12 0 0)
(3.96943958e-12 0 0)
(4.15843315e-12 0 0)
(4.05776866e-12 0 0)
(4.08917029e-12 0 0)
(4.04010903e-12 0 0)
(3.53610767e-12 0 0)
(3.63299054e-12 0 0)
(5.48869992e-12 0 0)
(4.36912178e-12 0 0)
(5.38914395e-12 0 0)
(3.65264494e-12 0 0)
(5.10508809e-12 0 0)
(5.26016302e-12 0 0)
(3.3761345e-12 0 0)
(4.00372018e-12 0 0)
(4.01766442e-12 0 0)
(4.42875137e-12 0 0)
(4.36572033e-12 0 0)
(4.58082797e-12 0 0)
(4.55037677e-12 0 0)
(4.34205765e-12 0 0)
(3.69170447e-12 0 0)
(4.14993313e-12 0 0)
(4.27538136e-12 0 0)
(3.69800307e-12 0 0)
(3.18201833e-12 0 0)
(3.23000611e-12 0 0)
(3.57238072e-12 0 0)
(3.37660025e-12 0 0)
(4.39857402e-12 0 0)
(3.32105232e-12 0 0)
(4.19560075e-12 0 0)
(3.96359537e-12 0 0)
(3.01780106e-12 0 0)
(3.96304996e-12 0 0)
(3.20254322e-12 0 0)
(3.32480561e-12 0 0)
(3.05193559e-12 0 0)
(2.72563712e-12 0 0)
(3.64524195e-12 0 0)
(3.78383753e-12 0 0)
(3.45920458e-12 0 0)
(2.92169728e-12 0 0)
(3.01852054e-12 0 0)
(3.59434973e-12 0 0)
(4.09784822e-12 0 0)
(2.9170573e-12 0 0)
(3.26992647e-12 0 0)
(3.72685719e-12 0 0)
(3.32872575e-12 0 0)
(3.92549292e-12 0 0)
(2.53851554e-12 0 0)
(1.80454182e-12 0 0)
(3.20544226e-12 0 0)
(2.37218716e-12 0 0)
(2.87031186e-12 0 0)
(3.06152329e-12 0 0)
(2.85399628e-12 0 0)
(3.18612318e-12 0 0)
(2.61890831e-12 0 0)
(3.3156818e-12 0 0)
(2.59753895e-12 0 0)
(3.53613592e-12 0 0)
(2.88048109e-12 0 0)
(3.50872108e-12 0 0)
(1.89054684e-12 0 0)
(2.41343191e-12 0 0)
(3.87423354e-12 0 0)
(2.40199644e-12 0 0)
(3.49325562e-12 0 0)
(3.18135875e-12 0 0)
(3.36124511e-12 0 0)
(2.73619279e-12 0 0)
(3.16726678e-12 0 0)
(3.41076977e-12 0 0)
(3.58677738e-12 0 0)
(2.16238853e-12 0 0)
(2.99068769e-12 0 0)
(2.66163649e-12 0 0)
(2.29391745e-12 0 0)
(2.87378819e-12 0 0)
(2.82376529e-12 0 0)
(2.09796084e-12 0 0)
(1.75678273e-12 0 0)
(1.95487213e-12 0 0)
(1.65993775e-12 0 0)
(2.42466697e-12 0 0)
(2.3850967e-12 0 0)
(2.30367173e-12 0 0)
(1.23084378e-12 0 0)
(2.18441383e-12 0 0)
(2.67146581e-12 0 0)
(1.72619931e-12 0 0)
(2.56818712e-12 0 0)
(3.39716108e-12 0 0)
(1.65221513e-12 0 0)
(2.43199682e-12 0 0)
(3.04429157e-12 0 0)
(3.14459476e-12 0 0)
(2.878689e-12 0 0)
(2.67302898e-12 0 0)
(3.20672194e-12 0 0)
(3.53122336e-12 0 0)
(3.17072358e-12 0 0)
(3.79131694e-12 0 0)
(2.93335849e-12 0 0)
(2.37563462e-12 0 0)
(2.65722525e-12 0 0)
(4.13009173e-12 0 0)
(4.1433322e-12 0 0)
(4.09945276e-12 0 0)
(4.36970348e-12 0 0)
(2.9561913e-12 0 0)
(3.79054003e-12 0 0)
(3.80999902e-12 0 0)
(3.87021478e-12 0 0)
(4.20553475e-12 0 0)
(4.45136739e-12 0 0)
(4.61162352e-12 0 0)
(4.36496182e-12 0 0)
(4.44043136e-12 0 0)
(4.43636067e-12 0 0)
(4.90169629e-12 0 0)
(3.53292949e-12 0 0)
(4.3805943e-12 0 0)
(5.02555642e-12 0 0)
(4.44746186e-12 0 0)
(5.40009332e-12 0 0)
(5.53217755e-12 0 0)
(5.21733691e-12 0 0)
(5.58112387e-12 0 0)
(5.20332624e-12 0 0)
(5.14238388e-12 0 0)
(5.79587361e-12 0 0)
(5.23013513e-12 0 0)
(5.16305863e-12 0 0)
(5.04610626e-12 0 0)
(5.30810604e-12 0 0)
(5.0771066e-12 0 0)
(4.88947855e-12 0 0)
(5.87953058e-12 0 0)
(4.23744056e-12 0 0)
(5.3179456e-12 0 0)
(4.6923175e-12 0 0)
(4.13087997e-12 0 0)
(3.54102965e-12 0 0)
(4.11872024e-12 0 0)
(5.00980947e-12 0 0)
(3.52804463e-12 0 0)
(3.88789795e-12 0 0)
(3.34438727e-12 0 0)
(3.5334136e-12 0 0)
(3.55481471e-12 0 0)
(3.32620444e-12 0 0)
(3.17581654e-12 0 0)
(2.69038367e-12 0 0)
(2.79347939e-12 0 0)
(2.23638198e-12 0 0)
(2.97803445e-12 0 0)
(3.70823e-12 0 0)
(3.6106132e-12 0 0)
(3.18143117e-12 0 0)
(3.21034824e-12 0 0)
(3.09878802e-12 0 0)
(3.9777775e-12 0 0)
(3.63751018e-12 0 0)
(3.36214102e-12 0 0)
(3.82535348e-12 0 0)
(3.91211911e-12 0 0)
(3.98626336e-12 0 0)
(3.8262735e-12 0 0)
(2.82570609e-12 0 0)
(3.56124769e-12 0 0)
(3.25562944e-12 0 0)
(3.52810198e-12 0 0)
(2.86468913e-12 0 0)
(3.65182432e-12 0 0)
(3.69411266e-12 0 0)
(3.13334093e-12 0 0)
(2.87750524e-12 0 0)
(2.52058179e-12 0 0)
(4.03081391e-12 0 0)
(2.90805609e-12 0 0)
(3.03865487e-12 0 0)
(2.64269218e-12 0 0)
(3.21441528e-12 0 0)
(3.43042411e-12 0 0)
(3.02569937e-12 0 0)
(2.71974979e-12 0 0)
(2.97868979e-12 0 0)
(3.00857758e-12 0 0)
(3.55398602e-12 0 0)
(3.55447909e-12 0 0)
(3.23184817e-12 0 0)
(2.83343135e-12 0 0)
(2.84179813e-12 0 0)
(3.48981184e-12 0 0)
(3.09075584e-12 0 0)
(3.56028717e-12 0 0)
(3.2906701e-12 0 0)
(2.92673823e-12 0 0)
(3.10054823e-12 0 0)
(4.21014257e-12 0 0)
(4.04348537e-12 0 0)
(3.91183312e-12 0 0)
(4.35228586e-12 0 0)
(3.82445361e-12 0 0)
(3.55333346e-12 0 0)
(4.31308119e-12 0 0)
(4.21375345e-12 0 0)
(3.40422067e-12 0 0)
(3.54868001e-12 0 0)
(4.21820669e-12 0 0)
(4.90818859e-12 0 0)
(4.33910964e-12 0 0)
(3.68841262e-12 0 0)
(3.88021312e-12 0 0)
(3.76856838e-12 0 0)
(3.30897296e-12 0 0)
(2.55778686e-12 0 0)
(2.81193879e-12 0 0)
(3.73694479e-12 0 0)
(2.9312261e-12 0 0)
(2.41894405e-12 0 0)
(2.14181371e-12 0 0)
(1.96337313e-12 0 0)
(2.6994943e-12 0 0)
(1.9064597e-12 0 0)
(2.89269583e-12 0 0)
(2.86361953e-12 0 0)
(2.91770905e-12 0 0)
(4.52332959e-12 0 0)
(3.33711423e-12 0 0)
(3.14299336e-12 0 0)
(2.38382986e-12 0 0)
(3.10731486e-12 0 0)
(1.75415799e-12 0 0)
(2.0661019e-12 0 0)
(2.0076454e-12 0 0)
(2.78707373e-12 0 0)
(2.51298991e-12 0 0)
(1.96606474e-12 0 0)
(2.17736154e-12 0 0)
(2.20468357e-12 0 0)
(1.90114584e-12 0 0)
(2.63015359e-12 0 0)
(2.59723987e-12 0 0)
(3.18020034e-12 0 0)
(2.77304919e-12 0 0)
(2.42898587e-12 0 0)
(2.52278591e-12 0 0)
(2.15572386e-12 0 0)
(2.87924032e-12 0 0)
(3.18554354e-12 0 0)
(2.89374554e-12 0 0)
(3.49313218e-12 0 0)
(3.12146306e-12 0 0)
(1.72117901e-12 0 0)
(2.27790294e-12 0 0)
(2.1440321e-12 0 0)
(2.17642855e-12 0 0)
(2.38488596e-12 0 0)
(2.95638968e-12 0 0)
(2.51237113e-12 0 0)
(3.33223889e-12 0 0)
(2.40163224e-12 0 0)
(1.95033628e-12 0 0)
(3.11429441e-12 0 0)
(2.9209611e-12 0 0)
(2.42636204e-12 0 0)
(2.89740989e-12 0 0)
(3.58017099e-12 0 0)
(4.25407406e-12 0 0)
(2.23610769e-12 0 0)
(2.71799091e-12 0 0)
(3.53487429e-12 0 0)
(2.43770336e-12 0 0)
(2.52356613e-12 0 0)
(4.05488424e-12 0 0)
(3.78182155e-12 0 0)
(3.59462571e-12 0 0)
(3.67508408e-12 0 0)
(4.57712037e-12 0 0)
(3.75914016e-12 0 0)
(3.45995711e-12 0 0)
(4.02478098e-12 0 0)
(4.23253888e-12 0 0)
(4.75653663e-12 0 0)
(3.75120953e-12 0 0)
(4.99045908e-12 0 0)
(4.32244617e-12 0 0)
(5.98973866e-12 0 0)
(4.14523482e-12 0 0)
(5.02853788e-12 0 0)
(4.27785004e-12 0 0)
(5.45267452e-12 0 0)
(5.559075e-12 0 0)
(5.15017553e-12 0 0)
(5.61183482e-12 0 0)
(4.79478157e-12 0 0)
(6.26837533e-12 0 0)
(6.00657115e-12 0 0)
(4.96020883e-12 0 0)
(5.68119007e-12 0 0)
(6.77744916e-12 0 0)
(5.21798171e-12 0 0)
(5.39678316e-12 0 0)
(5.0139858e-12 0 0)
(6.20140627e-12 0 0)
(5.11408459e-12 0 0)
(5.74883013e-12 0 0)
(4.46502679e-12 0 0)
(5.2948982e-12 0 0)
(5.37844522e-12 0 0)
(5.52767713e-12 0 0)
(6.24691531e-12 0 0)
(5.29534917e-12 0 0)
(5.22731495e-12 0 0)
(6.09868952e-12 0 0)
(5.24906774e-12 0 0)
(5.59787686e-12 0 0)
(6.43258409e-12 0 0)
(5.79228041e-12 0 0)
(5.82368847e-12 0 0)
(5.50606697e-12 0 0)
(6.2707938e-12 0 0)
(6.14691405e-12 0 0)
(6.17242365e-12 0 0)
(5.50356669e-12 0 0)
(6.10539824e-12 0 0)
(6.13145198e-12 0 0)
(5.82136903e-12 0 0)
(6.72436445e-12 0 0)
(6.23368517e-12 0 0)
(6.0767595e-12 0 0)
(5.41078895e-12 0 0)
(6.77594875e-12 0 0)
(6.05310051e-12 0 0)
(7.39676227e-12 0 0)
(5.41282272e-12 0 0)
(7.00002618e-12 0 0)
(7.52700954e-12 0 0)
(6.65834772e-12 0 0)
(6.7212798e-12 0 0)
(7.10249676e-12 0 0)
(7.11358235e-12 0 0)
(7.46843172e-12 0 0)
(7.5758509e-12 0 0)
(7.33995279e-12 0 0)
(7.49802261e-12 0 0)
(7.19427381e-12 0 0)
(7.23942846e-12 0 0)
(6.32037334e-12 0 0)
(6.9341367e-12 0 0)
(6.4447518e-12 0 0)
(6.54988304e-12 0 0)
(6.69440862e-12 0 0)
(6.39359069e-12 0 0)
(6.84036514e-12 0 0)
(6.45747103e-12 0 0)
(6.45565883e-12 0 0)
(7.34189789e-12 0 0)
(6.0264058e-12 0 0)
(6.66303039e-12 0 0)
(6.18199501e-12 0 0)
(6.73618041e-12 0 0)
(5.54693973e-12 0 0)
(7.26457331e-12 0 0)
(5.63320715e-12 0 0)
(7.05377779e-12 0 0)
(6.09867164e-12 0 0)
(6.53776371e-12 0 0)
(6.53541453e-12 0 0)
(6.47355845e-12 0 0)
(7.31592608e-12 0 0)
(6.18335558e-12 0 0)
(6.29019001e-12 0 0)
(6.52007367e-12 0 0)
(5.81048959e-12 0 0)
(5.61251467e-12 0 0)
(4.91344311e-12 0 0)
(6.05033097e-12 0 0)
(6.3103914e-12 0 0)
(4.95658284e-12 0 0)
(5.54059637e-12 0 0)
(6.49247586e-12 0 0)
(7.77870974e-12 0 0)
(6.59034449e-12 0 0)
(5.84506818e-12 0 0)
(5.57567741e-12 0 0)
(5.51100381e-12 0 0)
(6.01983261e-12 0 0)
(5.60255343e-12 0 0)
(6.1916254e-12 0 0)
(5.42890153e-12 0 0)
(5.25463435e-12 0 0)
(5.29023219e-12 0 0)
(5.32182289e-12 0 0)
(5.1694971e-12 0 0)
(5.40380976e-12 0 0)
(5.56322855e-12 0 0)
(5.6382551e-12 0 0)
(5.16267599e-12 0 0)
(4.79118487e-12 0 0)
(5.57723123e-12 0 0)
(4.91134773e-12 0 0)
(5.38554487e-12 0 0)
(5.20876572e-12 0 0)
(5.46283017e-12 0 0)
(5.42791635e-12 0 0)
(4.61945113e-12 0 0)
(4.41750139e-12 0 0)
(5.25429835e-12 0 0)
(6.00981558e-12 0 0)
(5.19462788e-12 0 0)
(5.55790816e-12 0 0)
(5.77221671e-12 0 0)
(6.4978776e-12 0 0)
(5.01245905e-12 0 0)
(4.97291681e-12 0 0)
(5.81734823e-12 0 0)
(4.89076994e-12 0 0)
(5.52271281e-12 0 0)
(5.75437905e-12 0 0)
(6.40775776e-12 0 0)
(6.67187123e-12 0 0)
(5.5214641e-12 0 0)
(6.90415213e-12 0 0)
(6.56538096e-12 0 0)
(7.49349213e-12 0 0)
(6.13122483e-12 0 0)
(7.42247452e-12 0 0)
(7.3556446e-12 0 0)
(6.45768745e-12 0 0)
(7.79118801e-12 0 0)
(7.60093018e-12 0 0)
(7.017328e-12 0 0)
(5.87445924e-12 0 0)
(6.80689232e-12 0 0)
(6.52821539e-12 0 0)
(5.34454273e-12 0 0)
(7.24599688e-12 0 0)
(6.62202334e-12 0 0)
(6.74545691e-12 0 0)
(6.20515072e-12 0 0)
(5.67768406e-12 0 0)
(6.50448724e-12 0 0)
(6.34070129e-12 0 0)
(5.76235051e-12 0 0)
(6.95401094e-12 0 0)
(6.02388666e-12 0 0)
(5.77816295e-12 0 0)
(5.12826018e-12 0 0)
(5.00776486e-12 0 0)
(5.17120464e-12 0 0)
(5.53967602e-12 0 0)
(4.56819811e-12 0 0)
(4.63392475e-12 0 0)
(4.44393794e-12 0 0)
(4.64776746e-12 0 0)
(4.05565266e-12 0 0)
(4.17713438e-12 0 0)
(4.30246814e-12 0 0)
(4.21675873e-12 0 0)
(3.40623517e-12 0 0)
(3.53200522e-12 0 0)
(3.32425316e-12 0 0)
(3.20329921e-12 0 0)
(3.59946657e-12 0 0)
(3.13650852e-12 0 0)
(3.53392627e-12 0 0)
(2.5800826e-12 0 0)
(3.40184376e-12 0 0)
(3.5703191e-12 0 0)
(1.88621124e-12 0 0)
(2.24907939e-12 0 0)
(2.72166337e-12 0 0)
(1.76201139e-12 0 0)
(2.41063345e-12 0 0)
(2.60390321e-12 0 0)
(2.03480865e-12 0 0)
(2.22249953e-12 0 0)
(2.40343779e-12 0 0)
(2.36055305e-12 0 0)
(2.71841974e-12 0 0)
(1.45651887e-12 0 0)
(2.05314559e-12 0 0)
(1.7260365e-12 0 0)
(2.16997551e-12 0 0)
(2.08387928e-12 0 0)
(1.94579323e-12 0 0)
(1.54284501e-12 0 0)
(2.37488686e-12 0 0)
(1.42916947e-12 0 0)
(1.03593054e-12 0 0)
(1.78009495e-12 0 0)
(1.70053024e-12 0 0)
(2.07901711e-12 0 0)
(9.95096288e-13 0 0)
(2.02738434e-12 0 0)
(3.84491764e-13 0 0)
(1.58955686e-12 0 0)
(1.16596988e-12 0 0)
(7.8717288e-13 0 0)
(1.86002663e-12 0 0)
(8.40490399e-13 0 0)
(8.37244781e-13 0 0)
(1.14276866e-12 0 0)
(1.49759832e-12 0 0)
(2.89007968e-13 0 0)
(6.94412769e-13 0 0)
(7.16161268e-13 0 0)
(-8.63338039e-14 0 0)
(-5.14708346e-14 0 0)
(1.11761095e-13 0 0)
(-4.06915081e-13 0 0)
(-4.12387981e-13 0 0)
(-1.08289251e-12 0 0)
(4.3439986e-13 0 0)
(-6.86598945e-13 0 0)
(-1.12117226e-12 0 0)
(-3.02434274e-13 0 0)
(9.77176732e-15 0 0)
(-2.34311976e-13 0 0)
(-1.06283073e-12 0 0)
(-7.78057539e-13 0 0)
(-1.73167106e-12 0 0)
(-9.70108298e-13 0 0)
(-1.45627466e-12 0 0)
(-1.43366969e-12 0 0)
(-1.25608727e-12 0 0)
(-1.16720556e-12 0 0)
(-1.27342927e-12 0 0)
(-7.02052769e-13 0 0)
(-9.70432517e-13 0 0)
(-2.58567694e-13 0 0)
(-1.39624291e-12 0 0)
(-1.32666838e-12 0 0)
(-1.51400762e-12 0 0)
(-1.55759148e-12 0 0)
(-1.86443083e-12 0 0)
(-1.72874537e-12 0 0)
(-1.35203514e-12 0 0)
(-1.59404687e-12 0 0)
(-8.00090998e-13 0 0)
(-1.66268188e-12 0 0)
(-1.92013382e-12 0 0)
(-2.73391474e-12 0 0)
(-1.46124589e-12 0 0)
(-1.74288105e-12 0 0)
(-3.18368984e-12 0 0)
(-1.92154888e-12 0 0)
(-1.57129506e-12 0 0)
(-2.28592942e-12 0 0)
(-2.57024289e-12 0 0)
(-8.03840721e-13 0 0)
(-2.61496564e-12 0 0)
(-2.07853547e-12 0 0)
(-2.26501628e-12 0 0)
(-2.92083291e-12 0 0)
(-2.90763712e-12 0 0)
(-2.64683694e-12 0 0)
(-3.07087849e-12 0 0)
(-2.81619929e-12 0 0)
(-3.49849896e-12 0 0)
(-3.55147108e-12 0 0)
(-2.64242752e-12 0 0)
(-2.72666923e-12 0 0)
(-2.97219815e-12 0 0)
(-3.01850689e-12 0 0)
(-3.00955063e-12 0 0)
(-4.69050033e-12 0 0)
(-4.45898159e-12 0 0)
(-3.92448959e-12 0 0)
(-2.86756745e-12 0 0)
(-2.59386603e-12 0 0)
(-3.91471032e-12 0 0)
(-2.43344391e-12 0 0)
(-3.17420238e-12 0 0)
(-3.2118338e-12 0 0)
(-2.7279976e-12 0 0)
(-2.89554771e-12 0 0)
(-3.19819365e-12 0 0)
(-2.78726032e-12 0 0)
(-2.76093378e-12 0 0)
(-3.33697447e-12 0 0)
(-2.59949652e-12 0 0)
(-3.26596253e-12 0 0)
(-3.84136533e-12 0 0)
(-3.15241567e-12 0 0)
(-3.22217113e-12 0 0)
(-2.76427884e-12 0 0)
(-3.09656715e-12 0 0)
(-3.94070865e-12 0 0)
(-3.13788787e-12 0 0)
(-2.77698778e-12 0 0)
(-2.53270347e-12 0 0)
(-2.90263443e-12 0 0)
(-2.19976378e-12 0 0)
(-2.87403501e-12 0 0)
(-2.82089903e-12 0 0)
(-3.74536492e-12 0 0)
(-3.66775934e-12 0 0)
(-3.78272633e-12 0 0)
(-3.63992637e-12 0 0)
(-4.42199144e-12 0 0)
(-3.74952811e-12 0 0)
(-3.36895207e-12 0 0)
(-4.17728068e-12 0 0)
(-4.27743808e-12 0 0)
(-4.58615229e-12 0 0)
(-3.99898555e-12 0 0)
(-4.63026908e-12 0 0)
(-5.80475114e-12 0 0)
(-5.42404049e-12 0 0)
(-4.0023624e-12 0 0)
(-4.69839062e-12 0 0)
(-5.14742062e-12 0 0)
(-4.46210102e-12 0 0)
(-1.98174418e-12 0 0)
(-4.07343537e-12 0 0)
(-4.67924518e-12 0 0)
(-4.36800966e-12 0 0)
(-5.53499224e-12 0 0)
(-6.12495792e-12 0 0)
(-5.30220759e-12 0 0)
(-6.36114147e-12 0 0)
(-6.0096725e-12 0 0)
(-6.40334727e-12 0 0)
(-5.87135594e-12 0 0)
(-6.54619874e-12 0 0)
(-6.11892498e-12 0 0)
(-6.64832922e-12 0 0)
(-6.70626066e-12 0 0)
(-6.19918895e-12 0 0)
(-6.62599973e-12 0 0)
(-7.71831987e-12 0 0)
(-7.07571679e-12 0 0)
(-7.58939339e-12 0 0)
(-7.05064441e-12 0 0)
(-6.58534148e-12 0 0)
(-6.31105584e-12 0 0)
(-7.67168505e-12 0 0)
(-7.26772236e-12 0 0)
(-7.1649211e-12 0 0)
(-6.69873982e-12 0 0)
(-7.09405911e-12 0 0)
(-8.17086745e-12 0 0)
(-7.34181137e-12 0 0)
(-6.76331337e-12 0 0)
(-7.52083348e-12 0 0)
(-7.85620928e-12 0 0)
(-7.60988549e-12 0 0)
(-7.26851714e-12 0 0)
(-6.56514703e-12 0 0)
(-7.66205229e-12 0 0)
(-6.88685344e-12 0 0)
(-6.98300619e-12 0 0)
(-7.00672897e-12 0 0)
(-7.45371955e-12 0 0)
(-7.24768736e-12 0 0)
(-7.61137983e-12 0 0)
(-7.73127626e-12 0 0)
(-6.71209186e-12 0 0)
(-7.09302501e-12 0 0)
(-7.47740735e-12 0 0)
(-7.91679371e-12 0 0)
(-6.00552971e-12 0 0)
(-7.37701901e-12 0 0)
(-5.86777555e-12 0 0)
(-6.68239293e-12 0 0)
(-6.55721958e-12 0 0)
(-7.31260822e-12 0 0)
(-7.18258572e-12 0 0)
(-7.47519953e-12 0 0)
(-5.2048481e-12 0 0)
(-6.20849927e-12 0 0)
(-6.63281259e-12 0 0)
(-6.17810428e-12 0 0)
(-7.16876608e-12 0 0)
(-5.58324813e-12 0 0)
(-5.4723175e-12 0 0)
(-7.42685713e-12 0 0)
(-7.40811053e-12 0 0)
(-5.99041599e-12 0 0)
(-6.08701684e-12 0 0)
(-6.93617787e-12 0 0)
(-6.21631159e-12 0 0)
(-6.42365512e-12 0 0)
(-5.94544186e-12 0 0)
(-6.30724942e-12 0 0)
(-4.85164969e-12 0 0)
(-5.84683482e-12 0 0)
(-4.83195042e-12 0 0)
(-5.5764797e-12 0 0)
(-6.0044549e-12 0 0)
(-5.52422821e-12 0 0)
(-4.6661507e-12 0 0)
(-5.80381823e-12 0 0)
(-4.863549e-12 0 0)
(-5.30231353e-12 0 0)
(-6.02803894e-12 0 0)
(-4.91675514e-12 0 0)
(-4.18413103e-12 0 0)
(-5.30827233e-12 0 0)
(-6.00219797e-12 0 0)
(-4.9875871e-12 0 0)
(-4.0760431e-12 0 0)
(-5.85906559e-12 0 0)
(-4.57930147e-12 0 0)
(-5.16118596e-12 0 0)
(-4.89890337e-12 0 0)
(-5.45940201e-12 0 0)
(-4.61887863e-12 0 0)
(-5.38511785e-12 0 0)
(-4.44693466e-12 0 0)
(-4.10022652e-12 0 0)
(-4.1026422e-12 0 0)
(-4.09277649e-12 0 0)
(-4.14633319e-12 0 0)
(-4.53709064e-12 0 0)
(-3.77844233e-12 0 0)
(-4.55877828e-12 0 0)
(-4.35307733e-12 0 0)
(-4.15527763e-12 0 0)
(-4.15661104e-12 0 0)
(-3.09413687e-12 0 0)
(-3.88634245e-12 0 0)
(-3.71296792e-12 0 0)
(-3.57337489e-12 0 0)
(-2.91821656e-12 0 0)
(-3.57710721e-12 0 0)
(-3.04903403e-12 0 0)
(-3.91554091e-12 0 0)
(-4.10955789e-12 0 0)
(-3.80452608e-12 0 0)
(-4.54949728e-12 0 0)
(-3.75075359e-12 0 0)
(-4.0089543e-12 0 0)
(-4.09048152e-12 0 0)
(-4.3698814e-12 0 0)
(-4.58061013e-12 0 0)
(-4.4873105e-12 0 0)
(-4.3637153e-12 0 0)
(-3.48617417e-12 0 0)
(-3.49247909e-12 0 0)
(-2.96054318e-12 0 0)
(-3.78399118e-12 0 0)
(-2.54696522e-12 0 0)
(-3.67169976e-12 0 0)
(-3.73704851e-12 0 0)
(-2.79091028e-12 0 0)
(-3.60448328e-12 0 0)
(-2.73239467e-12 0 0)
(-2.819953e-12 0 0)
(-2.61716265e-12 0 0)
(-2.52972733e-12 0 0)
(-2.5002427e-12 0 0)
(-3.11128334e-12 0 0)
(-2.17256831e-12 0 0)
(-2.38929605e-12 0 0)
(-2.63330731e-12 0 0)
(-2.48530127e-12 0 0)
(-3.15737553e-12 0 0)
(-3.00402089e-12 0 0)
(-2.41123812e-12 0 0)
(-2.72896264e-12 0 0)
(-3.19734657e-12 0 0)
(-3.50286838e-12 0 0)
(-3.04193315e-12 0 0)
(-2.88254179e-12 0 0)
(-2.94314833e-12 0 0)
(-3.3436819e-12 0 0)
(-4.2646959e-12 0 0)
(-4.4909162e-12 0 0)
(-2.5988486e-12 0 0)
(-4.00255053e-12 0 0)
(-3.31573131e-12 0 0)
(-3.55402755e-12 0 0)
(-3.44461216e-12 0 0)
(-4.02280674e-12 0 0)
(-4.42665254e-12 0 0)
(-4.20852097e-12 0 0)