/*--------------------------------*- C++ -*----------------------------------*\
| =========                 |                                                 |
| \\      /  F ield         | OpenFOAM: The Open Source CFD Toolbox           |
|  \\    /   O peration     | Version:  2206                                  |
|   \\  /    A nd           | Website:  www.openfoam.com                      |
|    \\/     M anipulation  |                                                 |
\*---------------------------------------------------------------------------*/
FoamFile
{
    version     2.0;
    format      ascii;
    arch        "LSB;label=32;scalar=64";
    class       surfaceScalarField;
    location    "1.14e-05";
    object      phi;
}
// * * * * * * * * * * * * * * * * * * * * * * * * * * * * * * * * * * * * * //

dimensions      [1 0 -1 0 0 0 0];

oriented        oriented;

internalField   nonuniform List<scalar> 
3182
(
4.06432186e-18
-2.83201996e-18
-2.47053213e-19
-1.56112449e-18
-2.71696995e-21
-1.94174857e-23
-1.40945194e-24
-1.01114237e-29
1.32898194e-24
2.81588645e-23
1.98587739e-21
2.26391455e-18
3.54167861e-18
-1.20690718e-18
1.92952621e-18
-7.7860475e-19
-2.05501067e-18
-4.73223924e-18
-3.46467885e-18
4.51872326e-18
4.63563024e-20
5.3430966e-22
1.41280103e-19
1.84698482e-18
3.11213453e-18
1.86019855e-18
3.3899431e-18
1.87628008e-18
2.45587397e-18
2.72571385e-19
-2.30157162e-18
-1.95983761e-18
-8.15244192e-18
-6.85192669e-18
-2.92910017e-18
-2.30308796e-18
-1.47295454e-18
-1.51084374e-18
-6.59625043e-19
-5.92451229e-19
-3.1394464e-18
-3.91652106e-18
-2.71445342e-18
-1.42251045e-18
-1.07390933e-18
3.23164966e-19
4.28733867e-19
6.43119913e-19
7.56770729e-19
2.07009781e-18
2.60674271e-18
3.71690443e-18
6.29652108e-18
8.68017163e-18
9.98550392e-18
1.19541548e-17
1.38949045e-17
1.47683347e-17
1.58505357e-17
1.67158867e-17
1.52054931e-17
1.36661871e-17
1.2551677e-17
1.08443526e-17
9.38514604e-18
8.29157035e-18
7.63166829e-18
5.68051676e-18
4.81748157e-18
3.46674479e-18
1.3200817e-18
-7.33935296e-19
-1.65085012e-18
-2.63669476e-18
-3.94039219e-18
-5.67749035e-18
-6.61153052e-18
-5.66753714e-18
-7.32993014e-18
-8.50611174e-18
-8.99447694e-18
-9.05847229e-18
-1.06655174e-17
-9.93046206e-18
-1.11176466e-17
-1.26633942e-17
-1.31363718e-17
-1.67329228e-17
-1.80861182e-17
-1.93164919e-17
-1.98743838e-17
-2.15929278e-17
-2.27159206e-17
-2.18188273e-17
-2.24237135e-17
-2.7115235e-17
-2.77053599e-17
-2.56292455e-17
-2.49572726e-17
-2.25620038e-17
-2.56735972e-17
-2.6647809e-17
-2.88625665e-17
-2.92303322e-17
-3.01653467e-17
-2.75917159e-17
-3.10452929e-17
-3.13613037e-17
-3.2568149e-17
-2.88680748e-17
-2.78861025e-17
-3.1131532e-17
-3.2375188e-17
-3.43018308e-17
-3.37467542e-17
-3.67212101e-17
-3.7312556e-17
-3.6582145e-17
-3.50383958e-17
-3.62593066e-17
-3.57181375e-17
-3.86053656e-17
-3.73466017e-17
-3.92052896e-17
-3.87363126e-17
-3.79054934e-17
-3.79894254e-17
-3.61466581e-17
-3.41202768e-17
-3.59657149e-17
-3.75700989e-17
-3.70758032e-17
-3.63937027e-17
-3.98497721e-17
-3.89819926e-17
-4.12167153e-17
-4.37329741e-17
-4.47579601e-17
-4.3829527e-17
-4.44020077e-17
-4.57153038e-17
-4.52464421e-17
-4.4529963e-17
-4.62941098e-17
-4.66808108e-17
-4.96357682e-17
-4.55864463e-17
-4.80110645e-17
-4.73029167e-17
-4.63682582e-17
-4.98051529e-17
-5.23931326e-17
-5.54559769e-17
-5.71581299e-17
-5.73655004e-17
-5.68052644e-17
-5.28493838e-17
-5.33590296e-17
-5.48798271e-17
-5.43814648e-17
-5.47660521e-17
-5.61492043e-17
-5.77480646e-17
-5.62304766e-17
-5.61470133e-17
-5.58660176e-17
-5.71347526e-17
-5.36020598e-17
-5.44888963e-17
-5.70406326e-17
-5.60463384e-17
-5.41792566e-17
-5.30614585e-17
-5.08173979e-17
-5.1887248e-17
-5.17392404e-17
-5.07488894e-17
-5.48414319e-17
-5.18780235e-17
-5.40194027e-17
-5.1469467e-17
-4.96663439e-17
-5.17042343e-17
-5.42779321e-17
-5.41932577e-17
-5.54881559e-17
-5.21477029e-17
-5.62765505e-17
-5.91741547e-17
-5.61767625e-17
-5.40248464e-17
-5.6328972e-17
-5.52178322e-17
-5.77318078e-17
-5.87796249e-17
-5.99865259e-17
-5.67117041e-17
-5.78371143e-17
-5.79760108e-17
-6.35694295e-17
-6.33999585e-17
-6.31854332e-17
-6.24744534e-17
-6.15049266e-17
-6.08480675e-17
-6.04400696e-17
-5.88985141e-17
-5.96289375e-17
-5.8448447e-17
-5.84048077e-17
-6.00983786e-17
-6.04289294e-17
-6.08176005e-17
-6.05989048e-17
-5.77836074e-17
-5.9851005e-17
-5.97764289e-17
-6.1161568e-17
-5.99341408e-17
-6.12550373e-17
-5.89076828e-17
-5.77739984e-17
-5.57142815e-17
-5.75370285e-17
-6.17751216e-17
-6.27416498e-17
-6.18537014e-17
-6.24433362e-17
-6.43659077e-17
-6.56312353e-17
-6.55316304e-17
-6.72382841e-17
-6.80173577e-17
-7.04540219e-17
-7.02981726e-17
-7.12066946e-17
-7.03729643e-17
-7.26045095e-17
-7.35786716e-17
-7.37091217e-17
-7.51182255e-17
-7.3866584e-17
-7.48534084e-17
-7.49744162e-17
-7.41186354e-17
-7.63182562e-17
-7.62190166e-17
-8.0298505e-17
-8.04371358e-17
-8.07086045e-17
-8.10280572e-17
-8.12529545e-17
-8.09478664e-17
-8.19992631e-17
-8.31001017e-17
-8.37781612e-17
-8.55473754e-17
-8.80697286e-17
-8.69312998e-17
-8.90368302e-17
-8.79855402e-17
-8.82328171e-17
-8.93244308e-17
-8.8701423e-17
-8.79238993e-17
-9.14219305e-17
-9.12316436e-17
-9.10129656e-17
-9.21677028e-17
-9.31392571e-17
-9.19863529e-17
-9.47395447e-17
-9.57742414e-17
-9.1932113e-17
-9.05410021e-17
-9.14063654e-17
-9.17914911e-17
-9.16901083e-17
-9.06291683e-17
-9.12245723e-17
-9.18947447e-17
-9.39152762e-17
-9.25352973e-17
-8.99301074e-17
-9.00664655e-17
-9.24102685e-17
-9.25196582e-17
-9.32256793e-17
-9.24634975e-17
-9.27959277e-17
-9.63213581e-17
-9.72939333e-17
-9.42028144e-17
-9.67134263e-17
-9.77577898e-17
-9.48300308e-17
-9.4921095e-17
-9.55464549e-17
-9.49978069e-17
-9.37262223e-17
-9.43267041e-17
-9.56699887e-17
-9.75375628e-17
-9.73427153e-17
-9.85440192e-17
-9.82741351e-17
-9.91813704e-17
-1.0041697e-16
-9.88405696e-17
-9.92506317e-17
-1.02233633e-16
-9.88512132e-17
-1.00013306e-16
-1.01985717e-16
-1.03841786e-16
-1.01137472e-16
-1.05123306e-16
-1.02140186e-16
-9.86237137e-17
-1.00754888e-16
-1.0050538e-16
-9.94446022e-17
-1.01166578e-16
-1.00551165e-16
-1.01378265e-16
-1.00452604e-16
-1.03027753e-16
-1.02122398e-16
-1.05616558e-16
-1.03090695e-16
-1.04059013e-16
-1.03044668e-16
-1.01757285e-16
-9.97735691e-17
-1.02690997e-16
-1.02549866e-16
-1.02538302e-16
-1.00024401e-16
-1.00292679e-16
-1.00543539e-16
-1.00193603e-16
-9.994684e-17
-9.77769544e-17
-1.002033e-16
-9.77004698e-17
-1.00918958e-16
-1.00698889e-16
-9.89601144e-17
-1.00536478e-16
-9.91164735e-17
-9.85015206e-17
-1.01760862e-16
-1.04721682e-16
-1.00298163e-16
-9.87682023e-17
-1.00358112e-16
-1.00940746e-16
-1.00507411e-16
-1.01994332e-16
-1.01869458e-16
-1.00482751e-16
-9.93099437e-17
-9.84744235e-17
-9.94157444e-17
-1.00452254e-16
-1.02830848e-16
-9.98268244e-17
-9.98169675e-17
-9.80824212e-17
-9.87872076e-17
-9.74084919e-17
-9.39923532e-17
-9.41267924e-17
-9.01447183e-17
-9.21544496e-17
-9.27425609e-17
-9.15081082e-17
-9.00352454e-17
-9.07012184e-17
-9.12465099e-17
-8.95816509e-17
-8.96997994e-17
-8.77410118e-17
-8.28626192e-17
-8.38664204e-17
-8.26013655e-17
-8.51017302e-17
-8.4745051e-17
-8.23877271e-17
-7.94815716e-17
-7.95272217e-17
-8.01497974e-17
-7.85433132e-17
-8.05920877e-17
-7.99874333e-17
-7.89755575e-17
-7.64925279e-17
-8.19206678e-17
-8.23567362e-17
-7.89743812e-17
-8.36554345e-17
-7.80204046e-17
-8.21460447e-17
-8.37213923e-17
-8.24179422e-17
-8.13485375e-17
-8.07189953e-17
-7.81931376e-17
-8.03337017e-17
-7.76209342e-17
-7.48155377e-17
-7.67557102e-17
-7.54934835e-17
-7.54986344e-17
-7.65264312e-17
-7.54322812e-17
-7.29139522e-17
-7.19807693e-17
-7.05929586e-17
-6.72026954e-17
-6.72301556e-17
-6.68100592e-17
-6.87791562e-17
-7.01628455e-17
-7.03840375e-17
-6.80251519e-17
-6.42579379e-17
-6.14091859e-17
-6.32241304e-17
-6.3958378e-17
-6.28020243e-17
-6.03608424e-17
-6.3534072e-17
-5.89834556e-17
-5.95226015e-17
-5.98656607e-17
-6.01127687e-17
-5.99758073e-17
-5.89750607e-17
-5.87438193e-17
-6.0794735e-17
-5.70334737e-17
-6.07841274e-17
-5.8974811e-17
-5.88964981e-17
-5.83960242e-17
-5.65599191e-17
-5.47634002e-17
-5.34111972e-17
-5.42686498e-17
-4.99953615e-17
-4.95000774e-17
-5.02494251e-17
-4.99813909e-17
-4.98907683e-17
-4.9737375e-17
-5.11507374e-17
-5.07612048e-17
-5.09185631e-17
-5.09497907e-17
-5.26124621e-17
-5.15339438e-17
-5.09733532e-17
-5.0559432e-17
-4.83240815e-17
-5.20668046e-17
-4.99912457e-17
-4.79836614e-17
-4.70629926e-17
-4.55545204e-17
-4.5035968e-17
-4.54811846e-17
-4.5843175e-17
-4.30117784e-17
-4.39536059e-17
-4.49589105e-17
-4.53281404e-17
-4.43501017e-17
-4.11455508e-17
-4.33690123e-17
-3.96474033e-17
-4.40269399e-17
-4.08890393e-17
-3.73719471e-17
-3.40029587e-17
-3.60151497e-17
-3.394198e-17
-3.23572515e-17
-3.71375587e-17
-3.85511582e-17
-3.71890095e-17
-3.78769602e-17
-3.78821876e-17
-3.77836229e-17
-3.9516193e-17
-4.07169043e-17
-3.88939105e-17
-3.7253183e-17
-3.87074978e-17
-3.52735463e-17
-3.67753525e-17
-3.748117e-17
-3.64432947e-17
-3.72977448e-17
-3.77370882e-17
-3.70264723e-17
-3.5759223e-17
-3.27429106e-17
-3.32725921e-17
-3.25869138e-17
-3.34951692e-17
-3.58408211e-17
-3.43068534e-17
-3.39694018e-17
-3.11653196e-17
-3.16812046e-17
-3.16717093e-17
-3.01283371e-17
-2.81515283e-17
-2.75353374e-17
-2.7211216e-17
-2.32458221e-17
-2.77098031e-17
-3.00282826e-17
-3.23610776e-17
-2.78805613e-17
-2.53145387e-17
-2.10033686e-17
-2.284518e-17
-2.38509272e-17
-2.41537039e-17
-2.68563552e-17
-2.62915824e-17
-2.49643041e-17
-2.42112647e-17
-2.50704046e-17
-2.40469314e-17
-2.59486329e-17
-2.17794785e-17
-2.02470644e-17
-2.07296869e-17
-1.51943318e-17
-1.64420678e-17
-1.55207986e-17
-1.31189552e-17
-1.4453273e-17
-9.89469038e-18
-1.22052994e-17
-1.00218176e-17
-1.37578812e-17
-1.46144514e-17
-1.34900586e-17
-1.35207932e-17
-1.18928086e-17
-1.19254109e-17
-8.45744147e-18
-1.0191551e-17
-1.20599358e-17
-1.1918693e-17
-1.52680748e-17
-1.46225389e-17
-1.26551684e-17
-1.24195404e-17
-1.12550362e-17
-1.1004186e-17
-8.11412355e-18
-6.08882442e-18
-4.23829786e-18
-5.21235639e-18
-1.4020278e-18
3.49839295e-18
7.05745439e-18
1.14550426e-17
1.1643185e-17
7.35448128e-18
7.83335505e-18
8.21311794e-18
8.36356898e-18
8.50917561e-18
1.0006106e-17
1.14899352e-17
1.12002555e-17
1.07901698e-17
1.10302346e-17
1.08295044e-17
9.38450889e-18
1.22429154e-17
1.12085602e-17
1.38587887e-17
1.27756949e-17
1.38329849e-17
1.29706111e-17
1.11044365e-17
1.06125463e-17
1.22047395e-17
1.43192543e-17
1.50050897e-17
1.40555593e-17
1.69133791e-17
1.54490084e-17
1.40401883e-17
1.48567593e-17
1.43824881e-17
1.4253039e-17
1.46737999e-17
1.57844313e-17
1.64061521e-17
1.7746941e-17
2.04304867e-17
2.18938822e-17
1.98948495e-17
1.93290687e-17
1.89199754e-17
2.10728869e-17
1.97759524e-17
2.31360319e-17
2.20982395e-17
1.99173614e-17
2.29821594e-17
2.072567e-17
2.05232459e-17
1.75886057e-17
1.92430618e-17
2.01404131e-17
2.11733173e-17
1.96233191e-17
2.04809107e-17
2.07947839e-17
2.22585662e-17
2.25111163e-17
2.32287974e-17
2.42164017e-17
2.80910182e-17
2.42475262e-17
2.42196221e-17
2.71947142e-17
2.67604536e-17
2.96258656e-17
2.48907689e-17
2.83139588e-17
2.66599567e-17
2.6837403e-17
2.33209263e-17
2.71204619e-17
2.5572016e-17
2.66891514e-17
2.40938701e-17
2.67374817e-17
2.33386753e-17
2.61246695e-17
2.30316849e-17
2.21398107e-17
2.62890505e-17
2.4639848e-17
2.10222167e-17
2.0929467e-17
2.07591068e-17
1.88884328e-17
1.43584042e-17
1.94957948e-17
1.8513312e-17
2.11924036e-17
2.0373745e-17
2.01377862e-17
2.11700725e-17
2.28133165e-17
2.67192164e-17
2.64895177e-17
3.13742505e-17
3.00180658e-17
3.07462029e-17
2.98577317e-17
3.07078843e-17
3.18418982e-17
3.22037217e-17
3.07047384e-17
3.29387375e-17
2.97778331e-17
3.29917117e-17
3.4921168e-17
3.43657217e-17
3.48598754e-17
4.16255895e-17
4.11314174e-17
4.35126295e-17
4.08348777e-17
4.36850705e-17
4.10303165e-17
4.27461765e-17
4.49731539e-17
4.40108355e-17
4.38083701e-17
4.29059031e-17
4.5189871e-17
4.52674841e-17
4.3021408e-17
4.18494954e-17
4.5580326e-17
4.39756618e-17
4.57962811e-17
4.58861093e-17
4.55267713e-17
4.51729693e-17
4.79199705e-17
4.87238548e-17
5.04144928e-17
5.12925392e-17
4.72360576e-17
4.54769225e-17
4.53576162e-17
4.63629036e-17
4.42160936e-17
4.61715973e-17
4.70054913e-17
4.93675652e-17
5.1773342e-17
4.98172509e-17
4.89046478e-17
5.17958639e-17
4.97519156e-17
5.21479544e-17
4.85376183e-17
4.93702732e-17
4.62782636e-17
4.60080685e-17
4.53263195e-17
4.83717611e-17
4.94052617e-17
4.54605677e-17
4.63331226e-17
4.49917516e-17
4.47322039e-17
4.73550332e-17
4.37081946e-17
4.63820487e-17
4.71293713e-17
4.95040486e-17
4.8438437e-17
4.84316539e-17
4.83529412e-17
4.64995925e-17
4.37304814e-17
4.49844737e-17
4.61318737e-17
4.77752407e-17
4.68740394e-17
4.48674454e-17
4.44495973e-17
4.38595959e-17
4.61392415e-17
4.39530894e-17
4.32011548e-17
4.3830859e-17
4.29090007e-17
4.60177185e-17
4.64055512e-17
5.10896599e-17
4.86075491e-17
4.56864121e-17
4.32322944e-17
4.69340557e-17
4.49659902e-17
4.36303786e-17
4.47105119e-17
4.15949568e-17
4.36726911e-17
4.28069609e-17
4.771256e-17
4.91672491e-17
4.7978685e-17
4.67160528e-17
4.89698276e-17
4.54636871e-17
4.9017667e-17
4.85054065e-17
5.10732225e-17
5.1676864e-17
4.75709865e-17
4.88385164e-17
4.97887363e-17
5.03399215e-17
4.6833724e-17
4.72220377e-17
4.87023474e-17
4.67205575e-17
4.78231567e-17
5.12386798e-17
4.86040887e-17
5.02358969e-17
4.85647641e-17
4.83485203e-17
5.11174661e-17
4.6656325e-17
4.57740508e-17
4.4741271e-17
4.43035479e-17
4.50947365e-17
4.70873145e-17
4.79973615e-17
4.49611435e-17
4.55336923e-17
4.55062951e-17
5.06084038e-17
4.733986e-17
5.1131966e-17
5.02086895e-17
4.65880967e-17
4.73584287e-17
4.6912997e-17
4.51194856e-17
4.54960756e-17
4.50956399e-17
4.28269911e-17
4.81914979e-17
4.84919102e-17
4.5911029e-17
4.5415468e-17
4.54602223e-17
4.62012356e-17
5.09955848e-17
4.8592054e-17
4.8602902e-17
4.56683543e-17
4.73239128e-17
4.80209158e-17
5.20590079e-17
4.96653272e-17
4.86815267e-17
5.17273892e-17
5.31538525e-17
5.30722644e-17
4.89202433e-17
5.03156136e-17
5.0068781e-17
5.12868795e-17
5.12854544e-17
5.0975035e-17
5.07651354e-17
5.12534154e-17
5.41992514e-17
5.33977825e-17
5.1948022e-17
5.05325749e-17
5.04594098e-17
4.75271928e-17
5.09588209e-17
4.99643014e-17
5.2161951e-17
5.28229165e-17
5.36623579e-17
5.44336031e-17
5.19599542e-17
5.41793545e-17
5.13343562e-17
5.24170583e-17
5.31933153e-17
5.48509081e-17
5.28983991e-17
5.2668736e-17
5.56962326e-17
5.27752139e-17
5.40217665e-17
5.08661966e-17
5.20166035e-17
5.47262174e-17
5.67815307e-17
5.61190698e-17
5.54438487e-17
5.80558818e-17
5.8016009e-17
5.76402005e-17
5.82381797e-17
5.67182438e-17
5.99088742e-17
5.73884607e-17
5.83614925e-17
5.82029574e-17
6.07171906e-17
5.94938117e-17
5.95440826e-17
5.81633267e-17
5.52948389e-17
5.67810714e-17
5.49124169e-17
5.61694584e-17
5.56062514e-17
5.68247963e-17
5.8006487e-17
5.65567571e-17
5.5622033e-17
5.63708582e-17
5.55556173e-17
5.76237948e-17
5.96931515e-17
5.76787711e-17
5.56622748e-17
5.66987304e-17
5.59901206e-17
5.91709826e-17
5.51827045e-17
5.37751622e-17
5.52099758e-17
5.60780494e-17
5.47063961e-17
5.61464672e-17
5.29821006e-17
5.37360913e-17
5.65906937e-17
5.4303085e-17
5.42748104e-17
5.37984865e-17
5.40182517e-17
5.32552421e-17
5.50927557e-17
5.42224117e-17
5.45707809e-17
5.63231343e-17
5.67408505e-17
5.86914205e-17
5.88239959e-17
5.93648921e-17
5.72392189e-17
5.52139582e-17
5.51718494e-17
5.67313626e-17
5.39035365e-17
5.50159203e-17
5.32386819e-17
5.28604223e-17
5.50820923e-17
5.50731826e-17
5.38537107e-17
5.39207962e-17
5.6559114e-17
5.5689836e-17
5.40587191e-17
5.43279363e-17
5.40147202e-17
5.66378353e-17
5.39769177e-17
5.37315956e-17
5.62526658e-17
5.53548648e-17
5.32881589e-17
5.26580929e-17
5.20441285e-17
5.19873649e-17
5.07347689e-17
5.37652996e-17
5.0705762e-17
5.07496885e-17
5.17372454e-17
4.75884846e-17
4.7935421e-17
4.57701956e-17
4.6939099e-17
4.61592984e-17
4.5515425e-17
4.68742117e-17
4.66356921e-17
5.2523435e-17
5.30063914e-17
5.3174038e-17
5.56313787e-17
5.49215111e-17
5.41349042e-17
5.34570269e-17
5.54898615e-17
5.54368345e-17
5.61370672e-17
5.29385274e-17
5.28369993e-17
5.32617941e-17
5.30688038e-17
5.58857317e-17
5.99119544e-17
5.73353066e-17
5.44010222e-17
5.26852262e-17
5.31499457e-17
5.24490461e-17
5.13543387e-17
5.28094072e-17
5.04110676e-17
4.9562525e-17
5.12824525e-17
5.05223269e-17
5.00065115e-17
4.91500417e-17
5.06712565e-17
5.44724328e-17
5.45037192e-17
5.19786904e-17
5.3232055e-17
5.08113808e-17
5.04767401e-17
5.05488456e-17
5.11894487e-17
5.23767452e-17
5.03963378e-17
5.31821162e-17
5.20245427e-17
5.25837804e-17
5.33401925e-17
5.17667075e-17
5.06161982e-17
5.17364936e-17
5.02475385e-17
4.80527575e-17
4.58127112e-17
4.1934421e-17
4.40050435e-17
4.27027541e-17
4.34367585e-17
4.76941135e-17
4.49626547e-17
4.36127812e-17
3.92259245e-17
4.00389907e-17
3.56838668e-17
3.8042998e-17
3.64666656e-17
3.53551986e-17
3.86160674e-17
4.00774724e-17
4.16449886e-17
3.81448276e-17
3.27024506e-17
3.40204179e-17
3.44064633e-17
3.38255979e-17
3.44409064e-17
3.31274991e-17
2.99566525e-17
2.97830729e-17
2.5465532e-17
2.6762047e-17
2.19634463e-17
1.96236905e-17
2.03301042e-17
1.76270065e-17
1.7703617e-17
1.78011402e-17
1.70101343e-17
2.02476338e-17
2.00507289e-17
1.85011098e-17
1.95488633e-17
1.70773888e-17
1.62220803e-17
1.20898694e-17
1.5403753e-17
1.590755e-17
1.52416625e-17
1.58894916e-17
1.85593426e-17
1.77870613e-17
1.68437326e-17
1.86497767e-17
1.94172819e-17
2.00402003e-17
1.49597635e-17
1.28829822e-17
1.19886717e-17
1.21406477e-17
1.25699022e-17
1.31888048e-17
1.14864718e-17
1.1722987e-17
1.1956713e-17
1.40206732e-17
1.40907687e-17
1.06918807e-17
1.30424253e-17
9.2900868e-18
1.36412283e-17
1.24710288e-17
1.08268865e-17
1.45846218e-17
1.18768616e-17
1.21441573e-17
1.36174517e-17
1.49119297e-17
1.3119326e-17
1.22389405e-17
1.20269892e-17
1.1165194e-17
1.07399951e-17
9.6183379e-18
1.13677323e-17
7.32774055e-18
7.87543647e-18
3.11621811e-18
5.05580187e-18
5.23952719e-18
3.77877715e-18
2.04120188e-18
1.88053161e-18
1.07248081e-18
-2.79100329e-18
-1.34505683e-18
-1.04845469e-18
-2.61458298e-18
-4.58741623e-18
-7.01636448e-18
-6.06207758e-18
-4.6932785e-18
-7.79479288e-18
-9.58511424e-18
-8.93760359e-18
-1.21471625e-17
-9.45410182e-18
-9.13367194e-18
-8.94104584e-18
-1.19487064e-17
-1.26237464e-17
-1.35014555e-17
-1.47976748e-17
-1.77553299e-17
-1.85952251e-17
-1.75505024e-17
-1.70240259e-17
-1.92368725e-17
-1.81182797e-17
-1.87975188e-17
-2.17555882e-17
-2.38918417e-17
-2.61906098e-17
-2.72647556e-17
-2.90666664e-17
-2.88053858e-17
-2.77318928e-17
-2.82074569e-17
-3.01188414e-17
-3.15851413e-17
-3.00914248e-17
-3.18590794e-17
-2.90555515e-17
-2.88297911e-17
-3.00895939e-17
-2.96504661e-17
-3.17411789e-17
-2.97007214e-17
-2.9731051e-17
-2.76254625e-17
-2.64816708e-17
-2.85958981e-17
-3.05637681e-17
-3.32750371e-17
-3.30217788e-17
-3.07113194e-17
-3.04818815e-17
-3.40698618e-17
-3.01631211e-17
-3.31102675e-17
-3.21930054e-17
-2.97050323e-17
-2.89064183e-17
-3.18383806e-17
-3.10482614e-17
-3.35206961e-17
-3.24060675e-17
-3.0529841e-17
-2.88204295e-17
-2.9341401e-17
-2.65856454e-17
-2.76426968e-17
-2.43984467e-17
-2.46701049e-17
-2.4900895e-17
-2.46164069e-17
-2.74121272e-17
-2.72676583e-17
-2.35298865e-17
-2.49280103e-17
-2.87738493e-17
-3.4097483e-17
-3.15499595e-17
-3.41892798e-17
-3.2799462e-17
-3.38778121e-17
-3.37339236e-17
-3.40322124e-17
-3.36664053e-17
-3.69938062e-17
-3.28882022e-17
-3.33838955e-17
-3.64965722e-17
-3.48476558e-17
-3.54819203e-17
-3.2369386e-17
-3.76691314e-17
-3.66949679e-17
-3.82397902e-17
-4.08659334e-17
-3.93624334e-17
-3.92289753e-17
-3.7879766e-17
-3.99058793e-17
-3.69661861e-17
-3.48851306e-17
-4.2291762e-17
-4.37378745e-17
-4.08677195e-17
-3.91758913e-17
-4.42930982e-17
-4.39480603e-17
-4.54276913e-17
-4.37265421e-17
-4.51107612e-17
-4.45047274e-17
-4.53501042e-17
-4.63949756e-17
-4.67501315e-17
-4.87404747e-17
-4.67379544e-17
-4.89135066e-17
-4.69359355e-17
-4.69352292e-17
-4.28279408e-17
-4.46780517e-17
-4.21511728e-17
-4.35699111e-17
-4.26960081e-17
-4.38836282e-17
-4.4160216e-17
-4.55073119e-17
-4.3642358e-17
-4.45260059e-17
-4.2892803e-17
-4.49474544e-17
-4.00267649e-17
-3.89078722e-17
-4.0212017e-17
-4.01454117e-17
-3.94367438e-17
-3.71412693e-17
-3.95405618e-17
-4.02213923e-17
-4.3816164e-17
-4.57434712e-17
-4.3966872e-17
-4.49755526e-17
-4.16236964e-17
-4.11201589e-17
-3.71699134e-17
-3.86245172e-17
-3.75176867e-17
-3.9700702e-17
-3.82263391e-17
-3.87871306e-17
-3.81115633e-17
-3.40360279e-17
-3.69792351e-17
-3.59830522e-17
-3.79221207e-17
-4.04222697e-17
-4.35649235e-17
-4.46645374e-17
-4.36821317e-17
-4.33793316e-17
-4.62134906e-17
-4.68216946e-17
-4.91065281e-17
-4.68874367e-17
-4.9922825e-17
-5.24658581e-17
-5.11764762e-17
-5.25132553e-17
-5.40206242e-17
-5.36022071e-17
-5.05439972e-17
-5.11192234e-17
-5.22163404e-17
-5.31631663e-17
-5.24660073e-17
-5.43976896e-17
-5.1055178e-17
-4.9519368e-17
-5.09003169e-17
-5.339474e-17
-5.45361906e-17
-5.57312097e-17
-5.53270781e-17
-5.76439449e-17
-5.63779584e-17
-5.4974492e-17
-5.55348912e-17
-5.62038781e-17
-5.6279168e-17
-5.53730424e-17
-5.52199942e-17
-5.61158673e-17
-5.89250223e-17
-5.68174901e-17
-5.62518149e-17
-5.61838495e-17
-5.36536623e-17
-5.41406956e-17
-5.71988812e-17
-6.13481221e-17
-6.10828287e-17
-5.96999077e-17
-6.05088514e-17
-5.81398711e-17
-6.02967648e-17
-6.21942854e-17
-6.08217622e-17
-5.67955747e-17
-6.09362796e-17
-6.10610941e-17
-5.78369466e-17
-5.54406565e-17
-5.65629046e-17
-5.71658043e-17
-5.82317868e-17
-5.67315034e-17
-5.95403649e-17
-5.80718535e-17
-5.67173663e-17
-5.48455699e-17
-5.40327923e-17
-5.42808134e-17
-5.37622159e-17
-5.25789992e-17
-5.23626781e-17
-5.61394357e-17
-5.80543742e-17
-5.66393406e-17
-5.40274793e-17
-5.49154446e-17
-5.16241866e-17
-5.27398532e-17
-5.4378954e-17
-5.21813954e-17
-5.29001766e-17
-5.29915034e-17
-5.51140605e-17
-5.52236132e-17
-5.48757084e-17
-5.51313187e-17
-5.64114207e-17
-5.41595581e-17
-5.55895028e-17
-5.53632809e-17
-5.22827987e-17
-5.21502195e-17
-5.38565578e-17
-5.4701498e-17
-5.45527568e-17
-5.74251199e-17
-5.84064288e-17
-5.61770959e-17
-5.63136014e-17
-5.86322632e-17
-5.8965727e-17
-5.80413286e-17
-5.87685702e-17
-6.07014472e-17
-5.93378872e-17
-6.16377602e-17
-6.45644353e-17
-6.64827709e-17
-6.16679891e-17
-6.11271566e-17
-6.13063102e-17
-6.02150928e-17
-5.87006702e-17
-5.95284552e-17
-5.85133833e-17
-5.69048e-17
-5.30417144e-17
-5.55520416e-17
-5.61743459e-17
-5.29429642e-17
-5.80340813e-17
-5.57971238e-17
-5.76987577e-17
-5.88686388e-17
-5.8891707e-17
-6.1543358e-17
-6.02619301e-17
-5.95035666e-17
-5.72591122e-17
-5.51147738e-17
-5.50712762e-17
-5.91499863e-17
-5.81207275e-17
-5.9348178e-17
-5.86292604e-17
-5.87719643e-17
-5.9190982e-17
-6.19685705e-17
-6.14927913e-17
-5.93500449e-17
-6.24838721e-17
-5.98233517e-17
-5.4683022e-17
-5.56295779e-17
-5.52519e-17
-5.67328214e-17
-6.20542957e-17
-5.7148572e-17
-5.94718787e-17
-5.81695974e-17
-5.48634534e-17
-5.306387e-17
-5.45269624e-17
-5.34436246e-17
-5.46870473e-17
-5.49576761e-17
-5.49521498e-17
-5.46854119e-17
-5.78056017e-17
-5.52920908e-17
-5.58827058e-17
-5.5311304e-17
-5.96212036e-17
-5.55779176e-17
-5.64800404e-17
-5.53993279e-17
-5.42515913e-17
-5.60092828e-17
-5.48079895e-17
-5.86983941e-17
-5.52652803e-17
-5.28238454e-17
-5.19819417e-17
-5.31953542e-17
-5.30759138e-17
-5.26983058e-17
-5.28588413e-17
-5.67241889e-17
-5.5512424e-17
-5.69876439e-17
-5.54483572e-17
-5.53081875e-17
-5.66774011e-17
-5.65979019e-17
-5.51716435e-17
-5.36285778e-17
-5.19815842e-17
-5.18560813e-17
-5.18254106e-17
-5.00259434e-17
-5.17625814e-17
-5.15324528e-17
-5.34235421e-17
-5.296835e-17
-4.79238102e-17
-5.03236468e-17
-5.1769883e-17
-5.25657498e-17
-5.48961863e-17
-5.64968764e-17
-5.73145939e-17
-5.59064105e-17
-5.41746734e-17
-5.83671984e-17
-5.73256347e-17
-5.39540926e-17
-5.53485203e-17
-5.4474587e-17
-5.61712187e-17
-5.36362672e-17
-5.5283736e-17
-5.15962328e-17
-5.52429951e-17
-5.30071843e-17
-5.18553527e-17
-5.50818075e-17
-5.23894016e-17
-5.23686462e-17
-5.01750213e-17
-5.17322517e-17
-5.14671983e-17
-5.14104083e-17
-5.22349608e-17
-5.17658166e-17
-5.39664841e-17
-5.24776501e-17
-5.27430811e-17
-5.2761401e-17
-5.1129614e-17
-5.28567501e-17
-5.32721287e-17
-5.43752877e-17
-4.99845513e-17
-4.95788247e-17
-4.84232669e-17
-4.8430584e-17
-5.17154399e-17
-4.80514461e-17
-5.09385631e-17
-4.69348408e-17
-4.36558344e-17
-4.12502886e-17
-4.36795104e-17
-4.07247327e-17
-4.34287913e-17
-4.08703507e-17
-4.3335172e-17
-4.40001574e-17
-4.26334804e-17
-4.14364538e-17
-4.17298231e-17
-4.1921241e-17
-4.36800461e-17
-4.35469517e-17
-4.37786791e-17
-4.50942067e-17
-4.46539016e-17
-4.32006535e-17
-4.29336909e-17
-4.26054903e-17
-4.11593711e-17
-4.16649869e-17
-4.09846423e-17
-4.1872221e-17
-4.28098582e-17
-3.85969368e-17
-3.67861143e-17
-3.6980749e-17
-3.82443058e-17
-3.95575964e-17
-4.33829776e-17
-3.94978055e-17
-4.16763262e-17
-3.85406459e-17
-3.56487851e-17
-3.43747229e-17
-3.19480276e-17
-3.08308771e-17
-2.93340166e-17
-3.16956849e-17
-3.05931879e-17
-3.04934022e-17
-3.0435086e-17
-3.02520448e-17
-2.7874243e-17
-2.56268853e-17
-2.65035253e-17
-2.26169449e-17
-2.50646494e-17
-2.16746893e-17
-2.14740388e-17
-1.89624259e-17
-2.01476146e-17
-2.02501003e-17
-1.94116084e-17
-1.67608135e-17
-1.6403992e-17
-1.60707604e-17
-2.01237527e-17
-2.07517041e-17
-2.23256266e-17
-2.31692743e-17
-1.97162569e-17
-2.35524124e-17
-2.19360243e-17
-2.25423488e-17
-2.37405257e-17
-2.18058192e-17
-2.4980883e-17
-2.29958308e-17
-2.28737059e-17
-2.26275588e-17
-2.30667136e-17
-2.44638506e-17
-2.2446767e-17
-2.64067559e-17
-2.72155564e-17
-2.77911326e-17
-3.26154624e-17
-3.03410708e-17
-3.12870014e-17
-2.70672925e-17
-2.49822054e-17
-2.68842162e-17
-2.49870082e-17
-2.28997486e-17
-1.71372124e-17
-1.91921265e-17
-1.40440566e-17
-1.82277872e-17
-1.67174013e-17
-1.52240942e-17
-1.67183251e-17
-1.68118593e-17
-1.72677053e-17
-1.26362344e-17
-1.58893987e-17
-1.43685131e-17
-1.58612765e-17
-1.52959963e-17
-7.6854996e-18
-4.84567093e-18
-5.67655304e-18
-5.05272512e-18
-5.56420906e-18
-5.69544117e-18
-8.9952925e-18
-6.73714653e-18
-6.83297031e-19
-5.35429322e-18
-1.38085841e-18
-3.48004935e-18
-5.23275226e-18
-5.42297005e-18
-8.51260965e-18
-1.2250266e-17
-1.17278429e-17
-8.2417978e-18
-7.18779832e-18
-3.69476213e-18
-4.60548843e-18
-1.7426646e-18
-2.54840856e-18
-3.45322527e-18
-2.2535047e-18
-2.18894581e-18
-1.30122027e-18
-4.2271668e-18
-1.11459602e-19
-1.7680425e-18
-6.88437743e-19
-8.9692558e-19
-2.74169956e-18
-3.32677109e-18
-2.80848337e-19
-1.00235704e-18
1.12024402e-18
1.81975421e-18
2.32639162e-18
2.02747089e-18
9.43055067e-19
1.44370743e-18
3.23381455e-18
4.93456308e-18
6.18046709e-18
6.98271979e-18
7.41478837e-18
1.24586684e-17
1.20766895e-17
1.20191956e-17
1.01809031e-17
1.3436424e-17
1.46708286e-17
1.53971104e-17
1.50916161e-17
1.23883342e-17
1.0662669e-17
1.06041121e-17
1.24569553e-17
1.25527577e-17
1.39117099e-17
1.26736787e-17
1.24206345e-17
1.19849783e-17
1.27521005e-17
1.39693522e-17
1.34051427e-17
1.12618207e-17
1.25901304e-17
1.41790427e-17
1.59899358e-17
1.49156911e-17
1.94149961e-17
1.81173341e-17
1.54585846e-17
1.7814805e-17
1.93801105e-17
1.74415619e-17
2.23778841e-17
2.13726765e-17
2.33124257e-17
2.52968516e-17
2.34314089e-17
2.38390499e-17
1.96067517e-17
2.15653175e-17
2.04608173e-17
2.03505465e-17
1.63900285e-17
1.93442722e-17
1.93652264e-17
1.90959372e-17
1.80093538e-17
2.11020567e-17
2.48293056e-17
2.65527234e-17
2.85152671e-17
3.3136115e-17
3.40588751e-17
3.48804595e-17
3.62581818e-17
3.83576215e-17
3.70891326e-17
3.46687173e-17
3.41383673e-17
3.83257165e-17
4.20449181e-17
3.84923383e-17
3.81302716e-17
4.27866389e-17
4.32856606e-17
4.76559296e-17
4.45839794e-17
4.81360947e-17
5.04811466e-17
4.96629782e-17
4.92144807e-17
4.85988694e-17
5.09071151e-17
5.13993775e-17
4.84869088e-17
4.67495747e-17
4.98234295e-17
4.76533638e-17
4.86982617e-17
4.99839949e-17
4.95353358e-17
4.95685455e-17
5.21221407e-17
5.06530688e-17
5.0337946e-17
4.99375329e-17
5.13640451e-17
5.29967197e-17
5.25382307e-17
5.3811268e-17
5.50100109e-17
5.57775351e-17
5.66015358e-17
5.82054952e-17
5.89076201e-17
5.79693569e-17
5.96556951e-17
6.07641328e-17
5.88704552e-17
6.07497049e-17
6.16120362e-17
6.50019828e-17
6.25705919e-17
6.62448949e-17
6.49254929e-17
6.31783907e-17
6.39104873e-17
6.40591805e-17
6.68696397e-17
6.7141636e-17
6.71274033e-17
6.84877976e-17
6.73849959e-17
6.83124646e-17
6.65567004e-17
6.61039797e-17
6.71663126e-17
6.99909629e-17
6.89623715e-17
7.00209125e-17
6.79470539e-17
6.92770104e-17
6.83611608e-17
6.57697696e-17
6.70824041e-17
6.70954756e-17
6.73833818e-17
6.74976637e-17
6.74602702e-17
6.87186116e-17
6.76046486e-17
6.65952466e-17
7.1726314e-17
7.1748101e-17
7.21978936e-17
7.61217028e-17
7.38012269e-17
7.31974875e-17
7.29489776e-17
7.40610279e-17
7.74375702e-17
7.85106396e-17
8.07888505e-17
8.13388743e-17
8.11110224e-17
8.16679541e-17
7.8418682e-17
7.86842587e-17
7.61833194e-17
7.5846308e-17
7.43555927e-17
7.46470592e-17
8.14380737e-17
8.17740567e-17
8.25414297e-17
8.1437775e-17
8.04990578e-17
8.09560729e-17
8.1186144e-17
7.7630886e-17
8.4302871e-17
8.64015542e-17
8.78591269e-17
8.98930632e-17
9.01469146e-17
9.09563945e-17
8.9401839e-17
9.10735088e-17
8.98672159e-17
9.28118853e-17
9.40321146e-17
9.19211321e-17
9.36521892e-17
9.27716172e-17
9.62517066e-17
9.75741835e-17
9.80365082e-17
1.02023308e-16
9.9267261e-17
1.00051916e-16
1.04086521e-16
1.07206401e-16
1.06747839e-16
1.07300496e-16
1.08553815e-16
1.0766152e-16
1.1178089e-16
1.14101348e-16
1.16193437e-16
1.14673854e-16
1.16405136e-16
1.18231865e-16
1.20666696e-16
1.23157444e-16
1.25161318e-16
1.23484655e-16
1.27310122e-16
1.30983915e-16
1.34581725e-16
1.35587941e-16
1.40187292e-16
1.44457506e-16
1.44058202e-16
1.54103056e-16
1.59381748e-16
1.64499555e-16
1.67927918e-16
1.7385236e-16
1.81284286e-16
1.86207675e-16
1.90936509e-16
2.00127733e-16
2.09830126e-16
2.19379404e-16
2.33594756e-16
2.49599843e-16
2.59176377e-16
2.69279846e-16
2.86155507e-16
3.03674596e-16
3.19372757e-16
3.35590009e-16
3.55328345e-16
3.78115381e-16
4.02786266e-16
4.33775788e-16
4.63408629e-16
4.92060213e-16
5.24194393e-16
5.60928137e-16
6.00183966e-16
6.43963223e-16
6.92408373e-16
7.3906201e-16
7.92387527e-16
8.56024905e-16
9.21181085e-16
9.90832546e-16
1.07135907e-15
1.15319113e-15