/*--------------------------------*- C++ -*----------------------------------*\
| =========                 |                                                 |
| \\      /  F ield         | OpenFOAM: The Open Source CFD Toolbox           |
|  \\    /   O peration     | Version:  2206                                  |
|   \\  /    A nd           | Website:  www.openfoam.com                      |
|    \\/     M anipulation  |                                                 |
\*---------------------------------------------------------------------------*/
FoamFile
{
    version     2.0;
    format      ascii;
    arch        "LSB;label=32;scalar=64";
    class       volScalarField;
    location    "1.14e-05";
    object      PVsourcePV;
}
// * * * * * * * * * * * * * * * * * * * * * * * * * * * * * * * * * * * * * //

dimensions      [1 -3 -1 0 0 0 0];

internalField   nonuniform List<scalar> 
3183
(
0
0
0
0
0
0
0
0
0
0
0
0
0
0
0
0
0
0
0
0
0
0
0
0
0
0
0
0
0
0
0
0
0
0
0
0
0
0
0
0
0
0
0
0
0
0
0
0
0
0
0
0
0
0
0
0
0
0
0
0
0
0
0
0
0
0
0
0
0
0
0
0
0
0
0
0
0
0
0
0
0
0
0
0
0
0
0
0
0
0
0
0
0
0
0
0
0
0
0
0
0
0
0
0
0
0
0
0
0
0
0
0
0
0
0
0
0
0
0
0
0
0
0
0
0
0
0
0
0
0
0
0
0
0
0
0
0
0
0
0
0
0
0
0
0
0
0
0
0
0
0
0
0
0
0
0
0
0
0
0
0
0
0
0
0
0
0
0
0
0
0
0
0
0
0
0
0
0
0
0
0
0
0
0
0
0
0
0
0
0
0
0
0
0
0
0
0
0
0
0
0
0
0
0
0
0
0
0
0
0
0
0
0
0
0
0
0
0
0
0
0
0
0
0
0
0
0
0
0
0
0
0
0
0
0
0
0
0
0
0
0
0
0
0
0
0
0
0
0
0
0
0
0
0
0
0
0
0
0
0
0
0
0
0
0
0
0
0
0
0
0
0
0
0
0
0
0
0
0
0
0
0
0
0
0
0
0
0
0
0
0
0
0
0
0
0
0
0
0
0
0
0
0
0
0
0
0
0
0
0
0
0
0
0
0
0
0
0
0
0
0
0
0
0
0
0
0
0
0
0
0
0
0
0
0
0
0
0
0
0
0
0
0
0
0
0
0
0
0
0
0
0
0
0
0
0
0
0
0
0
0
0
0
0
0
0
0
0
0
0
0
0
0
0
0
0
0
0
0
0
0
0
0
0
0
0
0
0
0
0
0
0
0
0
0
0
0
0
0
0
0
0
0
0
0
0
0
0
0
0
0
0
0
0
0
0
0
0
0
0
0
0
0
0
0
0
0
0
0
0
0
0
0
0
0
0
0
0
0
0
0
0
0
0
0
0
0
0
0
0
0
0
0
0
0
0
0
0
0
0
0
0
0
0
0
0
0
0
0
0
0
0
0
0
0
0
0
0
0
0
0
0
0
0
0
0
0
0
0
0
0
0
0
0
0
0
0
0
0
0
0
0
0
0
0
0
0
0
0
0
0
0
0
0
0
0
0
0
0
0
0
0
0
0
0
0
0
0
0
0
0
0
0
0
0
0
0
0
0
0
0
0
0
0
0
0
0
0
0
0
0
0
0
0
0
0
0
0
0
0
0
0
0
0
0
0
0
0
0
0
0
0
0
0
0
0
0
0
0
0
0
0
0
0
0
0
0
0
0
0
0
0
0
0
0
0
0
0
0
0
0
0
0
0
0
0
0
0
0
0
0
0
0
0
0
0
0
0
0
0
0
0
0
0
0
0
0
0
0
0
0
0
0
0
0
0
0
0
0
0
0
0
0
0
0
0
0
0
0
0
0
0
0
0
0
0
0
0
0
0
0
0
0
0
0
0
0
0
0
0
0
0
0
0
0
0
0
0
0
0
0
0
0
0
0
0
0
0
0
0
0
0
0
0
0
0
0
0
0
0
0
0
0
0
0
0
0
0
0
0
0
0
0
0
0
0
0
0
0
0
0
0
0
0
0
0
0
0
0
0
0
0
0
0
0
0
0
0
0
0
0
0
0
0
0
0
0
0
0
0
0
0
0
0
0
0
0
0
0
0
0
0
0
0
0
0
0
0
0
0
0
0
0
0
0
0
0
0
0
0
0
0
0
0
0
0
0
0
0
0
0
0
0
0
0
0
0
0
0
0
0
0
0
0
0
0
0
0
0
0
0
0
0
0
0
0
0
0
0
0
0
0
0
0
0
0
0
0
0
0
0
0
0
0
0
0
0
0
0
0
0
0
0
0
0
0
0
0
0
0
0
0
0
0
0
0
0
0
0
0
0
0
0
0
0
0
0
0
0
0
0
0
0
0
0
0
0
0
0
0
0
0
0
0
0
0
0
0
0
0
0
0
0
0
0
0
0
0
0
0
0
0
0
0
0
0
0
0
0
0
0
0
0
0
0
0
0
0
0
0
0
0
0
0
0
0
0
0
0
0
0
0
0
0
0
0
0
0
0
0
0
0
0
0
0
0
0
0
0
0
0
0
0
0
0
0
0
0
0
0
0
0
0
0
0
0
0
0
0
0
0
0
0
0
0
0
0
0
0
0
0
0
0
0
0
0
0
0
0
0
0
0
0
0
0
0
0
0
0
0
0
0
0
0
0
0
0
0
0
0
0
0
0
0
0
0
0
0
0
0
0
0
0
0
0
0
0
0
0
0
0
0
0
0
0
0
0
0
0
0
0
0
0
0
0
0
0
0
0
0
0
0
0
0
0
0
0
0
0
0
0
0
0
0
0
0
0
0
0
0
0
0
0
0
0
0
0
0
0
0
0
0
0
0
0
0
0
0
0
0
0
0
0
0
0
0
0
0
0
0
0
0
0
0
0
0
0
0
0
0
0
0
0
0
0
0
0
0
0
0
0
0
0
0
0
0
0
0
0
0
0
0
0
0
0
0
0
0
0
0
0
0
0
0
0
0
0
0
0
0
0
0
0
0
0
0
0
0
0
0
0
0
0
0
0
0
0
0
0
0
0
0
0
0
0
0
0
0
0
0
0
0
0
0
0
0
0
0
0
0
0
0
0
0
0
0
0
0
0
0
0
0
0
0
0
0
0
0
0
0
0
0
0
0
0
0
0
0
0
0
0
0
0
0
0
0
0
0
0
0
0
0
0
0
0
0
0
0
0
0
0
0
0
0
0
0
0
0
0
0
0
0
0
0
0
0
0
0
0
0
0
0
0
0
0
0
0
0
0
0
0
0
0
0
0
0
0
0
0
0
0
0
0
0
0
0
0
0
0
0
0
0
0
0
0
0
0
0
0
0
0
0
0
0
0
0
0
0
0
0
0
0
0
0
0
0
0
0
0
0
0
0
0
0
0
0
0
0
0
0
0
0
0
0
0
0
0
0
0
0
0
0
0
0
0
0
0
0
0
0
0
0
0
0
0
0
0
0
0
0
0
0
0
0
0
0
0
0
0
0
0
0
0
0
0
0
0
0
0
0
0
0
0
0
0
0
0
0
0
0
0
0
0
0
0
0
0
0
0
0
0
0
0
0
0
0
0
0
0
0
0
0
0
0
0
0
0
0
0
0
0
0
0
0
0
0
0
0
0
0
0
0
0
0
0
0
0
0
0
0
0
0
0
0
0
0
0
0
0
0
0
0
0
0
0
0
0
0
0
0
0
0
0
0
0
0
0
0
0
0
0
0
0
0
0
0
0
0
0
0
0
0
0
0
0
0
0
0
0
0
0
0
0
0
0
0
0
0
0
0
0
0
0
0
0
0
0
0
0
0
0
0
0
0
0
0
0
0
0
0
0
0
0
0
0
0
0
0
0
0
0
0
0
0
0
0
0
0
0
0
0
0
0
0
0
0
0
0
0
0
0
0
0
0
0
0
0
0
0
0
0
0
0
0
0
0
0
0
0
0
0
0
0
0
0
0
0
0
0
0
0
0
0
0
0
0
0
0
0
0
0
0
0
0
0
0
0
0
0
0
0
0
0
0
0
0
0
0
0
0
0
0
0
0
0
0
0
0
0
0
0
0
0
0
0
0
0
0
0
0
0
0
0
0
0
0
0
0
0
0
0
0
0
0
0
0
0
0
0
0
0
0
0
0
0
0
0
0
0
0
0
0
0
0
0
0
0
0
0
0
0
0
0
0
0
0
0
0
0
0
0
0
0
0
0
0
0
0
0
0
0
0
0
0
0
0
0
0
0
0
0
0
0
0
0
0
0
0
0
0
0
0
0
0
0
0
0
0
0
0
0
0
0
0
0
0
0
0
0
0
0
0
0
0
0
0
0
0
0
0
0
0
0
0
0
0
0
0
0
0
0
0
0
0
0
0
0
0
0
0
0
0
0
0
0
0
0
0
0
0
0
0
0
0
0
0
0
0
0
0
0
0
0
0
0
0
0
0
0
0
0
0
0
0
0
0
0
0
0
0
0
0
0
0
0
0
0
0
0
0
0
0
0
0
0
0
0
0
0
0
0
0
0
0
0
0
0
0
0
0
0
0
0
0
0
0
0
0
0
0
0
0
0
0
0
0
0
0
0
0
0
0
0
0
0
0
0
0
0
0
0
0
0
0
0
0
0
0
0
0
0
0
0
0
0
0
0
0
0
0
0
0
0
0
0
0
0
0
0
0
0
0
0
0
0
0
0
0
0
0
0
0
0
0
0
0
0
0
0
0
0
0
0
0
0
0
0
0
0
0
0
0
0
0
0
0
0
0
0
0
0
0
0
0
0
0
0
0
0
0
0
0
0
0
0
0
0
0
0
0
0
0
0
0
0
0
0
0
0
0
0
0
0
0
0
0
0
0
0
0
0
0
0
0
0
0
0
0
0
0
0
0
0
0
0
0
0
0
0
0
0
0
0
0
0
0
0
0
0
0
0
0
0
0
0
0
0
0
0
0
0
0
0
0
0
0
0
0
0
0
0
0
0
0
0
0
0
0
0
0
0
0
0
0
0
0
0
0
0
0
0
0
0
0
0
0
0
0
0
0
0
0
0
0
0
0
0
0
0
0
0
0
0
0
0
0
0
0
0
0
0
0
0
0
0
0
0
0
0
0
0
0
0
0
0
0
0
0
0
0
0
0
0
0
0
0
0
0
0
0
0
0
0
0
0
0
0
0
0
0
0
0
0
0
0
0
0
0
0
0
0
0
0
0
0
0
0
0
0
0
0
0
0
0
0
0
0
0
0
0
0
0
0
0
0
0
0
0
0
0
0
0
0
0
0
0
0
0
0
0
0
0
0
0
0
0
0
0
0
0
0
0
0
0
0
0
0
0
0
0
0
0
0
0
0
0
0
0
0
0
0
0
0
0
0
0
0
0
0
0
0
0
0
0
0
0
0
0
0
0
0
0
0
0
0
0
0
0
0
0
0
0
0
0
0
0
0
0
0
0
0
0
0
0
0
0
0
0
0
0
0
0
0
0
0
0
0
0
0
0
0
0
0
0
0
0
0
0
0
0
0
0
0
0
0
0
0
0
0
0
0
0
0
0
0
0
0
0
0
0
0
0
0
0
0
0
0
0
0
0
0
0
0
0
0
0
0
0
0
0
0
0
0
0
0
0
0
0
0
0
0
0
0
0
0
0
0
0
0
0
0
0
0
0
0
0
0
0
0
0
0
0
0
0
0
0
0
0
0
0
0
0
0
0
0
0
0
0
0
0
0
0
0
0
0
0
0
0
0
0
0
0
0
0
0
0
0
0
0
0
0
0
0
0
0
2.33545698e-298
2.43401492e-299
1.98233757e-295
2.34029763e-296
1.65597592e-292
2.17855764e-293
1.36166929e-289
1.96969701e-290
1.10229374e-286
1.73116224e-287
8.78606499e-284
1.48931613e-284
6.89640513e-281
1.25187337e-281
5.33137268e-278
1.03225634e-278
4.05972617e-275
8.3176318e-276
3.045414e-272
6.57396569e-273
2.25079218e-269
5.1000151e-270
1.63911212e-266
3.885836e-267
1.17627304e-263
2.90925164e-264
8.31904018e-261
2.14114655e-261
5.79883436e-258
1.54967101e-258
3.98423464e-255
1.103316e-255
2.69847081e-252
7.72947138e-253
1.80172574e-249
5.32962698e-250
1.18600084e-246
3.61773077e-247
7.69717973e-244
2.4179794e-244
4.92551125e-241
1.5915526e-241
3.10788282e-238
1.0318303e-238
1.93370412e-235
6.58982513e-236
1.18643463e-232
4.14639505e-233
7.17860855e-230
2.57066501e-230
4.28342932e-227
1.57050639e-227
2.52062359e-224
9.45561377e-225
1.46284265e-221
5.61083238e-222
8.37272123e-219
3.28155636e-219
4.72627757e-216
1.89178102e-216
2.63122255e-213
1.07502834e-213
1.44471412e-210
6.02203185e-211
7.82330835e-208
3.32546885e-208
4.17810551e-205
1.81033421e-205
2.20060963e-202
9.71553798e-203
1.14307172e-199
5.14020344e-200
5.85545976e-197
2.68101529e-197
2.95796955e-194
1.37854543e-194
1.47352543e-191
6.98779444e-192
7.2383032e-189
3.49178948e-189
3.50600822e-186
1.72002103e-186
1.67442529e-183
8.35186317e-184
7.88447463e-181
3.9974247e-181
3.66023609e-178
1.88584149e-178
1.67512687e-175
8.76871526e-176
7.55716928e-173
4.01835029e-173
3.36055959e-170
1.81473418e-170
1.47289151e-167
8.07609052e-168
6.36208985e-165
3.54143219e-165
2.70806623e-162
1.53006545e-162
1.13581367e-159
6.51261135e-160
4.69351629e-157
2.73068797e-157
1.91066804e-154
1.12775643e-154
7.66155794e-152
4.58707872e-152
3.02579893e-149
1.83731125e-149
1.17678507e-146
7.24601971e-147
4.50638185e-144
2.81337456e-144
1.69890367e-141
1.07523705e-141
6.30451935e-139
4.04448312e-139
2.30253588e-136
1.49704043e-136
8.27478623e-134
5.45181508e-134
2.92565884e-131
1.95302071e-131
1.01747391e-128
6.88093158e-129
3.47990297e-126
2.38382314e-126
1.1702049e-123
8.11883959e-124
3.86820186e-121
2.71774361e-121
1.25662257e-118
8.93950524e-119
4.01087734e-116
2.88867685e-116
1.25746778e-113
9.16745274e-114
3.87128336e-111
2.85653652e-111
1.169996e-108
8.73659845e-109
3.47015144e-106
2.62191781e-106
1.00972366e-103
7.71835041e-104
2.88133435e-101
2.22794615e-101
8.06045755e-99
6.30371496e-99
2.2096771e-96
1.74754024e-96
5.93360599e-94
4.74474656e-94
1.56004007e-91
1.26112793e-91
4.01397021e-89
3.27988266e-89
1.01021737e-86
8.34237889e-87
2.48556097e-84
2.07404837e-84
5.97521977e-82
5.03726027e-82
1.40261071e-79
1.19439625e-79
3.21284304e-77
2.76308474e-77
7.17638589e-75
6.23195516e-75
1.56191825e-72
1.36933191e-72
3.309745e-70
2.92881804e-70
6.82235753e-68
6.09245896e-68
1.36668222e-65
1.23139102e-65
2.65796396e-63
2.41576598e-63
5.01298396e-61
4.59497645e-61
9.15763972e-59
8.46354433e-59
1.61821686e-56
1.50759338e-56
2.76202005e-54
2.59326221e-54
4.54634363e-52
4.30074161e-52
7.20409821e-50
6.86447503e-50
1.09681337e-47
1.05241603e-47
1.60095555e-45
1.54644991e-45
2.23493299e-43
2.172654e-43
2.97578261e-41
2.91040388e-41
3.76742454e-39
3.70560197e-39
4.51918992e-37
4.46817617e-37
5.11547127e-35
5.08054296e-35
5.43843522e-33
5.41943097e-33
5.40043042e-31
5.38881345e-31
4.9763038e-29
4.95691055e-29
4.2217408e-27
4.18378791e-27
3.26585255e-25
3.22410856e-25
2.27596966e-23
2.27576767e-23
1.40672081e-21
1.40122036e-21
7.55962301e-20
7.51654709e-20
3.43375594e-18
3.42359986e-18
1.26564889e-16
1.25771182e-16
3.55042567e-15
3.55677106e-15
3.11987208e-11
3.2261655e-11
0.0128076858
0.0533342586
0.694486107
0.75444501
0.466935587
0.393550099
0.0817188544
0.0667909187
0.0125293646
0.0112731033
0.00215176279
0.00202989025
0.000327531442
0.000322006612
4.64511144e-05
4.6286499e-05
6.55008006e-06
6.55606134e-06
1.36731609e-06
1.36992875e-06
7.49935253e-07
7.5020666e-07
6.81706348e-07
6.81749988e-07
6.74719215e-07
6.74718609e-07
6.7404214e-07
6.74042752e-07
6.73979509e-07
6.73981967e-07
6.73975239e-07
6.73976796e-07
6.73974376e-07
6.73976909e-07
6.73973206e-07
6.73976202e-07
6.7397463e-07
6.73974687e-07
6.73975486e-07
6.73973815e-07
6.7397561e-07
6.73974371e-07
6.73976536e-07
6.73974374e-07
6.73975564e-07
6.73975328e-07
6.73975981e-07
6.73974623e-07
6.73976203e-07
6.73975237e-07
6.73975915e-07
6.73974605e-07
6.73975771e-07
6.73974986e-07
6.73975438e-07
6.73975233e-07
6.7397499e-07
6.73975642e-07
6.73974702e-07
6.73975573e-07
6.73975884e-07
6.73975506e-07
6.73974818e-07
6.73975398e-07
6.73974828e-07
6.73975125e-07
6.73975706e-07
6.73975117e-07
6.73975502e-07
6.73973583e-07
6.73974981e-07
6.73975367e-07
6.73974394e-07
6.73976077e-07
6.7397418e-07
6.73976101e-07
6.73975321e-07
6.73975996e-07
6.73975304e-07
6.73975794e-07
6.73974532e-07
6.73976336e-07
6.73974623e-07
6.73975332e-07
6.73975827e-07
6.73974053e-07
6.73976477e-07
6.739739e-07
6.7397622e-07
6.73974087e-07
6.73975857e-07
6.73974556e-07
6.73975373e-07
6.73976302e-07
6.73975207e-07
6.73975693e-07
6.73975441e-07
6.73975303e-07
6.73976518e-07
6.73975578e-07
6.73975147e-07
6.7397606e-07
6.73975464e-07
6.73975471e-07
6.7397583e-07
6.73975114e-07
6.73975247e-07
6.73975876e-07
6.73975431e-07
6.73975823e-07
6.7397493e-07
6.73975174e-07
6.73974651e-07
6.73975789e-07
6.73974823e-07
6.73975457e-07
6.73974436e-07
6.73976316e-07
6.73975067e-07
6.73976193e-07
6.73974959e-07
6.7397622e-07
6.73974858e-07
6.73975846e-07
6.73975173e-07
6.73976226e-07
6.73974489e-07
6.73976721e-07
6.7397463e-07
6.73976864e-07
6.73975201e-07
6.73975743e-07
6.73976536e-07
6.73976418e-07
6.73975862e-07
6.73975615e-07
6.73976666e-07
6.73975364e-07
6.7397589e-07
6.73975068e-07
6.73974774e-07
6.73975855e-07
6.73974495e-07
6.73975172e-07
6.73975046e-07
6.73975277e-07
6.739749e-07
6.73975361e-07
6.73975806e-07
6.73974751e-07
6.73976552e-07
6.73974193e-07
6.73976788e-07
6.73974963e-07
6.73976083e-07
6.73975535e-07
6.73975607e-07
6.73975452e-07
6.73976172e-07
6.73975421e-07
6.73977487e-07
6.73974902e-07
6.73976915e-07
6.73975302e-07
6.73977067e-07
6.73975064e-07
6.73976234e-07
6.73974886e-07
6.73975461e-07
6.73974814e-07
6.73975677e-07
6.73975367e-07
6.73974928e-07
6.73975654e-07
6.73975282e-07
6.7397602e-07
6.73976248e-07
6.73976451e-07
6.73976125e-07
6.73976557e-07
6.73976863e-07
6.73976713e-07
6.73977221e-07
6.73975923e-07
6.73975919e-07
6.73975128e-07
6.73975872e-07
6.73975292e-07
6.73976421e-07
6.73975814e-07
6.73976351e-07
6.73975318e-07
6.7397707e-07
6.73975379e-07
6.73977268e-07
6.73975352e-07
6.73975774e-07
6.73975291e-07
6.73976225e-07
6.73974749e-07
6.73976585e-07
6.73975418e-07
6.73977152e-07
6.73974672e-07
6.73975889e-07
6.73975455e-07
6.73976401e-07
6.73975427e-07
6.73977641e-07
6.73976424e-07
6.73977385e-07
6.73975624e-07
6.73976839e-07
6.73976015e-07
6.73976598e-07
6.73976127e-07
6.73975874e-07
6.7397655e-07
6.73975567e-07
6.73976142e-07
6.73976604e-07
6.73975972e-07
6.73975353e-07
6.7397555e-07
6.73976341e-07
6.73975658e-07
6.7397619e-07
6.73976193e-07
6.73976617e-07
6.73976597e-07
6.73976201e-07
6.73976069e-07
6.73977125e-07
6.73975811e-07
6.73976613e-07
6.73976074e-07
6.73976102e-07
6.73976871e-07
6.73976148e-07
6.7397713e-07
6.73975618e-07
6.73977331e-07
6.73975703e-07
6.73977496e-07
6.73975205e-07
6.73977335e-07
6.73975396e-07
6.7397676e-07
6.73975669e-07
6.73975835e-07
6.73976612e-07
6.73976515e-07
6.73976466e-07
6.73976686e-07
6.73975431e-07
6.73977093e-07
6.73976165e-07
6.73976691e-07
6.73976387e-07
6.73975855e-07
6.73977237e-07
6.73975899e-07
6.73977984e-07
6.73975431e-07
6.73977602e-07
6.73975663e-07
6.73976421e-07
6.73975913e-07
6.73976077e-07
6.73975107e-07
6.73977015e-07
6.73975359e-07
6.73976107e-07
6.73976721e-07
6.73975588e-07
6.73976889e-07
6.73976184e-07
6.73977033e-07
6.73976428e-07
6.73976358e-07
6.739769e-07
6.73976462e-07
6.73976215e-07
6.73976906e-07
6.73976254e-07
6.7397597e-07
6.73976028e-07
6.73975891e-07
6.73976477e-07
6.73976911e-07
6.73976045e-07
6.73976663e-07
6.73976714e-07
6.7397622e-07
6.7397633e-07
6.7397607e-07
6.73976283e-07
6.73976559e-07
6.73977274e-07
6.73976548e-07
6.73976235e-07
6.73977044e-07
6.73976475e-07
6.73976741e-07
6.73976738e-07
6.73976368e-07
6.73976237e-07
6.73976624e-07
6.73976019e-07
6.73976746e-07
6.73976584e-07
6.73977124e-07
6.73975518e-07
6.73977009e-07
6.73976482e-07
6.73976312e-07
6.73976833e-07
6.7397594e-07
6.73977239e-07
6.73975796e-07
6.73976891e-07
6.73976267e-07
6.73977287e-07
6.73975905e-07
6.73977114e-07
6.73976333e-07
6.73976228e-07
6.73976824e-07
6.73976318e-07
6.73977294e-07
6.73975988e-07
6.73977408e-07
6.73976317e-07
6.73976458e-07
6.73976562e-07
6.7397689e-07
6.73976348e-07
6.73976799e-07
6.7397574e-07
6.73976672e-07
6.7397665e-07
6.7397696e-07
6.73976403e-07
6.73976674e-07
6.7397708e-07
6.73976803e-07
6.73976646e-07
6.73976306e-07
6.73976984e-07
6.73976112e-07
6.73977651e-07
6.7397734e-07
6.73976007e-07
6.73976809e-07
6.73976865e-07
6.73976046e-07
6.73977491e-07
6.73976696e-07
6.73976709e-07
6.7397715e-07
6.73977249e-07
6.73975875e-07
6.7397691e-07
6.7397691e-07
6.73977522e-07
6.73977652e-07
6.73976566e-07
6.73977266e-07
6.73977221e-07
6.73977307e-07
6.73977443e-07
6.73977423e-07
6.73977448e-07
6.73977303e-07
6.73976651e-07
6.73977115e-07
6.7397575e-07
6.73976974e-07
6.73976865e-07
6.73977931e-07
6.73977643e-07
6.73976653e-07
6.73977564e-07
6.7397643e-07
6.7397779e-07
6.73976184e-07
6.7397656e-07
6.73976845e-07
6.73976651e-07
6.73977277e-07
6.7397636e-07
6.73977367e-07
6.73976184e-07
6.73976981e-07
6.73977533e-07
6.73976759e-07
6.73977781e-07
6.73976901e-07
6.73977368e-07
6.73976938e-07
6.73976587e-07
6.73977019e-07
6.73976564e-07
6.73978175e-07
6.73976129e-07
6.73977625e-07
6.73976006e-07
6.73977756e-07
6.73977648e-07
6.73977232e-07
6.73977313e-07
6.73977458e-07
6.73977108e-07
6.73977536e-07
6.73977784e-07
6.73976599e-07
6.73977944e-07
6.73976879e-07
6.73977061e-07
6.7397717e-07
6.73976901e-07
6.73977886e-07
6.73976516e-07
6.73977908e-07
6.73977527e-07
6.73977816e-07
6.7397742e-07
6.73977836e-07
6.7397664e-07
6.73977759e-07
6.73977432e-07
6.73977369e-07
6.73977665e-07
6.73977871e-07
6.73977545e-07
6.73977251e-07
6.7397696e-07
6.73978094e-07
6.73977211e-07
6.73977988e-07
6.73977378e-07
6.73977597e-07
6.73977243e-07
6.73977514e-07
6.73977017e-07
6.73978132e-07
6.73977669e-07
6.73978264e-07
6.73976535e-07
6.73977636e-07
6.73977647e-07
6.73977041e-07
6.73977752e-07
6.73977499e-07
6.73977802e-07
6.73978038e-07
6.73976637e-07
6.73978107e-07
6.73977248e-07
6.73976869e-07
6.73977734e-07
6.73977863e-07
6.73976661e-07
6.73978286e-07
6.73976441e-07
6.73978496e-07
6.73977785e-07
6.73977716e-07
6.73977423e-07
6.73977606e-07
6.73978151e-07
6.73976918e-07
6.73977512e-07
6.73977786e-07
6.73976735e-07
6.73978522e-07
6.73976886e-07
6.73978241e-07
6.73976759e-07
6.73977615e-07
6.73976157e-07
6.7397818e-07
6.73976557e-07
6.73977377e-07
6.73977196e-07
6.73977154e-07
6.73977329e-07
6.73976537e-07
6.73978901e-07
6.73976746e-07
6.73978277e-07
6.7397701e-07
6.73978388e-07
6.73977345e-07
6.73979221e-07
6.73976053e-07
6.73978965e-07
6.73976138e-07
6.73978845e-07
6.73976467e-07
6.73978436e-07
6.73977284e-07
6.73978101e-07
6.73978054e-07
6.73978304e-07
6.73977521e-07
6.73978359e-07
6.73977753e-07
6.73977707e-07
6.73977627e-07
6.73978022e-07
6.7397739e-07
6.73978065e-07
6.73977835e-07
6.73978111e-07
6.73978112e-07
6.73977801e-07
6.73978091e-07
6.73977897e-07
6.73977837e-07
6.73978118e-07
6.73978174e-07
6.73978151e-07
6.73978203e-07
6.73978189e-07
6.73978208e-07
6.73978334e-07
6.73978391e-07
6.73978403e-07
6.73978531e-07
6.73978595e-07
6.73978724e-07
6.73978827e-07
6.7397887e-07
6.73979022e-07
6.73979148e-07
6.73979218e-07
6.73979353e-07
6.73979501e-07
6.73979665e-07
6.73979762e-07
6.73979871e-07
6.73980021e-07
6.73980087e-07
6.73980182e-07
6.73980262e-07
6.73980329e-07
6.73980318e-07
6.73980398e-07
6.73980396e-07
6.73980404e-07
6.7398041e-07
6.73980412e-07
6.73980417e-07
6.73980431e-07
6.73980419e-07
6.73980424e-07
6.73980401e-07
6.73980394e-07
6.73980424e-07
6.73980413e-07
6.73980417e-07
6.73980415e-07
6.7398042e-07
6.73980426e-07
6.7398042e-07
6.73980416e-07
6.73980433e-07
6.73980406e-07
6.73980419e-07
6.7398041e-07
6.73980422e-07
6.7398042e-07
6.73980413e-07
6.73980417e-07
6.73980405e-07
6.73980401e-07
6.73980433e-07
)
;

boundaryField
{
    closed
    {
        type            calculated;
        value           uniform 0;
    }
    open
    {
        type            calculated;
        value           uniform 0;
    }
    sides
    {
        type            empty;
    }
}


// ************************************************************************* //
