/*--------------------------------*- C++ -*----------------------------------*\
| =========                 |                                                 |
| \\      /  F ield         | OpenFOAM: The Open Source CFD Toolbox           |
|  \\    /   O peration     | Version:  2206                                  |
|   \\  /    A nd           | Website:  www.openfoam.com                      |
|    \\/     M anipulation  |                                                 |
\*---------------------------------------------------------------------------*/
FoamFile
{
    version     2.0;
    format      ascii;
    arch        "LSB;label=32;scalar=64";
    class       volScalarField;
    location    "1.14e-05";
    object      sourcePV;
}
// * * * * * * * * * * * * * * * * * * * * * * * * * * * * * * * * * * * * * //

dimensions      [1 -3 -1 0 0 0 0];

internalField   nonuniform List<scalar> 
3183
(
0
0
0
0
0
0
0
0
0
0
0
0
0
0
0
0
0
0
0
0
0
0
0
0
0
0
0
0
0
0
0
0
0
0
0
0
0
0
0
0
0
0
0
0
0
0
0
0
0
0
0
0
0
0
0
0
0
0
0
0
0
0
0
0
0
0
0
0
0
0
0
0
0
0
0
0
0
0
0
0
0
0
0
0
0
0
0
0
0
0
0
0
0
0
0
0
0
0
0
0
0
0
0
0
0
0
0
0
0
0
0
0
0
0
0
0
0
0
0
0
0
0
0
0
0
0
0
0
0
0
0
0
0
0
0
0
0
0
0
0
0
0
0
0
0
0
0
0
0
0
0
0
0
0
0
0
0
0
0
0
0
0
0
0
0
0
0
0
0
0
0
0
0
0
0
0
0
0
0
0
0
0
0
0
0
0
0
0
0
0
0
0
0
0
0
0
0
0
0
0
0
0
0
0
0
0
0
0
0
0
0
0
0
0
0
0
0
0
0
0
0
0
0
0
0
0
0
0
0
0
0
0
0
0
0
0
0
0
0
0
0
0
0
0
0
0
0
0
0
0
0
0
0
0
0
0
0
0
0
0
0
0
0
0
0
0
0
0
0
0
0
0
0
0
0
0
0
0
0
0
0
0
0
0
0
0
0
0
0
0
0
0
0
0
0
0
0
0
0
0
0
0
0
0
0
0
0
0
0
0
0
0
0
0
0
0
0
0
0
0
0
0
0
0
0
0
0
0
0
0
0
0
0
0
0
0
0
0
0
0
0
0
0
0
0
0
0
0
0
0
0
0
0
0
0
0
0
0
0
0
0
0
0
0
0
0
0
0
0
0
0
0
0
0
0
0
0
0
0
0
0
0
0
0
0
0
0
0
0
0
0
0
0
0
0
0
0
0
0
0
0
0
0
0
0
0
0
0
0
0
0
0
0
0
0
0
0
0
0
0
0
0
0
0
0
0
0
0
0
0
0
0
0
0
0
0
0
0
0
0
0
0
0
0
0
0
0
0
0
0
0
0
0
0
0
0
0
0
0
0
0
0
0
0
0
0
0
0
0
0
0
0
0
0
0
0
0
0
0
0
0
0
0
0
0
0
0
0
0
0
0
0
0
0
0
0
0
0
0
0
0
0
0
0
0
0
0
0
0
0
0
0
0
0
0
0
0
0
0
0
0
0
0
0
0
0
0
0
0
0
0
0
0
0
0
0
0
0
0
0
0
0
0
0
0
0
0
0
0
0
0
0
0
0
0
0
0
0
0
0
0
0
0
0
0
0
0
0
0
0
0
0
0
0
0
0
0
0
0
0
0
0
0
0
0
0
0
0
0
0
0
0
0
0
0
0
0
0
0
0
0
0
0
0
0
0
0
0
0
0
0
0
0
0
0
0
0
0
0
0
0
0
0
0
0
0
0
0
0
0
0
0
0
0
0
0
0
0
0
0
0
0
0
0
0
0
0
0
0
0
0
0
0
0
0
0
0
0
0
0
0
0
0
0
0
0
0
0
0
0
0
0
0
0
0
0
0
0
0
0
0
0
0
0
0
0
0
0
0
0
0
0
0
0
0
0
0
0
0
0
0
0
0
0
0
0
0
0
0
0
0
0
0
0
0
0
0
0
0
0
0
0
0
0
0
0
0
0
0
0
0
0
0
0
0
0
0
0
0
0
0
0
0
0
0
0
0
0
0
0
0
0
0
0
0
0
0
0
0
0
0
0
0
0
0
0
0
0
0
0
0
0
0
0
0
0
0
0
0
0
0
0
0
0
0
0
0
0
0
0
0
0
0
0
0
0
0
0
0
0
0
0
0
0
0
0
0
0
0
0
0
0
0
0
0
0
0
0
0
0
0
0
0
0
0
0
0
0
0
0
0
0
0
0
0
0
0
0
0
0
0
0
0
0
0
0
0
0
0
0
0
0
0
0
0
0
0
0
0
0
0
0
0
0
0
0
0
0
0
0
0
0
0
0
0
0
0
0
0
0
0
0
0
0
0
0
0
0
0
0
0
0
0
0
0
0
0
0
0
0
0
0
0
0
0
0
0
0
0
0
0
0
0
0
0
0
0
0
0
0
0
0
0
0
0
0
0
0
0
0
0
0
0
0
0
0
0
0
0
0
0
0
0
0
0
0
0
0
0
0
0
0
0
0
0
0
0
0
0
0
0
0
0
0
0
0
0
0
0
0
0
0
0
0
0
0
0
0
0
0
0
0
0
0
0
0
0
0
0
0
0
0
0
0
0
0
0
0
0
0
0
0
0
0
0
0
0
0
0
0
0
0
0
0
0
0
0
0
0
0
0
0
0
0
0
0
0
0
0
0
0
0
0
0
0
0
0
0
0
0
0
0
0
0
0
0
0
0
0
0
0
0
0
0
0
0
0
0
0
0
0
0
0
0
0
0
0
0
0
0
0
0
0
0
0
0
0
0
0
0
0
0
0
0
0
0
0
0
0
0
0
0
0
0
0
0
0
0
0
0
0
0
0
0
0
0
0
0
0
0
0
0
0
0
0
0
0
0
0
0
0
0
0
0
0
0
0
0
0
0
0
0
0
0
0
0
0
0
0
0
0
0
0
0
0
0
0
0
0
0
0
0
0
0
0
0
0
0
0
0
0
0
0
0
0
0
0
0
0
0
0
0
0
0
0
0
0
0
0
0
0
0
0
0
0
0
0
0
0
0
0
0
0
0
0
0
0
0
0
0
0
0
0
0
0
0
0
0
0
0
0
0
0
0
0
0
0
0
0
0
0
0
0
0
0
0
0
0
0
0
0
0
0
0
0
0
0
0
0
0
0
0
0
0
0
0
0
0
0
0
0
0
0
0
0
0
0
0
0
0
0
0
0
0
0
0
0
0
0
0
0
0
0
0
0
0
0
0
0
0
0
0
0
0
0
0
0
0
0
0
0
0
0
0
0
0
0
0
0
0
0
0
0
0
0
0
0
0
0
0
0
0
0
0
0
0
0
0
0
0
0
0
0
0
0
0
0
0
0
0
0
0
0
0
0
0
0
0
0
0
0
0
0
0
0
0
0
0
0
0
0
0
0
0
0
0
0
0
0
0
0
0
0
0
0
0
0
0
0
0
0
0
0
0
0
0
0
0
0
0
0
0
0
0
0
0
0
0
0
0
0
0
0
0
0
0
0
0
0
0
0
0
0
0
0
0
0
0
0
0
0
0
0
0
0
0
0
0
0
0
0
0
0
0
0
0
0
0
0
0
0
0
0
0
0
0
0
0
0
0
0
0
0
0
0
0
0
0
0
0
0
0
0
0
0
0
0
0
0
0
0
0
0
0
0
0
0
0
0
0
0
0
0
0
0
0
0
0
0
0
0
0
0
0
0
0
0
0
0
0
0
0
0
0
0
0
0
0
0
0
0
0
0
0
0
0
0
0
0
0
0
0
0
0
0
0
0
0
0
0
0
0
0
0
0
0
0
0
0
0
0
0
0
0
0
0
0
0
0
0
0
0
0
0
0
0
0
0
0
0
0
0
0
0
0
0
0
0
0
0
0
0
0
0
0
0
0
0
0
0
0
0
0
0
0
0
0
0
0
0
0
0
0
0
0
0
0
0
0
0
0
0
0
0
0
0
0
0
0
0
0
0
0
0
0
0
0
0
0
0
0
0
0
0
0
0
0
0
0
0
0
0
0
0
0
0
0
0
0
0
0
0
0
0
0
0
0
0
0
0
0
0
0
0
0
0
0
0
0
0
0
0
0
0
0
0
0
0
0
0
0
0
0
0
0
0
0
0
0
0
0
0
0
0
0
0
0
0
0
0
0
0
0
0
0
0
0
0
0
0
0
0
0
0
0
0
0
0
0
0
0
0
0
0
0
0
0
0
0
0
0
0
0
0
0
0
0
0
0
0
0
0
0
0
0
0
0
0
0
0
0
0
0
0
0
0
0
0
0
0
0
0
0
0
0
0
0
0
0
0
0
0
0
0
0
0
0
0
0
0
0
0
0
0
0
0
0
0
0
0
0
0
0
0
0
0
0
0
0
0
0
0
0
0
0
0
0
0
0
0
0
0
0
0
0
0
0
0
0
0
0
0
0
0
0
0
0
0
0
0
0
0
0
0
0
0
0
0
0
0
0
0
0
0
0
0
0
0
0
0
0
0
0
0
0
0
0
0
0
0
0
0
0
0
0
0
0
0
0
0
0
0
0
0
0
0
0
0
0
0
0
0
0
0
0
0
0
0
0
0
0
0
0
0
0
0
0
0
0
0
0
0
0
0
0
0
0
0
0
0
0
0
0
0
0
0
0
0
0
0
0
0
0
0
0
0
0
0
0
0
0
0
0
0
0
0
0
0
0
0
0
0
0
0
0
0
0
0
0
0
0
0
0
0
0
0
0
0
0
0
0
0
0
0
0
0
0
0
0
0
0
0
0
0
0
0
0
0
0
0
0
0
0
0
0
0
0
0
0
0
0
0
0
0
0
0
0
0
0
0
0
0
0
0
0
0
0
0
0
0
0
0
0
0
0
0
0
0
0
0
0
0
0
0
0
0
0
0
0
0
0
0
0
0
0
0
0
0
0
0
0
0
0
0
0
0
0
0
0
0
0
0
0
0
0
0
0
0
0
0
0
0
0
0
0
0
0
0
0
0
0
0
0
0
0
0
0
0
0
0
0
0
0
0
0
0
0
0
0
0
0
0
0
0
0
0
0
0
0
0
0
0
0
0
0
0
0
0
0
0
0
0
0
0
0
0
0
0
0
0
0
0
0
0
0
0
0
0
0
0
0
0
0
0
0
0
0
0
0
0
0
0
0
0
0
0
0
0
0
0
0
0
0
0
0
0
0
0
0
0
0
0
0
0
0
0
0
0
0
0
0
0
0
0
0
0
0
0
0
0
0
0
0
0
0
0
0
0
0
0
0
0
0
0
0
0
0
0
0
0
0
0
0
0
0
0
0
0
0
0
0
0
0
0
0
0
0
0
0
0
0
0
0
0
0
0
0
0
0
0
0
0
0
0
0
0
0
0
0
0
0
0
0
0
0
0
0
0
0
0
0
0
0
0
0
0
0
0
0
0
0
0
0
0
0
0
0
0
0
0
0
0
0
0
0
0
0
0
0
0
0
0
0
0
0
0
0
0
0
0
0
0
0
0
0
0
0
0
0
0
0
0
0
0
0
0
0
0
0
0
0
0
0
0
0
0
0
0
0
0
0
0
0
0
0
0
0
0
0
0
0
0
0
0
0
0
0
0
0
0
0
0
0
0
0
0
0
0
0
0
0
0
0
0
0
0
0
0
0
0
0
0
0
0
0
0
0
0
0
0
0
0
0
0
0
0
0
0
0
0
0
0
0
0
0
0
0
0
0
0
0
0
0
4.72695649e-298
4.24350017e-299
4.07747321e-295
4.24954547e-296
3.46096222e-292
4.0859245e-293
2.89116756e-289
3.80354274e-290
2.37733776e-286
3.43889305e-287
1.9244941e-283
3.02243531e-284
1.53395866e-280
2.60019631e-281
1.20404304e-277
2.18564512e-278
9.308041e-275
1.80221585e-275
7.08787396e-272
1.45217494e-272
5.31698683e-269
1.14774835e-269
3.92965699e-266
8.9041139e-267
2.86172506e-263
6.7842792e-264
2.05365454e-260
5.07926104e-261
1.45242082e-257
3.73822673e-258
1.01241821e-254
2.70556987e-255
6.95607334e-252
1.92627888e-252
4.71125889e-249
1.34948804e-249
3.1456321e-246
9.30499318e-247
2.0706383e-243
6.3161944e-244
1.34385024e-240
4.22154907e-241
8.59944772e-238
2.77869092e-238
5.42605111e-235
1.80147202e-235
3.3760531e-232
1.15051725e-232
2.07139565e-229
7.23918912e-230
1.25331292e-226
4.4881228e-227
7.47843718e-224
2.74194634e-224
4.40075551e-221
1.65085515e-221
2.55397629e-218
9.79594955e-219
1.461793e-215
5.72926766e-216
8.25160573e-213
3.30285957e-213
4.59385019e-210
1.87689146e-210
2.52232569e-207
1.05138625e-207
1.36587103e-204
5.80593446e-205
7.2945524e-202
3.16066162e-202
3.8420433e-199
1.69623531e-199
1.99568837e-196
8.97427871e-197
1.02230444e-193
4.68078331e-194
5.16431762e-191
2.4068018e-191
2.57262735e-188
1.2199987e-188
1.26373501e-185
6.09631358e-186
6.12113806e-183
3.00298389e-183
2.9233783e-180
1.45815139e-180
1.37655005e-177
6.97910187e-178
6.39040442e-175
3.29248974e-175
2.9246032e-172
1.53092958e-172
1.31940582e-169
7.01563583e-170
5.86719937e-167
3.16834352e-167
2.57152058e-164
1.41000425e-164
1.11075696e-161
6.18298476e-162
4.72801153e-159
2.67134054e-159
1.98301653e-156
1.1370365e-156
8.19440784e-154
4.76750681e-154
3.33583442e-151
1.9689494e-151
1.33763103e-148
8.00857853e-149
5.2827409e-146
3.20776082e-146
2.05454848e-143
1.26508223e-143
7.8676899e-141
4.91186929e-141
2.9661151e-138
1.87725584e-138
1.10070573e-135
7.06126114e-136
4.01999629e-133
2.61368216e-133
1.44469453e-130
9.51832132e-131
5.10790636e-128
3.40977792e-128
1.77640721e-125
1.20134151e-125
6.07556093e-123
4.16191568e-123
2.04306017e-120
1.41746781e-120
6.75349177e-118
4.74490725e-118
2.19393674e-115
1.56074779e-115
7.00258882e-113
5.04333953e-113
2.1954124e-110
1.60054513e-110
6.75887176e-108
4.98722574e-108
2.04269545e-105
1.5253223e-105
6.05853573e-103
4.57760504e-103
1.76287606e-100
1.34754643e-100
5.03052025e-98
3.88977011e-98
1.4072749e-95
1.10056529e-95
3.85787418e-93
3.05102966e-93
1.03594798e-90
8.28385073e-91
2.72367321e-88
2.20180265e-88
7.00798865e-86
5.72634555e-86
1.76373803e-83
1.45649553e-83
4.3395397e-81
3.62108006e-81
1.04321333e-78
8.79455027e-79
2.44881737e-76
2.08529583e-76
5.60930111e-74
4.82406832e-74
1.25292487e-71
1.08803675e-71
2.72695231e-69
2.39071592e-69
5.77848221e-67
5.113422e-67
1.19111507e-64
1.06368212e-64
2.38608982e-62
2.149885e-62
4.640538e-60
4.21768466e-60
8.75216629e-58
8.02236718e-58
1.59883188e-55
1.4776498e-55
2.82524404e-53
2.63210656e-53
4.82220947e-51
4.52757524e-51
7.93745916e-49
7.5086627e-49
1.25776316e-46
1.19846836e-46
1.91492593e-44
1.83741264e-44
2.79510752e-42
2.69994615e-42
3.90196843e-40
3.79323557e-40
5.19541743e-38
5.08127273e-38
6.57754469e-36
6.46960869e-36
7.8900515e-34
7.80098662e-34
8.93109882e-32
8.87011751e-32
9.49496144e-30
9.46178191e-30
9.42860888e-28
9.40832681e-28
8.68812641e-26
8.65426774e-26
7.37073523e-24
7.3044733e-24
5.70185039e-22
5.62896958e-22
3.97361433e-20
3.97326168e-20
2.45599318e-18
2.44638995e-18
1.31983422e-16
1.3123136e-16
5.99499284e-15
5.97726135e-15
2.20969579e-13
2.19583847e-13
6.19868647e-12
6.20976488e-12
5.21794021e-09
5.35839965e-09
0.276728079
1.03194819
9.70447591
10.2137608
5.72034928
4.78245895
0.965378802
0.788180019
0.147159023
0.13240407
0.0252727317
0.0238413228
0.00384689576
0.0037820059
0.000545570516
0.000543637087
7.69276453e-05
7.69978962e-05
1.60554041e-05
1.60860901e-05
8.80418532e-06
8.80737302e-06
8.00282789e-06
8.00334045e-06
7.9207631e-06
7.92075598e-06
7.91281077e-06
7.91281796e-06
7.91207516e-06
7.91210403e-06
7.91202501e-06
7.91204329e-06
7.91201488e-06
7.91204462e-06
7.91200113e-06
7.91203631e-06
7.91201785e-06
7.91201852e-06
7.9120279e-06
7.91200828e-06
7.91202937e-06
7.91201481e-06
7.91204024e-06
7.91201484e-06
7.91202883e-06
7.91202605e-06
7.91203372e-06
7.91201777e-06
7.91203633e-06
7.91202498e-06
7.91203295e-06
7.91201756e-06
7.91203125e-06
7.91202204e-06
7.91202734e-06
7.91202494e-06
7.91202208e-06
7.91202974e-06
7.9120187e-06
7.91202893e-06
7.91203259e-06
7.91202815e-06
7.91202007e-06
7.91202688e-06
7.91202018e-06
7.91202367e-06
7.91203049e-06
7.91202357e-06
7.91202809e-06
7.91200556e-06
7.91202197e-06
7.91202652e-06
7.91201509e-06
7.91203485e-06
7.91201257e-06
7.91203514e-06
7.91202597e-06
7.9120339e-06
7.91202577e-06
7.91203153e-06
7.9120167e-06
7.91203789e-06
7.91201778e-06
7.9120261e-06
7.91203192e-06
7.91201107e-06
7.91203954e-06
7.91200928e-06
7.91203654e-06
7.91201148e-06
7.91203227e-06
7.91201698e-06
7.91202658e-06
7.91203749e-06
7.91202463e-06
7.91203034e-06
7.91202738e-06
7.91202575e-06
7.91204003e-06
7.91202898e-06
7.91202393e-06
7.91203465e-06
7.91202765e-06
7.91202773e-06
7.91203195e-06
7.91202354e-06
7.9120251e-06
7.91203249e-06
7.91202727e-06
7.91203186e-06
7.91202138e-06
7.91202424e-06
7.9120181e-06
7.91203146e-06
7.91202012e-06
7.91202756e-06
7.91201558e-06
7.91203766e-06
7.91202299e-06
7.91203621e-06
7.91202172e-06
7.91203654e-06
7.91202053e-06
7.91203214e-06
7.91202423e-06
7.9120366e-06
7.9120162e-06
7.91204241e-06
7.91201785e-06
7.9120441e-06
7.91202456e-06
7.91203093e-06
7.91204024e-06
7.91203885e-06
7.91203232e-06
7.91202943e-06
7.91204177e-06
7.91202647e-06
7.91203266e-06
7.912023e-06
7.91201955e-06
7.91203225e-06
7.91201627e-06
7.91202422e-06
7.91202274e-06
7.91202546e-06
7.91202103e-06
7.91202644e-06
7.91203166e-06
7.91201927e-06
7.91204043e-06
7.91201273e-06
7.9120432e-06
7.91202176e-06
7.91203492e-06
7.91202849e-06
7.91202933e-06
7.91202751e-06
7.91203596e-06
7.91202714e-06
7.91205142e-06
7.91202105e-06
7.91204469e-06
7.91202574e-06
7.91204648e-06
7.91202295e-06
7.91203669e-06
7.91202086e-06
7.91202762e-06
7.91202001e-06
7.91203015e-06
7.91202651e-06
7.91202136e-06
7.91202988e-06
7.91202551e-06
7.91203418e-06
7.91203685e-06
7.91203925e-06
7.91203541e-06
7.91204049e-06
7.91204408e-06
7.91204232e-06
7.91204828e-06
7.91203304e-06
7.912033e-06
7.91202371e-06
7.91203244e-06
7.91202563e-06
7.91203889e-06
7.91203176e-06
7.91203807e-06
7.91202593e-06
7.91204651e-06
7.91202665e-06
7.91204884e-06
7.91202634e-06
7.91203129e-06
7.91202562e-06
7.91203659e-06
7.91201925e-06
7.91204081e-06
7.91202711e-06
7.91204748e-06
7.91201835e-06
7.91203264e-06
7.91202754e-06
7.91203865e-06
7.91202722e-06
7.91205322e-06
7.91203893e-06
7.91205021e-06
7.91202953e-06
7.9120438e-06
7.91203412e-06
7.91204097e-06
7.91203543e-06
7.91203247e-06
7.9120404e-06
7.91202886e-06
7.91203561e-06
7.91204104e-06
7.91203361e-06
7.91202635e-06
7.91202866e-06
7.91203795e-06
7.91202993e-06
7.91203618e-06
7.91203621e-06
7.9120412e-06
7.91204096e-06
7.9120363e-06
7.91203476e-06
7.91204716e-06
7.91203173e-06
7.91204114e-06
7.91203482e-06
7.91203515e-06
7.91204417e-06
7.91203569e-06
7.91204722e-06
7.91202946e-06
7.91204957e-06
7.91203046e-06
7.91205152e-06
7.91202461e-06
7.91204963e-06
7.91202686e-06
7.91204287e-06
7.91203005e-06
7.912032e-06
7.91204113e-06
7.91204e-06
7.91203942e-06
7.912042e-06
7.91202727e-06
7.91204679e-06
7.91203589e-06
7.91204206e-06
7.91203849e-06
7.91203225e-06
7.91204847e-06
7.91203277e-06
7.91205725e-06
7.91202727e-06
7.91205276e-06
7.91202999e-06
7.91203889e-06
7.91203292e-06
7.91203485e-06
7.91202346e-06
7.91204587e-06
7.91202642e-06
7.9120352e-06
7.91204241e-06
7.91202911e-06
7.91204438e-06
7.9120361e-06
7.91204608e-06
7.91203897e-06
7.91203816e-06
7.91204452e-06
7.91203937e-06
7.91203647e-06
7.91204458e-06
7.91203693e-06
7.91203359e-06
7.91203428e-06
7.91203267e-06
7.91203955e-06
7.91204465e-06
7.91203447e-06
7.91204174e-06
7.91204233e-06
7.91203652e-06
7.91203782e-06
7.91203477e-06
7.91203727e-06
7.91204051e-06
7.91204891e-06
7.91204038e-06
7.9120367e-06
7.91204621e-06
7.91203952e-06
7.91204265e-06
7.91204261e-06
7.91203827e-06
7.91203673e-06
7.91204127e-06
7.91203417e-06
7.91204271e-06
7.9120408e-06
7.91204715e-06
7.91202828e-06
7.91204579e-06
7.91203961e-06
7.91203761e-06
7.91204373e-06
7.91203324e-06
7.91204849e-06
7.91203155e-06
7.91204442e-06
7.91203709e-06
7.91204906e-06
7.91203283e-06
7.91204703e-06
7.91203786e-06
7.91203662e-06
7.91204362e-06
7.91203768e-06
7.91204914e-06
7.9120338e-06
7.91205048e-06
7.91203767e-06
7.91203932e-06
7.91204055e-06
7.9120444e-06
7.91203803e-06
7.91204332e-06
7.91203089e-06
7.91204184e-06
7.91204158e-06
7.91204522e-06
7.91203867e-06
7.91204186e-06
7.91204663e-06
7.91204338e-06
7.91204153e-06
7.91203754e-06
7.91204551e-06
7.91203526e-06
7.91205333e-06
7.91204969e-06
7.91203403e-06
7.91204345e-06
7.91204411e-06
7.91203448e-06
7.91205146e-06
7.91204212e-06
7.91204228e-06
7.91204746e-06
7.91204862e-06
7.91203248e-06
7.91204464e-06
7.91204464e-06
7.91205182e-06
7.91205335e-06
7.91204059e-06
7.91204881e-06
7.91204828e-06
7.9120493e-06
7.9120509e-06
7.91205066e-06
7.91205095e-06
7.91204924e-06
7.91204159e-06
7.91204704e-06
7.91203101e-06
7.91204539e-06
7.91204411e-06
7.91205663e-06
7.91205325e-06
7.91204162e-06
7.91205232e-06
7.91203899e-06
7.91205497e-06
7.91203611e-06
7.91204053e-06
7.91204388e-06
7.91204159e-06
7.91204895e-06
7.91203818e-06
7.91205e-06
7.9120361e-06
7.91204546e-06
7.91205195e-06
7.91204286e-06
7.91205487e-06
7.91204453e-06
7.91205001e-06
7.91204497e-06
7.91204084e-06
7.91204592e-06
7.91204057e-06
7.9120595e-06
7.91203547e-06
7.91205304e-06
7.91203401e-06
7.91205457e-06
7.9120533e-06
7.91204842e-06
7.91204937e-06
7.91205107e-06
7.91204696e-06
7.91205199e-06
7.9120549e-06
7.91204098e-06
7.91205678e-06
7.91204427e-06
7.91204641e-06
7.91204769e-06
7.91204453e-06
7.9120561e-06
7.91204001e-06
7.91205635e-06
7.91205188e-06
7.91205527e-06
7.91205062e-06
7.9120555e-06
7.91204146e-06
7.9120546e-06
7.91205077e-06
7.91205003e-06
7.9120535e-06
7.91205592e-06
7.91205209e-06
7.91204864e-06
7.91204522e-06
7.91205854e-06
7.91204816e-06
7.91205729e-06
7.91205013e-06
7.9120527e-06
7.91204855e-06
7.91205173e-06
7.91204589e-06
7.91205899e-06
7.91205354e-06
7.91206054e-06
7.91204023e-06
7.91205316e-06
7.91205329e-06
7.91204617e-06
7.91205452e-06
7.91205155e-06
7.91205511e-06
7.91205788e-06
7.91204143e-06
7.91205869e-06
7.91204861e-06
7.91204415e-06
7.91205431e-06
7.91205583e-06
7.91204171e-06
7.9120608e-06
7.91203913e-06
7.91206327e-06
7.91205491e-06
7.91205411e-06
7.91205066e-06
7.91205281e-06
7.91205921e-06
7.91204472e-06
7.9120517e-06
7.91205492e-06
7.91204258e-06
7.91206356e-06
7.91204435e-06
7.91206027e-06
7.91204286e-06
7.91205291e-06
7.91203579e-06
7.91205955e-06
7.91204049e-06
7.91205011e-06
7.912048e-06
7.9120475e-06
7.91204955e-06
7.91204025e-06
7.91206802e-06
7.91204271e-06
7.91206069e-06
7.91204581e-06
7.912062e-06
7.91204974e-06
7.91207178e-06
7.91203457e-06
7.91206876e-06
7.91203556e-06
7.91206736e-06
7.91203943e-06
7.91206256e-06
7.91204902e-06
7.91205862e-06
7.91205807e-06
7.91206101e-06
7.91205181e-06
7.91206165e-06
7.91205453e-06
7.912054e-06
7.91205306e-06
7.9120577e-06
7.91205027e-06
7.91205821e-06
7.91205549e-06
7.91205873e-06
7.91205876e-06
7.9120551e-06
7.9120585e-06
7.91205622e-06
7.91205553e-06
7.91205882e-06
7.91205948e-06
7.91205921e-06
7.91205983e-06
7.91205966e-06
7.91205988e-06
7.91206136e-06
7.91206203e-06
7.91206217e-06
7.91206367e-06
7.91206442e-06
7.91206594e-06
7.91206714e-06
7.91206765e-06
7.91206944e-06
7.91207092e-06
7.91207174e-06
7.91207333e-06
7.91207507e-06
7.91207699e-06
7.91207813e-06
7.91207941e-06
7.91208118e-06
7.91208195e-06
7.91208306e-06
7.91208401e-06
7.91208479e-06
7.91208466e-06
7.9120856e-06
7.91208557e-06
7.91208567e-06
7.91208574e-06
7.91208576e-06
7.91208583e-06
7.91208599e-06
7.91208585e-06
7.9120859e-06
7.91208564e-06
7.91208555e-06
7.91208591e-06
7.91208577e-06
7.91208583e-06
7.91208579e-06
7.91208586e-06
7.91208593e-06
7.91208586e-06
7.91208582e-06
7.91208601e-06
7.9120857e-06
7.91208585e-06
7.91208574e-06
7.91208588e-06
7.91208586e-06
7.91208577e-06
7.91208583e-06
7.91208569e-06
7.91208564e-06
7.91208601e-06
)
;

boundaryField
{
    closed
    {
        type            calculated;
        value           uniform 0;
    }
    open
    {
        type            calculated;
        value           uniform 0;
    }
    sides
    {
        type            empty;
    }
}


// ************************************************************************* //
