/*--------------------------------*- C++ -*----------------------------------*\
| =========                 |                                                 |
| \\      /  F ield         | OpenFOAM: The Open Source CFD Toolbox           |
|  \\    /   O peration     | Version:  2206                                  |
|   \\  /    A nd           | Website:  www.openfoam.com                      |
|    \\/     M anipulation  |                                                 |
\*---------------------------------------------------------------------------*/
FoamFile
{
    version     2.0;
    format      ascii;
    arch        "LSB;label=32;scalar=64";
    class       volVectorField;
    location    "1.14e-05";
    object      U;
}
// * * * * * * * * * * * * * * * * * * * * * * * * * * * * * * * * * * * * * //

dimensions      [0 1 -1 0 0 0 0];

internalField   nonuniform List<vector> 
3183
(
(3.18486542e-13 0 0)
(2.88344489e-14 0 0)
(-2.10462726e-13 0 0)
(-1.79571105e-13 0 0)
(-1.21766433e-13 0 0)
(-5.66651514e-18 0 0)
(-4.45292972e-19 0 0)
(-3.09646559e-23 0 0)
(2.63905721e-23 0 0)
(3.9901924e-19 0 0)
(8.07586958e-18 0 0)
(1.46986169e-13 0 0)
(4.85932994e-13 0 0)
(1.22866139e-13 0 0)
(5.5952026e-14 0 0)
(8.45917498e-14 0 0)
(-1.89677042e-13 0 0)
(-4.92687354e-13 0 0)
(-7.40863536e-13 0 0)
(-5.41802192e-14 0 0)
(3.60279469e-13 0 0)
(1.20593464e-16 0 0)
(1.58031272e-14 0 0)
(2.43209204e-13 0 0)
(3.19899203e-13 0 0)
(4.28430541e-13 0 0)
(4.4407715e-13 0 0)
(4.94501653e-13 0 0)
(2.99934237e-13 0 0)
(3.89802125e-13 0 0)
(-1.57534633e-13 0 0)
(-2.24559622e-13 0 0)
(-8.04298359e-13 0 0)
(-1.12182007e-12 0 0)
(-6.77603119e-13 0 0)
(-3.77499657e-13 0 0)
(-4.17833883e-13 0 0)
(-3.26518256e-13 0 0)
(-1.43139328e-13 0 0)
(-1.25380404e-13 0 0)
(-4.32951768e-13 0 0)
(-4.82663639e-13 0 0)
(-2.20101983e-13 0 0)
(-5.80412307e-13 0 0)
(-1.93834514e-13 0 0)
(1.69168503e-13 0 0)
(-3.63065095e-14 0 0)
(7.49167527e-14 0 0)
(2.11561511e-14 0 0)
(2.2886043e-13 0 0)
(3.06476199e-13 0 0)
(8.03589894e-13 0 0)
(6.32869318e-13 0 0)
(1.24987159e-12 0 0)
(1.62929484e-12 0 0)
(1.61471748e-12 0 0)
(2.07618016e-12 0 0)
(2.28019461e-12 0 0)
(2.36743809e-12 0 0)
(2.59242696e-12 0 0)
(2.44030419e-12 0 0)
(2.06992134e-12 0 0)
(2.05030069e-12 0 0)
(1.45359834e-12 0 0)
(1.64928239e-12 0 0)
(1.58706238e-12 0 0)
(1.04795893e-12 0 0)
(1.19878305e-12 0 0)
(1.05997729e-12 0 0)
(3.31860234e-13 0 0)
(5.27343014e-13 0 0)
(1.75468381e-13 0 0)
(2.2603796e-14 0 0)
(-3.07577562e-13 0 0)
(-3.90545697e-13 0 0)
(-8.0816481e-13 0 0)
(-7.13961464e-13 0 0)
(-1.08571914e-12 0 0)
(-1.08866221e-12 0 0)
(-1.24751985e-12 0 0)
(-1.49612268e-12 0 0)
(-1.7024003e-12 0 0)
(-7.96906323e-13 0 0)
(-2.25065779e-12 0 0)
(-1.26647504e-12 0 0)
(-1.71048922e-12 0 0)
(-2.33055569e-12 0 0)
(-2.49581413e-12 0 0)
(-2.24253629e-12 0 0)
(-2.81476457e-12 0 0)
(-3.54675179e-12 0 0)
(-3.60258335e-12 0 0)
(-2.5818937e-12 0 0)
(-3.33261977e-12 0 0)
(-4.08495315e-12 0 0)
(-3.25962725e-12 0 0)
(-4.98327008e-12 0 0)
(-3.4272088e-12 0 0)
(-4.23601215e-12 0 0)
(-4.23692325e-12 0 0)
(-2.65030007e-12 0 0)
(-3.70987466e-12 0 0)
(-4.59331873e-12 0 0)
(-4.33662456e-12 0 0)
(-4.470667e-12 0 0)
(-4.68020209e-12 0 0)
(-4.53497701e-12 0 0)
(-3.93733705e-12 0 0)
(-5.5683396e-12 0 0)
(-5.1412348e-12 0 0)
(-3.7130244e-12 0 0)
(-4.3186263e-12 0 0)
(-4.34285475e-12 0 0)
(-5.91794952e-12 0 0)
(-5.21487486e-12 0 0)
(-5.4268864e-12 0 0)
(-5.48292776e-12 0 0)
(-4.74684745e-12 0 0)
(-5.74475781e-12 0 0)
(-6.664386e-12 0 0)
(-5.58189375e-12 0 0)
(-5.0728284e-12 0 0)
(-6.38130864e-12 0 0)
(-5.56705791e-12 0 0)
(-5.45381097e-12 0 0)
(-5.96894526e-12 0 0)
(-5.43625873e-12 0 0)
(-6.98569377e-12 0 0)
(-4.49697232e-12 0 0)
(-5.27254547e-12 0 0)
(-5.27960157e-12 0 0)
(-5.70214013e-12 0 0)
(-6.07362333e-12 0 0)
(-6.02502727e-12 0 0)
(-5.38758274e-12 0 0)
(-6.50074333e-12 0 0)
(-7.33369198e-12 0 0)
(-7.17509618e-12 0 0)
(-6.6662722e-12 0 0)
(-6.3640573e-12 0 0)
(-6.45504724e-12 0 0)
(-7.07164688e-12 0 0)
(-7.33882263e-12 0 0)
(-7.93384498e-12 0 0)
(-6.40495504e-12 0 0)
(-7.8801793e-12 0 0)
(-6.96090279e-12 0 0)
(-7.75290088e-12 0 0)
(-6.64078654e-12 0 0)
(-7.21525876e-12 0 0)
(-7.57893406e-12 0 0)
(-7.68579365e-12 0 0)
(-8.09353227e-12 0 0)
(-8.71447799e-12 0 0)
(-9.08249804e-12 0 0)
(-8.07433043e-12 0 0)
(-8.94539714e-12 0 0)
(-8.47426921e-12 0 0)
(-7.90986212e-12 0 0)
(-8.21756325e-12 0 0)
(-9.14459682e-12 0 0)
(-8.68985366e-12 0 0)
(-8.11200592e-12 0 0)
(-8.48566246e-12 0 0)
(-8.6565523e-12 0 0)
(-9.40241253e-12 0 0)
(-8.30877016e-12 0 0)
(-8.08475458e-12 0 0)
(-7.84854566e-12 0 0)
(-8.44429836e-12 0 0)
(-9.29979447e-12 0 0)
(-8.438976e-12 0 0)
(-8.26283379e-12 0 0)
(-7.77775543e-12 0 0)
(-8.67524081e-12 0 0)
(-7.70073905e-12 0 0)
(-8.04707949e-12 0 0)
(-7.89118947e-12 0 0)
(-7.89219633e-12 0 0)
(-8.42118402e-12 0 0)
(-7.34225877e-12 0 0)
(-8.70877935e-12 0 0)
(-7.48961511e-12 0 0)
(-7.65680091e-12 0 0)
(-8.64196209e-12 0 0)
(-9.4958151e-12 0 0)
(-7.46358929e-12 0 0)
(-8.44413468e-12 0 0)
(-8.90757539e-12 0 0)
(-8.10801862e-12 0 0)
(-8.44617669e-12 0 0)
(-8.28514577e-12 0 0)
(-9.1155772e-12 0 0)
(-8.54492148e-12 0 0)
(-9.33320863e-12 0 0)
(-8.6417021e-12 0 0)
(-8.83066373e-12 0 0)
(-8.4392576e-12 0 0)
(-9.43045656e-12 0 0)
(-1.02016636e-11 0 0)
(-9.55279741e-12 0 0)
(-9.85818551e-12 0 0)
(-9.16054832e-12 0 0)
(-9.43789304e-12 0 0)
(-9.91642556e-12 0 0)
(-9.00562618e-12 0 0)
(-9.14642043e-12 0 0)
(-8.61899559e-12 0 0)
(-9.86887212e-12 0 0)
(-8.34894072e-12 0 0)
(-8.45426229e-12 0 0)
(-1.03782316e-11 0 0)
(-8.93597451e-12 0 0)
(-9.49172983e-12 0 0)
(-9.42801464e-12 0 0)
(-8.87467982e-12 0 0)
(-9.19156092e-12 0 0)
(-1.03788677e-11 0 0)
(-8.24236435e-12 0 0)
(-9.91380304e-12 0 0)
(-9.59600544e-12 0 0)
(-9.41457546e-12 0 0)
(-9.32749181e-12 0 0)
(-8.33176455e-12 0 0)
(-8.33123568e-12 0 0)
(-9.76790982e-12 0 0)
(-9.29110946e-12 0 0)
(-9.59802567e-12 0 0)
(-1.00693693e-11 0 0)
(-9.43627962e-12 0 0)
(-1.05304738e-11 0 0)
(-1.0300448e-11 0 0)
(-1.01829777e-11 0 0)
(-1.05958459e-11 0 0)
(-1.0781226e-11 0 0)
(-1.01610176e-11 0 0)
(-1.1385755e-11 0 0)
(-1.05411397e-11 0 0)
(-1.1136409e-11 0 0)
(-1.21581682e-11 0 0)
(-1.10164754e-11 0 0)
(-1.21513722e-11 0 0)
(-1.15222122e-11 0 0)
(-1.12937113e-11 0 0)
(-1.15833722e-11 0 0)
(-1.2400039e-11 0 0)
(-1.08705863e-11 0 0)
(-1.1391042e-11 0 0)
(-1.24233773e-11 0 0)
(-1.22077607e-11 0 0)
(-1.20544532e-11 0 0)
(-1.24474465e-11 0 0)
(-1.27087901e-11 0 0)
(-1.26539386e-11 0 0)
(-1.32297074e-11 0 0)
(-1.30305413e-11 0 0)
(-1.29631712e-11 0 0)
(-1.28892303e-11 0 0)
(-1.3599021e-11 0 0)
(-1.34203706e-11 0 0)
(-1.36883982e-11 0 0)
(-1.40429991e-11 0 0)
(-1.402312e-11 0 0)
(-1.30333093e-11 0 0)
(-1.39517985e-11 0 0)
(-1.40962003e-11 0 0)
(-1.41221716e-11 0 0)
(-1.36552888e-11 0 0)
(-1.43597401e-11 0 0)
(-1.36641731e-11 0 0)
(-1.38405551e-11 0 0)
(-1.42663454e-11 0 0)
(-1.51334482e-11 0 0)
(-1.42113052e-11 0 0)
(-1.4288224e-11 0 0)
(-1.3474905e-11 0 0)
(-1.45769469e-11 0 0)
(-1.41612201e-11 0 0)
(-1.40106587e-11 0 0)
(-1.33526321e-11 0 0)
(-1.39258698e-11 0 0)
(-1.48112351e-11 0 0)
(-1.49494591e-11 0 0)
(-1.34261138e-11 0 0)
(-1.33972285e-11 0 0)
(-1.50861459e-11 0 0)
(-1.38446363e-11 0 0)
(-1.44104015e-11 0 0)
(-1.466173e-11 0 0)
(-1.45174386e-11 0 0)
(-1.46650045e-11 0 0)
(-1.44302951e-11 0 0)
(-1.40075189e-11 0 0)
(-1.58542287e-11 0 0)
(-1.37861831e-11 0 0)
(-1.49927392e-11 0 0)
(-1.50636921e-11 0 0)
(-1.430559e-11 0 0)
(-1.44765014e-11 0 0)
(-1.47650626e-11 0 0)
(-1.45774159e-11 0 0)
(-1.44754886e-11 0 0)
(-1.45967638e-11 0 0)
(-1.53197302e-11 0 0)
(-1.56174866e-11 0 0)
(-1.52555284e-11 0 0)
(-1.45268507e-11 0 0)
(-1.53808323e-11 0 0)
(-1.62457765e-11 0 0)
(-1.48890213e-11 0 0)
(-1.54081627e-11 0 0)
(-1.56680284e-11 0 0)
(-1.47105213e-11 0 0)
(-1.46978043e-11 0 0)
(-1.60856033e-11 0 0)
(-1.54954447e-11 0 0)
(-1.68617477e-11 0 0)
(-1.54885688e-11 0 0)
(-1.45255847e-11 0 0)
(-1.59668111e-11 0 0)
(-1.58369002e-11 0 0)
(-1.48901884e-11 0 0)
(-1.59783047e-11 0 0)
(-1.55394631e-11 0 0)
(-1.53668643e-11 0 0)
(-1.54264721e-11 0 0)
(-1.6575099e-11 0 0)
(-1.53605896e-11 0 0)
(-1.63256048e-11 0 0)
(-1.64370977e-11 0 0)
(-1.47994166e-11 0 0)
(-1.70216913e-11 0 0)
(-1.56883294e-11 0 0)
(-1.52605571e-11 0 0)
(-1.43870473e-11 0 0)
(-1.63432877e-11 0 0)
(-1.51275808e-11 0 0)
(-1.65734372e-11 0 0)
(-1.55369518e-11 0 0)
(-1.53106608e-11 0 0)
(-1.49987681e-11 0 0)
(-1.55241414e-11 0 0)
(-1.53731728e-11 0 0)
(-1.44669015e-11 0 0)
(-1.49187568e-11 0 0)
(-1.57915571e-11 0 0)
(-1.62757199e-11 0 0)
(-1.54147866e-11 0 0)
(-1.47859821e-11 0 0)
(-1.57496651e-11 0 0)
(-1.47142034e-11 0 0)
(-1.54861165e-11 0 0)
(-1.67531923e-11 0 0)
(-1.51138755e-11 0 0)
(-1.41011121e-11 0 0)
(-1.58202311e-11 0 0)
(-1.58340017e-11 0 0)
(-1.5299051e-11 0 0)
(-1.6042399e-11 0 0)
(-1.61591896e-11 0 0)
(-1.50062782e-11 0 0)
(-1.59246994e-11 0 0)
(-1.55069635e-11 0 0)
(-1.57336167e-11 0 0)
(-1.46153847e-11 0 0)
(-1.56781839e-11 0 0)
(-1.51722811e-11 0 0)
(-1.59272724e-11 0 0)
(-1.52758942e-11 0 0)
(-1.54688489e-11 0 0)
(-1.48277667e-11 0 0)
(-1.5100954e-11 0 0)
(-1.46014169e-11 0 0)
(-1.31286697e-11 0 0)
(-1.40911728e-11 0 0)
(-1.54345938e-11 0 0)
(-1.41630811e-11 0 0)
(-1.34744573e-11 0 0)
(-1.42080325e-11 0 0)
(-1.37956765e-11 0 0)
(-1.39670901e-11 0 0)
(-1.38258448e-11 0 0)
(-1.38988887e-11 0 0)
(-1.33867598e-11 0 0)
(-1.27247055e-11 0 0)
(-1.35624414e-11 0 0)
(-1.25700532e-11 0 0)
(-1.27224709e-11 0 0)
(-1.31552093e-11 0 0)
(-1.20705299e-11 0 0)
(-1.26253576e-11 0 0)
(-1.26475932e-11 0 0)
(-1.21037346e-11 0 0)
(-1.20027067e-11 0 0)
(-1.29970094e-11 0 0)
(-1.14384782e-11 0 0)
(-1.22677163e-11 0 0)
(-1.27490327e-11 0 0)
(-1.29206423e-11 0 0)
(-1.22445392e-11 0 0)
(-1.178378e-11 0 0)
(-1.25294925e-11 0 0)
(-1.27973122e-11 0 0)
(-1.34608617e-11 0 0)
(-1.25857582e-11 0 0)
(-1.21515339e-11 0 0)
(-1.17619974e-11 0 0)
(-1.31313721e-11 0 0)
(-1.22131358e-11 0 0)
(-1.24278661e-11 0 0)
(-1.1994523e-11 0 0)
(-1.08922535e-11 0 0)
(-1.14372923e-11 0 0)
(-1.25778482e-11 0 0)
(-1.16085466e-11 0 0)
(-1.08527678e-11 0 0)
(-1.12129748e-11 0 0)
(-1.15021693e-11 0 0)
(-1.12989221e-11 0 0)
(-1.10448466e-11 0 0)
(-9.59462885e-12 0 0)
(-9.76558813e-12 0 0)
(-1.02477896e-11 0 0)
(-1.07903518e-11 0 0)
(-1.11663424e-11 0 0)
(-1.07342128e-11 0 0)
(-1.02570592e-11 0 0)
(-9.77776937e-12 0 0)
(-9.57469788e-12 0 0)
(-8.84484929e-12 0 0)
(-9.80177264e-12 0 0)
(-1.0160295e-11 0 0)
(-9.28266928e-12 0 0)
(-9.03008012e-12 0 0)
(-9.00416295e-12 0 0)
(-8.78668742e-12 0 0)
(-1.01458425e-11 0 0)
(-9.51588988e-12 0 0)
(-8.68251317e-12 0 0)
(-8.13364796e-12 0 0)
(-9.48638738e-12 0 0)
(-9.31679688e-12 0 0)
(-9.0596785e-12 0 0)
(-8.65136704e-12 0 0)
(-8.63954383e-12 0 0)
(-9.81806071e-12 0 0)
(-8.87323616e-12 0 0)
(-8.99559619e-12 0 0)
(-8.75265601e-12 0 0)
(-8.45102605e-12 0 0)
(-7.83050245e-12 0 0)
(-7.34230365e-12 0 0)
(-7.54544232e-12 0 0)
(-7.81279998e-12 0 0)
(-7.82150014e-12 0 0)
(-7.53420993e-12 0 0)
(-7.69359234e-12 0 0)
(-8.17315371e-12 0 0)
(-7.92296872e-12 0 0)
(-6.60032978e-12 0 0)
(-7.79842964e-12 0 0)
(-8.51981362e-12 0 0)
(-7.80155285e-12 0 0)
(-7.24132101e-12 0 0)
(-8.36067209e-12 0 0)
(-8.07908971e-12 0 0)
(-6.96619664e-12 0 0)
(-7.3171079e-12 0 0)
(-7.09929856e-12 0 0)
(-7.61396694e-12 0 0)
(-6.28732799e-12 0 0)
(-7.27440641e-12 0 0)
(-6.82635448e-12 0 0)
(-7.16809032e-12 0 0)
(-5.97662312e-12 0 0)
(-7.30393524e-12 0 0)
(-7.66449734e-12 0 0)
(-6.36112467e-12 0 0)
(-6.47234572e-12 0 0)
(-6.28425386e-12 0 0)
(-6.42164319e-12 0 0)
(-6.7390283e-12 0 0)
(-6.52013304e-12 0 0)
(-5.72959954e-12 0 0)
(-6.04583976e-12 0 0)
(-5.33665075e-12 0 0)
(-5.14872685e-12 0 0)
(-5.60435115e-12 0 0)
(-5.74289279e-12 0 0)
(-5.55453102e-12 0 0)
(-5.64411324e-12 0 0)
(-5.51311359e-12 0 0)
(-6.51343662e-12 0 0)
(-5.22002664e-12 0 0)
(-6.43357344e-12 0 0)
(-6.15066374e-12 0 0)
(-5.84040259e-12 0 0)
(-6.12969253e-12 0 0)
(-5.32681244e-12 0 0)
(-6.13663594e-12 0 0)
(-5.80573321e-12 0 0)
(-5.78259649e-12 0 0)
(-4.96208758e-12 0 0)
(-5.60176593e-12 0 0)
(-5.22346227e-12 0 0)
(-6.53870858e-12 0 0)
(-5.95023494e-12 0 0)
(-5.03423936e-12 0 0)
(-4.92380869e-12 0 0)
(-5.43134321e-12 0 0)
(-5.04004739e-12 0 0)
(-5.65736073e-12 0 0)
(-5.08847119e-12 0 0)
(-4.90893222e-12 0 0)
(-5.16897337e-12 0 0)
(-4.99372489e-12 0 0)
(-4.62513401e-12 0 0)
(-4.57250864e-12 0 0)
(-4.34786381e-12 0 0)
(-4.5466176e-12 0 0)
(-4.51587101e-12 0 0)
(-4.32097153e-12 0 0)
(-3.47818823e-12 0 0)
(-4.41938701e-12 0 0)
(-5.45096289e-12 0 0)
(-3.72429425e-12 0 0)
(-4.96094903e-12 0 0)
(-3.72659477e-12 0 0)
(-3.42097202e-12 0 0)
(-3.33558803e-12 0 0)
(-3.84844576e-12 0 0)
(-3.70668528e-12 0 0)
(-4.41126039e-12 0 0)
(-4.59321188e-12 0 0)
(-3.06431659e-12 0 0)
(-3.75854363e-12 0 0)
(-4.16765487e-12 0 0)
(-3.08554403e-12 0 0)
(-3.59597282e-12 0 0)
(-3.93051856e-12 0 0)
(-2.64178132e-12 0 0)
(-3.13319707e-12 0 0)
(-3.06006619e-12 0 0)
(-2.46608053e-12 0 0)
(-1.37265846e-12 0 0)
(-2.54203097e-12 0 0)
(-1.85061883e-12 0 0)
(-1.16515789e-12 0 0)
(-2.28173971e-12 0 0)
(-1.94893184e-12 0 0)
(-2.39700226e-12 0 0)
(-1.4938307e-12 0 0)
(-1.96302589e-12 0 0)
(-2.00107749e-12 0 0)
(-2.78143393e-12 0 0)
(-1.20715489e-12 0 0)
(-1.72706248e-12 0 0)
(-9.5584359e-13 0 0)
(-2.25775892e-12 0 0)
(-1.77201976e-12 0 0)
(-2.20375484e-12 0 0)
(-2.39300709e-12 0 0)
(-9.83393937e-13 0 0)
(-2.02369074e-12 0 0)
(-2.54038398e-12 0 0)
(-1.06153069e-12 0 0)
(-9.7617332e-13 0 0)
(-7.10661259e-13 0 0)
(-2.62291968e-13 0 0)
(-7.61686696e-13 0 0)
(-6.98710391e-14 0 0)
(3.96644103e-13 0 0)
(1.79763666e-12 0 0)
(1.75602867e-12 0 0)
(2.28346099e-12 0 0)
(2.82882282e-13 0 0)
(1.33002336e-12 0 0)
(1.53313847e-12 0 0)
(1.22260532e-12 0 0)
(1.00053176e-12 0 0)
(1.40217819e-12 0 0)
(1.78867042e-12 0 0)
(2.25203422e-12 0 0)
(1.6848495e-12 0 0)
(1.43522835e-12 0 0)
(1.64062252e-12 0 0)
(2.19596702e-12 0 0)
(2.43052497e-12 0 0)
(1.13835162e-12 0 0)
(1.56773853e-12 0 0)
(2.11055372e-12 0 0)
(2.79866295e-12 0 0)
(1.84805877e-12 0 0)
(1.34697934e-12 0 0)
(1.92006995e-12 0 0)
(1.71339073e-12 0 0)
(2.6036279e-12 0 0)
(2.49008113e-12 0 0)
(2.46980231e-12 0 0)
(2.96794178e-12 0 0)
(1.70523637e-12 0 0)
(2.16589177e-12 0 0)
(2.39460929e-12 0 0)
(1.85632064e-12 0 0)
(2.28074895e-12 0 0)
(2.24730484e-12 0 0)
(2.64558724e-12 0 0)
(2.62061517e-12 0 0)
(3.4399069e-12 0 0)
(3.64589981e-12 0 0)
(3.02448717e-12 0 0)
(3.42866109e-12 0 0)
(2.58032787e-12 0 0)
(2.5114997e-12 0 0)
(3.30738039e-12 0 0)
(3.2308678e-12 0 0)
(3.3351262e-12 0 0)
(3.74905232e-12 0 0)
(3.05045609e-12 0 0)
(3.7182247e-12 0 0)
(2.93545182e-12 0 0)
(2.72906453e-12 0 0)
(2.27240234e-12 0 0)
(3.41155711e-12 0 0)
(2.6440692e-12 0 0)
(3.76071953e-12 0 0)
(2.66571605e-12 0 0)
(2.74418846e-12 0 0)
(3.43489452e-12 0 0)
(4.068341e-12 0 0)
(3.85980596e-12 0 0)
(3.46026358e-12 0 0)
(3.65236925e-12 0 0)
(4.14191465e-12 0 0)
(3.16577107e-12 0 0)
(3.85717514e-12 0 0)
(4.39796605e-12 0 0)
(3.69058337e-12 0 0)
(4.04677766e-12 0 0)
(4.15904574e-12 0 0)
(3.54699441e-12 0 0)
(4.21423348e-12 0 0)
(4.93477668e-12 0 0)
(3.71440826e-12 0 0)
(4.06768319e-12 0 0)
(3.99213074e-12 0 0)
(3.75740464e-12 0 0)
(4.61621663e-12 0 0)
(3.65272128e-12 0 0)
(3.75848467e-12 0 0)
(4.19698943e-12 0 0)
(3.52069595e-12 0 0)
(3.12335392e-12 0 0)
(4.02154941e-12 0 0)
(3.54921854e-12 0 0)
(3.59907221e-12 0 0)
(3.41026522e-12 0 0)
(3.70895902e-12 0 0)
(1.94099249e-12 0 0)
(1.87751255e-12 0 0)
(3.32847287e-12 0 0)
(3.07748738e-12 0 0)
(3.57981825e-12 0 0)
(2.41864461e-12 0 0)
(3.51143367e-12 0 0)
(2.7538605e-12 0 0)
(4.18479711e-12 0 0)
(4.59327437e-12 0 0)
(4.4121315e-12 0 0)
(4.86066595e-12 0 0)
(4.96037212e-12 0 0)
(4.70211704e-12 0 0)
(5.02806644e-12 0 0)
(5.02262057e-12 0 0)
(4.8091595e-12 0 0)
(4.59489465e-12 0 0)
(4.87899392e-12 0 0)
(4.75256785e-12 0 0)
(5.1720787e-12 0 0)
(5.48600965e-12 0 0)
(5.37347764e-12 0 0)
(5.5645619e-12 0 0)
(5.5570864e-12 0 0)
(6.11702735e-12 0 0)
(6.13413316e-12 0 0)
(6.56945855e-12 0 0)
(6.7529086e-12 0 0)
(6.51724077e-12 0 0)
(6.4012337e-12 0 0)
(6.94025964e-12 0 0)
(7.07544793e-12 0 0)
(6.61837493e-12 0 0)
(7.05820115e-12 0 0)
(7.02305907e-12 0 0)
(6.97460113e-12 0 0)
(6.53249139e-12 0 0)
(6.56188636e-12 0 0)
(6.88873476e-12 0 0)
(6.41684494e-12 0 0)
(6.99858939e-12 0 0)
(7.22017175e-12 0 0)
(6.27693618e-12 0 0)
(7.24682116e-12 0 0)
(7.4101473e-12 0 0)
(7.6517576e-12 0 0)
(8.40815375e-12 0 0)
(8.03451639e-12 0 0)
(6.85971972e-12 0 0)
(7.0858045e-12 0 0)
(6.59063581e-12 0 0)
(7.99620582e-12 0 0)
(6.69210386e-12 0 0)
(7.41224301e-12 0 0)
(7.28688294e-12 0 0)
(7.83507263e-12 0 0)
(7.21142856e-12 0 0)
(7.62339245e-12 0 0)
(7.59198325e-12 0 0)
(7.89452313e-12 0 0)
(7.51604282e-12 0 0)
(7.62900996e-12 0 0)
(7.58283052e-12 0 0)
(7.62165388e-12 0 0)
(7.76373589e-12 0 0)
(7.75400775e-12 0 0)
(6.24785741e-12 0 0)
(7.0649454e-12 0 0)
(6.80547559e-12 0 0)
(8.35738655e-12 0 0)
(6.64848011e-12 0 0)
(7.35783517e-12 0 0)
(6.40170804e-12 0 0)
(7.36069926e-12 0 0)
(7.06573137e-12 0 0)
(7.20956399e-12 0 0)
(6.98244076e-12 0 0)
(7.28744102e-12 0 0)
(7.38112518e-12 0 0)
(6.9952667e-12 0 0)
(7.33515109e-12 0 0)
(7.90170049e-12 0 0)
(6.40665015e-12 0 0)
(7.02167822e-12 0 0)
(7.32408672e-12 0 0)
(7.79402992e-12 0 0)
(7.24609884e-12 0 0)
(6.4749784e-12 0 0)
(7.30728055e-12 0 0)
(6.69409851e-12 0 0)
(7.14616898e-12 0 0)
(6.744094e-12 0 0)
(7.12183497e-12 0 0)
(6.2586813e-12 0 0)
(7.17124645e-12 0 0)
(6.64064961e-12 0 0)
(6.43991109e-12 0 0)
(8.24826121e-12 0 0)
(7.70983677e-12 0 0)
(7.79444369e-12 0 0)
(6.64146328e-12 0 0)
(7.20762968e-12 0 0)
(7.08043196e-12 0 0)
(6.99582461e-12 0 0)
(6.55341966e-12 0 0)
(6.73596788e-12 0 0)
(6.26130805e-12 0 0)
(6.49650274e-12 0 0)
(7.13155862e-12 0 0)
(7.3396511e-12 0 0)
(7.3069565e-12 0 0)
(7.83706429e-12 0 0)
(7.63346027e-12 0 0)
(6.88019447e-12 0 0)
(7.84752405e-12 0 0)
(7.28528494e-12 0 0)
(7.67657117e-12 0 0)
(7.96413361e-12 0 0)
(7.31432358e-12 0 0)
(7.5809642e-12 0 0)
(7.71474318e-12 0 0)
(7.14520372e-12 0 0)
(8.05828259e-12 0 0)
(6.93091736e-12 0 0)
(7.57211202e-12 0 0)
(7.53078702e-12 0 0)
(7.51700507e-12 0 0)
(7.87957476e-12 0 0)
(7.05084842e-12 0 0)
(7.8851218e-12 0 0)
(6.96696193e-12 0 0)
(7.61050003e-12 0 0)
(8.17643739e-12 0 0)
(7.98148785e-12 0 0)
(6.75009469e-12 0 0)
(6.77715575e-12 0 0)
(6.44810625e-12 0 0)
(7.74463395e-12 0 0)
(6.60951851e-12 0 0)
(7.99268992e-12 0 0)
(6.64447878e-12 0 0)
(7.13381545e-12 0 0)
(7.61589468e-12 0 0)
(7.38450337e-12 0 0)
(7.96409262e-12 0 0)
(6.75094053e-12 0 0)
(7.15026595e-12 0 0)
(8.18234996e-12 0 0)
(7.25240026e-12 0 0)
(7.31896178e-12 0 0)
(6.61614e-12 0 0)
(7.75554218e-12 0 0)
(6.75908678e-12 0 0)
(6.49367221e-12 0 0)
(6.78397298e-12 0 0)
(7.84225852e-12 0 0)
(6.63393606e-12 0 0)
(7.03518675e-12 0 0)
(7.65608143e-12 0 0)
(6.59765583e-12 0 0)
(7.44076086e-12 0 0)
(8.06064725e-12 0 0)
(7.24669655e-12 0 0)
(7.37569944e-12 0 0)
(6.83575699e-12 0 0)
(7.64025436e-12 0 0)
(7.4486908e-12 0 0)
(6.32932763e-12 0 0)
(8.62816394e-12 0 0)
(8.56957426e-12 0 0)
(7.6585551e-12 0 0)
(7.41519234e-12 0 0)
(8.8624654e-12 0 0)
(7.2513234e-12 0 0)
(8.14794442e-12 0 0)
(7.33040417e-12 0 0)
(8.12166256e-12 0 0)
(7.24866728e-12 0 0)
(8.28922972e-12 0 0)
(7.777481e-12 0 0)
(8.39984756e-12 0 0)
(8.16069538e-12 0 0)
(8.21101935e-12 0 0)
(7.79437139e-12 0 0)
(7.58281831e-12 0 0)
(6.85873063e-12 0 0)
(8.22117022e-12 0 0)
(7.49342393e-12 0 0)
(8.10779836e-12 0 0)
(7.08456172e-12 0 0)
(8.7069566e-12 0 0)
(8.40489326e-12 0 0)
(7.59259065e-12 0 0)
(8.07871542e-12 0 0)
(8.55945363e-12 0 0)
(8.67137137e-12 0 0)
(7.55794157e-12 0 0)
(7.46829496e-12 0 0)
(9.37340862e-12 0 0)
(7.84942455e-12 0 0)
(8.69888894e-12 0 0)
(8.14188408e-12 0 0)
(7.86656816e-12 0 0)
(8.06391457e-12 0 0)
(8.29269489e-12 0 0)
(7.35683154e-12 0 0)
(8.26418396e-12 0 0)
(9.78154898e-12 0 0)
(8.19249995e-12 0 0)
(9.26056865e-12 0 0)
(8.83467219e-12 0 0)
(8.05465471e-12 0 0)
(9.58090479e-12 0 0)
(8.83719034e-12 0 0)
(9.02819503e-12 0 0)
(8.92801018e-12 0 0)
(8.66676909e-12 0 0)
(9.35374093e-12 0 0)
(9.06500603e-12 0 0)
(9.50237359e-12 0 0)
(8.85911735e-12 0 0)
(9.77203142e-12 0 0)
(8.68903196e-12 0 0)
(7.84909068e-12 0 0)
(8.73284237e-12 0 0)
(8.67038728e-12 0 0)
(8.60450822e-12 0 0)
(8.45180126e-12 0 0)
(8.5547262e-12 0 0)
(9.67774147e-12 0 0)
(8.1527122e-12 0 0)
(8.61378595e-12 0 0)
(8.32240038e-12 0 0)
(8.83742385e-12 0 0)
(8.95359893e-12 0 0)
(8.42006365e-12 0 0)
(9.11744344e-12 0 0)
(8.8022175e-12 0 0)
(9.06088226e-12 0 0)
(8.56225401e-12 0 0)
(7.93953268e-12 0 0)
(8.37063795e-12 0 0)
(9.25833938e-12 0 0)
(8.80422567e-12 0 0)
(7.72216833e-12 0 0)
(8.60401407e-12 0 0)
(9.18990292e-12 0 0)
(8.00159685e-12 0 0)
(8.21758545e-12 0 0)
(9.25799149e-12 0 0)
(7.49818741e-12 0 0)
(8.02570763e-12 0 0)
(8.57978865e-12 0 0)
(8.53175597e-12 0 0)
(8.03356547e-12 0 0)
(7.70201302e-12 0 0)
(9.39218737e-12 0 0)
(8.67329175e-12 0 0)
(8.84082623e-12 0 0)
(8.96617845e-12 0 0)
(8.32724071e-12 0 0)
(9.81435633e-12 0 0)
(8.97001788e-12 0 0)
(8.12047662e-12 0 0)
(9.39343867e-12 0 0)
(8.9804344e-12 0 0)
(7.89018418e-12 0 0)
(8.31168213e-12 0 0)
(7.98445795e-12 0 0)
(8.54216933e-12 0 0)
(8.00630113e-12 0 0)
(8.45381236e-12 0 0)
(7.92290772e-12 0 0)
(8.55552566e-12 0 0)
(8.32707173e-12 0 0)
(8.20067882e-12 0 0)
(9.22108772e-12 0 0)
(8.06744488e-12 0 0)
(8.37129571e-12 0 0)
(7.91946382e-12 0 0)
(8.03600477e-12 0 0)
(8.55865194e-12 0 0)
(8.76744032e-12 0 0)
(9.26747012e-12 0 0)
(8.1478952e-12 0 0)
(7.84903866e-12 0 0)
(8.13700985e-12 0 0)
(7.55619638e-12 0 0)
(7.27301573e-12 0 0)
(8.67744717e-12 0 0)
(8.37192147e-12 0 0)
(6.69603886e-12 0 0)
(7.93351846e-12 0 0)
(7.95352072e-12 0 0)
(7.22896143e-12 0 0)
(7.65019728e-12 0 0)
(7.06596808e-12 0 0)
(7.73224873e-12 0 0)
(6.17755163e-12 0 0)
(7.08609802e-12 0 0)
(6.59258412e-12 0 0)
(7.66446118e-12 0 0)
(8.34639167e-12 0 0)
(8.26034769e-12 0 0)
(8.0021357e-12 0 0)
(8.86788641e-12 0 0)
(7.50110364e-12 0 0)
(8.24107228e-12 0 0)
(8.47635132e-12 0 0)
(8.77207896e-12 0 0)
(8.64303993e-12 0 0)
(8.84650018e-12 0 0)
(7.66370308e-12 0 0)
(9.4713251e-12 0 0)
(8.46228072e-12 0 0)
(7.67368459e-12 0 0)
(9.25415673e-12 0 0)
(9.11500313e-12 0 0)
(8.23776149e-12 0 0)
(7.94265231e-12 0 0)
(8.17285707e-12 0 0)
(8.06891766e-12 0 0)
(7.94273266e-12 0 0)
(7.97805096e-12 0 0)
(8.39754828e-12 0 0)
(7.47556222e-12 0 0)
(7.91326952e-12 0 0)
(7.01581996e-12 0 0)
(7.87688942e-12 0 0)
(8.7554762e-12 0 0)
(7.17024953e-12 0 0)
(7.7472496e-12 0 0)
(8.83833042e-12 0 0)
(8.05042005e-12 0 0)
(8.19770113e-12 0 0)
(7.49213185e-12 0 0)
(7.95904638e-12 0 0)
(7.78297802e-12 0 0)
(8.34090636e-12 0 0)
(7.68022866e-12 0 0)
(8.39559929e-12 0 0)
(7.38001566e-12 0 0)
(7.589117e-12 0 0)
(8.14703693e-12 0 0)
(8.53592274e-12 0 0)
(8.32835711e-12 0 0)
(7.69812114e-12 0 0)
(7.85160509e-12 0 0)
(7.63524841e-12 0 0)
(7.30515853e-12 0 0)
(7.58959687e-12 0 0)
(6.55384747e-12 0 0)
(6.87498288e-12 0 0)
(7.0715777e-12 0 0)
(5.56501137e-12 0 0)
(7.82217014e-12 0 0)
(6.36776313e-12 0 0)
(7.16233855e-12 0 0)
(6.60730112e-12 0 0)
(6.62112007e-12 0 0)
(5.58896928e-12 0 0)
(5.84740671e-12 0 0)
(6.15836366e-12 0 0)
(5.33969915e-12 0 0)
(4.98524801e-12 0 0)
(6.54870831e-12 0 0)
(5.42222692e-12 0 0)
(6.22335675e-12 0 0)
(5.84779633e-12 0 0)
(4.6984562e-12 0 0)
(5.61777168e-12 0 0)
(5.04960367e-12 0 0)
(4.70896612e-12 0 0)
(4.87377653e-12 0 0)
(5.70022735e-12 0 0)
(5.29383498e-12 0 0)
(3.92592852e-12 0 0)
(4.62129033e-12 0 0)
(3.52585508e-12 0 0)
(2.1521355e-12 0 0)
(3.53494688e-12 0 0)
(2.66267273e-12 0 0)
(2.97785912e-12 0 0)
(2.2450559e-12 0 0)
(3.42063545e-12 0 0)
(2.86675318e-12 0 0)
(3.01899481e-12 0 0)
(2.7023914e-12 0 0)
(3.1987598e-12 0 0)
(2.74189301e-12 0 0)
(2.63895588e-12 0 0)
(2.69474467e-12 0 0)
(1.49904483e-12 0 0)
(2.41840629e-12 0 0)
(2.28677416e-12 0 0)
(2.52572834e-12 0 0)
(2.40695816e-12 0 0)
(3.17745277e-12 0 0)
(2.58195669e-12 0 0)
(3.12479374e-12 0 0)
(3.42448085e-12 0 0)
(3.29831683e-12 0 0)
(1.74865674e-12 0 0)
(2.15947536e-12 0 0)
(2.37546601e-12 0 0)
(1.59942754e-12 0 0)
(1.86077161e-12 0 0)
(1.82389157e-12 0 0)
(1.82886808e-12 0 0)
(1.78556113e-12 0 0)
(1.38845466e-12 0 0)
(3.15415601e-12 0 0)
(2.34530301e-12 0 0)
(1.92289045e-12 0 0)
(1.71429419e-12 0 0)
(1.90852632e-12 0 0)
(1.12857411e-12 0 0)
(2.15461088e-12 0 0)
(1.59532977e-12 0 0)
(2.45479494e-12 0 0)
(2.20052825e-12 0 0)
(1.12846943e-12 0 0)
(2.06367045e-12 0 0)
(2.29723885e-12 0 0)
(1.77128384e-12 0 0)
(2.1488409e-12 0 0)
(1.90741402e-12 0 0)
(1.78242895e-12 0 0)
(1.37628791e-12 0 0)
(2.0858891e-12 0 0)
(1.85716553e-12 0 0)
(1.73699638e-12 0 0)
(1.21737016e-12 0 0)
(2.23085817e-13 0 0)
(8.15533195e-13 0 0)
(8.10185596e-13 0 0)
(9.02082245e-14 0 0)
(3.18953754e-13 0 0)
(7.77454349e-13 0 0)
(4.33813829e-13 0 0)
(-1.33653952e-13 0 0)
(1.90612333e-13 0 0)
(-7.15088039e-13 0 0)
(-7.1412006e-13 0 0)
(-6.28611653e-13 0 0)
(-9.0003891e-13 0 0)
(-6.84985211e-13 0 0)
(-5.93219708e-13 0 0)
(-6.57437245e-13 0 0)
(-9.69714568e-13 0 0)
(-1.4034181e-12 0 0)
(-1.8261676e-12 0 0)
(-1.29449423e-12 0 0)
(-1.6441835e-12 0 0)
(-1.19075434e-12 0 0)
(-1.86252914e-12 0 0)
(-2.10928961e-12 0 0)
(-1.9514218e-12 0 0)
(-2.11322144e-12 0 0)
(-2.43816814e-12 0 0)
(-2.87369722e-12 0 0)
(-2.98464915e-12 0 0)
(-2.71139702e-12 0 0)
(-2.91468481e-12 0 0)
(-2.98944713e-12 0 0)
(-2.25203696e-12 0 0)
(-3.90731723e-12 0 0)
(-2.87175312e-12 0 0)
(-3.67176691e-12 0 0)
(-4.7783096e-12 0 0)
(-3.86246885e-12 0 0)
(-3.61794358e-12 0 0)
(-4.81695984e-12 0 0)
(-4.95739517e-12 0 0)
(-4.31151992e-12 0 0)
(-4.80990333e-12 0 0)
(-4.55542594e-12 0 0)
(-4.54451252e-12 0 0)
(-4.71208148e-12 0 0)
(-4.18535637e-12 0 0)
(-5.14598014e-12 0 0)
(-4.24220821e-12 0 0)
(-5.06634124e-12 0 0)
(-4.89713304e-12 0 0)
(-4.45669958e-12 0 0)
(-4.36510106e-12 0 0)
(-3.76472551e-12 0 0)
(-4.2694302e-12 0 0)
(-4.78654467e-12 0 0)
(-4.32352316e-12 0 0)
(-4.42891921e-12 0 0)
(-5.31719406e-12 0 0)
(-5.14526175e-12 0 0)
(-4.94488697e-12 0 0)
(-4.9604695e-12 0 0)
(-5.58244424e-12 0 0)
(-4.85087145e-12 0 0)
(-4.88714852e-12 0 0)
(-4.2100724e-12 0 0)
(-4.35090797e-12 0 0)
(-5.70486489e-12 0 0)
(-4.3737576e-12 0 0)
(-4.5228968e-12 0 0)
(-4.86651553e-12 0 0)
(-4.94784195e-12 0 0)
(-4.50872588e-12 0 0)
(-4.35734907e-12 0 0)
(-4.68620161e-12 0 0)
(-3.87061354e-12 0 0)
(-3.45625946e-12 0 0)
(-3.79436401e-12 0 0)
(-3.589474e-12 0 0)
(-3.88375671e-12 0 0)
(-4.32800953e-12 0 0)
(-3.62431006e-12 0 0)
(-3.48078981e-12 0 0)
(-3.87393141e-12 0 0)
(-5.14327767e-12 0 0)
(-5.26944026e-12 0 0)
(-4.77010659e-12 0 0)
(-5.42099298e-12 0 0)
(-4.3485832e-12 0 0)
(-4.98754201e-12 0 0)
(-5.73246595e-12 0 0)
(-5.38352902e-12 0 0)
(-4.41924136e-12 0 0)
(-5.17019306e-12 0 0)
(-5.65007357e-12 0 0)
(-5.24427106e-12 0 0)
(-5.3780833e-12 0 0)
(-5.83664627e-12 0 0)
(-5.70528475e-12 0 0)
(-5.19222843e-12 0 0)
(-6.39545771e-12 0 0)
(-5.27620165e-12 0 0)
(-4.08289234e-12 0 0)
(-6.08162616e-12 0 0)
(-6.39181854e-12 0 0)
(-5.67009862e-12 0 0)
(-5.35844516e-12 0 0)
(-6.90700165e-12 0 0)
(-5.21297339e-12 0 0)
(-5.50425434e-12 0 0)
(-6.05255746e-12 0 0)
(-7.28689432e-12 0 0)
(-5.67521792e-12 0 0)
(-6.13172313e-12 0 0)
(-6.95635085e-12 0 0)
(-7.04394985e-12 0 0)
(-7.16774605e-12 0 0)
(-6.59106805e-12 0 0)
(-6.60711408e-12 0 0)
(-6.94248455e-12 0 0)
(-6.59461147e-12 0 0)
(-7.83028957e-12 0 0)
(-7.05754165e-12 0 0)
(-7.32263133e-12 0 0)
(-7.62397569e-12 0 0)
(-7.38217163e-12 0 0)
(-7.71022058e-12 0 0)
(-6.45625685e-12 0 0)
(-6.44357271e-12 0 0)
(-6.53854495e-12 0 0)
(-6.40658632e-12 0 0)
(-6.53853281e-12 0 0)
(-7.0640985e-12 0 0)
(-6.29370577e-12 0 0)
(-7.31211831e-12 0 0)
(-6.96482392e-12 0 0)
(-6.41747613e-12 0 0)
(-6.60895393e-12 0 0)
(-7.19219018e-12 0 0)
(-5.78853822e-12 0 0)
(-6.45263248e-12 0 0)
(-6.2997515e-12 0 0)
(-6.63841438e-12 0 0)
(-6.23836754e-12 0 0)
(-6.1356201e-12 0 0)
(-5.66721623e-12 0 0)
(-5.89207028e-12 0 0)
(-6.11481522e-12 0 0)
(-6.86804588e-12 0 0)
(-7.33388587e-12 0 0)
(-6.71430955e-12 0 0)
(-7.03208491e-12 0 0)
(-6.00679277e-12 0 0)
(-6.51975666e-12 0 0)
(-5.63128791e-12 0 0)
(-5.55699947e-12 0 0)
(-6.27470931e-12 0 0)
(-5.97138999e-12 0 0)
(-6.10418493e-12 0 0)
(-5.40847758e-12 0 0)
(-5.76785632e-12 0 0)
(-5.55828538e-12 0 0)
(-5.55216273e-12 0 0)
(-5.45891515e-12 0 0)
(-6.12857538e-12 0 0)
(-7.23793386e-12 0 0)
(-6.33294069e-12 0 0)
(-6.85080599e-12 0 0)
(-6.54791599e-12 0 0)
(-6.86317945e-12 0 0)
(-7.45107525e-12 0 0)
(-7.0915726e-12 0 0)
(-7.26712884e-12 0 0)
(-8.49647706e-12 0 0)
(-7.40416019e-12 0 0)
(-7.60507328e-12 0 0)
(-7.60625089e-12 0 0)
(-7.9607416e-12 0 0)
(-9.1929864e-12 0 0)
(-7.85194554e-12 0 0)
(-7.99316207e-12 0 0)
(-7.66280729e-12 0 0)
(-8.3201973e-12 0 0)
(-8.04469748e-12 0 0)
(-8.65904352e-12 0 0)
(-7.53136016e-12 0 0)
(-8.10977897e-12 0 0)
(-7.00662169e-12 0 0)
(-8.1639147e-12 0 0)
(-8.59326628e-12 0 0)
(-7.87433629e-12 0 0)
(-8.64785993e-12 0 0)
(-8.61216193e-12 0 0)
(-8.71452919e-12 0 0)
(-9.03447767e-12 0 0)
(-8.39958101e-12 0 0)
(-8.83821998e-12 0 0)
(-8.48321838e-12 0 0)
(-8.20199672e-12 0 0)
(-9.39823864e-12 0 0)
(-7.88274079e-12 0 0)
(-8.12358144e-12 0 0)
(-9.18744033e-12 0 0)
(-8.54021406e-12 0 0)
(-8.94779165e-12 0 0)
(-9.02954041e-12 0 0)
(-8.55025188e-12 0 0)
(-8.15523524e-12 0 0)
(-9.0339956e-12 0 0)
(-9.19629267e-12 0 0)
(-9.82585027e-12 0 0)
(-8.72967499e-12 0 0)
(-9.46000257e-12 0 0)
(-8.67866196e-12 0 0)
(-9.25159518e-12 0 0)
(-9.89903587e-12 0 0)
(-8.99075206e-12 0 0)
(-9.24064421e-12 0 0)
(-9.68505338e-12 0 0)
(-9.62285664e-12 0 0)
(-8.42377302e-12 0 0)
(-8.21597248e-12 0 0)
(-8.56331974e-12 0 0)
(-9.04206027e-12 0 0)
(-9.36319676e-12 0 0)
(-8.61529878e-12 0 0)
(-8.64482858e-12 0 0)
(-8.95353678e-12 0 0)
(-8.43835189e-12 0 0)
(-8.61716774e-12 0 0)
(-8.47023048e-12 0 0)
(-8.41757946e-12 0 0)
(-8.76963626e-12 0 0)
(-7.61627067e-12 0 0)
(-8.21169769e-12 0 0)
(-9.88149711e-12 0 0)
(-7.89699125e-12 0 0)
(-8.21265452e-12 0 0)
(-8.92359999e-12 0 0)
(-7.95284182e-12 0 0)
(-7.91469266e-12 0 0)
(-8.53095484e-12 0 0)
(-8.25171438e-12 0 0)
(-8.0768661e-12 0 0)
(-8.23255266e-12 0 0)
(-8.05136818e-12 0 0)
(-9.12167192e-12 0 0)
(-7.96132489e-12 0 0)
(-7.77950778e-12 0 0)
(-9.30539406e-12 0 0)
(-8.31901906e-12 0 0)
(-8.98105661e-12 0 0)
(-8.53738175e-12 0 0)
(-8.08492254e-12 0 0)
(-7.31706792e-12 0 0)
(-8.79676764e-12 0 0)
(-9.1321551e-12 0 0)
(-8.3118855e-12 0 0)
(-7.88985211e-12 0 0)
(-8.65844546e-12 0 0)
(-9.93565778e-12 0 0)
(-8.13094227e-12 0 0)
(-8.12765728e-12 0 0)