/*--------------------------------*- C++ -*----------------------------------*\
| =========                 |                                                 |
| \\      /  F ield         | OpenFOAM: The Open Source CFD Toolbox           |
|  \\    /   O peration     | Version:  2206                                  |
|   \\  /    A nd           | Website:  www.openfoam.com                      |
|    \\/     M anipulation  |                                                 |
\*---------------------------------------------------------------------------*/
FoamFile
{
    version     2.0;
    format      ascii;
    arch        "LSB;label=32;scalar=64";
    class       surfaceScalarField;
    location    "1.18e-05";
    object      phi;
}
// * * * * * * * * * * * * * * * * * * * * * * * * * * * * * * * * * * * * * //

dimensions      [1 0 -1 0 0 0 0];

oriented        oriented;

internalField   nonuniform List<scalar> 
3182
(
4.20931672e-18
-2.76807216e-18
-4.38770081e-19
-1.61465556e-18
-3.01802911e-21
-2.08556485e-23
-1.51038961e-24
-3.31090669e-30
1.54973097e-24
3.18443575e-23
2.49326259e-21
2.45355215e-18
3.53675338e-18
-9.83922426e-19
1.87111549e-18
-7.78297156e-19
-2.32611728e-18
-4.89379727e-18
-3.40876405e-18
4.49430633e-18
4.87621728e-20
5.79487202e-22
2.50737766e-19
1.90118879e-18
3.21959735e-18
1.86222177e-18
3.55233098e-18
2.41914263e-18
2.45575646e-18
3.81405088e-19
-2.2452565e-18
-2.61386905e-18
-7.22500993e-18
-7.87839015e-18
-2.8758579e-18
-2.89959854e-18
-1.9627534e-18
-1.56512274e-18
-7.14192656e-19
-7.04327282e-19
-3.35596885e-18
-4.12760433e-18
-2.82268247e-18
-1.5330928e-18
-9.63094651e-19
1.0821003e-18
1.62106299e-18
1.29351682e-18
1.29927372e-18
2.39551842e-18
3.3688157e-18
4.80384576e-18
7.27344138e-18
1.03072858e-17
1.15055403e-17
1.30393875e-17
1.45453281e-17
1.47689915e-17
1.49824132e-17
1.51944256e-17
1.32517843e-17
1.23614589e-17
1.05935923e-17
8.888783e-18
6.5653303e-18
5.90384864e-18
4.37537855e-18
3.07576581e-18
1.77644262e-18
-1.02786039e-20
-1.72097928e-18
-4.63384691e-18
-5.55593565e-18
-5.67903971e-18
-7.85150486e-18
-7.85066469e-18
-7.92036484e-18
-8.72205068e-18
-9.52094128e-18
-1.15639263e-17
-1.16159556e-17
-1.17157725e-17
-1.41586679e-17
-1.60524303e-17
-1.63894202e-17
-1.88000604e-17
-1.84058085e-17
-2.19715453e-17
-2.24647741e-17
-2.19970845e-17
-2.51437062e-17
-2.5171764e-17
-2.80283481e-17
-2.54464254e-17
-2.78800315e-17
-3.06624947e-17
-2.77978752e-17
-2.93531993e-17
-2.66194036e-17
-2.7954849e-17
-2.7189897e-17
-2.80305068e-17
-3.02773073e-17
-3.06755936e-17
-2.99840847e-17
-2.92607277e-17
-3.28672649e-17
-3.15329936e-17
-3.06065105e-17
-3.09016119e-17
-3.1381307e-17
-3.26089331e-17
-3.21727902e-17
-3.58710408e-17
-3.69492965e-17
-3.60515933e-17
-3.70157593e-17
-3.48588741e-17
-3.54751226e-17
-3.68639617e-17
-3.82696117e-17
-4.05657619e-17
-3.75752016e-17
-3.75422059e-17
-3.8747881e-17
-4.3580973e-17
-4.33844493e-17
-4.6868298e-17
-4.5110923e-17
-4.49512927e-17
-4.68241936e-17
-4.80230605e-17
-4.56532054e-17
-4.54727371e-17
-4.47966682e-17
-4.35960373e-17
-4.4312279e-17
-4.68929405e-17
-4.58637305e-17
-4.61321679e-17
-4.92772596e-17
-4.77145202e-17
-4.84157559e-17
-4.85117491e-17
-4.86503736e-17
-4.7778849e-17
-4.74600692e-17
-5.11461235e-17
-5.25093646e-17
-5.33729143e-17
-5.50600292e-17
-5.24655594e-17
-5.52428396e-17
-5.3132501e-17
-5.34264818e-17
-5.2938713e-17
-5.25495764e-17
-5.14518689e-17
-4.96524809e-17
-5.26115766e-17
-5.12039619e-17
-5.26193667e-17
-5.40383688e-17
-5.44449213e-17
-5.60956879e-17
-5.58649817e-17
-5.51307827e-17
-5.37803715e-17
-5.12578622e-17
-5.54184548e-17
-5.29418306e-17
-5.61244837e-17
-5.67795257e-17
-5.47022317e-17
-5.7180523e-17
-5.72390123e-17
-5.97257646e-17
-5.50047069e-17
-5.73470844e-17
-5.60973465e-17
-5.71244772e-17
-5.52409282e-17
-5.92160144e-17
-5.8046267e-17
-5.93919983e-17
-5.90789891e-17
-5.94502869e-17
-6.09869055e-17
-6.05478174e-17
-6.29681862e-17
-6.32339348e-17
-6.20465618e-17
-6.13846992e-17
-6.18695829e-17
-6.08906547e-17
-6.37572511e-17
-6.39396154e-17
-6.36910786e-17
-6.19734373e-17
-6.19771357e-17
-6.35315654e-17
-6.13728976e-17
-6.08738871e-17
-6.15274478e-17
-6.26690095e-17
-6.57908072e-17
-6.2495964e-17
-6.47717012e-17
-6.55345106e-17
-6.75335408e-17
-6.56056074e-17
-6.61903417e-17
-6.83562284e-17
-6.94994666e-17
-6.72083655e-17
-6.57405523e-17
-6.87982736e-17
-6.83790237e-17
-6.92306609e-17
-6.86132114e-17
-7.21243354e-17
-7.07923693e-17
-7.05248564e-17
-6.88773761e-17
-6.91116556e-17
-7.01361358e-17
-6.80934675e-17
-6.85585144e-17
-6.85580518e-17
-7.14786812e-17
-7.11728313e-17
-7.440864e-17
-7.53842622e-17
-7.71871034e-17
-7.38093397e-17
-7.43808023e-17
-7.73233699e-17
-7.8012539e-17
-7.70305807e-17
-7.91454428e-17
-7.69665392e-17
-7.9042348e-17
-7.48534955e-17
-7.34484854e-17
-7.60309996e-17
-7.62797173e-17
-7.62552235e-17
-7.80486462e-17
-7.65507988e-17
-7.52522922e-17
-7.72446624e-17
-7.76828997e-17
-7.94607429e-17
-7.71747857e-17
-7.45919293e-17
-7.88121678e-17
-7.84663459e-17
-8.08289912e-17
-8.16429175e-17
-8.55733642e-17
-8.64005868e-17
-8.65522117e-17
-8.79713081e-17
-8.8865476e-17
-8.62918343e-17
-8.63246283e-17
-8.7733211e-17
-8.88785359e-17
-8.81407908e-17
-8.9081524e-17
-9.12918368e-17
-9.0561444e-17
-9.35230697e-17
-9.67522769e-17
-9.38314394e-17
-9.48055432e-17
-9.33239978e-17
-9.33407144e-17
-9.43109099e-17
-9.31962202e-17
-9.20875841e-17
-9.57384881e-17
-9.60652298e-17
-9.55210654e-17
-9.55053828e-17
-9.60712937e-17
-9.80170932e-17
-9.50762007e-17
-9.80015353e-17
-9.67716584e-17
-9.63037429e-17
-9.91440202e-17
-9.74927989e-17
-9.65657925e-17
-9.78474436e-17
-9.66881059e-17
-9.85849485e-17
-9.76526304e-17
-1.0046729e-16
-9.94604075e-17
-1.01739216e-16
-1.01427713e-16
-1.0487155e-16
-1.04695233e-16
-1.04210977e-16
-1.00373894e-16
-1.03243702e-16
-1.00733185e-16
-1.00980609e-16
-1.04823914e-16
-1.03522028e-16
-1.07128591e-16
-1.06849675e-16
-1.06736601e-16
-1.03581143e-16
-1.08127689e-16
-1.06297997e-16
-1.07202396e-16
-1.0425699e-16
-1.07934094e-16
-1.04937109e-16
-1.05393796e-16
-1.06900509e-16
-1.04852569e-16
-1.03847863e-16
-1.01259097e-16
-9.83218511e-17
-1.00863727e-16
-1.00245189e-16
-1.03525817e-16
-1.00517859e-16
-1.06439274e-16
-1.03274905e-16
-1.02870906e-16
-1.00347418e-16
-1.00404478e-16
-1.00758066e-16
-1.00063683e-16
-1.02060074e-16
-1.00600679e-16
-1.02028932e-16
-9.9610969e-17
-1.03170512e-16
-1.00388548e-16
-1.01473998e-16
-1.02973049e-16
-1.04525922e-16
-1.02994505e-16
-1.02422067e-16
-1.01256812e-16
-1.04320942e-16
-1.0348364e-16
-1.00835239e-16
-1.0039693e-16
-1.00584699e-16
-1.02188712e-16
-9.96938465e-17
-1.02432852e-16
-1.01937332e-16
-1.02031833e-16
-1.00694391e-16
-1.03143459e-16
-1.03939956e-16
-1.04831842e-16
-1.01989705e-16
-1.04100913e-16
-1.01507242e-16
-1.01423158e-16
-1.01645721e-16
-1.02070844e-16
-9.72774958e-17
-9.54688431e-17
-9.57288388e-17
-9.41445615e-17
-9.58220956e-17
-9.47845564e-17
-9.19810618e-17
-9.37453006e-17
-9.11225963e-17
-9.33639603e-17
-9.32557427e-17
-9.32030996e-17
-8.97669009e-17
-8.87245211e-17
-8.95277235e-17
-8.81522676e-17
-8.85975439e-17
-8.83400235e-17
-8.80985063e-17
-8.88467464e-17
-8.86943531e-17
-8.42315819e-17
-8.61553888e-17
-8.1023511e-17
-8.211742e-17
-8.3013712e-17
-8.69548945e-17
-8.36712858e-17
-8.06798632e-17
-8.42836715e-17
-8.5232219e-17
-8.36913851e-17
-8.75717232e-17
-8.53252944e-17
-8.58699819e-17
-8.14454363e-17
-8.26117734e-17
-8.0416744e-17
-8.04409335e-17
-7.95346522e-17
-7.48748963e-17
-7.83329387e-17
-7.88718886e-17
-8.03647134e-17
-7.96396905e-17
-7.86837157e-17
-7.62605514e-17
-7.74098168e-17
-7.76856049e-17
-7.45324541e-17
-7.43677005e-17
-7.05890488e-17
-7.10007092e-17
-6.88212987e-17
-6.7269881e-17
-6.84944068e-17
-6.82081135e-17
-6.86633258e-17
-6.71421728e-17
-6.59248648e-17
-6.82568044e-17
-6.61707951e-17
-6.56283856e-17
-6.495641e-17
-6.19244057e-17
-6.04983939e-17
-5.87449547e-17
-5.67580399e-17
-6.06297053e-17
-5.70078732e-17
-5.89143772e-17
-6.07014275e-17
-6.37564135e-17
-6.04131914e-17
-6.17777901e-17
-5.80739705e-17
-5.67347918e-17
-5.68836775e-17
-5.73069157e-17
-5.64038148e-17
-5.24021779e-17
-5.34604963e-17
-5.40671934e-17
-5.55394752e-17
-5.5183592e-17
-5.51074398e-17
-5.30822838e-17
-5.57047398e-17
-5.60707249e-17
-5.61438377e-17
-5.2676437e-17
-5.53746334e-17
-5.31703229e-17
-5.45452434e-17
-4.86196463e-17
-4.88947844e-17
-4.66329887e-17
-4.63382288e-17
-4.72284842e-17
-4.58384757e-17
-4.36366171e-17
-4.39087333e-17
-4.76608667e-17
-4.68172164e-17
-4.97975343e-17
-4.88227936e-17
-4.90851149e-17
-5.15125334e-17
-5.00100173e-17
-5.39173356e-17
-4.88864317e-17
-5.13680222e-17
-5.00478814e-17
-4.6691313e-17
-4.5377181e-17
-4.3814837e-17
-4.35756694e-17
-4.19902525e-17
-4.13717773e-17
-4.21090363e-17
-4.08428238e-17
-3.95272921e-17
-3.96094453e-17
-4.15221672e-17
-4.31390102e-17
-4.58174416e-17
-4.38223447e-17
-4.60162357e-17
-4.7507921e-17
-4.62573448e-17
-4.38899783e-17
-4.26126907e-17
-4.17036386e-17
-3.8911802e-17
-3.7615348e-17
-3.71232828e-17
-3.75743682e-17
-3.49724702e-17
-3.51245035e-17
-3.46570357e-17
-3.17376637e-17
-3.21271877e-17
-3.44143506e-17
-3.54428154e-17
-3.28017755e-17
-3.3037015e-17
-3.1282329e-17
-2.81138377e-17
-2.6413231e-17
-2.26015007e-17
-2.21133796e-17
-2.19996452e-17
-2.09679173e-17
-2.09329113e-17
-1.98936976e-17
-2.12216825e-17
-2.18491369e-17
-2.17084419e-17
-2.13633693e-17
-2.37746327e-17
-2.40586662e-17
-2.3640285e-17
-2.25590154e-17
-2.50179303e-17
-2.41729978e-17
-2.12861314e-17
-2.20272765e-17
-2.40118795e-17
-2.32397936e-17
-2.0115134e-17
-2.26030299e-17
-2.4289242e-17
-2.18616259e-17
-1.94422033e-17
-2.05949358e-17
-1.80214909e-17
-1.76272398e-17
-1.94761058e-17
-1.75773541e-17
-1.90235302e-17
-1.61278415e-17
-1.68719404e-17
-1.35572046e-17
-1.39211001e-17
-1.56346166e-17
-1.07226394e-17
-1.20316045e-17
-1.36927148e-17
-1.14702125e-17
-1.30066162e-17
-1.20631798e-17
-1.05660718e-17
-8.76211955e-18
-3.89359519e-18
-5.70350943e-18
-3.02944472e-18
-2.53756509e-18
-9.52898504e-19
1.9810413e-18
1.98599533e-18
1.60004816e-18
4.94811233e-18
9.11593126e-18
7.51842614e-18
7.16202203e-18
7.73059451e-18
7.98352381e-18
3.1220479e-18
8.22661527e-18
6.27213648e-18
9.41604567e-18
1.26913364e-17
9.11259311e-18
9.61433597e-18
5.84272245e-18
6.23436062e-18
1.03199228e-17
1.28714574e-17
1.0217124e-17
1.39854066e-17
1.34284606e-17
1.11862566e-17
7.71068751e-18
5.44632805e-18
3.69748787e-18
5.85017101e-18
6.36585715e-18
9.16102855e-18
9.96544284e-18
1.19020075e-17
1.23337626e-17
1.46323051e-17
1.08078721e-17
1.40132741e-17
1.28280926e-17
1.39179352e-17
1.26548077e-17
1.22074768e-17
1.29578274e-17
1.10093496e-17
1.07327214e-17
1.0385723e-17
1.37573104e-17
1.5355642e-17
1.79533032e-17
2.12629765e-17
2.01840269e-17
2.18480953e-17
2.44446391e-17
2.57439569e-17
2.71732238e-17
2.6255089e-17
2.40304447e-17
2.33109928e-17
2.42231234e-17
2.27698326e-17
2.54250984e-17
2.27033672e-17
2.59065959e-17
2.4490411e-17
2.68692867e-17
2.59358376e-17
2.57752897e-17
2.45103246e-17
2.10183126e-17
2.17103827e-17
1.96772481e-17
1.87198527e-17
1.92891889e-17
1.74518916e-17
1.80193213e-17
1.64136203e-17
1.84073752e-17
1.82047011e-17
1.81605836e-17
1.74266308e-17
1.69055606e-17
1.75963846e-17
1.98507418e-17
2.05144774e-17
1.93205869e-17
1.86394004e-17
2.06074277e-17
1.73117078e-17
1.76173939e-17
1.72300755e-17
1.87625806e-17
2.05203679e-17
1.99892342e-17
2.11411658e-17
2.0442524e-17
1.95727283e-17
1.73747341e-17
1.84709975e-17
2.08880679e-17
2.44468379e-17
2.6262599e-17
2.6538211e-17
2.41383299e-17
2.61138537e-17
2.67698312e-17
2.81090165e-17
3.05159619e-17
2.99898973e-17
2.87952892e-17
3.25579075e-17
3.27397259e-17
3.48758419e-17
3.48511459e-17
3.35331775e-17
3.30749008e-17
3.34688958e-17
3.61399919e-17
3.90065133e-17
4.13743572e-17
4.07218273e-17
4.17450068e-17
4.1032749e-17
4.27741603e-17
4.28631422e-17
4.36472141e-17
4.20068946e-17
4.44087113e-17
4.33069634e-17
4.14556906e-17
4.50349924e-17
4.71852415e-17
4.77129044e-17
4.76960937e-17
4.77360358e-17
4.98008713e-17
5.31070223e-17
5.43901094e-17
5.18078351e-17
4.92832929e-17
4.88100491e-17
5.32309041e-17
5.27837967e-17
5.30055127e-17
5.45717492e-17
5.56958201e-17
5.02049576e-17
5.02713098e-17
5.05414315e-17
5.11612279e-17
5.12986098e-17
4.95739911e-17
5.04770903e-17
4.96973081e-17
5.28626626e-17
5.15160648e-17
5.02282901e-17
4.92051428e-17
4.61081223e-17
4.75778721e-17
4.70134418e-17
4.99321099e-17
4.93474817e-17
4.77537666e-17
5.00611025e-17
4.85711821e-17
4.67522359e-17
4.57717461e-17
4.76458747e-17
4.65772791e-17
4.75745758e-17
4.80019981e-17
4.85702602e-17
4.88267076e-17
4.64685697e-17
4.33062348e-17
4.23050525e-17
4.34222882e-17
4.47387224e-17
4.75960708e-17
4.5348871e-17
4.83867955e-17
4.97337642e-17
5.28477846e-17
5.5045686e-17
5.63241085e-17
5.58864311e-17
5.47575816e-17
5.36485539e-17
5.35768625e-17
5.1990034e-17
5.09357684e-17
5.24090404e-17
5.13039285e-17
4.90590573e-17
5.23615364e-17
5.07347651e-17
5.29406715e-17
5.36981685e-17
5.29147691e-17
5.29755184e-17
5.56567836e-17
5.32709239e-17
5.47742319e-17
5.55781063e-17
5.43430172e-17
5.48825589e-17
5.4510992e-17
5.44084719e-17
5.39264825e-17
5.39937473e-17
4.802513e-17
4.94934726e-17
4.88881312e-17
4.99655568e-17
5.39348489e-17
5.5785893e-17
5.09006407e-17
4.86599809e-17
4.69254955e-17
4.96986578e-17
4.7862219e-17
5.3871272e-17
5.03978416e-17
5.24352695e-17
5.2108423e-17
5.25874605e-17
5.36258326e-17
5.45069718e-17
5.0210374e-17
5.16234452e-17
4.90027881e-17
4.94312617e-17
4.83119311e-17
4.7410821e-17
4.9602996e-17
4.95640517e-17
5.2533953e-17
4.9228e-17
5.10683983e-17
5.16744736e-17
4.84153485e-17
5.09476634e-17
5.06690821e-17
4.89535908e-17
4.92118113e-17
4.88891397e-17
4.8501623e-17
4.65164237e-17
5.06234511e-17
5.20549478e-17
5.12984414e-17
4.95610253e-17
5.20660895e-17
5.29836307e-17
5.2642746e-17
5.43113399e-17
5.32891645e-17
5.48253638e-17
5.84792304e-17
5.89982716e-17
5.85710915e-17
5.93355652e-17
5.71853711e-17
5.51410191e-17
5.96840599e-17
5.61930439e-17
5.93812025e-17
5.90052735e-17
5.50178085e-17
5.49311145e-17
5.47234462e-17
5.64815427e-17
5.67529244e-17
5.60592166e-17
5.38651399e-17
5.23276611e-17
5.423116e-17
5.43991188e-17
5.32996565e-17
5.46528926e-17
5.71280767e-17
5.57317704e-17
5.6520255e-17
5.54644902e-17
5.62740855e-17
5.41779143e-17
5.46000694e-17
5.36382809e-17
5.46097587e-17
5.36398341e-17
5.6362799e-17
5.48247638e-17
5.47175819e-17
5.54427703e-17
5.45732379e-17
5.59288571e-17
5.81766982e-17
5.74565607e-17
6.01030685e-17
5.67225945e-17
5.45317433e-17
5.70668993e-17
5.41062745e-17
5.62357639e-17
5.74437437e-17
5.48025487e-17
5.68525992e-17
5.77814199e-17
5.40336044e-17
5.49867898e-17
5.4865126e-17
5.21231147e-17
5.46188636e-17
5.45429751e-17
5.47768355e-17
5.39716879e-17
5.51404141e-17
5.66660714e-17
5.6286344e-17
5.57962839e-17
5.85738609e-17
5.95177249e-17
6.17005855e-17
6.08164793e-17
5.96616283e-17
5.89017316e-17
5.71967824e-17
5.601481e-17
5.76037091e-17
5.93651378e-17
6.25126835e-17
6.33227542e-17
6.47022512e-17
6.42697905e-17
6.30520344e-17
6.08738833e-17
5.98463373e-17
6.02744179e-17
5.78114569e-17
6.01776168e-17
6.11427173e-17
5.98432096e-17
5.60841001e-17
5.41336968e-17
5.36673723e-17
5.38363529e-17
5.670521e-17
5.53597144e-17
5.44145907e-17
5.47608049e-17
5.486984e-17
5.4790282e-17
5.49274251e-17
5.68198133e-17
5.55056172e-17
5.58006521e-17
5.7421721e-17
5.70809797e-17
5.8559091e-17
5.9263725e-17
6.19113105e-17
5.70100401e-17
5.66014109e-17
5.83961232e-17
5.49982435e-17
5.90584107e-17
5.89703084e-17
5.80856135e-17
5.71168027e-17
5.41954634e-17
5.25934956e-17
5.24662093e-17
5.45403251e-17
5.0234659e-17
5.02367715e-17
5.24249547e-17
4.98447884e-17
4.63942489e-17
4.57771598e-17
4.50110599e-17
4.51999553e-17
4.56191817e-17
4.64046762e-17
4.71238367e-17
5.05946804e-17
5.12158668e-17
5.28950336e-17
5.15077326e-17
4.93720411e-17
5.02979986e-17
4.61929474e-17
4.8678834e-17
4.8298768e-17
5.17195358e-17
5.17364137e-17
5.06400016e-17
5.25114784e-17
5.28736997e-17
4.9053334e-17
4.86136212e-17
4.94996519e-17
5.33931178e-17
5.34922952e-17
5.24519494e-17
5.14457391e-17
5.32275912e-17
5.18833873e-17
5.53134207e-17
5.61178661e-17
5.42541231e-17
5.53487724e-17
5.25061515e-17
5.27659006e-17
5.1305292e-17
5.25520622e-17
5.16594468e-17
5.44672119e-17
5.57439868e-17
5.62824666e-17
5.45970982e-17
5.41718075e-17
5.53154676e-17
5.11981485e-17
5.45727146e-17
5.23481856e-17
5.43530671e-17
5.17730931e-17
4.9767564e-17
5.08397468e-17
4.89964046e-17
4.73638636e-17
4.97523591e-17
4.90065215e-17
5.04744711e-17
5.4897115e-17
5.35966242e-17
5.25452707e-17
5.11880179e-17
4.9833747e-17
4.86792313e-17
4.95468781e-17
5.00503824e-17
4.76278504e-17
4.58558182e-17
4.74678158e-17
4.54262396e-17
4.28888822e-17
4.33052968e-17
4.212109e-17
3.80511639e-17
4.14208118e-17
3.7528441e-17
3.84152937e-17
3.76543333e-17
3.6386802e-17
3.83757242e-17
3.75355712e-17
3.51370297e-17
3.63844869e-17
3.44352999e-17
3.25100613e-17
2.96703428e-17
3.04012199e-17
2.85217892e-17
2.62459212e-17
2.67844439e-17
2.57249943e-17
2.47058977e-17
2.31718535e-17
2.06527208e-17
2.49321654e-17
2.74651014e-17
2.68785549e-17
2.39325485e-17
2.48610533e-17
2.4990224e-17
2.1382977e-17
2.24129903e-17
2.37242069e-17
2.71583435e-17
2.56625702e-17
2.3532152e-17
2.27593366e-17
2.18050697e-17
2.45790027e-17
2.23822951e-17
2.13400789e-17
1.87873232e-17
1.94241382e-17
1.8453544e-17
1.94878733e-17
1.86631191e-17
1.84939485e-17
1.89740753e-17
1.79465756e-17
1.70034363e-17
1.65265522e-17
1.4239655e-17
1.45515934e-17
1.3254593e-17
1.54032129e-17
1.55436788e-17
1.59056671e-17
1.79619362e-17
1.61034846e-17
1.64412518e-17
1.65737486e-17
1.66569867e-17
1.84209824e-17
1.93729186e-17
1.47931103e-17
1.67575552e-17
1.79646756e-17
1.89484637e-17
1.74306915e-17
1.85641374e-17
1.30532091e-17
9.52972418e-18
1.04377656e-17
8.5606454e-18
9.47044414e-18
7.1978118e-18
6.09305217e-18
4.11685838e-18
3.84216686e-18
5.89418301e-18
6.41095246e-18
2.90263518e-18
3.25944504e-18
2.14547047e-19
1.30429129e-19
-1.96370893e-18
-2.48157962e-18
-8.66381081e-19
-1.44029787e-18
5.90495267e-19
4.2080246e-19
-2.93417211e-18
-3.58673358e-18
-6.17111543e-18
-6.58098122e-18
-9.62089431e-18
-9.38737315e-18
-8.77228505e-18
-4.95784451e-18
-7.71410751e-18
-9.10019878e-18
-9.06322741e-18
-8.35574075e-18
-7.23173266e-18
-1.00330392e-17
-1.10488052e-17
-1.40740023e-17
-1.83323848e-17
-1.76422965e-17
-1.69504223e-17
-1.89805854e-17
-2.17654817e-17
-2.21653911e-17
-2.33859932e-17
-2.23919053e-17
-2.07541174e-17
-2.15261475e-17
-2.203665e-17
-2.34214065e-17
-2.41704686e-17
-3.01161351e-17
-2.98995288e-17
-3.13698952e-17
-3.18190261e-17
-3.34438818e-17
-3.12065763e-17
-3.05186706e-17
-3.00519998e-17
-3.31366576e-17
-3.48650496e-17
-3.12577286e-17
-3.11968875e-17
-3.25601165e-17
-2.99416086e-17
-2.81843647e-17
-2.65806883e-17
-2.92029325e-17
-2.90252289e-17
-2.70348024e-17
-2.71613559e-17
-3.06089924e-17
-2.51197596e-17
-2.42439267e-17
-2.50087913e-17
-2.42123241e-17
-2.35367548e-17
-2.94684653e-17
-2.6939541e-17
-2.93692355e-17
-3.00677499e-17
-2.84144452e-17
-2.69859689e-17
-2.75139881e-17
-2.48912085e-17
-2.3858402e-17
-2.44811498e-17
-2.43412624e-17
-2.47343781e-17
-2.65685687e-17
-2.92007015e-17
-3.25732782e-17
-3.1068148e-17
-3.24083389e-17
-2.92408467e-17
-2.7165963e-17
-2.64007711e-17
-2.71164478e-17
-2.93311694e-17
-2.70119662e-17
-3.02837899e-17
-3.03837858e-17
-3.1827816e-17
-3.49727648e-17
-3.28967085e-17
-3.70401766e-17
-3.99406193e-17
-3.83757298e-17
-3.91973298e-17
-4.16773385e-17
-4.13407559e-17
-4.13978557e-17
-3.94591971e-17
-3.99143074e-17
-4.2226022e-17
-4.12684049e-17
-4.03999475e-17
-4.18180347e-17
-4.79635529e-17
-4.425653e-17
-4.79827811e-17
-4.57629021e-17
-4.84538966e-17
-4.8802575e-17
-4.64664109e-17
-4.81026788e-17
-4.92433994e-17
-4.93359777e-17
-5.05800326e-17
-4.63220371e-17
-5.09209897e-17
-4.63686735e-17
-4.86127469e-17
-4.88927666e-17
-4.84261314e-17
-5.22502581e-17
-5.2284005e-17
-5.21994454e-17
-5.35064963e-17
-5.15189136e-17
-4.76444458e-17
-4.73054194e-17
-4.63790785e-17
-4.58570747e-17
-4.62319561e-17
-4.71743246e-17
-4.56395294e-17
-4.63536445e-17
-4.81209787e-17
-4.83986853e-17
-4.74780235e-17
-4.29832017e-17
-4.42471876e-17
-4.24825219e-17
-4.68857127e-17
-4.64333054e-17
-4.33671237e-17
-4.21614325e-17
-4.18770483e-17
-4.41201403e-17
-4.04455953e-17
-4.29794955e-17
-4.1838069e-17
-4.11688316e-17
-4.27662446e-17
-4.25350687e-17
-4.30953285e-17
-3.96823706e-17
-3.8544339e-17
-3.87743402e-17
-4.34866978e-17
-4.30115265e-17
-4.24568051e-17
-4.34411992e-17
-4.21114012e-17
-4.25381482e-17
-4.55045425e-17
-4.62875228e-17
-4.53015374e-17
-4.85851118e-17
-4.76949634e-17
-5.00549613e-17
-4.73432935e-17
-4.68863032e-17
-4.98588383e-17
-5.21137732e-17
-5.10377862e-17
-5.40656885e-17
-5.05313827e-17
-5.18748089e-17
-5.39655734e-17
-5.2723135e-17
-5.19311544e-17
-5.1041839e-17
-5.40091113e-17
-5.40899176e-17
-5.29857192e-17
-5.32834688e-17
-5.6345205e-17
-5.70234744e-17
-5.5098697e-17
-5.44231281e-17
-5.5699481e-17
-5.28609266e-17
-5.15749992e-17
-5.01027801e-17
-5.39655242e-17
-5.28916311e-17
-5.28281647e-17
-5.18575767e-17
-5.34637087e-17
-5.63425534e-17
-5.84933652e-17
-5.85986924e-17
-5.82865898e-17
-5.81720876e-17
-5.72916385e-17
-5.77489663e-17
-6.02850493e-17
-5.92667986e-17
-5.71609276e-17
-5.79585436e-17
-5.16234589e-17
-5.4544593e-17
-5.32943128e-17
-5.13660015e-17
-5.36181258e-17
-5.35689198e-17
-5.55691392e-17
-5.74879032e-17
-5.77567816e-17
-5.90688816e-17
-5.65433868e-17
-6.0672852e-17
-5.81699269e-17
-5.83733254e-17
-5.4150837e-17
-5.59949777e-17
-5.63900127e-17
-5.2941578e-17
-5.21695246e-17
-5.41902836e-17
-5.51149287e-17
-5.37630784e-17
-5.57022895e-17
-5.53106015e-17
-5.56880019e-17
-5.47474619e-17
-5.35865282e-17
-5.31739132e-17
-5.35151984e-17
-4.94880265e-17
-4.95029366e-17
-5.07129706e-17
-4.96964398e-17
-4.97524093e-17
-4.97546272e-17
-4.96474402e-17
-5.288544e-17
-5.15072346e-17
-5.67003613e-17
-5.13233121e-17
-5.60580607e-17
-5.58428803e-17
-5.82819716e-17
-5.82453373e-17
-5.81048758e-17
-6.20286763e-17
-6.19932551e-17
-6.12266317e-17
-6.37829985e-17
-6.33674683e-17
-6.37942853e-17
-6.37415435e-17
-6.57149086e-17
-6.35747322e-17
-6.43222309e-17
-6.63514561e-17
-6.66274548e-17
-6.67935257e-17
-6.76211442e-17
-6.77309348e-17
-6.88018735e-17
-7.16604406e-17
-7.50285071e-17
-7.42427447e-17
-7.29121998e-17
-7.24656754e-17
-7.13358417e-17
-7.51028628e-17
-7.32912478e-17
-7.54068414e-17
-7.4491085e-17
-6.78631318e-17
-7.05075889e-17
-6.68690488e-17
-6.8578376e-17
-6.61941605e-17
-6.6315225e-17
-6.51796069e-17
-6.0339526e-17
-6.15450804e-17
-6.29956821e-17
-6.24931653e-17
-6.44431582e-17
-6.1247695e-17
-6.36963818e-17
-6.29800806e-17
-6.24582926e-17
-6.29272302e-17
-6.30524844e-17
-6.23366468e-17
-6.19051449e-17
-5.9575948e-17
-6.26190606e-17
-6.51264649e-17
-6.57266709e-17
-6.66181976e-17
-6.47302934e-17
-6.46107471e-17
-6.39729681e-17
-6.47509533e-17
-6.7015987e-17
-6.71960368e-17
-6.93164103e-17
-6.73012302e-17
-6.72238113e-17
-6.44860227e-17
-5.92525646e-17
-6.2762124e-17
-6.10063732e-17
-6.22398688e-17
-6.15819716e-17
-5.93942653e-17
-5.80401576e-17
-5.89320418e-17
-5.98218978e-17
-5.9163333e-17
-5.87017304e-17
-5.93134695e-17
-6.1391563e-17
-6.13534159e-17
-5.97619309e-17
-6.03507027e-17
-5.88831104e-17
-5.95039612e-17
-5.58715716e-17
-6.0075749e-17
-5.49757189e-17
-5.28655149e-17
-5.46733423e-17
-5.11001247e-17
-5.18007763e-17
-5.32632513e-17
-5.35642424e-17
-5.13461607e-17
-4.93596981e-17
-4.73844945e-17
-4.62335008e-17
-4.81100941e-17
-4.81391497e-17
-4.79458052e-17
-4.4579893e-17
-4.82610446e-17
-4.84667375e-17
-5.02438217e-17
-4.67407344e-17
-4.80418998e-17
-4.84531189e-17
-4.89836578e-17
-5.0268757e-17
-5.27268862e-17
-5.45101048e-17
-5.26488131e-17
-5.17466928e-17
-5.05017694e-17
-5.05650438e-17
-4.91072685e-17
-5.01695122e-17
-5.03936916e-17
-5.18000413e-17
-5.27289054e-17
-5.58289697e-17
-5.53408011e-17
-5.50628779e-17
-5.50086292e-17
-5.31244683e-17
-5.2692526e-17
-5.51930502e-17
-5.46942647e-17
-5.39803014e-17
-5.56776703e-17
-5.20595475e-17
-5.69131142e-17
-5.31785655e-17
-5.29756918e-17
-5.02897222e-17
-4.83181201e-17
-5.02638099e-17
-4.90278922e-17
-4.56768803e-17
-4.71570879e-17
-4.01027369e-17
-4.34740651e-17
-4.53755255e-17
-5.16541111e-17
-4.97517849e-17
-5.11084941e-17
-4.68081009e-17
-4.66710974e-17
-4.45464867e-17
-4.66481371e-17
-4.89361946e-17
-4.55770239e-17
-4.91306435e-17
-4.67523287e-17
-4.76630467e-17
-4.28529648e-17
-4.56235721e-17
-4.70807559e-17
-4.55958792e-17
-4.6279202e-17
-4.49923634e-17
-4.91095837e-17
-4.74133928e-17
-4.58924219e-17
-4.39341086e-17
-4.74194231e-17
-4.73673356e-17
-4.66948639e-17
-4.80778136e-17
-4.69026299e-17
-4.47374847e-17
-4.44277687e-17
-4.11881265e-17
-3.9748821e-17
-4.0882662e-17
-4.32393111e-17
-4.23673866e-17
-4.24725772e-17
-4.26648414e-17
-4.25478036e-17
-4.06861746e-17
-4.13589299e-17
-4.31418479e-17
-4.30489893e-17
-4.31925665e-17
-3.84370598e-17
-3.75442111e-17
-3.4357178e-17
-3.54372817e-17
-3.26347001e-17
-3.12071567e-17
-3.16810486e-17
-3.25386046e-17
-3.0899325e-17
-2.90424707e-17
-2.51972708e-17
-2.81232745e-17
-2.59316144e-17
-2.32564532e-17
-2.65707315e-17
-2.68688212e-17
-2.72019412e-17
-2.53730438e-17
-2.96263567e-17
-2.88039381e-17
-2.72060916e-17
-2.78612134e-17
-2.9252236e-17
-2.70969359e-17
-2.51605379e-17
-2.38462841e-17
-2.29929313e-17
-2.26964529e-17
-2.49423678e-17
-2.54069005e-17
-2.52293433e-17
-2.55806933e-17
-2.6397238e-17
-2.71884021e-17
-2.55355353e-17
-2.85250599e-17
-2.87236588e-17
-3.01125402e-17
-2.98534389e-17
-2.6681434e-17
-2.42413969e-17
-2.57209149e-17
-2.25834292e-17
-2.51922714e-17
-2.3899427e-17
-2.33067446e-17
-2.32650512e-17
-2.20895417e-17
-2.33056817e-17
-2.31689364e-17
-1.96677019e-17
-1.625378e-17
-1.94348355e-17
-1.87619128e-17
-1.57503079e-17
-1.26884187e-17
-1.29393643e-17
-1.17303842e-17
-1.1963176e-17
-1.32879734e-17
-9.64414867e-18
-1.33223386e-17
-1.05133182e-17
-1.0095646e-17
-8.62755865e-18
-1.36808461e-17
-9.50579226e-18
-9.40069376e-18
-8.84449534e-18
-5.996713e-18
-8.78966017e-18
-7.50665691e-18
-5.78669514e-18
-9.04552489e-18
-6.97191965e-18
-8.39337111e-18
-1.1059796e-17
-9.10035705e-18
-7.42300493e-18
-1.06611331e-17
-7.49624024e-18
-8.18661989e-18
-6.60875855e-18
-5.84487673e-18
-6.20249922e-18
-3.2795133e-18
-5.3520211e-18
-4.44750015e-18
-6.98761843e-18
-7.88822421e-18
-6.79805044e-18
-7.19978373e-18
-7.00543002e-18
-4.57730182e-18
-5.62024269e-18
-3.63656585e-18
-1.62903913e-18
-6.56031133e-19
-6.3564381e-19
-2.62181235e-18
2.33559221e-18
3.37119488e-18
4.24627138e-18
8.40663004e-18
5.51086396e-18
4.39051653e-18
5.93414452e-18
6.23184101e-18
5.07986349e-18
6.95571741e-18
8.42177671e-18
9.74453751e-18
8.93273499e-18
1.09618301e-17
1.22129308e-17
1.39345373e-17
1.36341402e-17
1.38291155e-17
1.19981694e-17
1.30291992e-17
1.37411116e-17
1.37190205e-17
1.45941543e-17
1.28927823e-17
1.2943042e-17
1.45436795e-17
1.62335891e-17
1.61836254e-17
1.66784937e-17
1.79745724e-17
1.77229946e-17
1.82830206e-17
1.75415026e-17
1.69351685e-17
1.67333609e-17
2.13280967e-17
1.94300921e-17
1.97153973e-17
1.87509211e-17
1.93330528e-17
2.18527466e-17
1.94782077e-17
1.97055159e-17
2.1308004e-17
2.30392995e-17
2.42040068e-17
2.52471478e-17
2.69229106e-17
2.87509493e-17
2.71686375e-17
2.75565726e-17
2.85088738e-17
2.88623939e-17
2.80173229e-17
2.80296339e-17
2.96102383e-17
2.68868037e-17
3.06398387e-17
3.00649516e-17
3.26184639e-17
3.21796374e-17
3.35993164e-17
3.35787178e-17
3.5443903e-17
3.66510264e-17
4.0956308e-17
3.85967726e-17
4.02465838e-17
4.04423256e-17
4.23018565e-17
4.38944587e-17
4.15883488e-17
4.22350791e-17
4.60896465e-17
4.62124069e-17
4.2362581e-17
4.48240863e-17
4.83251646e-17
4.74959943e-17
4.68323997e-17
4.84744219e-17
4.72353641e-17
4.97717261e-17
4.80717654e-17
4.88766642e-17
5.06155387e-17
5.13462223e-17
5.20735349e-17
5.01068817e-17
4.96409314e-17
4.96093224e-17
5.03371794e-17
5.00947791e-17
5.14982606e-17
5.32954301e-17
5.37701126e-17
5.06026179e-17
5.40431281e-17
5.72138151e-17
5.66592144e-17
5.65349799e-17
5.96593611e-17
5.70674207e-17
5.8540216e-17
6.16916207e-17
5.86662299e-17
5.68081062e-17
5.73030356e-17
5.63509085e-17
5.79355412e-17
5.75133664e-17
5.89851777e-17
5.68963156e-17
5.7855393e-17
6.09148845e-17
6.0500379e-17
6.04167824e-17
6.12279687e-17
6.17189267e-17
6.23181985e-17
6.09364205e-17
6.13163956e-17
5.99996344e-17
6.17793092e-17
6.45895389e-17
6.70337704e-17
6.80899685e-17
6.67722631e-17
6.78106657e-17
6.87360224e-17
6.78763292e-17
6.8827285e-17
6.80363499e-17
6.98528743e-17
6.78021507e-17
6.87686705e-17
6.96439808e-17
7.06385037e-17
7.23997556e-17
7.24832294e-17
7.44291753e-17
7.12167109e-17
7.4373045e-17
7.6774621e-17
7.57556914e-17
7.89872042e-17
7.89899695e-17
7.9712154e-17
7.6249705e-17
7.78141439e-17
7.57278013e-17
7.55140421e-17
7.61422167e-17
8.11722075e-17
8.1949335e-17
8.07652613e-17
7.97559945e-17
8.09540743e-17
7.98536896e-17
8.01825597e-17
8.21094064e-17
8.36601613e-17
8.33218893e-17
8.38498024e-17
8.25143216e-17
8.52889194e-17
8.5808484e-17
8.45634817e-17
8.6950918e-17
8.92975727e-17
8.81853468e-17
9.18180815e-17
9.43127254e-17
9.37106902e-17
9.40717677e-17
9.19151497e-17
9.90080773e-17
9.75237782e-17
9.63930471e-17
9.69184289e-17
1.0028752e-16
1.02716576e-16
1.0752205e-16
1.06787189e-16
1.08521582e-16
1.08665746e-16
1.09465406e-16
1.11156854e-16
1.1092516e-16
1.16445801e-16
1.20292973e-16
1.23313355e-16
1.24431883e-16
1.28376034e-16
1.33210459e-16
1.33262599e-16
1.39168691e-16
1.45594808e-16
1.48628442e-16
1.54410601e-16
1.5686042e-16
1.62865088e-16
1.67172048e-16
1.76255141e-16
1.83550584e-16
1.89740991e-16
1.94696633e-16
2.04318352e-16
2.17008454e-16
2.24809127e-16
2.37468008e-16
2.5155007e-16
2.65464714e-16
2.79691201e-16
2.94693006e-16
3.11041385e-16
3.30470505e-16
3.48830962e-16
3.67393555e-16
3.90166457e-16
4.16046737e-16
4.42621714e-16
4.7372309e-16
5.009377e-16
5.39731452e-16
5.78996007e-16
6.16861084e-16
6.624107e-16
7.09905988e-16
7.64193449e-16
8.20630577e-16
8.85873592e-16
9.53202351e-16
1.02665761e-15
1.1010474e-15
1.18569986e-15
1.27627094e-15
1.37720872e-15
1.48642534e-15
1.60572509e-15
1.7332822e-15
1.87164701e-15
2.02353331e-15
2.18572612e-15
2.36345504e-15
2.55162034e-15
2.76063153e-15
2.98581052e-15
3.2284208e-15
3.48798922e-15
3.77564025e-15
4.08476861e-15
4.42149e-15