/*--------------------------------*- C++ -*----------------------------------*\
| =========                 |                                                 |
| \\      /  F ield         | OpenFOAM: The Open Source CFD Toolbox           |
|  \\    /   O peration     | Version:  2206                                  |
|   \\  /    A nd           | Website:  www.openfoam.com                      |
|    \\/     M anipulation  |                                                 |
\*---------------------------------------------------------------------------*/
FoamFile
{
    version     2.0;
    format      ascii;
    arch        "LSB;label=32;scalar=64";
    class       volScalarField;
    location    "1.18e-05";
    object      PVsourcePV;
}
// * * * * * * * * * * * * * * * * * * * * * * * * * * * * * * * * * * * * * //

dimensions      [1 -3 -1 0 0 0 0];

internalField   nonuniform List<scalar> 
3183
(
0
0
0
0
0
0
0
0
0
0
0
0
0
0
0
0
0
0
0
0
0
0
0
0
0
0
0
0
0
0
0
0
0
0
0
0
0
0
0
0
0
0
0
0
0
0
0
0
0
0
0
0
0
0
0
0
0
0
0
0
0
0
0
0
0
0
0
0
0
0
0
0
0
0
0
0
0
0
0
0
0
0
0
0
0
0
0
0
0
0
0
0
0
0
0
0
0
0
0
0
0
0
0
0
0
0
0
0
0
0
0
0
0
0
0
0
0
0
0
0
0
0
0
0
0
0
0
0
0
0
0
0
0
0
0
0
0
0
0
0
0
0
0
0
0
0
0
0
0
0
0
0
0
0
0
0
0
0
0
0
0
0
0
0
0
0
0
0
0
0
0
0
0
0
0
0
0
0
0
0
0
0
0
0
0
0
0
0
0
0
0
0
0
0
0
0
0
0
0
0
0
0
0
0
0
0
0
0
0
0
0
0
0
0
0
0
0
0
0
0
0
0
0
0
0
0
0
0
0
0
0
0
0
0
0
0
0
0
0
0
0
0
0
0
0
0
0
0
0
0
0
0
0
0
0
0
0
0
0
0
0
0
0
0
0
0
0
0
0
0
0
0
0
0
0
0
0
0
0
0
0
0
0
0
0
0
0
0
0
0
0
0
0
0
0
0
0
0
0
0
0
0
0
0
0
0
0
0
0
0
0
0
0
0
0
0
0
0
0
0
0
0
0
0
0
0
0
0
0
0
0
0
0
0
0
0
0
0
0
0
0
0
0
0
0
0
0
0
0
0
0
0
0
0
0
0
0
0
0
0
0
0
0
0
0
0
0
0
0
0
0
0
0
0
0
0
0
0
0
0
0
0
0
0
0
0
0
0
0
0
0
0
0
0
0
0
0
0
0
0
0
0
0
0
0
0
0
0
0
0
0
0
0
0
0
0
0
0
0
0
0
0
0
0
0
0
0
0
0
0
0
0
0
0
0
0
0
0
0
0
0
0
0
0
0
0
0
0
0
0
0
0
0
0
0
0
0
0
0
0
0
0
0
0
0
0
0
0
0
0
0
0
0
0
0
0
0
0
0
0
0
0
0
0
0
0
0
0
0
0
0
0
0
0
0
0
0
0
0
0
0
0
0
0
0
0
0
0
0
0
0
0
0
0
0
0
0
0
0
0
0
0
0
0
0
0
0
0
0
0
0
0
0
0
0
0
0
0
0
0
0
0
0
0
0
0
0
0
0
0
0
0
0
0
0
0
0
0
0
0
0
0
0
0
0
0
0
0
0
0
0
0
0
0
0
0
0
0
0
0
0
0
0
0
0
0
0
0
0
0
0
0
0
0
0
0
0
0
0
0
0
0
0
0
0
0
0
0
0
0
0
0
0
0
0
0
0
0
0
0
0
0
0
0
0
0
0
0
0
0
0
0
0
0
0
0
0
0
0
0
0
0
0
0
0
0
0
0
0
0
0
0
0
0
0
0
0
0
0
0
0
0
0
0
0
0
0
0
0
0
0
0
0
0
0
0
0
0
0
0
0
0
0
0
0
0
0
0
0
0
0
0
0
0
0
0
0
0
0
0
0
0
0
0
0
0
0
0
0
0
0
0
0
0
0
0
0
0
0
0
0
0
0
0
0
0
0
0
0
0
0
0
0
0
0
0
0
0
0
0
0
0
0
0
0
0
0
0
0
0
0
0
0
0
0
0
0
0
0
0
0
0
0
0
0
0
0
0
0
0
0
0
0
0
0
0
0
0
0
0
0
0
0
0
0
0
0
0
0
0
0
0
0
0
0
0
0
0
0
0
0
0
0
0
0
0
0
0
0
0
0
0
0
0
0
0
0
0
0
0
0
0
0
0
0
0
0
0
0
0
0
0
0
0
0
0
0
0
0
0
0
0
0
0
0
0
0
0
0
0
0
0
0
0
0
0
0
0
0
0
0
0
0
0
0
0
0
0
0
0
0
0
0
0
0
0
0
0
0
0
0
0
0
0
0
0
0
0
0
0
0
0
0
0
0
0
0
0
0
0
0
0
0
0
0
0
0
0
0
0
0
0
0
0
0
0
0
0
0
0
0
0
0
0
0
0
0
0
0
0
0
0
0
0
0
0
0
0
0
0
0
0
0
0
0
0
0
0
0
0
0
0
0
0
0
0
0
0
0
0
0
0
0
0
0
0
0
0
0
0
0
0
0
0
0
0
0
0
0
0
0
0
0
0
0
0
0
0
0
0
0
0
0
0
0
0
0
0
0
0
0
0
0
0
0
0
0
0
0
0
0
0
0
0
0
0
0
0
0
0
0
0
0
0
0
0
0
0
0
0
0
0
0
0
0
0
0
0
0
0
0
0
0
0
0
0
0
0
0
0
0
0
0
0
0
0
0
0
0
0
0
0
0
0
0
0
0
0
0
0
0
0
0
0
0
0
0
0
0
0
0
0
0
0
0
0
0
0
0
0
0
0
0
0
0
0
0
0
0
0
0
0
0
0
0
0
0
0
0
0
0
0
0
0
0
0
0
0
0
0
0
0
0
0
0
0
0
0
0
0
0
0
0
0
0
0
0
0
0
0
0
0
0
0
0
0
0
0
0
0
0
0
0
0
0
0
0
0
0
0
0
0
0
0
0
0
0
0
0
0
0
0
0
0
0
0
0
0
0
0
0
0
0
0
0
0
0
0
0
0
0
0
0
0
0
0
0
0
0
0
0
0
0
0
0
0
0
0
0
0
0
0
0
0
0
0
0
0
0
0
0
0
0
0
0
0
0
0
0
0
0
0
0
0
0
0
0
0
0
0
0
0
0
0
0
0
0
0
0
0
0
0
0
0
0
0
0
0
0
0
0
0
0
0
0
0
0
0
0
0
0
0
0
0
0
0
0
0
0
0
0
0
0
0
0
0
0
0
0
0
0
0
0
0
0
0
0
0
0
0
0
0
0
0
0
0
0
0
0
0
0
0
0
0
0
0
0
0
0
0
0
0
0
0
0
0
0
0
0
0
0
0
0
0
0
0
0
0
0
0
0
0
0
0
0
0
0
0
0
0
0
0
0
0
0
0
0
0
0
0
0
0
0
0
0
0
0
0
0
0
0
0
0
0
0
0
0
0
0
0
0
0
0
0
0
0
0
0
0
0
0
0
0
0
0
0
0
0
0
0
0
0
0
0
0
0
0
0
0
0
0
0
0
0
0
0
0
0
0
0
0
0
0
0
0
0
0
0
0
0
0
0
0
0
0
0
0
0
0
0
0
0
0
0
0
0
0
0
0
0
0
0
0
0
0
0
0
0
0
0
0
0
0
0
0
0
0
0
0
0
0
0
0
0
0
0
0
0
0
0
0
0
0
0
0
0
0
0
0
0
0
0
0
0
0
0
0
0
0
0
0
0
0
0
0
0
0
0
0
0
0
0
0
0
0
0
0
0
0
0
0
0
0
0
0
0
0
0
0
0
0
0
0
0
0
0
0
0
0
0
0
0
0
0
0
0
0
0
0
0
0
0
0
0
0
0
0
0
0
0
0
0
0
0
0
0
0
0
0
0
0
0
0
0
0
0
0
0
0
0
0
0
0
0
0
0
0
0
0
0
0
0
0
0
0
0
0
0
0
0
0
0
0
0
0
0
0
0
0
0
0
0
0
0
0
0
0
0
0
0
0
0
0
0
0
0
0
0
0
0
0
0
0
0
0
0
0
0
0
0
0
0
0
0
0
0
0
0
0
0
0
0
0
0
0
0
0
0
0
0
0
0
0
0
0
0
0
0
0
0
0
0
0
0
0
0
0
0
0
0
0
0
0
0
0
0
0
0
0
0
0
0
0
0
0
0
0
0
0
0
0
0
0
0
0
0
0
0
0
0
0
0
0
0
0
0
0
0
0
0
0
0
0
0
0
0
0
0
0
0
0
0
0
0
0
0
0
0
0
0
0
0
0
0
0
0
0
0
0
0
0
0
0
0
0
0
0
0
0
0
0
0
0
0
0
0
0
0
0
0
0
0
0
0
0
0
0
0
0
0
0
0
0
0
0
0
0
0
0
0
0
0
0
0
0
0
0
0
0
0
0
0
0
0
0
0
0
0
0
0
0
0
0
0
0
0
0
0
0
0
0
0
0
0
0
0
0
0
0
0
0
0
0
0
0
0
0
0
0
0
0
0
0
0
0
0
0
0
0
0
0
0
0
0
0
0
0
0
0
0
0
0
0
0
0
0
0
0
0
0
0
0
0
0
0
0
0
0
0
0
0
0
0
0
0
0
0
0
0
0
0
0
0
0
0
0
0
0
0
0
0
0
0
0
0
0
0
0
0
0
0
0
0
0
0
0
0
0
0
0
0
0
0
0
0
0
0
0
0
0
0
0
0
0
0
0
0
0
0
0
0
0
0
0
0
0
0
0
0
0
0
0
0
0
0
0
0
0
0
0
0
0
0
0
0
0
0
0
0
0
0
0
0
0
0
0
0
0
0
0
0
0
0
0
0
0
0
0
0
0
0
0
0
0
0
0
0
0
0
0
0
0
0
0
0
0
0
0
0
0
0
0
0
0
0
0
0
0
0
0
0
0
0
0
0
0
0
0
0
0
0
0
0
0
0
0
0
0
0
0
0
0
0
0
0
0
0
0
0
0
0
0
0
0
0
0
0
0
0
0
0
0
0
0
0
0
0
0
0
0
0
0
0
0
0
0
0
0
0
0
0
0
0
0
0
0
0
0
0
0
0
0
0
0
0
0
0
0
0
0
0
0
0
0
0
0
0
0
0
0
0
0
0
0
0
0
0
0
0
0
0
0
0
0
0
0
0
0
0
0
0
0
0
0
0
0
0
0
0
0
0
0
0
0
0
0
0
0
0
0
0
0
0
0
0
0
0
0
0
0
0
0
0
0
0
0
0
0
0
0
0
0
0
0
0
0
0
0
0
0
0
0
0
0
0
0
0
0
0
0
0
0
0
0
0
0
0
0
0
0
0
0
0
0
0
0
0
0
0
0
0
0
0
0
0
0
0
0
0
0
0
0
0
0
0
0
0
0
0
0
0
0
0
0
0
0
0
0
0
0
0
0
0
0
0
0
0
0
0
0
0
0
0
0
0
0
0
0
0
0
0
0
0
0
0
0
0
0
0
0
0
0
0
0
0
0
0
0
0
0
0
0
0
0
0
0
0
0
0
0
0
0
0
0
0
0
0
0
0
0
0
0
0
0
0
0
0
0
0
0
0
0
0
0
0
0
0
0
0
0
0
0
0
0
0
0
0
0
0
0
0
0
0
0
0
0
0
0
0
0
0
0
0
0
0
0
0
0
0
0
0
0
0
0
0
0
0
0
0
0
0
0
0
0
0
0
0
0
0
0
0
0
0
1.80151075e-299
2.69208423e-300
1.46045358e-296
2.36085106e-297
1.16634937e-293
2.02268608e-294
9.17732207e-291
1.69752733e-291
7.11546273e-288
1.3963517e-288
5.43676765e-285
1.12515299e-285
4.09427191e-282
8.91757493e-283
3.03917742e-279
6.93935218e-280
2.22393194e-276
5.3149172e-277
1.60440171e-273
3.99397922e-274
1.14121804e-270
2.95223323e-271
8.00430058e-268
2.14722796e-268
5.53618359e-265
1.53715339e-265
3.77625034e-262
1.0833817e-262
2.54040507e-259
7.51920115e-260
1.68563545e-256
5.14016826e-257
1.10323329e-253
3.46161035e-254
7.12256753e-251
2.29691809e-251
4.53619611e-248
1.50190701e-248
2.85004463e-245
9.67893998e-246
1.76657765e-242
6.14823866e-243
1.08031346e-239
3.84996944e-240
6.51802017e-237
2.37677444e-237
3.88008731e-234
1.44670059e-234
2.27895828e-231
8.68282386e-232
1.32071072e-228
5.13881108e-229
7.55198377e-226
2.99921522e-226
4.26088848e-223
1.72630066e-223
2.37206741e-220
9.79955344e-221
1.30299212e-217
5.48644786e-218
7.06224575e-215
3.02958004e-215
3.7768236e-212
1.65001544e-212
1.99291223e-209
8.86366653e-210
1.03757661e-206
4.69635963e-207
5.32983552e-204
2.45432407e-204
2.70120987e-201
1.26509343e-201
1.35064471e-198
6.43173896e-199
6.66266057e-196
3.22508985e-196
3.2423628e-193
1.59497117e-193
1.55655518e-190
7.77945246e-191
7.37116435e-188
3.74210101e-188
3.44313448e-185
1.77514947e-185
1.58633097e-182
8.30400312e-183
7.20823714e-180
3.83046035e-180
3.23021298e-177
1.74221029e-177
1.4274775e-174
7.81284194e-175
6.22028601e-172
3.45419243e-172
2.67250823e-169
1.50549948e-169
1.13202921e-166
6.46809224e-167
4.72700349e-164
2.73902202e-164
1.94563435e-161
1.14313629e-161
7.89292971e-159
4.70154154e-159
3.15550551e-156
1.90535544e-156
1.24308991e-153
7.60774376e-154
4.8248666e-151
2.99245391e-151
1.84484765e-148
1.15940498e-148
6.94813475e-146
4.42404965e-146
2.57718324e-143
1.6623389e-143
9.4129354e-141
6.1498978e-141
3.3848338e-138
2.23972789e-138
1.19814152e-135
8.02838188e-136
4.17406722e-133
2.83196891e-133
1.43089973e-130
9.8286678e-131
4.8258179e-128
3.35552192e-128
1.60086065e-125
1.1266618e-125
5.22229071e-123
3.71962344e-123
1.67491347e-120
1.207188e-120
5.28008579e-118
3.85047617e-118
1.63566569e-115
1.20671519e-115
4.97776775e-113
3.71472717e-113
1.48777167e-110
1.12293664e-110
4.36583802e-108
3.33240001e-108
1.25744598e-105
9.70493019e-106
3.55348297e-103
2.77276446e-103
9.84932912e-101
7.76894626e-101
2.67658979e-98
2.13389946e-98
7.12861604e-96
5.74344876e-96
1.85990962e-93
1.51416139e-93
4.75165939e-91
3.90817873e-91
1.18811089e-88
9.87118649e-89
2.90606245e-86
2.43856004e-86
6.94948869e-84
5.88882488e-84
1.6238602e-81
1.38931599e-81
3.70529754e-79
3.20021761e-79
8.250651e-77
7.19240393e-77
1.7915769e-74
1.57606463e-74
3.79082353e-72
3.36469674e-72
7.80955559e-70
6.9924799e-70
1.56505568e-67
1.41332999e-67
3.04810066e-65
2.77565677e-65
5.76336199e-63
5.29110241e-63
1.05677429e-60
9.77900518e-61
1.87679955e-58
1.7501606e-58
3.22406474e-56
3.02910008e-56
5.349406e-54
5.06249037e-54
8.55906171e-52
8.15696946e-52
1.31824558e-49
1.26483571e-49
1.95057983e-47
1.88374774e-47
2.7668116e-45
2.68868132e-45
3.75303256e-43
3.6687012e-43
4.85486868e-41
4.77232455e-41
5.97052575e-39
5.89938061e-39
6.95577387e-37
6.90451375e-37
7.64546418e-35
7.61744371e-35
7.89101539e-33
7.88051321e-33
7.60546178e-31
7.59696849e-31
6.80030922e-29
6.77607582e-29
5.59641471e-27
5.55002458e-27
4.19824054e-25
4.15279442e-25
2.83619756e-23
2.77010625e-23
1.69938241e-21
1.69460791e-21
8.84241453e-20
8.81085994e-20
3.88889869e-18
3.88313884e-18
1.38742979e-16
1.38343776e-16
3.7660544e-15
3.76413885e-15
3.53869449e-11
3.62882725e-11
0.0113808661
0.047841975
0.678959444
0.746683194
0.49114727
0.416284409
0.0913290363
0.0749194671
0.0140501601
0.012596962
0.0024868394
0.00233498412
0.000389523973
0.000381590261
5.63731809e-05
5.63334278e-05
8.03544849e-06
8.05727151e-06
1.57220766e-06
1.57253023e-06
7.74536635e-07
7.74570391e-07
6.83819423e-07
6.83842717e-07
6.7423626e-07
6.74241286e-07
6.73289572e-07
6.73290938e-07
6.73200531e-07
6.732032e-07
6.73193408e-07
6.73195265e-07
6.7319261e-07
6.73195186e-07
6.7319146e-07
6.73194767e-07
6.73192555e-07
6.7319285e-07
6.73193276e-07
6.73192271e-07
6.73193856e-07
6.73192375e-07
6.73195023e-07
6.73192597e-07
6.731938e-07
6.7319321e-07
6.73194132e-07
6.7319304e-07
6.73194299e-07
6.73193209e-07
6.73194159e-07
6.73192702e-07
6.73193681e-07
6.73193423e-07
6.73193481e-07
6.73193099e-07
6.73193456e-07
6.73193956e-07
6.73192927e-07
6.73193758e-07
6.73193978e-07
6.73193483e-07
6.73193079e-07
6.73193391e-07
6.73193361e-07
6.73193112e-07
6.73194113e-07
6.73193208e-07
6.73193787e-07
6.7319176e-07
6.73193282e-07
6.73193674e-07
6.73192511e-07
6.73193957e-07
6.73192133e-07
6.73194319e-07
6.73193218e-07
6.73194423e-07
6.73193013e-07
6.73194291e-07
6.73192406e-07
6.73194577e-07
6.73192844e-07
6.7319367e-07
6.73193767e-07
6.73192049e-07
6.7319456e-07
6.73192269e-07
6.73194538e-07
6.73191971e-07
6.73193965e-07
6.73192937e-07
6.73193778e-07
6.73194123e-07
6.73193485e-07
6.73193837e-07
6.73193756e-07
6.73193178e-07
6.73194877e-07
6.73193535e-07
6.73193173e-07
6.73194137e-07
6.73193525e-07
6.73193714e-07
6.73194072e-07
6.73193024e-07
6.73193385e-07
6.7319403e-07
6.73193337e-07
6.73193925e-07
6.73193076e-07
6.73193327e-07
6.73193143e-07
6.73193622e-07
6.73193029e-07
6.73193469e-07
6.73192848e-07
6.73194309e-07
6.73193171e-07
6.73194072e-07
6.7319309e-07
6.73194102e-07
6.73193155e-07
6.73193678e-07
6.7319325e-07
6.7319447e-07
6.73192612e-07
6.73194974e-07
6.73192819e-07
6.73194927e-07
6.73193476e-07
6.73193761e-07
6.73195023e-07
6.73194144e-07
6.73194303e-07
6.73193862e-07
6.73194772e-07
6.73193642e-07
6.73194045e-07
6.73193468e-07
6.73192651e-07
6.73193972e-07
6.73192748e-07
6.73193178e-07
6.73193268e-07
6.73193569e-07
6.73192715e-07
6.73193584e-07
6.73194008e-07
6.73193013e-07
6.73194734e-07
6.73192477e-07
6.73194717e-07
6.73193342e-07
6.73194312e-07
6.73193618e-07
6.73193852e-07
6.73193679e-07
6.73194166e-07
6.73193882e-07
6.73195372e-07
6.73192993e-07
6.73195087e-07
6.73193466e-07
6.73195112e-07
6.73192749e-07
6.73194563e-07
6.7319295e-07
6.73193259e-07
6.73193157e-07
6.73193705e-07
6.73193622e-07
6.73192714e-07
6.73193652e-07
6.73193562e-07
6.73193811e-07
6.73194528e-07
6.73194377e-07
6.73194362e-07
6.73194786e-07
6.73194982e-07
6.73194476e-07
6.73195407e-07
6.73194155e-07
6.73193919e-07
6.73193272e-07
6.73194276e-07
6.73193227e-07
6.7319451e-07
6.73193955e-07
6.73194599e-07
6.7319347e-07
6.73195393e-07
6.73193587e-07
6.73195042e-07
6.73193793e-07
6.73193619e-07
6.73193305e-07
6.73194311e-07
6.73193103e-07
6.73194789e-07
6.73193404e-07
6.73195476e-07
6.73193008e-07
6.73193847e-07
6.73193795e-07
6.73194413e-07
6.73193775e-07
6.73195665e-07
6.73194509e-07
6.73195037e-07
6.73193715e-07
6.7319467e-07
6.73194494e-07
6.73194925e-07
6.73194208e-07
6.73193756e-07
6.73194838e-07
6.73193948e-07
6.73193813e-07
6.73195035e-07
6.73194007e-07
6.73193753e-07
6.73193901e-07
6.73194369e-07
6.73193835e-07
6.73194239e-07
6.73194206e-07
6.731945e-07
6.73194875e-07
6.73194098e-07
6.73194023e-07
6.73195009e-07
6.73194201e-07
6.73194274e-07
6.73194337e-07
6.73194267e-07
6.73194947e-07
6.73194429e-07
6.73194915e-07
6.73193833e-07
6.73195521e-07
6.73193878e-07
6.73195632e-07
6.73192928e-07
6.7319561e-07
6.73193533e-07
6.73194657e-07
6.73193925e-07
6.73193878e-07
6.73194677e-07
6.73194806e-07
6.73194465e-07
6.73194723e-07
6.73193471e-07
6.73194984e-07
6.73193988e-07
6.73194708e-07
6.73194443e-07
6.73194232e-07
6.73195338e-07
6.73193795e-07
6.73196255e-07
6.73193238e-07
6.73195653e-07
6.73193766e-07
6.73194474e-07
6.73193957e-07
6.73193901e-07
6.73193899e-07
6.73195131e-07
6.73193386e-07
6.73194506e-07
6.73194477e-07
6.73193751e-07
6.73194996e-07
6.7319396e-07
6.73195127e-07
6.73194832e-07
6.73193735e-07
6.7319495e-07
6.73194291e-07
6.73194533e-07
6.73194848e-07
6.73194335e-07
6.73194127e-07
6.73193764e-07
6.73194229e-07
6.73194491e-07
6.7319489e-07
6.73194535e-07
6.73194498e-07
6.73195081e-07
6.73193793e-07
6.73194415e-07
6.73194119e-07
6.73194624e-07
6.73194911e-07
6.73195219e-07
6.73194518e-07
6.73194219e-07
6.73195536e-07
6.73194684e-07
6.73194274e-07
6.7319543e-07
6.73194286e-07
6.73194182e-07
6.7319487e-07
6.73194027e-07
6.73194799e-07
6.73194646e-07
6.73195189e-07
6.73193693e-07
6.7319533e-07
6.73194413e-07
6.73194236e-07
6.73194896e-07
6.73193941e-07
6.7319538e-07
6.73193793e-07
6.73195376e-07
6.7319408e-07
6.7319546e-07
6.73194264e-07
6.73195333e-07
6.73194204e-07
6.73194582e-07
6.73194888e-07
6.73194115e-07
6.73195787e-07
6.73194172e-07
6.7319531e-07
6.73194526e-07
6.73194615e-07
6.7319445e-07
6.73195061e-07
6.73194735e-07
6.73194819e-07
6.73193827e-07
6.73194832e-07
6.73194899e-07
6.73195379e-07
6.73194375e-07
6.7319494e-07
6.73195005e-07
6.73194751e-07
6.73194588e-07
6.73194342e-07
6.7319532e-07
6.73193906e-07
6.73195236e-07
6.73195417e-07
6.73194242e-07
6.73194818e-07
6.73195026e-07
6.73194418e-07
6.73195296e-07
6.73194989e-07
6.73194724e-07
6.73195256e-07
6.73195323e-07
6.73194386e-07
6.7319481e-07
6.73195221e-07
6.73195282e-07
6.7319556e-07
6.73194844e-07
6.73195387e-07
6.73195483e-07
6.73195668e-07
6.73195503e-07
6.73195318e-07
6.731952e-07
6.73195509e-07
6.73194882e-07
6.73195245e-07
6.73193989e-07
6.73195045e-07
6.73195131e-07
6.7319594e-07
6.7319554e-07
6.73194685e-07
6.73195561e-07
6.7319472e-07
6.73195663e-07
6.73194116e-07
6.73195063e-07
6.73194997e-07
6.73194442e-07
6.7319543e-07
6.73194337e-07
6.73195291e-07
6.73194256e-07
6.73195187e-07
6.73195687e-07
6.73194736e-07
6.73196015e-07
6.73194828e-07
6.73195382e-07
6.73195161e-07
6.7319474e-07
6.73194965e-07
6.73194623e-07
6.73196172e-07
6.73193987e-07
6.73195885e-07
6.73194052e-07
6.73195604e-07
6.73195433e-07
6.7319515e-07
6.7319552e-07
6.73195292e-07
6.73195371e-07
6.73195678e-07
6.73195811e-07
6.73195053e-07
6.73195787e-07
6.73194822e-07
6.73195166e-07
6.73195531e-07
6.73194913e-07
6.73195718e-07
6.73194769e-07
6.73196164e-07
6.73195795e-07
6.73195898e-07
6.73195441e-07
6.73196066e-07
6.73194741e-07
6.73196151e-07
6.73195554e-07
6.73195302e-07
6.73195996e-07
6.73195926e-07
6.73195262e-07
6.73195639e-07
6.73195108e-07
6.73195849e-07
6.73195406e-07
6.73196096e-07
6.73195438e-07
6.73195596e-07
6.73195292e-07
6.73195497e-07
6.73194678e-07
6.73196188e-07
6.73195651e-07
6.73196473e-07
6.73194887e-07
6.73195601e-07
6.73195861e-07
6.73195204e-07
6.73195943e-07
6.73195415e-07
6.7319563e-07
6.7319601e-07
6.73194665e-07
6.73196072e-07
6.73195678e-07
6.73194622e-07
6.73195807e-07
6.73195986e-07
6.73194628e-07
6.73196378e-07
6.73194583e-07
6.73196793e-07
6.73195861e-07
6.7319588e-07
6.73195524e-07
6.73195762e-07
6.73195994e-07
6.73195073e-07
6.7319573e-07
6.7319581e-07
6.7319486e-07
6.731967e-07
6.73195017e-07
6.7319644e-07
6.73194878e-07
6.73195715e-07
6.73194104e-07
6.73196118e-07
6.73194689e-07
6.73195605e-07
6.73194873e-07
6.7319531e-07
6.73195485e-07
6.73194741e-07
6.73196931e-07
6.73194814e-07
6.7319626e-07
6.73195127e-07
6.7319661e-07
6.73195459e-07
6.73197328e-07
6.73194021e-07
6.73197409e-07
6.7319415e-07
6.73196748e-07
6.73194971e-07
6.73196519e-07
6.73195422e-07
6.7319592e-07
6.73195999e-07
6.73196276e-07
6.73195511e-07
6.7319648e-07
6.73195458e-07
6.73195835e-07
6.73195665e-07
6.73196037e-07
6.7319553e-07
6.73196039e-07
6.73195987e-07
6.7319615e-07
6.73196183e-07
6.73195837e-07
6.73196189e-07
6.73195942e-07
6.73195843e-07
6.73196157e-07
6.73196185e-07
6.73196178e-07
6.73196219e-07
6.73196192e-07
6.73196219e-07
6.73196333e-07
6.73196384e-07
6.73196409e-07
6.73196527e-07
6.73196571e-07
6.73196704e-07
6.73196807e-07
6.73196837e-07
6.73196991e-07
6.73197119e-07
6.73197186e-07
6.73197334e-07
6.73197486e-07
6.73197666e-07
6.73197779e-07
6.7319791e-07
6.73198082e-07
6.73198172e-07
6.73198302e-07
6.73198405e-07
6.73198498e-07
6.73198509e-07
6.73198606e-07
6.73198617e-07
6.73198628e-07
6.73198642e-07
6.73198646e-07
6.73198651e-07
6.73198665e-07
6.73198656e-07
6.73198658e-07
6.73198636e-07
6.7319863e-07
6.73198663e-07
6.73198648e-07
6.7319865e-07
6.73198653e-07
6.73198657e-07
6.73198662e-07
6.73198658e-07
6.73198651e-07
6.73198668e-07
6.73198643e-07
6.73198656e-07
6.73198647e-07
6.73198656e-07
6.73198657e-07
6.7319865e-07
6.73198653e-07
6.73198643e-07
6.73198638e-07
6.73198672e-07
)
;

boundaryField
{
    closed
    {
        type            calculated;
        value           uniform 0;
    }
    open
    {
        type            calculated;
        value           uniform 0;
    }
    sides
    {
        type            empty;
    }
}


// ************************************************************************* //
