/*--------------------------------*- C++ -*----------------------------------*\
| =========                 |                                                 |
| \\      /  F ield         | OpenFOAM: The Open Source CFD Toolbox           |
|  \\    /   O peration     | Version:  2206                                  |
|   \\  /    A nd           | Website:  www.openfoam.com                      |
|    \\/     M anipulation  |                                                 |
\*---------------------------------------------------------------------------*/
FoamFile
{
    version     2.0;
    format      ascii;
    arch        "LSB;label=32;scalar=64";
    class       volScalarField;
    location    "1.18e-05";
    object      sourcePV;
}
// * * * * * * * * * * * * * * * * * * * * * * * * * * * * * * * * * * * * * //

dimensions      [1 -3 -1 0 0 0 0];

internalField   nonuniform List<scalar> 
3183
(
0
0
0
0
0
0
0
0
0
0
0
0
0
0
0
0
0
0
0
0
0
0
0
0
0
0
0
0
0
0
0
0
0
0
0
0
0
0
0
0
0
0
0
0
0
0
0
0
0
0
0
0
0
0
0
0
0
0
0
0
0
0
0
0
0
0
0
0
0
0
0
0
0
0
0
0
0
0
0
0
0
0
0
0
0
0
0
0
0
0
0
0
0
0
0
0
0
0
0
0
0
0
0
0
0
0
0
0
0
0
0
0
0
0
0
0
0
0
0
0
0
0
0
0
0
0
0
0
0
0
0
0
0
0
0
0
0
0
0
0
0
0
0
0
0
0
0
0
0
0
0
0
0
0
0
0
0
0
0
0
0
0
0
0
0
0
0
0
0
0
0
0
0
0
0
0
0
0
0
0
0
0
0
0
0
0
0
0
0
0
0
0
0
0
0
0
0
0
0
0
0
0
0
0
0
0
0
0
0
0
0
0
0
0
0
0
0
0
0
0
0
0
0
0
0
0
0
0
0
0
0
0
0
0
0
0
0
0
0
0
0
0
0
0
0
0
0
0
0
0
0
0
0
0
0
0
0
0
0
0
0
0
0
0
0
0
0
0
0
0
0
0
0
0
0
0
0
0
0
0
0
0
0
0
0
0
0
0
0
0
0
0
0
0
0
0
0
0
0
0
0
0
0
0
0
0
0
0
0
0
0
0
0
0
0
0
0
0
0
0
0
0
0
0
0
0
0
0
0
0
0
0
0
0
0
0
0
0
0
0
0
0
0
0
0
0
0
0
0
0
0
0
0
0
0
0
0
0
0
0
0
0
0
0
0
0
0
0
0
0
0
0
0
0
0
0
0
0
0
0
0
0
0
0
0
0
0
0
0
0
0
0
0
0
0
0
0
0
0
0
0
0
0
0
0
0
0
0
0
0
0
0
0
0
0
0
0
0
0
0
0
0
0
0
0
0
0
0
0
0
0
0
0
0
0
0
0
0
0
0
0
0
0
0
0
0
0
0
0
0
0
0
0
0
0
0
0
0
0
0
0
0
0
0
0
0
0
0
0
0
0
0
0
0
0
0
0
0
0
0
0
0
0
0
0
0
0
0
0
0
0
0
0
0
0
0
0
0
0
0
0
0
0
0
0
0
0
0
0
0
0
0
0
0
0
0
0
0
0
0
0
0
0
0
0
0
0
0
0
0
0
0
0
0
0
0
0
0
0
0
0
0
0
0
0
0
0
0
0
0
0
0
0
0
0
0
0
0
0
0
0
0
0
0
0
0
0
0
0
0
0
0
0
0
0
0
0
0
0
0
0
0
0
0
0
0
0
0
0
0
0
0
0
0
0
0
0
0
0
0
0
0
0
0
0
0
0
0
0
0
0
0
0
0
0
0
0
0
0
0
0
0
0
0
0
0
0
0
0
0
0
0
0
0
0
0
0
0
0
0
0
0
0
0
0
0
0
0
0
0
0
0
0
0
0
0
0
0
0
0
0
0
0
0
0
0
0
0
0
0
0
0
0
0
0
0
0
0
0
0
0
0
0
0
0
0
0
0
0
0
0
0
0
0
0
0
0
0
0
0
0
0
0
0
0
0
0
0
0
0
0
0
0
0
0
0
0
0
0
0
0
0
0
0
0
0
0
0
0
0
0
0
0
0
0
0
0
0
0
0
0
0
0
0
0
0
0
0
0
0
0
0
0
0
0
0
0
0
0
0
0
0
0
0
0
0
0
0
0
0
0
0
0
0
0
0
0
0
0
0
0
0
0
0
0
0
0
0
0
0
0
0
0
0
0
0
0
0
0
0
0
0
0
0
0
0
0
0
0
0
0
0
0
0
0
0
0
0
0
0
0
0
0
0
0
0
0
0
0
0
0
0
0
0
0
0
0
0
0
0
0
0
0
0
0
0
0
0
0
0
0
0
0
0
0
0
0
0
0
0
0
0
0
0
0
0
0
0
0
0
0
0
0
0
0
0
0
0
0
0
0
0
0
0
0
0
0
0
0
0
0
0
0
0
0
0
0
0
0
0
0
0
0
0
0
0
0
0
0
0
0
0
0
0
0
0
0
0
0
0
0
0
0
0
0
0
0
0
0
0
0
0
0
0
0
0
0
0
0
0
0
0
0
0
0
0
0
0
0
0
0
0
0
0
0
0
0
0
0
0
0
0
0
0
0
0
0
0
0
0
0
0
0
0
0
0
0
0
0
0
0
0
0
0
0
0
0
0
0
0
0
0
0
0
0
0
0
0
0
0
0
0
0
0
0
0
0
0
0
0
0
0
0
0
0
0
0
0
0
0
0
0
0
0
0
0
0
0
0
0
0
0
0
0
0
0
0
0
0
0
0
0
0
0
0
0
0
0
0
0
0
0
0
0
0
0
0
0
0
0
0
0
0
0
0
0
0
0
0
0
0
0
0
0
0
0
0
0
0
0
0
0
0
0
0
0
0
0
0
0
0
0
0
0
0
0
0
0
0
0
0
0
0
0
0
0
0
0
0
0
0
0
0
0
0
0
0
0
0
0
0
0
0
0
0
0
0
0
0
0
0
0
0
0
0
0
0
0
0
0
0
0
0
0
0
0
0
0
0
0
0
0
0
0
0
0
0
0
0
0
0
0
0
0
0
0
0
0
0
0
0
0
0
0
0
0
0
0
0
0
0
0
0
0
0
0
0
0
0
0
0
0
0
0
0
0
0
0
0
0
0
0
0
0
0
0
0
0
0
0
0
0
0
0
0
0
0
0
0
0
0
0
0
0
0
0
0
0
0
0
0
0
0
0
0
0
0
0
0
0
0
0
0
0
0
0
0
0
0
0
0
0
0
0
0
0
0
0
0
0
0
0
0
0
0
0
0
0
0
0
0
0
0
0
0
0
0
0
0
0
0
0
0
0
0
0
0
0
0
0
0
0
0
0
0
0
0
0
0
0
0
0
0
0
0
0
0
0
0
0
0
0
0
0
0
0
0
0
0
0
0
0
0
0
0
0
0
0
0
0
0
0
0
0
0
0
0
0
0
0
0
0
0
0
0
0
0
0
0
0
0
0
0
0
0
0
0
0
0
0
0
0
0
0
0
0
0
0
0
0
0
0
0
0
0
0
0
0
0
0
0
0
0
0
0
0
0
0
0
0
0
0
0
0
0
0
0
0
0
0
0
0
0
0
0
0
0
0
0
0
0
0
0
0
0
0
0
0
0
0
0
0
0
0
0
0
0
0
0
0
0
0
0
0
0
0
0
0
0
0
0
0
0
0
0
0
0
0
0
0
0
0
0
0
0
0
0
0
0
0
0
0
0
0
0
0
0
0
0
0
0
0
0
0
0
0
0
0
0
0
0
0
0
0
0
0
0
0
0
0
0
0
0
0
0
0
0
0
0
0
0
0
0
0
0
0
0
0
0
0
0
0
0
0
0
0
0
0
0
0
0
0
0
0
0
0
0
0
0
0
0
0
0
0
0
0
0
0
0
0
0
0
0
0
0
0
0
0
0
0
0
0
0
0
0
0
0
0
0
0
0
0
0
0
0
0
0
0
0
0
0
0
0
0
0
0
0
0
0
0
0
0
0
0
0
0
0
0
0
0
0
0
0
0
0
0
0
0
0
0
0
0
0
0
0
0
0
0
0
0
0
0
0
0
0
0
0
0
0
0
0
0
0
0
0
0
0
0
0
0
0
0
0
0
0
0
0
0
0
0
0
0
0
0
0
0
0
0
0
0
0
0
0
0
0
0
0
0
0
0
0
0
0
0
0
0
0
0
0
0
0
0
0
0
0
0
0
0
0
0
0
0
0
0
0
0
0
0
0
0
0
0
0
0
0
0
0
0
0
0
0
0
0
0
0
0
0
0
0
0
0
0
0
0
0
0
0
0
0
0
0
0
0
0
0
0
0
0
0
0
0
0
0
0
0
0
0
0
0
0
0
0
0
0
0
0
0
0
0
0
0
0
0
0
0
0
0
0
0
0
0
0
0
0
0
0
0
0
0
0
0
0
0
0
0
0
0
0
0
0
0
0
0
0
0
0
0
0
0
0
0
0
0
0
0
0
0
0
0
0
0
0
0
0
0
0
0
0
0
0
0
0
0
0
0
0
0
0
0
0
0
0
0
0
0
0
0
0
0
0
0
0
0
0
0
0
0
0
0
0
0
0
0
0
0
0
0
0
0
0
0
0
0
0
0
0
0
0
0
0
0
0
0
0
0
0
0
0
0
0
0
0
0
0
0
0
0
0
0
0
0
0
0
0
0
0
0
0
0
0
0
0
0
0
0
0
0
0
0
0
0
0
0
0
0
0
0
0
0
0
0
0
0
0
0
0
0
0
0
0
0
0
0
0
0
0
0
0
0
0
0
0
0
0
0
0
0
0
0
0
0
0
0
0
0
0
0
0
0
0
0
0
0
0
0
0
0
0
0
0
0
0
0
0
0
0
0
0
0
0
0
0
0
0
0
0
0
0
0
0
0
0
0
0
0
0
0
0
0
0
0
0
0
0
0
0
0
0
0
0
0
0
0
0
0
0
0
0
0
0
0
0
0
0
0
0
0
0
0
0
0
0
0
0
0
0
0
0
0
0
0
0
0
0
0
0
0
0
0
0
0
0
0
0
0
0
0
0
0
0
0
0
0
0
0
0
0
0
0
0
0
0
0
0
0
0
0
0
0
0
0
0
0
0
0
0
0
0
0
0
0
0
0
0
0
0
0
0
0
0
0
0
0
0
0
0
0
0
0
0
0
0
0
0
0
0
0
0
0
0
0
0
0
0
0
0
0
0
0
0
0
0
0
0
0
0
0
0
0
0
0
0
0
0
0
0
0
0
0
0
0
0
0
0
0
0
0
0
0
0
0
0
0
0
0
0
0
0
0
0
0
0
0
0
0
0
0
0
0
0
0
0
0
0
0
0
0
0
0
0
0
0
0
0
0
0
0
0
0
0
0
0
0
0
0
0
0
0
0
0
0
0
0
0
0
0
0
0
0
0
0
0
0
0
0
0
0
0
0
0
0
0
0
0
0
0
0
0
0
0
0
0
0
0
0
0
0
0
0
0
0
0
0
0
0
0
0
0
0
0
0
0
0
0
0
0
0
0
0
0
0
0
0
0
0
0
0
0
0
0
0
0
0
0
0
0
0
0
0
0
0
0
0
0
0
0
0
0
0
0
0
0
0
0
0
0
0
0
0
0
0
0
0
0
0
0
0
0
0
0
0
0
0
0
0
0
0
0
0
0
0
0
0
0
0
0
0
0
0
0
0
0
0
0
0
0
0
0
0
0
0
0
0
0
0
0
0
0
0
0
0
0
0
0
0
0
0
0
0
0
0
0
0
0
0
0
0
0
0
0
0
3.82151619e-299
5.23046117e-300
3.14525675e-296
4.70010856e-297
2.5498052e-293
4.12180873e-294
2.0363288e-290
3.53140665e-291
1.60226822e-287
2.96371215e-288
1.24228829e-284
2.43788975e-285
9.49205002e-282
1.96440407e-282
7.14818736e-279
1.55691898e-279
5.30609839e-276
1.21154116e-276
3.88276171e-273
9.27931137e-274
2.80112417e-270
6.9730864e-271
1.99245202e-267
5.15430257e-268
1.39747045e-264
3.74884427e-265
9.66562026e-262
2.68371536e-262
6.59295364e-259
1.89147558e-259
4.435292e-256
1.31277697e-256
2.94295013e-253
8.97421729e-254
1.92613447e-250
6.04362385e-251
1.24352872e-247
4.01018818e-248
7.9197426e-245
2.62217873e-245
4.97589154e-242
1.68984567e-242
3.08426708e-239
1.07342069e-239
1.88611875e-236
6.7216598e-237
1.13798083e-233
4.14960935e-234
6.77424257e-231
2.52579386e-231
3.97883217e-228
1.5159338e-228
2.30582822e-225
8.97184779e-226
1.31850048e-222
5.2363284e-223
7.43908315e-220
3.0139475e-220
4.14139134e-217
1.71090356e-217
2.27489332e-214
9.57878668e-215
1.23299715e-211
5.28934233e-212
6.59395451e-209
2.88076117e-209
3.4794245e-206
1.54750711e-206
1.8115045e-203
8.19937202e-204
9.30535726e-201
4.28500321e-201
4.71604101e-198
2.20872602e-198
2.35808995e-195
1.122917e-195
1.16323359e-192
5.63068281e-193
5.66083965e-190
2.78465941e-190
2.71758894e-187
1.35821423e-187
1.28693123e-184
6.53333235e-185
6.01136682e-182
3.09923261e-182
2.76957447e-179
1.44979551e-179
1.25848578e-176
6.68759888e-177
5.63962728e-174
3.04172411e-174
2.49223227e-171
1.3640437e-171
1.08599944e-168
6.0306729e-169
4.66593083e-166
2.62845082e-166
1.97640925e-163
1.12926391e-163
8.25287311e-161
4.78205722e-161
3.39688208e-158
1.9958011e-158
1.37802622e-155
8.20841911e-156
5.50919555e-153
3.32655915e-153
2.17031007e-150
1.32823562e-150
8.42373228e-148
5.22452385e-148
3.22091862e-145
2.02420459e-145
1.21307451e-142
7.72394616e-143
4.49950297e-140
2.90227669e-140
1.64340394e-137
1.07371036e-137
5.90957971e-135
3.91033985e-135
2.09183471e-132
1.40167481e-132
7.28750195e-130
4.94433316e-130
2.49820715e-127
1.71598664e-127
8.42539314e-125
5.85840411e-125
2.79494183e-122
1.9670383e-122
9.11759483e-120
6.49408878e-120
2.92423062e-117
2.10762894e-117
9.21849924e-115
6.7225445e-115
2.85570794e-112
2.10680348e-112
8.69068232e-110
6.48554038e-110
2.59749984e-107
1.96053453e-107
7.62231449e-105
5.81803558e-105
2.19537433e-102
1.6943833e-102
6.2040242e-100
4.84096814e-100
1.7195939e-97
1.35637995e-97
4.67305683e-95
3.72557404e-95
1.24458473e-92
1.00274844e-92
3.24721532e-90
2.64357363e-90
8.29591985e-88
6.82328736e-88
2.07432223e-85
1.72340997e-85
5.07369303e-83
4.2574808e-83
1.2133109e-80
1.02812965e-80
2.83509675e-78
2.42560612e-78
6.46907718e-76
5.58725839e-76
1.44048076e-73
1.25572146e-73
3.12791324e-71
2.75165049e-71
6.61839697e-69
5.87442242e-69
1.36346994e-66
1.22081673e-66
2.73242995e-64
2.46753215e-64
5.32167748e-62
4.84601781e-62
1.00622509e-59
9.23773315e-60
1.84502173e-57
1.70731604e-57
3.27670344e-55
3.05560454e-55
5.62889308e-53
5.28850437e-53
9.33952536e-51
8.8385995e-51
1.49432617e-48
1.42412491e-48
2.30152432e-46
2.20827606e-46
3.40551639e-44
3.28883427e-44
4.83057504e-42
4.69416742e-42
6.55241774e-40
6.40518365e-40
8.4761129e-38
8.33199913e-38
1.0423938e-35
1.02997258e-35
1.21440822e-33
1.20545872e-33
1.33482122e-31
1.32992913e-31
1.377692e-29
1.37585842e-29
1.32783721e-27
1.32635436e-27
1.18726566e-25
1.18303475e-25
9.77077775e-24
9.68978524e-24
7.32970615e-22
7.25036178e-22
4.95171595e-20
4.83632718e-20
2.96695093e-18
2.95861513e-18
1.54379673e-16
1.53828761e-16
6.78962635e-15
6.77957022e-15
2.42231299e-13
2.41534331e-13
6.57515256e-12
6.57180821e-12
5.77138521e-09
5.89048945e-09
0.247875629
0.934303974
9.54722553
10.1647429
6.03507596
5.07229223
1.07945436
0.884668167
0.165020965
0.147952963
0.0292082503
0.0274246902
0.00457500614
0.00448182367
0.000662106486
0.00066163958
9.43734919e-05
9.46298061e-05
1.84618824e-05
1.8465671e-05
9.09313177e-06
9.09352824e-06
8.02764624e-06
8.02791983e-06
7.91509074e-06
7.91514976e-06
7.90397176e-06
7.90398781e-06
7.90292596e-06
7.90295731e-06
7.9028423e-06
7.90286412e-06
7.90283293e-06
7.90286318e-06
7.90281942e-06
7.90285826e-06
7.90283228e-06
7.90283574e-06
7.90284075e-06
7.90282894e-06
7.90284756e-06
7.90283017e-06
7.90286127e-06
7.90283278e-06
7.90284691e-06
7.90283998e-06
7.9028508e-06
7.90283798e-06
7.90285276e-06
7.90283997e-06
7.90285112e-06
7.90283401e-06
7.90284551e-06
7.90284248e-06
7.90284316e-06
7.90283868e-06
7.90284286e-06
7.90284874e-06
7.90283665e-06
7.90284641e-06
7.90284899e-06
7.90284318e-06
7.90283843e-06
7.9028421e-06
7.90284175e-06
7.90283882e-06
7.90285058e-06
7.90283995e-06
7.90284675e-06
7.90282295e-06
7.90284083e-06
7.90284542e-06
7.90283176e-06
7.90284875e-06
7.90282732e-06
7.902853e-06
7.90284006e-06
7.90285422e-06
7.90283766e-06
7.90285267e-06
7.90283053e-06
7.90285604e-06
7.90283568e-06
7.90284538e-06
7.90284651e-06
7.90282634e-06
7.90285583e-06
7.90282892e-06
7.90285557e-06
7.90282543e-06
7.90284884e-06
7.90283677e-06
7.90284664e-06
7.9028507e-06
7.90284321e-06
7.90284734e-06
7.90284639e-06
7.9028396e-06
7.90285955e-06
7.90284379e-06
7.90283954e-06
7.90285087e-06
7.90284368e-06
7.9028459e-06
7.9028501e-06
7.90283779e-06
7.90284203e-06
7.90284961e-06
7.90284146e-06
7.90284837e-06
7.9028384e-06
7.90284135e-06
7.90283918e-06
7.90284482e-06
7.90283785e-06
7.90284302e-06
7.90283572e-06
7.90285288e-06
7.90283951e-06
7.9028501e-06
7.90283857e-06
7.90285045e-06
7.90283933e-06
7.90284548e-06
7.90284045e-06
7.90285477e-06
7.90283296e-06
7.9028607e-06
7.90283538e-06
7.90286014e-06
7.9028431e-06
7.90284645e-06
7.90286127e-06
7.90285094e-06
7.90285282e-06
7.90284764e-06
7.90285832e-06
7.90284505e-06
7.90284979e-06
7.90284301e-06
7.90283341e-06
7.90284893e-06
7.90283455e-06
7.9028396e-06
7.90284066e-06
7.90284419e-06
7.90283416e-06
7.90284436e-06
7.90284935e-06
7.90283766e-06
7.90285788e-06
7.90283137e-06
7.90285768e-06
7.90284153e-06
7.90285292e-06
7.90284477e-06
7.90284752e-06
7.90284549e-06
7.90285121e-06
7.90284787e-06
7.90286537e-06
7.90283743e-06
7.90286202e-06
7.90284298e-06
7.90286232e-06
7.90283456e-06
7.90285587e-06
7.90283692e-06
7.90284055e-06
7.90283935e-06
7.90284578e-06
7.90284482e-06
7.90283415e-06
7.90284517e-06
7.90284411e-06
7.90284703e-06
7.90285545e-06
7.90285368e-06
7.9028535e-06
7.90285848e-06
7.90286079e-06
7.90285485e-06
7.90286578e-06
7.90285108e-06
7.9028483e-06
7.9028407e-06
7.9028525e-06
7.90284018e-06
7.90285524e-06
7.90284873e-06
7.90285629e-06
7.90284303e-06
7.90286562e-06
7.90284441e-06
7.90286149e-06
7.90284682e-06
7.90284478e-06
7.90284109e-06
7.90285291e-06
7.90283872e-06
7.90285852e-06
7.90284226e-06
7.90286659e-06
7.90283761e-06
7.90284746e-06
7.90284684e-06
7.90285411e-06
7.90284661e-06
7.90286881e-06
7.90285523e-06
7.90286144e-06
7.90284591e-06
7.90285713e-06
7.90285505e-06
7.90286011e-06
7.90285169e-06
7.90284639e-06
7.9028591e-06
7.90284864e-06
7.90284705e-06
7.9028614e-06
7.90284934e-06
7.90284635e-06
7.90284809e-06
7.90285359e-06
7.90284732e-06
7.90285206e-06
7.90285167e-06
7.90285512e-06
7.90285953e-06
7.9028504e-06
7.90284952e-06
7.90286111e-06
7.90285162e-06
7.90285247e-06
7.90285321e-06
7.90285239e-06
7.90286038e-06
7.90285429e-06
7.90286e-06
7.9028473e-06
7.90286711e-06
7.90284782e-06
7.90286843e-06
7.90283666e-06
7.90286816e-06
7.90284377e-06
7.90285697e-06
7.90284837e-06
7.90284782e-06
7.90285721e-06
7.90285873e-06
7.90285471e-06
7.90285774e-06
7.90284304e-06
7.90286081e-06
7.90284911e-06
7.90285757e-06
7.90285446e-06
7.90285198e-06
7.90286496e-06
7.90284684e-06
7.90287573e-06
7.90284031e-06
7.90286867e-06
7.9028465e-06
7.90285482e-06
7.90284875e-06
7.90284809e-06
7.90284807e-06
7.90286254e-06
7.90284204e-06
7.9028552e-06
7.90285486e-06
7.90284633e-06
7.90286095e-06
7.90284878e-06
7.90286249e-06
7.90285902e-06
7.90284614e-06
7.90286041e-06
7.90285267e-06
7.90285552e-06
7.90285921e-06
7.90285319e-06
7.90285075e-06
7.90284648e-06
7.90285195e-06
7.90285502e-06
7.90285971e-06
7.90285554e-06
7.9028551e-06
7.90286195e-06
7.90284682e-06
7.90285413e-06
7.90285065e-06
7.90285659e-06
7.90285995e-06
7.90286357e-06
7.90285534e-06
7.90285182e-06
7.90286729e-06
7.90285728e-06
7.90285247e-06
7.90286605e-06
7.90285261e-06
7.9028514e-06
7.90285947e-06
7.90284957e-06
7.90285864e-06
7.90285684e-06
7.90286322e-06
7.90284565e-06
7.90286488e-06
7.90285411e-06
7.90285202e-06
7.90285977e-06
7.90284856e-06
7.90286546e-06
7.90284682e-06
7.90286542e-06
7.90285019e-06
7.9028664e-06
7.90285235e-06
7.90286491e-06
7.90285165e-06
7.90285609e-06
7.90285968e-06
7.9028506e-06
7.90287024e-06
7.90285127e-06
7.90286464e-06
7.90285543e-06
7.90285648e-06
7.90285454e-06
7.90286171e-06
7.90285789e-06
7.90285887e-06
7.90284722e-06
7.90285902e-06
7.90285982e-06
7.90286545e-06
7.90285366e-06
7.90286029e-06
7.90286106e-06
7.90285808e-06
7.90285616e-06
7.90285327e-06
7.90286476e-06
7.90284814e-06
7.90286377e-06
7.9028659e-06
7.9028521e-06
7.90285886e-06
7.9028613e-06
7.90285416e-06
7.90286448e-06
7.90286088e-06
7.90285776e-06
7.902864e-06
7.90286479e-06
7.90285379e-06
7.90285877e-06
7.9028636e-06
7.90286431e-06
7.90286758e-06
7.90285917e-06
7.90286555e-06
7.90286667e-06
7.90286884e-06
7.9028669e-06
7.90286473e-06
7.90286334e-06
7.90286698e-06
7.90285961e-06
7.90286387e-06
7.90284912e-06
7.90286152e-06
7.90286254e-06
7.90287204e-06
7.90286735e-06
7.9028573e-06
7.90286759e-06
7.90285771e-06
7.90286879e-06
7.90285061e-06
7.90286173e-06
7.90286096e-06
7.90285445e-06
7.90286605e-06
7.90285321e-06
7.90286441e-06
7.90285226e-06
7.90286319e-06
7.90286907e-06
7.9028579e-06
7.90287292e-06
7.90285898e-06
7.90286548e-06
7.90286289e-06
7.90285794e-06
7.90286059e-06
7.90285658e-06
7.90287476e-06
7.9028491e-06
7.90287139e-06
7.90284986e-06
7.9028681e-06
7.90286609e-06
7.90286276e-06
7.9028671e-06
7.90286442e-06
7.90286536e-06
7.90286897e-06
7.90287052e-06
7.90286162e-06
7.90287024e-06
7.90285891e-06
7.90286295e-06
7.90286723e-06
7.90285998e-06
7.90286943e-06
7.90285829e-06
7.90287468e-06
7.90287033e-06
7.90287154e-06
7.90286618e-06
7.90287352e-06
7.90285795e-06
7.90287452e-06
7.90286751e-06
7.90286454e-06
7.9028727e-06
7.90287187e-06
7.90286407e-06
7.9028685e-06
7.90286226e-06
7.90287097e-06
7.90286577e-06
7.90287387e-06
7.90286614e-06
7.902868e-06
7.90286443e-06
7.90286684e-06
7.90285722e-06
7.90287495e-06
7.90286865e-06
7.9028783e-06
7.90285967e-06
7.90286806e-06
7.90287111e-06
7.9028634e-06
7.90287207e-06
7.90286587e-06
7.9028684e-06
7.90287286e-06
7.90285706e-06
7.90287358e-06
7.90286897e-06
7.90285656e-06
7.90287048e-06
7.90287258e-06
7.90285663e-06
7.90287719e-06
7.9028561e-06
7.90288206e-06
7.90287111e-06
7.90287134e-06
7.90286716e-06
7.90286995e-06
7.90287267e-06
7.90286186e-06
7.90286957e-06
7.90287051e-06
7.90285935e-06
7.90288097e-06
7.90286119e-06
7.90287791e-06
7.90285956e-06
7.9028694e-06
7.90285047e-06
7.90287412e-06
7.90285735e-06
7.90286811e-06
7.90285951e-06
7.90286464e-06
7.90286669e-06
7.90285795e-06
7.90288368e-06
7.90285881e-06
7.9028758e-06
7.9028625e-06
7.90287991e-06
7.90286639e-06
7.90288834e-06
7.9028495e-06
7.90288929e-06
7.90285101e-06
7.90288153e-06
7.90286066e-06
7.90287884e-06
7.90286596e-06
7.90287181e-06
7.90287274e-06
7.90287599e-06
7.902867e-06
7.90287838e-06
7.90286638e-06
7.90287081e-06
7.90286881e-06
7.90287318e-06
7.90286722e-06
7.9028732e-06
7.90287259e-06
7.90287451e-06
7.90287489e-06
7.90287083e-06
7.90287496e-06
7.90287206e-06
7.90287089e-06
7.90287459e-06
7.90287492e-06
7.90287483e-06
7.90287532e-06
7.902875e-06
7.90287531e-06
7.90287666e-06
7.90287725e-06
7.90287755e-06
7.90287893e-06
7.90287945e-06
7.90288101e-06
7.90288222e-06
7.90288258e-06
7.90288439e-06
7.90288588e-06
7.90288668e-06
7.90288841e-06
7.90289019e-06
7.90289231e-06
7.90289363e-06
7.90289518e-06
7.9028972e-06
7.90289825e-06
7.90289978e-06
7.90290099e-06
7.90290209e-06
7.90290221e-06
7.90290335e-06
7.90290348e-06
7.90290361e-06
7.90290377e-06
7.90290382e-06
7.90290389e-06
7.90290404e-06
7.90290394e-06
7.90290396e-06
7.90290371e-06
7.90290363e-06
7.90290402e-06
7.90290384e-06
7.90290386e-06
7.90290391e-06
7.90290395e-06
7.90290401e-06
7.90290396e-06
7.90290389e-06
7.90290408e-06
7.90290379e-06
7.90290394e-06
7.90290383e-06
7.90290394e-06
7.90290395e-06
7.90290386e-06
7.90290391e-06
7.90290379e-06
7.90290373e-06
7.90290413e-06
)
;

boundaryField
{
    closed
    {
        type            calculated;
        value           uniform 0;
    }
    open
    {
        type            calculated;
        value           uniform 0;
    }
    sides
    {
        type            empty;
    }
}


// ************************************************************************* //
