/*--------------------------------*- C++ -*----------------------------------*\
| =========                 |                                                 |
| \\      /  F ield         | OpenFOAM: The Open Source CFD Toolbox           |
|  \\    /   O peration     | Version:  2206                                  |
|   \\  /    A nd           | Website:  www.openfoam.com                      |
|    \\/     M anipulation  |                                                 |
\*---------------------------------------------------------------------------*/
FoamFile
{
    version     2.0;
    format      ascii;
    arch        "LSB;label=32;scalar=64";
    class       volScalarField;
    location    "4.6e-06";
    object      p;
}
// * * * * * * * * * * * * * * * * * * * * * * * * * * * * * * * * * * * * * //

dimensions      [1 -1 -2 0 0 0 0];

internalField   nonuniform List<scalar> 
3183
(
101325
101325
101325
101325
101325
101325
101325
101325
101325
101325
101325
101325
101325
101325
101325
101325
101325
101325
101325
101325
101325
101325
101325
101325
101325
101325
101325
101325
101325
101325
101325
101325
101325
101325
101325
101325
101325
101325
101325
101325
101325
101325
101325
101325
101325
101325
101325
101325
101325
101325
101325
101325
101325
101325
101325
101325
101325
101325
101325
101325
101325
101325
101325
101325
101325
101325
101325
101325
101325
101325
101325
101325
101325
101325
101325
101325
101325
101325
101325
101325
101325
101325
101325
101325
101325
101325
101325
101325
101325
101325
101325
101325
101325
101325
101325
101325
101325
101325
101325
101325
101325
101325
101325
101325
101325
101325
101325
101325
101325
101325
101325
101325
101325
101325
101325
101325
101325
101325
101325
101325
101325
101325
101325
101325
101325
101325
101325
101325
101325
101325
101325
101325
101325
101325
101325
101325
101325
101325
101325
101325
101325
101325
101325
101325
101325
101325
101325
101325
101325
101325
101325
101325
101325
101325
101325
101325
101325
101325
101325
101325
101325
101325
101325
101325
101325
101325
101325
101325
101325
101325
101325
101325
101325
101325
101325
101325
101325
101325
101325
101325
101325
101325
101325
101325
101325
101325
101325
101325
101325
101325
101325
101325
101325
101325
101325
101325
101325
101325
101325
101325
101325
101325
101325
101325
101325
101325
101325
101325
101325
101325
101325
101325
101325
101325
101325
101325
101325
101325
101325
101325
101325
101325
101325
101325
101325
101325
101325
101325
101325
101325
101325
101325
101325
101325
101325
101325
101325
101325
101325
101325
101325
101325
101325
101325
101325
101325
101325
101325
101325
101325
101325
101325
101325
101325
101325
101325
101325
101325
101325
101325
101325
101325
101325
101325
101325
101325
101325
101325
101325
101325
101325
101325
101325
101325
101325
101325
101325
101325
101325
101325
101325
101325
101325
101325
101325
101325
101325
101325
101325
101325
101325
101325
101325
101325
101325
101325
101325
101325
101325
101325
101325
101325
101325
101325
101325
101325
101325
101325
101325
101325
101325
101325
101325
101325
101325
101325
101325
101325
101325
101325
101325
101325
101325
101325
101325
101325
101325
101325
101325
101325
101325
101325
101325
101325
101325
101325
101325
101325
101325
101325
101325
101325
101325
101325
101325
101325
101325
101325
101325
101325
101325
101325
101325
101325
101325
101325
101325
101325
101325
101325
101325
101325
101325
101325
101325
101325
101325
101325
101325
101325
101325
101325
101325
101325
101325
101325
101325
101325
101325
101325
101325
101325
101325
101325
101325
101325
101325
101325
101325
101325
101325
101325
101325
101325
101325
101325
101325
101325
101325
101325
101325
101325
101325
101325
101325
101325
101325
101325
101325
101325
101325
101325
101325
101325
101325
101325
101325
101325
101325
101325
101325
101325
101325
101325
101325
101325
101325
101325
101325
101325
101325
101325
101325
101325
101325
101325
101325
101325
101325
101325
101325
101325
101325
101325
101325
101325
101325
101325
101325
101325
101325
101325
101325
101325
101325
101325
101325
101325
101325
101325
101325
101325
101325
101325
101325
101325
101325
101325
101325
101325
101325
101325
101325
101325
101325
101325
101325
101325
101325
101325
101325
101325
101325
101325
101325
101325
101325
101325
101325
101325
101325
101325
101325
101325
101325
101325
101325
101325
101325
101325
101325
101325
101325
101325
101325
101325
101325
101325
101325
101325
101325
101325
101325
101325
101325
101325
101325
101325
101325
101325
101325
101325
101325
101325
101325
101325
101325
101325
101325
101325
101325
101325
101325
101325
101325
101325
101325
101325
101325
101325
101325
101325
101325
101325
101325
101325
101325
101325
101325
101325
101325
101325
101325
101325
101325
101325
101325
101325
101325
101325
101325
101325
101325
101325
101325
101325
101325
101325
101325
101325
101325
101325
101325
101325
101325
101325
101325
101325
101325
101325
101325
101325
101325
101325
101325
101325
101325
101325
101325
101325
101325
101325
101325
101325
101325
101325
101325
101325
101325
101325
101325
101325
101325
101325
101325
101325
101325
101325
101325
101325
101325
101325
101325
101325
101325
101325
101325
101325
101325
101325
101325
101325
101325
101325
101325
101325
101325
101325
101325
101325
101325
101325
101325
101325
101325
101325
101325
101325
101325
101325
101325
101325
101325
101325
101325
101325
101325
101325
101325
101325
101325
101325
101325
101325
101325
101325
101325
101325
101325
101325
101325
101325
101325
101325
101325
101325
101325
101325
101325
101325
101325
101325
101325
101325
101325
101325
101325
101325
101325
101325
101325
101325
101325
101325
101325
101325
101325
101325
101325
101325
101325
101325
101325
101325
101325
101325
101325
101325
101325
101325
101325
101325
101325
101325
101325
101325
101325
101325
101325
101325
101325
101325
101325
101325
101325
101325
101325
101325
101325
101325
101325
101325
101325
101325
101325
101325
101325
101325
101325
101325
101325
101325
101325
101325
101325
101325
101325
101325
101325
101325
101325
101325
101325
101325
101325
101325
101325
101325
101325
101325
101325
101325
101325
101325
101325
101325
101325
101325
101325
101325
101325
101325
101325
101325
101325
101325
101325
101325
101325
101325
101325
101325
101325
101325
101325
101325
101325
101325
101325
101325
101325
101325
101325
101325
101325
101325
101325
101325
101325
101325
101325
101325
101325
101325
101325
101325
101325
101325
101325
101325
101325
101325
101325
101325
101325
101325
101325
101325
101325
101325
101325
101325
101325
101325
101325
101325
101325
101325
101325
101325
101325
101325
101325
101325
101325
101325
101325
101325
101325
101325
101325
101325
101325
101325
101325
101325
101325
101325
101325
101325
101325
101325
101325
101325
101325
101325
101325
101325
101325
101325
101325
101325
101325
101325
101325
101325
101325
101325
101325
101325
101325
101325
101325
101325
101325
101325
101325
101325
101325
101325
101325
101325
101325
101325
101325
101325
101325
101325
101325
101325
101325
101325
101325
101325
101325
101325
101325
101325
101325
101325
101325
101325
101325
101325
101325
101325
101325
101325
101325
101325
101325
101325
101325
101325
101325
101325
101325
101325
101325
101325
101325
101325
101325
101325
101325
101325
101325
101325
101325
101325
101325
101325
101325
101325
101325
101325
101325
101325
101325
101325
101325
101325
101325
101325
101325
101325
101325
101325
101325
101325
101325
101325
101325
101325
101325
101325
101325
101325
101325
101325
101325
101325
101325
101325
101325
101325
101325
101325
101325
101325
101325
101325
101325
101325
101325
101325
101325
101325
101325
101325
101325
101325
101325
101325
101325
101325
101325
101325
101325
101325
101325
101325
101325
101325
101325
101325
101325
101325
101325
101325
101325
101325
101325
101325
101325
101325
101325
101325
101325
101325
101325
101325
101325
101325
101325
101325
101325
101325
101325
101325
101325
101325
101325
101325
101325
101325
101325
101325
101325
101325
101325
101325
101325
101325
101325
101325
101325
101325
101325
101325
101325
101325
101325
101325
101325
101325
101325
101325
101325
101325
101325
101325
101325
101325
101325
101325
101325
101325
101325
101325
101325
101325
101325
101325
101325
101325
101325
101325
101325
101325
101325
101325
101325
101325
101325
101325
101325
101325
101325
101325
101325
101325
101325
101325
101325
101325
101325
101325
101325
101325
101325
101325
101325
101325
101325
101325
101325
101325
101325
101325
101325
101325
101325
101325
101325
101325
101325
101325
101325
101325
101325
101325
101325
101325
101325
101325
101325
101325
101325
101325
101325
101325
101325
101325
101325
101325
101325
101325
101325
101325
101325
101325
101325
101325
101325
101325
101325
101325
101325
101325
101325
101325
101325
101325
101325
101325
101325
101325
101325
101325
101325
101325
101325
101325
101325
101325
101325
101325
101325
101325
101325
101325
101325
101325
101325
101325
101325
101325
101325
101325
101325
101325
101325
101325
101325
101325
101325
101325
101325
101325
101325
101325
101325
101325
101325
101325
101325
101325
101325
101325
101325
101325
101325
101325
101325
101325
101325
101325
101325
101325
101325
101325
101325
101325
101325
101325
101325
101325
101325
101325
101325
101325
101325
101325
101325
101325
101325
101325
101325
101325
101325
101325
101325
101325
101325
101325
101325
101325
101325
101325
101325
101325
101325
101325
101325
101325
101325
101325
101325
101325
101325
101325
101325
101325
101325
101325
101325
101325
101325
101325
101325
101325
101325
101325
101325
101325
101325
101325
101325
101325
101325
101325
101325
101325
101325
101325
101325
101325
101325
101325
101325
101325
101325
101325
101325
101325
101325
101325
101325
101325
101325
101325
101325
101325
101325
101325
101325
101325
101325
101325
101325
101325
101325
101325
101325
101325
101325
101325
101325
101325
101325
101325
101325
101325
101325
101325
101325
101325
101325
101325
101325
101325
101325
101325
101325
101325
101325
101325
101325
101325
101325
101325
101325
101325
101325
101325
101325
101325
101325
101325
101325
101325
101325
101325
101325
101325
101325
101325
101325
101325
101325
101325
101325
101325
101325
101325
101325
101325
101325
101325
101325
101325
101325
101325
101325
101325
101325
101325
101325
101325
101325
101325
101325
101325
101325
101325
101325
101325
101325
101325
101325
101325
101325
101325
101325
101325
101325
101325
101325
101325
101325
101325
101325
101325
101325
101325
101325
101325
101325
101325
101325
101325
101325
101325
101325
101325
101325
101325
101325
101325
101325
101325
101325
101325
101325
101325
101325
101325
101325
101325
101325
101325
101325
101325
101325
101325
101325
101325
101325
101325
101325
101325
101325
101325
101325
101325
101325
101325
101325
101325
101325
101325
101325
101325
101325
101325
101325
101325
101325
101325
101325
101325
101325
101325
101325
101325
101325
101325
101325
101325
101325
101325
101325
101325
101325
101325
101325
101325
101325
101325
101325
101325
101325
101325
101325
101325
101325
101325
101325
101325
101325
101325
101325
101325
101325
101325
101325
101325
101325
101325
101325
101325
101325
101325
101325
101325
101325
101325
101325
101325
101325
101325
101325
101325
101325
101325
101325
101325
101325
101325
101325
101325
101325
101325
101325
101325
101325
101325
101325
101325
101325
101325
101325
101325
101325
101325
101325
101325
101325
101325
101325
101325
101325
101325
101325
101325
101325
101325
101325
101325
101325
101325
101325
101325
101325
101325
101325
101325
101325
101325
101325
101325
101325
101325
101325
101325
101325
101325
101325
101325
101325
101325
101325
101325
101325
101325
101325
101325
101325
101325
101325
101325
101325
101325
101325
101325
101325
101325
101325
101325
101325
101325
101325
101325
101325
101325
101325
101325
101325
101325
101325
101325
101325
101325
101325
101325
101325
101325
101325
101325
101325
101325
101325
101325
101325
101325
101325
101325
101325
101325
101325
101325
101325
101325
101325
101325
101325
101325
101325
101325
101325
101325
101325
101325
101325
101325
101325
101325
101325
101325
101325
101325
101325
101325
101325
101325
101325
101325
101325
101325
101325
101325
101325
101325
101325
101325
101325
101325
101325
101325
101325
101325
101325
101325
101325
101325
101325
101325
101325
101325
101325
101325
101325
101325
101325
101325
101325
101325
101325
101325
101325
101325
101325
101325
101325
101325
101325
101325
101325
101325
101325
101325
101325
101325
101325
101325
101325
101325
101325
101325
101325
101325
101325
101325
101325
101325
101325
101325
101325
101325
101325
101325
101325
101325
101325
101325
101325
101325
101325
101325
101325
101325
101325
101325
101325
101325
101325
101325
101325
101325
101325
101325
101325
101325
101325
101325
101325
101325
101325
101325
101325
101325
101325
101325
101325
101325
101325
101325
101325
101325
101325
101325
101325
101325
101325
101325
101325
101325
101325
101325
101325
101325
101325
101325
101325
101325
101325
101325
101325
101325
101325
101325
101325
101325
101325
101325
101325
101325
101325
101325
101325
101325
101325
101325
101325
101325
101325
101325
101325
101325
101325
101325
101325
101325
101325
101325
101325
101325
101325
101325
101325
101325
101325
101325
101325
101325
101325
101325
101325
101325
101325
101325
101325
101325
101325
101325
101325
101325
101325
101325
101325
101325
101325
101325
101325
101325
101325
101325
101325
101325
101325
101325
101325
101325
101325
101325
101325
101325
101325
101325
101325
101325
101325
101325
101325
101325
101325
101325
101325
101325
101325
101325
101325
101325
101325
101325
101325
101325
101325
101325
101325
101325
101325
101325
101325
101325
101325
101325
101325
101325
101325
101325
101325
101325
101325
101325
101325
101325
101325
101325
101325
101325
101325
101325
101325
101325
101325
101325
101325
101325
101325
101325
101325
101325
101325
101325
101325
101325
101325
101325
101325
101325
101325
101325
101325
101325
101325
101325
101325
101325
101325
101325
101325
101325
101325
101325
101325
101325
101325
101325
101325
101325
101325
101325
101325
101325
101325
101325
101325
101325
101325
101325
101325
101325
101325
101325
101325
101325
101325
101325
101325
101325
101325
101325
101325
101325
101325
101325
101325
101325
101325
101325
101325
101325
101325
101325
101325
101325
101325
101325
101325
101325
101325
101325
101325
101325
101325
101325
101325
101325
101325
101325
101325
101325
101325
101325
101325
101325
101325
101325
101325
101325
101325
101325
101325
101325
101325
101325
101325
101325
101325
101325
101325
101325
101325
101325
101325
101325
101325
101325
101325
101325
101325
101325
101325
101325
101325
101325
101325
101325
101325
101325
101325
101325
101325
101325
101325
101325
101325
101325
101325
101325
101325
101325
101325
101325
101325
101325
101325
101325
101325
101325
101325
101325
101325
101325
101325
101325
101325
101325
101325
101325
101325
101325
101325
101325
101325
101325
101325
101325
101325
101325
101325
101325
101325
101325
101325
101325
101325
101325
101325
101325
101325
101325
101325
101325
101325
101325
101325
101325
101325
101325
101325
101325
101325
101325
101325
101325
101325
101325
101325
101325
101325
101325
101325
101325
101325
101325
101325
101325
101325
101325
101325
101325
101325
101325
101325
101325
101325
101325
101325
101325
101325
101325
101325
101325
101325
101325
101325
101325
101325
101325
101325
101325
101325
101325
101325
101325
101325
101325
101325
101325
101325
101325
101325
101325
101325
101325
101325
101325
101325
101325
101325
101325
101325
101325
101325
101325
101325
101325
101325
101325
101325
101325
101325
101325
101325
101325
101325
101325
101325
101325
101325
101325
101325
101325
101325
101325
101325
101325
101325
101325
101325
101325
101325
101325
101325
101325
101325
101325
101325
101325
101325
101325
101325
101325
101325
101325
101325
101325
101325
101325
101325
101325
101325
101325
101325
101325
101325
101325
101325
101325
101325
101325
101325
101325
101325
101325
101325
101325
101325
101325
101325
101325
101325
101325
101325
101325
101325
101325
101325
101325
101325
101325
101325
101325
101325
101325
101325
101325
101325
101325
101325
101325
101325
101325
101325
101325
101325
101325
101325
101325
101325
101325
101325
101325
101325
101325
101325
101325
101325
101325
101325
101325
101325
101325
101325
101325
101325
101325
101325
101325
101325
101325
101325
101325
101325
101325
101325
101325
101325
101325
101325
101325
101325
101325
101325
101325
101325
101325
101325
101325
101325
101325
101325
101325
101325
101325
101325
101325
101325
101325
101325
101325
101325
101325
101325
101325
101325
101325
101325
101325
101325
101325
101325
101325
101325
101325
101325
101325
101325
101325
101325
101325
101325
101325
101325
101325
101325
101325
101325
101325
101325
101325
101325
101325
101325
101325
101324.999
101324.999
101324.999
101324.999
101324.999
101324.999
101324.999
101324.999
101324.999
101324.999
101324.999
101324.999
101324.998
101324.998
101324.998
101324.998
101324.998
101324.998
101324.997
101324.997
101324.997
101324.996
101324.996
101324.996
101324.995
101324.995
101324.995
101324.994
101324.994
101324.993
101324.992
101324.992
101324.991
101324.99
101324.989
101324.988
101324.987
101324.986
101324.985
101324.984
101324.982
101324.981
101324.979
101324.977
101324.975
101324.973
101324.971
101324.969
101324.966
101324.963
101324.96
101324.957
101324.953
101324.949
101324.945
101324.941
101324.936
101324.931
101324.925
101324.919
101324.913
101324.906
101324.898
101324.89
101324.881
101324.872
101324.862
101324.851
101324.84
101324.828
101324.814
101324.8
101324.785
101324.769
101324.751
101324.733
101324.713
101324.692
101324.669
101324.645
101324.619
101324.591
101324.561
101324.53
101324.496
101324.461
101324.423
101324.382
101324.339
101324.293
101324.244
101324.192
101324.137
101324.079
101324.017
101323.951
101323.881
101323.807
101323.729
101323.646
101323.558
101323.466
101323.368
101323.264
101323.155
101323.04
101322.919
101322.791
101322.656
101322.514
101322.364
101322.207
101322.042
101321.869
101321.687
101321.496
101321.296
101321.086
101320.866
101320.637
101320.396
101320.145
101319.883
101319.609
101319.324
101319.027
101318.717
101318.395
101318.059
101317.711
101317.35
101316.974
101316.585
101316.182
101315.765
101315.333
101314.888
101314.427
101313.952
101313.462
101312.958
101312.439
101311.906
101311.358
101310.795
101310.219
101309.629
101309.025
101308.408
101307.777
101307.135
101306.48
101305.814
101305.137
101304.449
101303.752
101303.046
101302.332
101301.61
101300.882
101300.149
101299.411
101298.67
101297.927
101297.182
101296.438
101295.695
101294.954
101294.217
101293.486
101292.761
101292.044
101291.337
101290.641
101289.956
101289.286
101288.631
101287.992
101287.372
101286.771
101286.191
101285.633
101285.099
101284.589
101284.106
101283.65
101283.222
101282.823
101282.455
101282.117
101281.812
101281.539
101281.299
101281.093
101280.921
101280.784
101280.681
101280.612
101280.578
101280.578
101280.612
101280.68
101280.781
101280.915
101281.08
101281.276
101281.503
101281.759
101282.042
101282.352
101282.688
101283.049
101283.432
101283.837
101284.262
101284.705
101285.166
101285.642
101286.133
101286.635
101287.149
101287.673
101288.205
101288.743
101289.287
101289.834
101290.384
101290.936
101291.488
101292.038
101292.587
101293.133
101293.674
101294.211
101294.742
101295.266
101295.783
101296.292
101296.792
101297.283
101297.764
101298.235
101298.695
101299.143
101299.579
101300.002
101300.412
101300.809
101301.192
101301.56
101301.913
101302.25
101302.571
101302.876
101303.163
101303.432
101303.682
101303.914
101304.126
101304.318
101304.489
101304.64
101304.769
101304.877
101304.963
101305.027
101305.069
101305.09
101305.088
101305.066
101305.023
101304.96
101304.877
101304.777
101304.66
101304.528
101304.381
101304.224
101304.056
101303.88
101303.7
101303.517
101303.335
101303.156
101302.983
101302.821
101302.671
101302.539
101302.426
101302.338
101302.277
101302.247
101302.252
101302.295
101302.38
101302.51
101302.688
101302.917
101303.201
101303.542
101303.943
101304.406
101304.933
101305.527
101306.187
101306.915
101307.706
101308.555
101309.449
101310.366
101311.269
101312.101
101312.768
101313.113
101312.843
101312.004
101311.369
101316.54
101315.058
101315.012
101315.065
101315.221
101314.991
101314.647
101314.107
101313.47
101312.757
101312.01
101311.251
101310.501
101309.774
101309.08
101308.423
101307.806
101307.232
101306.698
101306.205
101305.748
101305.328
101304.94
101304.584
101304.256
101303.955
101303.68
101303.428
101303.198
101302.989
101302.8
101302.63
101302.477
101302.342
101302.222
101302.118
101302.029
101301.954
101301.892
101301.843
101301.806
101301.781
101301.766
101301.762
101301.768
101301.782
101301.806
101301.837
101301.876
101301.922
101301.974
101302.032
101302.095
101302.163
101302.235
101302.311
101302.391
101302.473
101302.558
101302.644
101302.732
101302.822
101302.912
101303.002
101303.093
101303.183
101303.272
101303.36
101303.447
101303.532
101303.616
101303.697
101303.776
101303.852
101303.925
101303.995
101304.062
101304.125
101304.185
101304.241
101304.293
101304.34
101304.384
101304.422
101304.457
101304.487
101304.512
101304.533
101304.549
101304.559
101304.565
101304.567
101304.563
101304.554
101304.54
101304.522
101304.498
101304.469
101304.436
101304.397
101304.354
101304.305
101304.252
101304.194
101304.132
101304.065
101303.993
101303.916
101303.835
101303.749
101303.659
101303.565
101303.466
101303.363
101303.256
101303.145
101303.03
101302.91
101302.787
101302.66
101302.529
101302.394
101302.255
101302.113
101301.967
101301.817
101301.664
101301.508
101301.347
101301.184
101301.017
101300.846
101300.673
101300.496
101300.315
101300.132
101299.945
101299.755
101299.561
101299.365
101299.166
101298.963
101298.757
101298.548
101298.336
101298.121
101297.903
101297.682
101297.458
101297.231
101297.001
101296.769
101296.533
101296.294
101296.053
101295.809
101295.562
101295.313
101295.06
101294.806
101294.548
101294.288
101294.026
101293.762
101293.495
101293.226
101292.954
101292.681
101292.406
101292.129
101291.85
101291.569
101291.287
101291.004
101290.719
101290.434
101290.147
101289.86
101289.571
101289.282
101288.993
101288.704
101288.414
101288.125
101287.835
101287.547
101287.259
101286.971
101286.685
101286.4
101286.116
101285.834
101285.554
101285.276
101285.001
101284.727
101284.457
101284.189
101283.925
101283.664
101283.406
101283.153
101282.903
101282.658
101282.417
101282.181
101281.95
101281.724
101281.503
101281.288
101281.079
101280.875
101280.678
101280.487
101280.303
101280.125
101279.955
101279.791
101279.635
101279.487
101279.346
101279.212
101279.087
101278.97
101278.861
101278.76
101278.668
101278.584
101278.51
101278.444
101278.386
101278.338
101278.299
101278.269
101278.248
101278.237
101278.234
101278.241
101278.258
101278.284
101278.319
101278.364
101278.418
101278.481
101278.554
101278.636
101278.728
101278.829
101278.939
101279.058
101279.186
101279.323
101279.47
101279.625
101279.789
101279.961
101280.143
101280.332
101280.53
101280.737
101280.951
101281.173
101281.403
101281.641
101281.886
101282.139
101282.399
101282.666
101282.94
101283.22
101283.507
101283.801
101284.1
101284.406
101284.717
101285.034
101285.356
101285.684
101286.017
101286.354
101286.697
101287.043
101287.394
101287.749
101288.108
101288.471
101288.837
101289.206
101289.578
101289.953
101290.331
101290.712
101291.094
101291.479
101291.866
101292.254
101292.644
101293.035
101293.428
101293.821
101294.215
101294.61
101295.005
101295.401
101295.796
101296.192
101296.587
101296.982
101297.377
101297.771
101298.164
101298.556
101298.947
101299.336
101299.724
101300.111
101300.496
101300.879
101301.261
101301.64
101302.017
101302.392
101302.765
101303.135
101303.503
101303.868
101304.23
101304.589
101304.946
101305.299
101305.65
101305.997
101306.341
101306.682
101307.02
101307.354
101307.685
101308.012
101308.336
101308.656
101308.972
101309.285
101309.594
101309.899
101310.201
101310.499
101310.793
101311.083
101311.369
101311.652
101311.93
101312.205
101312.475
101312.742
101313.005
101313.264
101313.519
101313.77
101314.018
101314.261
101314.5
101314.736
101314.968
101315.196
101315.42
101315.64
101315.857
101316.07
101316.279
101316.484
101316.686
101316.884
101317.078
101317.269
101317.456
101317.639
101317.82
101317.996
101318.169
101318.339
101318.506
101318.669
101318.829
101318.985
101319.139
101319.289
101319.436
101319.58
101319.721
101319.859
101319.994
101320.126
101320.255
101320.381
101320.505
101320.625
101320.743
101320.859
101320.972
101321.082
101321.189
101321.294
101321.397
101321.497
101321.595
101321.69
101321.784
101321.874
101321.963
101322.05
101322.134
101322.216
101322.297
101322.375
101322.451
101322.526
101322.598
101322.669
101322.737
101322.804
101322.87
101322.933
101322.995
101323.055
101323.114
101323.171
101323.227
101323.281
101323.333
101323.384
101323.434
101323.482
101323.529
101323.575
101323.62
101323.663
101323.705
101323.746
101323.785
101323.824
101323.861
101323.897
101323.933
101323.967
101324
101324.033
101324.064
101324.094
101324.124
101324.153
101324.18
101324.207
101324.233
101324.259
101324.283
101324.307
101324.33
101324.353
101324.374
101324.395
101324.416
101324.436
101324.455
101324.473
101324.491
101324.509
101324.526
101324.542
101324.558
101324.573
101324.588
101324.602
101324.616
101324.629
101324.642
101324.655
101324.667
101324.679
101324.69
101324.701
101324.712
101324.722
101324.732
101324.741
101324.751
101324.76
101324.768
101324.777
101324.785
101324.793
101324.8
101324.807
101324.814
101324.821
101324.828
101324.834
101324.84
101324.846
101324.852
101324.857
101324.863
101324.868
101324.874
101324.879
101324.885
101324.891
101324.897
101324.903
101324.909
101324.915
101324.921
101324.927
101324.934
101324.939
101324.945
101324.951
101324.956
101324.962
101324.966
101324.971
101324.975
101324.979
101324.983
101324.986
101324.989
101324.991
101324.993
101324.995
101324.996
101324.997
101324.998
101324.999
101324.999
101325
101325
101325
101325
101325
101325
101325
101325
101325
101325
101325
101325
101325
101325
101325
101325
101325
101325
101325
101325
101325
101325
101325
101325
101325
101325
101325
101325
101325
101325
101325
101325
101325
101325
101325
101325
101325
101325
101325
101325
101325
101325
101325
101325
101325
)
;

boundaryField
{
    closed
    {
        type            zeroGradient;
    }
    open
    {
        type            waveTransmissive;
        gamma           1.25;
        fieldInf        101325;
        lInf            1;
        value           uniform 101325;
    }
    sides
    {
        type            empty;
    }
}


// ************************************************************************* //
