/*--------------------------------*- C++ -*----------------------------------*\
| =========                 |                                                 |
| \\      /  F ield         | OpenFOAM: The Open Source CFD Toolbox           |
|  \\    /   O peration     | Version:  2206                                  |
|   \\  /    A nd           | Website:  www.openfoam.com                      |
|    \\/     M anipulation  |                                                 |
\*---------------------------------------------------------------------------*/
FoamFile
{
    version     2.0;
    format      ascii;
    arch        "LSB;label=32;scalar=64";
    class       volScalarField;
    location    "4.6e-06";
    object      PVsourcePV;
}
// * * * * * * * * * * * * * * * * * * * * * * * * * * * * * * * * * * * * * //

dimensions      [1 -3 -1 0 0 0 0];

internalField   nonuniform List<scalar> 
3183
(
0
0
0
0
0
0
0
0
0
0
0
0
0
0
0
0
0
0
0
0
0
0
0
0
0
0
0
0
0
0
0
0
0
0
0
0
0
0
0
0
0
0
0
0
0
0
0
0
0
0
0
0
0
0
0
0
0
0
0
0
0
0
0
0
0
0
0
0
0
0
0
0
0
0
0
0
0
0
0
0
0
0
0
0
0
0
0
0
0
0
0
0
0
0
0
0
0
0
0
0
0
0
0
0
0
0
0
0
0
0
0
0
0
0
0
0
0
0
0
0
0
0
0
0
0
0
0
0
0
0
0
0
0
0
0
0
0
0
0
0
0
0
0
0
0
0
0
0
0
0
0
0
0
0
0
0
0
0
0
0
0
0
0
0
0
0
0
0
0
0
0
0
0
0
0
0
0
0
0
0
0
0
0
0
0
0
0
0
0
0
0
0
0
0
0
0
0
0
0
0
0
0
0
0
0
0
0
0
0
0
0
0
0
0
0
0
0
0
0
0
0
0
0
0
0
0
0
0
0
0
0
0
0
0
0
0
0
0
0
0
0
0
0
0
0
0
0
0
0
0
0
0
0
0
0
0
0
0
0
0
0
0
0
0
0
0
0
0
0
0
0
0
0
0
0
0
0
0
0
0
0
0
0
0
0
0
0
0
0
0
0
0
0
0
0
0
0
0
0
0
0
0
0
0
0
0
0
0
0
0
0
0
0
0
0
0
0
0
0
0
0
0
0
0
0
0
0
0
0
0
0
0
0
0
0
0
0
0
0
0
0
0
0
0
0
0
0
0
0
0
0
0
0
0
0
0
0
0
0
0
0
0
0
0
0
0
0
0
0
0
0
0
0
0
0
0
0
0
0
0
0
0
0
0
0
0
0
0
0
0
0
0
0
0
0
0
0
0
0
0
0
0
0
0
0
0
0
0
0
0
0
0
0
0
0
0
0
0
0
0
0
0
0
0
0
0
0
0
0
0
0
0
0
0
0
0
0
0
0
0
0
0
0
0
0
0
0
0
0
0
0
0
0
0
0
0
0
0
0
0
0
0
0
0
0
0
0
0
0
0
0
0
0
0
0
0
0
0
0
0
0
0
0
0
0
0
0
0
0
0
0
0
0
0
0
0
0
0
0
0
0
0
0
0
0
0
0
0
0
0
0
0
0
0
0
0
0
0
0
0
0
0
0
0
0
0
0
0
0
0
0
0
0
0
0
0
0
0
0
0
0
0
0
0
0
0
0
0
0
0
0
0
0
0
0
0
0
0
0
0
0
0
0
0
0
0
0
0
0
0
0
0
0
0
0
0
0
0
0
0
0
0
0
0
0
0
0
0
0
0
0
0
0
0
0
0
0
0
0
0
0
0
0
0
0
0
0
0
0
0
0
0
0
0
0
0
0
0
0
0
0
0
0
0
0
0
0
0
0
0
0
0
0
0
0
0
0
0
0
0
0
0
0
0
0
0
0
0
0
0
0
0
0
0
0
0
0
0
0
0
0
0
0
0
0
0
0
0
0
0
0
0
0
0
0
0
0
0
0
0
0
0
0
0
0
0
0
0
0
0
0
0
0
0
0
0
0
0
0
0
0
0
0
0
0
0
0
0
0
0
0
0
0
0
0
0
0
0
0
0
0
0
0
0
0
0
0
0
0
0
0
0
0
0
0
0
0
0
0
0
0
0
0
0
0
0
0
0
0
0
0
0
0
0
0
0
0
0
0
0
0
0
0
0
0
0
0
0
0
0
0
0
0
0
0
0
0
0
0
0
0
0
0
0
0
0
0
0
0
0
0
0
0
0
0
0
0
0
0
0
0
0
0
0
0
0
0
0
0
0
0
0
0
0
0
0
0
0
0
0
0
0
0
0
0
0
0
0
0
0
0
0
0
0
0
0
0
0
0
0
0
0
0
0
0
0
0
0
0
0
0
0
0
0
0
0
0
0
0
0
0
0
0
0
0
0
0
0
0
0
0
0
0
0
0
0
0
0
0
0
0
0
0
0
0
0
0
0
0
0
0
0
0
0
0
0
0
0
0
0
0
0
0
0
0
0
0
0
0
0
0
0
0
0
0
0
0
0
0
0
0
0
0
0
0
0
0
0
0
0
0
0
0
0
0
0
0
0
0
0
0
0
0
0
0
0
0
0
0
0
0
0
0
0
0
0
0
0
0
0
0
0
0
0
0
0
0
0
0
0
0
0
0
0
0
0
0
0
0
0
0
0
0
0
0
0
0
0
0
0
0
0
0
0
0
0
0
0
0
0
0
0
0
0
0
0
0
0
0
0
0
0
0
0
0
0
0
0
0
0
0
0
0
0
0
0
0
0
0
0
0
0
0
0
0
0
0
0
0
0
0
0
0
0
0
0
0
0
0
0
0
0
0
0
0
0
0
0
0
0
0
0
0
0
0
0
0
0
0
0
0
0
0
0
0
0
0
0
0
0
0
0
0
0
0
0
0
0
0
0
0
0
0
0
0
0
0
0
0
0
0
0
0
0
0
0
0
0
0
0
0
0
0
0
0
0
0
0
0
0
0
0
0
0
0
0
0
0
0
0
0
0
0
0
0
0
0
0
0
0
0
0
0
0
0
0
0
0
0
0
0
0
0
0
0
0
0
0
0
0
0
0
0
0
0
0
0
0
0
0
0
0
0
0
0
0
0
0
0
0
0
0
0
0
0
0
0
0
0
0
0
0
0
0
0
0
0
0
0
0
0
0
0
0
0
0
0
0
0
0
0
0
0
0
0
0
0
0
0
0
0
0
0
0
0
0
0
0
0
0
0
0
0
0
0
0
0
0
0
0
0
0
0
0
0
0
0
0
0
0
0
0
0
0
0
0
0
0
0
0
0
0
0
0
0
0
0
0
0
0
0
0
0
0
0
0
0
0
0
0
0
0
0
0
0
0
0
0
0
0
0
0
0
0
0
0
0
0
0
0
0
0
0
0
0
0
0
0
0
0
0
0
0
0
0
0
0
0
0
0
0
0
0
0
0
0
0
0
0
0
0
0
0
0
0
0
0
0
0
0
0
0
0
0
0
0
0
0
0
0
0
0
0
0
0
0
0
0
0
0
0
0
0
0
0
0
0
0
0
0
0
0
0
0
0
0
0
0
0
0
0
0
0
0
0
0
0
0
0
0
0
0
0
0
0
0
0
0
0
0
0
0
0
0
0
0
0
0
0
0
0
0
0
0
0
0
0
0
0
0
0
0
0
0
0
0
0
0
0
0
0
0
0
0
0
0
0
0
0
0
0
0
0
0
0
0
0
0
0
0
0
0
0
0
0
0
0
0
0
0
0
0
0
0
0
0
0
0
0
0
0
0
0
0
0
0
0
0
0
0
0
0
0
0
0
0
0
0
0
0
0
0
0
0
0
0
0
0
0
0
0
0
0
0
0
0
0
0
0
0
0
0
0
0
0
0
0
0
0
0
0
0
0
0
0
0
0
0
0
0
0
0
0
0
0
0
0
0
0
0
0
0
0
0
0
0
0
0
0
0
0
0
0
0
0
0
0
0
0
0
0
0
0
0
0
0
0
0
0
0
0
0
0
0
0
0
0
0
0
0
0
0
0
0
0
0
0
0
0
0
0
0
0
0
0
0
0
0
0
0
0
0
0
0
0
0
0
0
0
0
0
0
0
0
0
0
0
0
0
0
0
0
0
0
0
0
0
0
0
0
0
0
0
0
0
0
0
0
0
0
0
0
0
0
0
0
0
0
0
0
0
0
0
0
0
0
0
0
0
0
0
0
0
0
0
0
0
0
0
0
0
0
0
0
0
0
0
0
0
0
0
0
0
0
0
0
0
0
0
0
0
0
0
0
0
0
0
0
0
0
0
0
0
0
0
0
0
0
0
0
0
0
0
0
0
0
0
0
0
0
0
0
0
0
0
0
0
0
0
0
0
0
0
0
0
0
0
0
0
0
0
0
0
0
0
0
0
0
0
0
0
0
0
0
0
0
0
0
0
0
0
0
0
0
0
0
0
0
0
0
0
0
0
0
0
0
0
0
0
0
0
0
0
0
0
0
0
0
0
0
0
0
0
0
0
0
0
0
0
0
0
0
0
0
0
0
0
0
0
0
0
0
0
0
0
0
0
0
0
0
0
0
0
0
0
0
0
0
0
0
0
0
0
0
0
0
0
0
0
0
0
0
0
0
0
0
0
0
0
0
0
0
0
0
0
0
0
0
0
0
0
0
0
0
0
0
0
0
0
0
0
0
0
0
0
0
0
0
0
0
0
0
0
0
0
0
0
0
0
0
0
0
0
0
0
0
0
0
0
0
0
0
0
0
0
0
0
0
0
0
0
0
0
0
0
0
0
0
0
0
0
0
0
0
0
0
0
0
0
0
0
0
0
0
0
0
0
0
0
0
0
0
0
0
0
0
0
0
0
0
0
0
0
0
0
0
0
0
0
0
0
0
0
0
0
0
0
0
0
0
0
0
0
0
0
0
0
0
0
0
0
0
0
0
0
0
0
0
0
0
0
0
0
0
0
0
0
0
0
0
0
0
0
0
0
0
0
0
0
0
0
0
0
0
0
0
0
0
0
0
0
0
0
0
0
0
0
0
0
0
0
0
0
0
0
0
0
0
0
0
0
0
0
0
0
0
0
0
0
0
0
0
0
0
0
0
0
0
0
0
0
0
0
0
0
0
0
0
0
0
0
0
0
0
0
0
0
0
0
0
0
0
0
0
0
0
0
0
0
0
0
0
0
0
0
0
0
0
0
0
0
0
0
0
0
0
0
0
0
0
0
0
0
0
0
0
0
0
0
0
0
0
0
0
0
0
0
0
0
0
0
0
0
0
0
0
0
0
0
0
0
0
0
0
0
0
0
0
0
0
0
0
0
0
0
0
0
0
0
0
0
0
0
0
0
0
0
0
0
0
0
0
0
0
0
0
0
0
0
0
0
0
0
0
0
0
0
0
0
0
0
0
0
0
0
0
0
0
0
0
0
0
0
0
0
0
0
0
0
0
0
0
0
0
0
0
0
0
0
0
0
0
0
0
0
0
0
0
0
0
0
0
0
0
0
0
0
0
0
0
0
0
0
0
0
0
0
0
0
0
0
0
0
0
0
0
0
0
0
0
0
0
0
0
0
0
0
0
0
0
0
0
0
0
0
0
0
0
0
0
0
0
0
0
0
0
0
0
0
0
0
0
0
0
0
0
0
0
0
0
0
0
0
0
0
0
0
0
0
0
0
0
0
0
0
0
0
0
0
0
0
0
0
0
0
0
0
0
0
0
0
0
0
0
0
0
0
0
0
0
0
0
0
0
0
0
0
0
0
0
0
0
0
0
0
0
0
0
0
0
0
0
0
0
0
0
0
0
0
0
0
0
0
0
0
0
0
0
0
0
0
0
0
0
0
0
0
0
0
0
0
0
0
0
0
0
0
0
0
0
0
0
0
0
0
0
0
0
0
0
0
0
0
0
0
0
0
0
0
0
0
0
0
0
0
0
0
0
0
0
0
0
0
0
0
0
0
0
0
0
0
1.234416e-296
0
1.21068453e-287
0
6.11684286e-279
0
1.59198633e-270
0
2.13431214e-262
0
1.47393502e-254
0
5.24329382e-247
0
9.60849754e-240
0
9.0715949e-233
0
4.41367879e-226
0
1.10722376e-219
0
1.43364193e-213
0
9.60062254e-208
0
3.33818345e-202
0
4.13396973e-198
0
2.70602949e-194
0
1.23536684e-190
0
4.40270737e-187
0
1.30114507e-183
0
3.30954688e-180
0
7.42857067e-177
0
1.49788814e-173
0
2.74953111e-170
0
4.64176624e-167
0
7.26542501e-164
0
1.06125795e-160
0
1.45439849e-157
0
1.87835658e-154
0
2.29471113e-151
0
2.66018475e-148
0
2.93433177e-145
0
3.08700038e-142
0
3.10366189e-139
0
2.98736131e-136
0
2.75704752e-133
0
2.44302112e-130
0
2.08087894e-127
1.71050711e-129
1.70548943e-124
7.29901245e-126
1.34624191e-121
1.00877286e-122
1.0242538e-118
1.07539857e-119
7.51614782e-116
1.00190423e-116
5.32276861e-113
8.5235564e-114
3.63954842e-110
6.76013787e-111
2.40382422e-107
5.05618539e-108
1.53407856e-104
3.59158245e-105
9.46226403e-102
2.43418609e-102
5.64193082e-99
1.57908913e-99
3.25236337e-96
9.82696767e-97
1.81273218e-93
5.87613109e-94
9.76849656e-91
3.38005251e-91
5.08919405e-88
1.87183516e-88
2.56292743e-85
9.98526397e-86
1.24738024e-82
5.13262977e-83
5.86563843e-80
2.54254753e-80
2.66398785e-77
1.21377123e-77
1.16805308e-74
5.58301929e-75
4.94177728e-72
2.47361381e-72
2.016193e-69
1.05519587e-69
7.92693613e-67
4.33134613e-67
3.0009081e-64
1.70959227e-64
1.09288055e-61
6.48293292e-62
3.82478239e-59
2.35951798e-59
1.28478842e-56
8.2326425e-57
4.13666749e-54
2.74998826e-54
1.27462484e-51
8.78049761e-52
3.75186523e-49
2.67498678e-49
1.05281004e-46
7.75952973e-47
2.80969025e-44
2.13803729e-44
7.11173224e-42
5.58015208e-42
1.70177859e-39
1.37501062e-39
3.83526764e-37
3.18654098e-37
8.1039411e-35
6.91341473e-35
1.59679778e-32
1.39645434e-32
2.9146204e-30
2.60854061e-30
4.88789921e-28
4.46868968e-28
7.45317278e-26
6.94684229e-26
1.01938527e-23
9.66619734e-24
1.22790055e-21
1.18161261e-21
1.26945166e-19
1.23622241e-19
1.08373931e-17
1.06304798e-17
7.17084792e-16
6.9940579e-16
1.36884002e-12
1.59192617e-12
0.192411427
0.392716785
0.544615376
0.461769877
0.0460920241
0.0382346487
0.00453385369
0.00436030408
0.000425771071
0.000422737979
3.5990419e-05
3.61003069e-05
3.31963693e-06
3.32423766e-06
8.64075887e-07
8.6451847e-07
6.98206566e-07
6.98270424e-07
6.88015234e-07
6.88021729e-07
6.87438479e-07
6.87439423e-07
6.87408459e-07
6.87408755e-07
6.87407189e-07
6.87407198e-07
6.87407589e-07
6.8740719e-07
6.87406743e-07
6.87408215e-07
6.87406306e-07
6.87406764e-07
6.87406814e-07
6.87408466e-07
6.8740614e-07
6.87407365e-07
6.87407011e-07
6.87407093e-07
6.87406873e-07
6.87407093e-07
6.87407367e-07
6.87407108e-07
6.87407618e-07
6.87406555e-07
6.87407396e-07
6.87406771e-07
6.87407923e-07
6.87407469e-07
6.87407109e-07
6.87406722e-07
6.87407471e-07
6.87407028e-07
6.87406947e-07
6.8740749e-07
6.87407289e-07
6.87406856e-07
6.87407091e-07
6.87407412e-07
6.87407905e-07
6.87406354e-07
6.87407391e-07
6.8740717e-07
6.87407171e-07
6.87407528e-07
6.87406913e-07
6.87406972e-07
6.87407727e-07
6.87406595e-07
6.87407128e-07
6.87406439e-07
6.8740788e-07
6.87405614e-07
6.87407848e-07
6.87406527e-07
6.87407375e-07
6.87407081e-07
6.87407486e-07
6.8740732e-07
6.87407432e-07
6.87407941e-07
6.87407121e-07
6.87407347e-07
6.8740776e-07
6.87407661e-07
6.87407493e-07
6.87407431e-07
6.87407243e-07
6.87407304e-07
6.87407691e-07
6.87406381e-07
6.87408211e-07
6.87407245e-07
6.87407202e-07
6.87408399e-07
6.87407066e-07
6.87407699e-07
6.87407406e-07
6.87408103e-07
6.87408222e-07
6.87406659e-07
6.87408246e-07
6.87407503e-07
6.87407846e-07
6.87407635e-07
6.87407675e-07
6.87407085e-07
6.87407561e-07
6.87408128e-07
6.87407427e-07
6.87406921e-07
6.87408471e-07
6.87406296e-07
6.87407934e-07
6.8740682e-07
6.87407294e-07
6.87407446e-07
6.87407406e-07
6.87407777e-07
6.8740737e-07
6.8740791e-07
6.87407666e-07
6.87407387e-07
6.87407913e-07
6.87407417e-07
6.87407729e-07
6.87407319e-07
6.874075e-07
6.87407475e-07
6.87408076e-07
6.87407791e-07
6.87407758e-07
6.87406869e-07
6.87408094e-07
6.87408984e-07
6.8740688e-07
6.87408586e-07
6.87407475e-07
6.8740736e-07
6.87408832e-07
6.87406719e-07
6.87408241e-07
6.8740756e-07
6.87408027e-07
6.8740748e-07
6.8740746e-07
6.87408074e-07
6.87407514e-07
6.87408362e-07
6.87407943e-07
6.87408223e-07
6.8740753e-07
6.87408227e-07
6.87408285e-07
6.87408031e-07
6.87407872e-07
6.87408277e-07
6.87407444e-07
6.87408376e-07
6.87407841e-07
6.87407835e-07
6.8740801e-07
6.87407763e-07
6.8740839e-07
6.87407708e-07
6.87408416e-07
6.87408488e-07
6.87408308e-07
6.87407839e-07
6.87408109e-07
6.87407961e-07
6.87407559e-07
6.87407485e-07
6.87407915e-07
6.87407745e-07
6.87407619e-07
6.87408023e-07
6.8740873e-07
6.87407839e-07
6.87408123e-07
6.87409383e-07
6.87408761e-07
6.87409185e-07
6.87408341e-07
6.87408111e-07
6.87408354e-07
6.87408225e-07
6.87409085e-07
6.87408072e-07
6.87408828e-07
6.87408295e-07
6.87408866e-07
6.87408425e-07
6.87408873e-07
6.87408697e-07
6.87409191e-07
6.87408016e-07
6.87408912e-07
6.87408019e-07
6.87409074e-07
6.87407316e-07
6.87409187e-07
6.87408539e-07
6.87408025e-07
6.87409259e-07
6.8740825e-07
6.87408332e-07
6.87408739e-07
6.87408782e-07
6.87408731e-07
6.87408574e-07
6.87409545e-07
6.87407369e-07
6.87409296e-07
6.87408776e-07
6.87408929e-07
6.87408681e-07
6.87408773e-07
6.87408821e-07
6.87408901e-07
6.87409728e-07
6.87408229e-07
6.87409451e-07
6.87408535e-07
6.8740904e-07
6.87408794e-07
6.87408421e-07
6.87408858e-07
6.87408888e-07
6.87408889e-07
6.87408983e-07
6.8740909e-07
6.87408626e-07
6.87409365e-07
6.87408644e-07
6.87409438e-07
6.87409296e-07
6.87409342e-07
6.87409628e-07
6.87408701e-07
6.87409524e-07
6.87409516e-07
6.87409236e-07
6.87409118e-07
6.87408984e-07
6.87409852e-07
6.87409095e-07
6.87408788e-07
6.87409162e-07
6.8740905e-07
6.87409287e-07
6.87409081e-07
6.87409878e-07
6.87409697e-07
6.87409557e-07
6.87408362e-07
6.87409463e-07
6.87409999e-07
6.87409222e-07
6.8740999e-07
6.87408849e-07
6.87410051e-07
6.8740976e-07
6.87410091e-07
6.87408694e-07
6.87410875e-07
6.87409231e-07
6.87409255e-07
6.87409179e-07
6.87409328e-07
6.87408827e-07
6.87409877e-07
6.8740991e-07
6.87409318e-07
6.87410771e-07
6.87409214e-07
6.87410446e-07
6.87409072e-07
6.87409985e-07
6.87410075e-07
6.87409574e-07
6.87410389e-07
6.8740837e-07
6.87410075e-07
6.87409914e-07
6.8741017e-07
6.87409646e-07
6.87409261e-07
6.87409892e-07
6.87409691e-07
6.87410011e-07
6.87408982e-07
6.87409672e-07
6.87409868e-07
6.87408888e-07
6.87410307e-07
6.87409165e-07
6.87409755e-07
6.87409832e-07
6.87410736e-07
6.87409868e-07
6.87410581e-07
6.87409706e-07
6.87409615e-07
6.87410122e-07
6.87410201e-07
6.87409958e-07
6.87410617e-07
6.87409666e-07
6.87410385e-07
6.8741008e-07
6.87410321e-07
6.87409903e-07
6.87408772e-07
6.87410838e-07
6.87409614e-07
6.87410077e-07
6.87410795e-07
6.87409108e-07
6.87410406e-07
6.87409771e-07
6.8741006e-07
6.87410467e-07
6.87409737e-07
6.8740984e-07
6.87409659e-07
6.87410484e-07
6.87410006e-07
6.87410031e-07
6.87410135e-07
6.87409617e-07
6.87410361e-07
6.87410258e-07
6.87409434e-07
6.87409732e-07
6.87410021e-07
6.87409642e-07
6.87410351e-07
6.87409349e-07
6.87410607e-07
6.8740954e-07
6.87410649e-07
6.87410012e-07
6.87410341e-07
6.87410463e-07
6.8740992e-07
6.87410468e-07
6.8740961e-07
6.87410944e-07
6.87409741e-07
6.87410216e-07
6.87409492e-07
6.87410305e-07
6.87410297e-07
6.87409605e-07
6.87411132e-07
6.87409682e-07
6.87410434e-07
6.87410384e-07
6.87410908e-07
6.87409872e-07
6.87410453e-07
6.87409529e-07
6.8741049e-07
6.87410216e-07
6.87409909e-07
6.87410709e-07
6.87410792e-07
6.87410449e-07
6.87410691e-07
6.87410543e-07
6.87410668e-07
6.87410804e-07
6.87409776e-07
6.87411402e-07
6.87409791e-07
6.87410479e-07
6.87410085e-07
6.87409681e-07
6.87410757e-07
6.87409564e-07
6.87410809e-07
6.87410124e-07
6.87409774e-07
6.87409876e-07
6.87410186e-07
6.87410122e-07
6.87409783e-07
6.87410123e-07
6.87410351e-07
6.87410042e-07
6.87410468e-07
6.87410256e-07
6.8741021e-07
6.87410085e-07
6.87409661e-07
6.87411229e-07
6.87410029e-07
6.87410537e-07
6.87409929e-07
6.87410303e-07
6.8740964e-07
6.87410143e-07
6.87410008e-07
6.87411379e-07
6.87409735e-07
6.87410711e-07
6.87409397e-07
6.87410698e-07
6.87409957e-07
6.87410845e-07
6.87410675e-07
6.87410579e-07
6.87409916e-07
6.87409774e-07
6.87410902e-07
6.87409557e-07
6.87410636e-07
6.87410232e-07
6.87410096e-07
6.87409888e-07
6.87410741e-07
6.87409978e-07
6.87409917e-07
6.874101e-07
6.87410665e-07
6.87410004e-07
6.87409883e-07
6.87411159e-07
6.87409882e-07
6.87411042e-07
6.87410618e-07
6.87410881e-07
6.8741029e-07
6.87410344e-07
6.87410922e-07
6.8741048e-07
6.87410572e-07
6.87410425e-07
6.8741037e-07
6.87410269e-07
6.87410844e-07
6.87410128e-07
6.87410072e-07
6.87410016e-07
6.87410555e-07
6.87410297e-07
6.87411034e-07
6.87410387e-07
6.87410186e-07
6.87411069e-07
6.87409212e-07
6.87409875e-07
6.87410828e-07
6.8740964e-07
6.8741058e-07
6.8741056e-07
6.87410567e-07
6.87409805e-07
6.87410497e-07
6.8741032e-07
6.87409396e-07
6.87410653e-07
6.87410269e-07
6.87409928e-07
6.87409931e-07
6.87409874e-07
6.87411223e-07
6.8740952e-07
6.87411133e-07
6.87410381e-07
6.87410278e-07
6.87410538e-07
6.87409801e-07
6.87410596e-07
6.87410203e-07
6.87410556e-07
6.87410487e-07
6.87410236e-07
6.87409966e-07
6.87410069e-07
6.87409447e-07
6.87410295e-07
6.87410368e-07
6.87410606e-07
6.87410351e-07
6.8740984e-07
6.87410875e-07
6.87410119e-07
6.87410653e-07
6.87409858e-07
6.87409875e-07
6.87410639e-07
6.87410719e-07
6.87410764e-07
6.8740991e-07
6.87409918e-07
6.8741048e-07
6.87409794e-07
6.87411154e-07
6.87409698e-07
6.87410989e-07
6.87409386e-07
6.87410076e-07
6.87410792e-07
6.87410166e-07
6.87410694e-07
6.8741021e-07
6.8741031e-07
6.87410024e-07
6.87410103e-07
6.8741048e-07
6.87410024e-07
6.87410254e-07
6.87410175e-07
6.87410376e-07
6.8741037e-07
6.87410119e-07
6.87410186e-07
6.87410286e-07
6.87410186e-07
6.87410214e-07
6.87410295e-07
6.87410243e-07
6.87410234e-07
6.87410206e-07
6.87410177e-07
6.87410233e-07
6.8741024e-07
6.87410229e-07
6.87410271e-07
6.87410228e-07
6.87410236e-07
6.87410227e-07
6.87410233e-07
6.87410267e-07
6.87410236e-07
6.87410217e-07
6.87410218e-07
6.87410241e-07
6.87410234e-07
6.87410232e-07
6.87410235e-07
6.87410232e-07
6.87410233e-07
6.87410239e-07
6.87410236e-07
6.87410241e-07
6.87410216e-07
6.87410239e-07
6.87410228e-07
6.87410229e-07
6.87410236e-07
6.87410232e-07
6.87410232e-07
6.87410242e-07
6.87410229e-07
6.87410232e-07
6.8741022e-07
6.87410229e-07
6.87410237e-07
6.87410238e-07
6.87410237e-07
6.87410236e-07
6.87410223e-07
6.87410239e-07
6.87410231e-07
6.87410233e-07
6.87410234e-07
6.87410227e-07
6.87410248e-07
6.87410232e-07
6.87410238e-07
6.8741023e-07
6.87410228e-07
6.87410239e-07
6.87410229e-07
6.87410227e-07
6.87410235e-07
)
;

boundaryField
{
    closed
    {
        type            calculated;
        value           uniform 0;
    }
    open
    {
        type            calculated;
        value           uniform 0;
    }
    sides
    {
        type            empty;
    }
}


// ************************************************************************* //
