/*--------------------------------*- C++ -*----------------------------------*\
| =========                 |                                                 |
| \\      /  F ield         | OpenFOAM: The Open Source CFD Toolbox           |
|  \\    /   O peration     | Version:  2206                                  |
|   \\  /    A nd           | Website:  www.openfoam.com                      |
|    \\/     M anipulation  |                                                 |
\*---------------------------------------------------------------------------*/
FoamFile
{
    version     2.0;
    format      ascii;
    arch        "LSB;label=32;scalar=64";
    class       volScalarField;
    location    "8.2e-06";
    object      p;
}
// * * * * * * * * * * * * * * * * * * * * * * * * * * * * * * * * * * * * * //

dimensions      [1 -1 -2 0 0 0 0];

internalField   nonuniform List<scalar> 
3183
(
101325
101325
101325
101325
101325
101325
101325
101325
101325
101325
101325
101325
101325
101325
101325
101325
101325
101325
101325
101325
101325
101325
101325
101325
101325
101325
101325
101325
101325
101325
101325
101325
101325
101325
101325
101325
101325
101325
101325
101325
101325
101325
101325
101325
101325
101325
101325
101325
101325
101325
101325
101325
101325
101325
101325
101325
101325
101325
101325
101325
101325
101325
101325
101325
101325
101325
101325
101325
101325
101325
101325
101325
101325
101325
101325
101325
101325
101325
101325
101325
101325
101325
101325
101325
101325
101325
101325
101325
101325
101325
101325
101325
101325
101325
101325
101325
101325
101325
101325
101325
101325
101325
101325
101325
101325
101325
101325
101325
101325
101325
101325
101325
101325
101325
101325
101325
101325
101325
101325
101325
101325
101325
101325
101325
101325
101325
101325
101325
101325
101325
101325
101325
101325
101325
101325
101325
101325
101325
101325
101325
101325
101325
101325
101325
101325
101325
101325
101325
101325
101325
101325
101325
101325
101325
101325
101325
101325
101325
101325
101325
101325
101325
101325
101325
101325
101325
101325
101325
101325
101325
101325
101325
101325
101325
101325
101325
101325
101325
101325
101325
101325
101325
101325
101325
101325
101325
101325
101325
101325
101325
101325
101325
101325
101325
101325
101325
101325
101325
101325
101325
101325
101325
101325
101325
101325
101325
101325
101325
101325
101325
101325
101325
101325
101325
101325
101325
101325
101325
101325
101325
101325
101325
101325
101325
101325
101325
101325
101325
101325
101325
101325
101325
101325
101325
101325
101325
101325
101325
101325
101325
101325
101325
101325
101325
101325
101325
101325
101325
101325
101325
101325
101325
101325
101325
101325
101325
101325
101325
101325
101325
101325
101325
101325
101325
101325
101325
101325
101325
101325
101325
101325
101325
101325
101325
101325
101325
101325
101325
101325
101325
101325
101325
101325
101325
101325
101325
101325
101325
101325
101325
101325
101325
101325
101325
101325
101325
101325
101325
101325
101325
101325
101325
101325
101325
101325
101325
101325
101325
101325
101325
101325
101325
101325
101325
101325
101325
101325
101325
101325
101325
101325
101325
101325
101325
101325
101325
101325
101325
101325
101325
101325
101325
101325
101325
101325
101325
101325
101325
101325
101325
101325
101325
101325
101325
101325
101325
101325
101325
101325
101325
101325
101325
101325
101325
101325
101325
101325
101325
101325
101325
101325
101325
101325
101325
101325
101325
101325
101325
101325
101325
101325
101325
101325
101325
101325
101325
101325
101325
101325
101325
101325
101325
101325
101325
101325
101325
101325
101325
101325
101325
101325
101325
101325
101325
101325
101325
101325
101325
101325
101325
101325
101325
101325
101325
101325
101325
101325
101325
101325
101325
101325
101325
101325
101325
101325
101325
101325
101325
101325
101325
101325
101325
101325
101325
101325
101325
101325
101325
101325
101325
101325
101325
101325
101325
101325
101325
101325
101325
101325
101325
101325
101325
101325
101325
101325
101325
101325
101325
101325
101325
101325
101325
101325
101325
101325
101325
101325
101325
101325
101325
101325
101325
101325
101325
101325
101325
101325
101325
101325
101325
101325
101325
101325
101325
101325
101325
101325
101325
101325
101325
101325
101325
101325
101325
101325
101325
101325
101325
101325
101325
101325
101325
101325
101325
101325
101325
101325
101325
101325
101325
101325
101325
101325
101325
101325
101325
101325
101325
101325
101325
101325
101325
101325
101325
101325
101325
101325
101325
101325
101325
101325
101325
101325
101325
101325
101325
101325
101325
101325
101325
101325
101325
101325
101325
101325
101325
101325
101325
101325
101325
101325
101325
101325
101325
101325
101325
101325
101325
101325
101325
101325
101325
101325
101325
101325
101325
101325
101325
101325
101325
101325
101325
101325
101325
101325
101325
101325
101325
101325
101325
101325
101325
101325
101325
101325
101325
101325
101325
101325
101325
101325
101325
101325
101325
101325
101325
101325
101325
101325
101325
101325
101325
101325
101325
101325
101325
101325
101325
101325
101325
101325
101325
101325
101325
101325
101325
101325
101325
101325
101325
101325
101325
101325
101325
101325
101325
101325
101325
101325
101325
101325
101325
101325
101325
101325
101325
101325
101325
101325
101325
101325
101325
101325
101325
101325
101325
101325
101325
101325
101325
101325
101325
101325
101325
101325
101325
101325
101325
101325
101325
101325
101325
101325
101325
101325
101325
101325
101325
101325
101325
101325
101325
101325
101325
101325
101325
101325
101325
101325
101325
101325
101325
101325
101325
101325
101325
101325
101325
101325
101325
101325
101325
101325
101325
101325
101325
101325
101325
101325
101325
101325
101325
101325
101325
101325
101325
101325
101325
101325
101325
101325
101325
101325
101325
101325
101325
101325
101325
101325
101325
101325
101325
101325
101325
101325
101325
101325
101325
101325
101325
101325
101325
101325
101325
101325
101325
101325
101325
101325
101325
101325
101325
101325
101325
101325
101325
101325
101325
101325
101325
101325
101325
101325
101325
101325
101325
101325
101325
101325
101325
101325
101325
101325
101325
101325
101325
101325
101325
101325
101325
101325
101325
101325
101325
101325
101325
101325
101325
101325
101325
101325
101325
101325
101325
101325
101325
101325
101325
101325
101325
101325
101325
101325
101325
101325
101325
101325
101325
101325
101325
101325
101325
101325
101325
101325
101325
101325
101325
101325
101325
101325
101325
101325
101325
101325
101325
101325
101325
101325
101325
101325
101325
101325
101325
101325
101325
101325
101325
101325
101325
101325
101325
101325
101325
101325
101325
101325
101325
101325
101325
101325
101325
101325
101325
101325
101325
101325
101325
101325
101325
101325
101325
101325
101325
101325
101325
101325
101325
101325
101325
101325
101325
101325
101325
101325
101325
101325
101325
101325
101325
101325
101325
101325
101325
101325
101325
101325
101325
101325
101325
101325
101325
101325
101325
101325
101325
101325
101325
101325
101325
101325
101325
101325
101325
101325
101325
101325
101325
101325
101325
101325
101325
101325
101325
101325
101325
101325
101325
101325
101325
101325
101325
101325
101325
101325
101325
101325
101325
101325
101325
101325
101325
101325
101325
101325
101325
101325
101325
101325
101325
101325
101325
101325
101325
101325
101325
101325
101325
101325
101325
101325
101325
101325
101325
101325
101325
101325
101325
101325
101325
101325
101325
101325
101325
101325
101325
101325
101325
101325
101325
101325
101325
101325
101325
101325
101325
101325
101325
101325
101325
101325
101325
101325
101325
101325
101325
101325
101325
101325
101325
101325
101325
101325
101325
101325
101325
101325
101325
101325
101325
101325
101325
101325
101325
101325
101325
101325
101325
101325
101325
101325
101325
101325
101325
101325
101325
101325
101325
101325
101325
101325
101325
101325
101325
101325
101325
101325
101325
101325
101325
101325
101325
101325
101325
101325
101325
101325
101325
101325
101325
101325
101325
101325
101325
101325
101325
101325
101325
101325
101325
101325
101325
101325
101325
101325
101325
101325
101325
101325
101325
101325
101325
101325
101325
101325
101325
101325
101325
101325
101325
101325
101325
101325
101325
101325
101325
101325
101325
101325
101325
101325
101325
101325
101325
101325
101325
101325
101325
101325
101325
101325
101325
101325
101325
101325
101325
101325
101325
101325
101325
101325
101325
101325
101325
101325
101325
101325
101325
101325
101325
101325
101325
101325
101325
101325
101325
101325
101325
101325
101325
101325
101325
101325
101325
101325
101325
101325
101325
101325
101325
101325
101325
101325
101325
101325
101325
101325
101325
101325
101325
101325
101325
101325
101325
101325
101325
101325
101325
101325
101325
101325
101325
101325
101325
101325
101325
101325
101325
101325
101325
101325
101325
101325
101325
101325
101325
101325
101325
101325
101325
101325
101325
101325
101325
101325
101325
101325
101325
101325
101325
101325
101325
101325
101325
101325
101325
101325
101325
101325
101325
101325
101325
101325
101325
101325
101325
101325
101325
101325
101325
101325
101325
101325
101325
101325
101325
101325
101325
101325
101325
101325
101325
101325
101325
101325
101325
101325
101325
101325
101325
101325
101325
101325
101325
101325
101325
101325
101325
101325
101325
101325
101325
101325
101325
101325
101325
101325
101325
101325
101325
101325
101325
101325
101325
101325
101325
101325
101325
101325
101325
101325
101325
101325
101325
101325
101325
101325
101325
101325
101325
101325
101325
101325
101325
101325
101325
101325
101325
101325
101325
101325
101325
101325
101325
101325
101325
101325
101325
101325
101325
101325
101325
101325
101325
101325
101325
101325
101325
101325
101325
101325
101325
101325
101325
101325
101325
101325
101325
101325
101325
101325
101325
101325
101325
101325
101325
101325
101325
101325
101325
101325
101325
101325
101325
101325
101325
101325
101325
101325
101325
101325
101325
101325
101325
101325
101325
101325
101325
101325
101325
101325
101325
101325
101325
101325
101325
101325
101325
101325
101325
101325
101325
101325
101325
101325
101325
101325
101325
101325
101325
101325
101325
101325
101325
101325
101325
101325
101325
101325
101325
101325
101325
101325
101325
101325
101325
101325
101325
101325
101325
101325
101325
101325
101325
101325
101325
101325
101325
101325
101325
101325
101325
101325
101325
101325
101325
101325
101325
101325
101325
101325
101325
101325
101325
101325
101325
101325
101325
101325
101325
101325
101325
101325
101325
101325
101325
101325
101325
101325
101325
101325
101325
101325
101325
101325
101325
101325
101325
101325
101325
101325
101325
101325
101325
101325
101325
101325
101325
101325
101325
101325
101325
101325
101325
101325
101325
101325
101325
101325
101325
101325
101325
101325
101325
101325
101325
101325
101325
101325
101325
101325
101325
101325
101325
101325
101325
101325
101325
101325
101325
101325
101325
101325
101325
101325
101325
101325
101325
101325
101325
101325
101325
101325
101325
101325
101325
101325
101325
101325
101325
101325
101325
101325
101325
101325
101325
101325
101325
101325
101325
101325
101325
101325
101325
101325
101325
101325
101325
101325
101325
101325
101325
101325
101325
101325
101325
101325
101325
101325
101325
101325
101325
101325
101325
101325
101325
101325
101325
101325
101325
101325
101325
101325
101325
101325
101325
101325
101325
101325
101325
101325
101325
101325
101325
101325
101325
101325
101325
101325
101325
101325
101325
101325
101325
101325
101325
101325
101325
101325
101325
101325
101325
101325
101325
101325
101325
101325
101325
101325
101325
101325
101325
101325
101325
101325
101325
101325
101325
101325
101325
101325
101325
101325
101325
101325
101325
101325
101325
101325
101325
101325
101325
101325
101325
101325
101325
101325
101325
101325
101325
101325
101325
101325
101325
101325
101325
101325
101325
101325
101325
101325
101325
101325
101325
101325
101325
101325
101325
101325
101325
101325
101325
101325
101325
101325
101325
101325
101325
101325
101325
101325
101325
101325
101325
101325
101325
101325
101325
101325
101325
101325
101325
101325
101325
101325
101325
101325
101325
101325
101325
101325
101325
101325
101325
101325
101325
101325
101325
101325
101325
101325
101325
101325
101325
101325
101325
101325
101325
101325
101325
101325
101325
101325
101325
101325
101325
101325
101325
101325
101325
101325
101325
101325
101325
101325
101325
101325
101325
101325
101325
101325
101325
101325
101325
101325
101325
101325
101325
101325
101325
101325
101325
101325
101325
101325
101325
101325
101325
101325
101325
101325
101325
101325
101325
101325
101325
101325
101325
101325
101325
101325
101325
101325
101325
101325
101325
101325
101325
101325
101325
101325
101325
101325
101325
101325
101325
101325
101325
101325
101325
101325
101325
101325
101325
101325
101325
101325
101325
101325
101325
101325
101325
101325
101325
101325
101325
101325
101325
101325
101325
101325
101325
101325
101325
101325
101325
101325
101325
101325
101325
101325
101325
101325
101325
101325
101325
101325
101325
101325
101325
101325
101325
101325
101325
101325
101325
101325
101325
101325
101325
101325
101325
101325
101325
101325
101325
101325
101325
101325
101325
101325
101325
101325
101325
101325
101325
101325
101325
101325
101325
101325
101325
101325
101325
101325
101325
101325
101325
101325
101325
101325
101325
101325
101325
101325
101325
101325
101325
101325
101325
101325
101325
101325
101325
101325
101325
101325
101325
101325
101325
101325
101325
101325
101325
101325
101325
101325
101325
101325
101325
101325
101325
101325
101325
101325
101325
101325
101325
101325
101325
101325
101325
101325
101325
101325
101325
101325
101325
101325
101325
101325
101325
101325
101325
101325
101325
101325
101325
101325
101325
101325
101325
101325
101325
101325
101325
101325
101325
101325
101325
101325
101325
101325
101325
101325
101325
101325
101325
101325
101325
101325
101325
101325
101325
101325
101325
101325
101325
101325
101325
101325
101325
101325
101325
101325
101325
101325
101325
101325
101325
101325
101325
101325
101325
101325
101325
101325
101325
101325
101325
101325
101325
101325
101325
101325
101325
101325
101325
101325
101325
101325
101325
101325
101325
101325
101325
101325
101325
101325
101325
101325
101325
101325
101325
101325
101325
101325
101325
101325
101325
101325
101325
101325
101325
101325
101325
101325
101325
101325
101325
101325
101325
101325
101325
101325
101325
101325
101325
101325
101325
101325
101325
101325
101325
101325
101325
101325
101325
101325
101325
101325
101325
101325
101325
101325
101325
101325
101325
101325
101325
101325
101325
101325
101325
101325
101325
101325
101325
101325
101325
101325
101325
101325
101325
101325
101325
101325
101325
101325
101325
101325
101325
101325
101325
101325
101325
101325
101325
101325
101325
101325
101325
101325
101325
101325
101325
101325
101325
101325
101325
101325
101325
101325
101325
101325
101325
101325
101325
101325
101325
101325
101325
101325
101325
101325
101325
101325
101325
101325
101325
101325
101325
101325
101325
101325
101325
101325
101325
101325
101325
101325
101325
101325
101325
101325
101325
101325
101325
101325
101325
101325
101325
101325
101325
101325
101325
101325
101325
101325
101325
101325
101325
101325
101325
101325
101325
101325
101325
101325
101325
101325
101325
101325
101325
101325
101325
101325
101325
101325
101325
101325
101325
101325
101325
101325
101325
101325
101325
101325
101325
101325
101325
101325
101325
101325
101325
101325
101325
101325
101325
101325
101325
101325
101325
101325
101325
101325
101325
101325
101325
101325
101325
101325
101325
101325
101325
101325
101325
101325
101325
101325
101325
101325
101325
101325
101325
101325
101325
101325
101325
101325
101325
101324.999
101324.999
101324.999
101324.999
101324.999
101324.999
101324.999
101324.999
101324.999
101324.999
101324.999
101324.999
101324.999
101324.999
101324.998
101324.998
101324.998
101324.998
101324.998
101324.998
101324.998
101324.997
101324.997
101324.997
101324.997
101324.997
101324.996
101324.996
101324.996
101324.995
101324.995
101324.995
101324.994
101324.994
101324.994
101324.993
101324.993
101324.992
101324.991
101324.991
101324.99
101324.989
101324.989
101324.988
101324.987
101324.986
101324.985
101324.984
101324.983
101324.982
101324.981
101324.979
101324.978
101324.976
101324.975
101324.973
101324.971
101324.969
101324.967
101324.965
101324.962
101324.96
101324.957
101324.954
101324.951
101324.948
101324.945
101324.941
101324.937
101324.933
101324.929
101324.924
101324.919
101324.914
101324.908
101324.902
101324.896
101324.89
101324.883
101324.875
101324.868
101324.859
101324.851
101324.841
101324.832
101324.821
101324.81
101324.799
101324.787
101324.774
101324.76
101324.746
101324.731
101324.715
101324.698
101324.681
101324.662
101324.642
101324.622
101324.6
101324.577
101324.553
101324.528
101324.501
101324.473
101324.444
101324.413
101324.381
101324.347
101324.311
101324.274
101324.235
101324.194
101324.151
101324.106
101324.058
101324.009
101323.957
101323.903
101323.847
101323.787
101323.726
101323.661
101323.594
101323.523
101323.45
101323.373
101323.294
101323.21
101323.124
101323.034
101322.94
101322.842
101322.74
101322.634
101322.524
101322.41
101322.292
101322.168
101322.041
101321.908
101321.771
101321.628
101321.48
101321.328
101321.169
101321.006
101320.836
101320.661
101320.48
101320.293
101320.1
101319.901
101319.696
101319.484
101319.266
101319.041
101318.81
101318.572
101318.327
101318.075
101317.817
101317.551
101317.279
101316.999
101316.712
101316.418
101316.117
101315.809
101315.493
101315.171
101314.841
101314.504
101314.16
101313.809
101313.451
101313.087
101312.715
101312.337
101311.952
101311.561
101311.164
101310.76
101310.35
101309.935
101309.514
101309.088
101308.656
101308.22
101307.779
101307.334
101306.884
101306.431
101305.975
101305.515
101305.052
101304.587
101304.12
101303.651
101303.181
101302.71
101302.239
101301.767
101301.296
101300.826
101300.357
101299.89
101299.425
101298.963
101298.504
101298.049
101297.598
101297.152
101296.711
101296.276
101295.847
101295.424
101295.009
101294.602
101294.203
101293.813
101293.432
101293.061
101292.699
101292.349
101292.009
101291.681
101291.365
101291.061
101290.77
101290.492
101290.227
101289.976
101289.738
101289.516
101289.307
101289.114
101288.935
101288.772
101288.624
101288.491
101288.374
101288.273
101288.187
101288.117
101288.063
101288.025
101288.002
101287.994
101288.002
101288.026
101288.064
101288.118
101288.186
101288.268
101288.365
101288.475
101288.599
101288.736
101288.885
101289.047
101289.221
101289.407
101289.603
101289.81
101290.027
101290.254
101290.489
101290.733
101290.986
101291.245
101291.511
101291.784
101292.063
101292.346
101292.635
101292.927
101293.223
101293.522
101293.823
101294.126
101294.431
101294.736
101295.041
101295.347
101295.652
101295.955
101296.257
101296.557
101296.854
101297.149
101297.44
101297.728
101298.011
101298.291
101298.565
101298.835
101299.1
101299.36
101299.614
101299.862
101300.104
101300.341
101300.571
101300.795
101301.012
101301.223
101301.428
101301.627
101301.819
101302.005
101302.184
101302.357
101302.524
101302.686
101302.841
101302.99
101303.134
101303.272
101303.405
101303.533
101303.656
101303.774
101303.888
101303.997
101304.103
101304.204
101304.302
101304.396
101304.487
101304.575
101304.659
101304.742
101304.821
101304.899
101304.974
101305.047
101305.119
101305.189
101305.257
101305.324
101305.389
101305.453
101305.516
101305.578
101305.638
101305.698
101305.756
101305.813
101305.87
101305.925
101305.979
101306.031
101306.083
101306.133
101306.181
101306.228
101306.274
101306.318
101306.359
101306.399
101306.437
101306.473
101306.507
101306.539
101306.568
101306.595
101306.619
101306.641
101306.66
101306.678
101306.692
101306.705
101306.715
101306.723
101306.729
101306.733
101306.735
101306.736
101306.736
101306.734
101306.732
101306.729
101306.727
101306.724
101306.722
101306.721
101306.721
101306.722
101306.726
101306.732
101306.741
101306.753
101306.769
101306.788
101306.812
101306.84
101306.873
101306.91
101306.954
101307.002
101307.056
101307.115
101307.18
101307.251
101307.327
101307.409
101307.495
101307.587
101307.683
101307.783
101307.886
101307.993
101308.103
101308.215
101308.329
101308.443
101308.558
101308.672
101308.785
101308.896
101309.004
101309.109
101309.211
101309.308
101309.4
101309.486
101309.566
101309.64
101309.708
101309.768
101309.822
101309.868
101309.908
101309.941
101309.967
101309.987
101310.002
101310.011
101310.016
101310.017
101310.014
101310.009
101310.001
101309.993
101309.984
101309.974
101309.966
101309.958
101309.952
101309.947
101309.945
101309.946
101309.948
101309.953
101309.961
101309.971
101309.983
101309.997
101310.014
101310.032
101310.051
101310.073
101310.097
101310.122
101310.151
101310.184
101310.224
101310.268
101310.309
101310.357
101310.74
101310.934
101310.872
101309.794
101309.73
101309.77
101309.956
101309.987
101310.084
101310.091
101310.1
101310.08
101310.061
101310.038
101310.016
101309.995
101309.976
101309.957
101309.94
101309.923
101309.907
101309.891
101309.876
101309.862
101309.848
101309.835
101309.822
101309.809
101309.797
101309.785
101309.774
101309.763
101309.752
101309.743
101309.733
101309.725
101309.717
101309.709
101309.702
101309.696
101309.691
101309.686
101309.682
101309.678
101309.675
101309.673
101309.672
101309.671
101309.671
101309.672
101309.673
101309.674
101309.676
101309.678
101309.681
101309.683
101309.686
101309.689
101309.691
101309.693
101309.696
101309.697
101309.698
101309.699
101309.698
101309.697
101309.695
101309.692
101309.688
101309.683
101309.676
101309.668
101309.658
101309.647
101309.634
101309.62
101309.604
101309.586
101309.566
101309.545
101309.521
101309.496
101309.469
101309.44
101309.409
101309.377
101309.343
101309.306
101309.269
101309.229
101309.188
101309.145
101309.101
101309.055
101309.008
101308.96
101308.91
101308.859
101308.807
101308.754
101308.7
101308.646
101308.591
101308.535
101308.478
101308.421
101308.364
101308.307
101308.249
101308.192
101308.134
101308.077
101308.02
101307.963
101307.906
101307.85
101307.795
101307.74
101307.686
101307.633
101307.581
101307.529
101307.479
101307.429
101307.381
101307.334
101307.288
101307.243
101307.199
101307.157
101307.116
101307.076
101307.038
101307.001
101306.965
101306.931
101306.898
101306.867
101306.837
101306.809
101306.782
101306.756
101306.731
101306.708
101306.687
101306.666
101306.647
101306.629
101306.613
101306.597
101306.583
101306.569
101306.557
101306.546
101306.536
101306.527
101306.519
101306.511
101306.505
101306.499
101306.494
101306.489
101306.485
101306.482
101306.479
101306.477
101306.475
101306.473
101306.472
101306.471
101306.471
101306.47
101306.47
101306.47
101306.469
101306.469
101306.469
101306.469
101306.468
101306.468
101306.467
101306.466
101306.464
101306.463
101306.461
101306.458
101306.456
101306.453
101306.449
101306.445
101306.441
101306.436
101306.431
101306.425
101306.418
101306.411
101306.404
101306.395
101306.387
101306.377
101306.367
101306.357
101306.345
101306.334
101306.321
101306.308
101306.294
101306.28
101306.265
101306.25
101306.234
101306.217
101306.2
101306.182
101306.164
101306.145
101306.125
101306.105
101306.085
101306.064
101306.042
101306.02
101305.998
101305.975
101305.951
101305.928
101305.903
101305.879
101305.854
101305.828
101305.803
101305.776
101305.75
101305.723
101305.696
101305.669
101305.641
101305.613
101305.585
101305.556
101305.527
101305.498
101305.469
101305.44
101305.41
101305.38
101305.35
101305.319
101305.288
101305.257
101305.226
101305.195
101305.163
101305.132
101305.099
101305.067
101305.035
101305.002
101304.969
101304.935
101304.902
101304.868
101304.834
101304.799
101304.764
101304.729
101304.694
101304.658
101304.621
101304.585
101304.547
101304.51
101304.472
101304.433
101304.394
101304.355
101304.315
101304.274
101304.233
101304.191
101304.148
101304.105
101304.061
101304.017
101303.971
101303.925
101303.878
101303.831
101303.782
101303.733
101303.682
101303.631
101303.579
101303.526
101303.471
101303.416
101303.36
101303.302
101303.244
101303.184
101303.123
101303.061
101302.998
101302.933
101302.868
101302.801
101302.732
101302.662
101302.591
101302.519
101302.445
101302.369
101302.292
101302.214
101302.134
101302.053
101301.97
101301.885
101301.799
101301.712
101301.623
101301.532
101301.439
101301.345
101301.25
101301.152
101301.053
101300.952
101300.85
101300.746
101300.64
101300.533
101300.424
101300.313
101300.201
101300.086
101299.971
101299.853
101299.734
101299.613
101299.491
101299.367
101299.241
101299.114
101298.985
101298.854
101298.722
101298.589
101298.454
101298.317
101298.179
101298.04
101297.899
101297.757
101297.613
101297.469
101297.322
101297.175
101297.026
101296.877
101296.726
101296.574
101296.421
101296.267
101296.112
101295.956
101295.799
101295.641
101295.483
101295.324
101295.164
101295.004
101294.843
101294.681
101294.519
101294.357
101294.194
101294.032
101293.869
101293.705
101293.542
101293.379
101293.216
101293.053
101292.89
101292.727
101292.565
101292.403
101292.242
101292.081
101291.921
101291.761
101291.602
101291.444
101291.287
101291.131
101290.976
101290.822
101290.67
101290.518
101290.368
101290.22
101290.073
101289.927
101289.784
101289.641
101289.501
101289.363
101289.226
101289.092
101288.96
101288.829
101288.702
101288.576
101288.453
101288.332
101288.214
101288.098
101287.985
101287.875
101287.768
101287.663
101287.561
101287.463
101287.367
101287.275
101287.185
101287.099
101287.016
101286.937
101286.861
101286.788
101286.719
101286.653
101286.591
101286.533
101286.478
101286.427
101286.38
101286.336
101286.296
101286.261
101286.229
101286.201
101286.177
101286.157
101286.141
101286.129
101286.122
101286.118
101286.118
101286.123
101286.132
101286.145
101286.162
101286.183
101286.208
101286.238
101286.272
101286.31
101286.352
101286.399
101286.45
101286.504
101286.564
101286.627
101286.694
101286.766
101286.842
101286.921
101287.005
101287.093
101287.185
101287.282
101287.382
101287.486
101287.594
101287.706
101287.822
101287.941
101288.065
101288.192
101288.323
101288.458
101288.597
101288.739
101288.884
101289.033
101289.186
101289.342
101289.501
101289.664
101289.83
101289.999
101290.171
101290.346
101290.525
101290.706
101290.89
101291.077
101291.266
101291.459
101291.654
101291.86
101292.083
101292.326
101292.59
101292.878
101293.19
101293.53
101293.899
101294.301
101294.738
101295.213
101295.729
101296.289
101296.897
101297.556
101298.268
101299.038
101299.869
101300.761
101301.718
101302.741
101303.829
101304.981
101306.195
101307.466
101308.786
101310.147
101311.536
101312.939
101314.339
101315.716
101317.05
101318.319
101319.502
101320.582
101321.542
101322.372
101323.068
101323.63
101324.067
101324.393
101324.624
101324.779
101324.878
101324.937
101324.97
101324.986
101324.995
101324.998
101325
101325
101325
101325
101325
101325
101325
101325
101325
101325
101325
101325
101325
101325
101325
101325
101325
101325
101325
101325
101325
101325
101325
101325
101325
101325
101325
101325
)
;

boundaryField
{
    closed
    {
        type            zeroGradient;
    }
    open
    {
        type            waveTransmissive;
        gamma           1.25;
        fieldInf        101325;
        lInf            1;
        value           uniform 101325;
    }
    sides
    {
        type            empty;
    }
}


// ************************************************************************* //
