/*--------------------------------*- C++ -*----------------------------------*\
| =========                 |                                                 |
| \\      /  F ield         | OpenFOAM: The Open Source CFD Toolbox           |
|  \\    /   O peration     | Version:  2206                                  |
|   \\  /    A nd           | Website:  www.openfoam.com                      |
|    \\/     M anipulation  |                                                 |
\*---------------------------------------------------------------------------*/
FoamFile
{
    version     2.0;
    format      ascii;
    arch        "LSB;label=32;scalar=64";
    class       surfaceScalarField;
    location    "8.2e-06";
    object      phi;
}
// * * * * * * * * * * * * * * * * * * * * * * * * * * * * * * * * * * * * * //

dimensions      [1 0 -1 0 0 0 0];

oriented        oriented;

internalField   nonuniform List<scalar> 
3182
(
2.87790292e-18
-2.59252169e-18
5.37661461e-19
-1.12033755e-18
-9.9072416e-22
-9.97391737e-24
-7.27548213e-25
-2.14086331e-29
1.74330273e-25
7.77831773e-24
1.44288689e-22
7.44860889e-19
3.6019544e-18
-1.50999399e-18
4.68746588e-19
-6.7582127e-19
1.19370021e-19
-3.43702554e-18
-3.93246671e-18
4.71185712e-18
2.67146382e-20
2.79041407e-22
3.03479633e-22
6.80908095e-19
2.24979903e-18
1.84923335e-18
3.39809475e-18
4.58227835e-19
-1.06917149e-18
-6.4990177e-19
-2.14810059e-18
-4.502319e-18
-2.81813194e-18
-2.52384182e-18
-8.69509999e-19
3.12982455e-19
-4.90299425e-19
-1.07769682e-18
-2.23894451e-19
-4.11339008e-19
-1.62340767e-18
-2.54223717e-18
-1.52171505e-18
-1.08544811e-18
-6.44392397e-19
-1.19862807e-18
-6.5466697e-19
-1.30565825e-18
-7.62197243e-19
-3.20710334e-19
2.1527239e-19
8.87562344e-19
1.30308597e-18
2.49291573e-18
2.60470925e-18
3.91992835e-18
4.7814745e-18
5.21471996e-18
5.86566217e-18
4.99878886e-18
5.65394482e-18
6.51127866e-18
8.23409448e-18
8.68144001e-18
9.58943861e-18
1.06695415e-17
1.1533793e-17
1.21784172e-17
1.43735495e-17
1.65106884e-17
1.56526447e-17
1.70610967e-17
1.61165087e-17
1.69442218e-17
1.60690643e-17
1.69649214e-17
1.69418657e-17
1.70346333e-17
1.62498856e-17
1.54996888e-17
1.49946739e-17
1.64166447e-17
1.46941501e-17
1.19807039e-17
1.268813e-17
1.11459258e-17
1.06253979e-17
1.0610333e-17
8.50542896e-18
8.30676215e-18
5.9226839e-18
6.01050782e-18
2.86971586e-18
3.74272671e-18
2.62032182e-18
1.44188074e-18
1.08104727e-18
1.41193518e-19
1.82708348e-18
3.58712835e-18
2.69988776e-18
5.85165698e-18
-1.44579724e-19
4.31051566e-18
2.10091921e-18
1.55634311e-18
4.41577786e-18
1.04168335e-18
-2.079462e-19
-6.21223736e-19
-7.6135671e-19
3.14745022e-21
3.66216227e-19
9.57194847e-19
2.24340642e-18
2.54120203e-18
1.12529105e-18
-4.05236203e-18
-3.79403826e-18
-2.50312123e-18
-3.10545515e-18
-4.76076264e-18
-4.36079882e-18
-9.12433969e-18
-8.28644978e-18
-8.57552825e-18
-1.00265374e-17
-8.25760379e-18
-1.02406116e-17
-8.47567399e-18
-9.43093943e-18
-8.00183155e-18
-6.97652704e-18
-8.8181065e-18
-8.57773043e-18
-1.14720232e-17
-1.06247594e-17
-1.4863906e-17
-1.60545627e-17
-1.42100392e-17
-1.83562335e-17
-1.5912838e-17
-1.42437176e-17
-1.19832471e-17
-1.60982794e-17
-1.72819946e-17
-1.76799862e-17
-2.2008896e-17
-2.12391216e-17
-1.86327691e-17
-2.0289979e-17
-2.02853454e-17
-2.07108875e-17
-2.17820228e-17
-1.82355529e-17
-2.08743286e-17
-1.85539739e-17
-1.77551973e-17
-1.67472749e-17
-1.91723864e-17
-2.13424664e-17
-2.27316497e-17
-2.40070377e-17
-2.24433385e-17
-2.53177828e-17
-2.45891548e-17
-2.36462158e-17
-2.41533525e-17
-2.29039775e-17
-2.32988043e-17
-2.72740733e-17
-2.71230762e-17
-2.65060056e-17
-3.11130975e-17
-3.10557544e-17
-3.20865593e-17
-3.41021031e-17
-3.20771756e-17
-3.38299032e-17
-3.54254529e-17
-3.54776301e-17
-3.68557422e-17
-3.53295325e-17
-3.47096177e-17
-3.39173767e-17
-3.61951878e-17
-3.75121876e-17
-3.84190076e-17
-3.98974911e-17
-3.80273994e-17
-3.95498943e-17
-3.95405742e-17
-3.81475902e-17
-3.52486013e-17
-3.5755027e-17
-3.67240117e-17
-3.58668184e-17
-3.51809295e-17
-3.77272849e-17
-3.78273148e-17
-3.77063233e-17
-4.11862886e-17
-4.11189569e-17
-4.22219338e-17
-4.25086907e-17
-4.31081161e-17
-4.2962086e-17
-4.29587793e-17
-4.32163145e-17
-4.33186599e-17
-4.67589584e-17
-4.26237367e-17
-4.60756047e-17
-4.51086625e-17
-4.44477258e-17
-4.47039373e-17
-4.47831953e-17
-4.59845608e-17
-4.21660981e-17
-4.16073634e-17
-4.58169874e-17
-4.80226822e-17
-4.80341124e-17
-4.70014718e-17
-4.78990442e-17
-4.40224785e-17
-4.6602208e-17
-4.50508299e-17
-4.78212505e-17
-4.88099219e-17
-4.84938009e-17
-5.04512581e-17
-5.16840541e-17
-5.28962828e-17
-5.28137933e-17
-5.14079681e-17
-5.2627015e-17
-5.35689807e-17
-5.44335772e-17
-5.59761552e-17
-5.78717026e-17
-5.34592501e-17
-5.85260881e-17
-5.91100811e-17
-5.88566736e-17
-5.74953899e-17
-5.99614598e-17
-5.73973549e-17
-6.00658532e-17
-5.97560809e-17
-6.30253414e-17
-6.23824707e-17
-6.10867767e-17
-6.34839973e-17
-6.1817825e-17
-6.03873261e-17
-6.30528166e-17
-6.38843831e-17
-6.06441666e-17
-5.84627858e-17
-5.77888865e-17
-5.8534854e-17
-5.95167647e-17
-6.08372868e-17
-6.15490052e-17
-6.37812462e-17
-6.30664917e-17
-6.13749688e-17
-6.05246026e-17
-6.31007265e-17
-6.45421471e-17
-6.53186575e-17
-6.64199268e-17
-6.55069903e-17
-6.5356146e-17
-6.53176457e-17
-6.39379041e-17
-6.79773608e-17
-6.70891478e-17
-6.65407634e-17
-6.71891702e-17
-6.39752141e-17
-6.4587131e-17
-6.62857611e-17
-6.61132861e-17
-6.5972556e-17
-6.87563796e-17
-6.74075969e-17
-6.99478726e-17
-6.83548884e-17
-6.94289772e-17
-7.19275359e-17
-7.31338475e-17
-7.28921087e-17
-7.32361471e-17
-7.3800398e-17
-7.44832325e-17
-7.4984849e-17
-7.51753578e-17
-7.76956193e-17
-7.7364359e-17
-7.7123567e-17
-7.29288568e-17
-7.42888391e-17
-7.60749899e-17
-7.85652793e-17
-7.61791826e-17
-7.77409834e-17
-7.73680627e-17
-8.26107757e-17
-8.08030875e-17
-7.98903773e-17
-8.44158278e-17
-8.17173217e-17
-8.11615667e-17
-8.21315551e-17
-8.09000386e-17
-8.2366536e-17
-8.10772873e-17
-8.28204642e-17
-8.29231678e-17
-8.27663065e-17
-8.61731184e-17
-8.51679155e-17
-8.52176995e-17
-8.12862414e-17
-8.12325608e-17
-7.97319389e-17
-8.37674546e-17
-8.34694546e-17
-8.04507782e-17
-8.27239875e-17
-7.98257553e-17
-7.85096795e-17
-7.76024988e-17
-7.64565733e-17
-8.02701861e-17
-7.8600113e-17
-7.73544164e-17
-7.84068316e-17
-8.07616183e-17
-7.99181346e-17
-8.04094098e-17
-7.90178645e-17
-8.08992601e-17
-8.00671922e-17
-8.29717334e-17
-8.18950904e-17
-8.08108245e-17
-8.06067804e-17
-8.20648134e-17
-8.28887166e-17
-8.23334835e-17
-8.11309789e-17
-8.07090048e-17
-8.13645949e-17
-8.19568456e-17
-8.29365113e-17
-8.62942867e-17
-8.40392503e-17
-8.02968393e-17
-8.32341044e-17
-8.48557959e-17
-8.49267598e-17
-8.3308724e-17
-8.08970334e-17
-7.75851117e-17
-7.44887279e-17
-7.17261834e-17
-7.38533941e-17
-7.09852331e-17
-6.97849783e-17
-6.96848192e-17
-6.90806071e-17
-7.09008915e-17
-7.03399043e-17
-6.65717198e-17
-6.62614084e-17
-6.6971488e-17
-6.62470336e-17
-6.63571582e-17
-6.77015738e-17
-6.19355332e-17
-6.64044548e-17
-6.51053669e-17
-6.29144959e-17
-6.20906419e-17
-6.15060873e-17
-5.7407758e-17
-5.91453346e-17
-6.04480328e-17
-5.84996718e-17
-5.24625017e-17
-5.58646413e-17
-5.44753759e-17
-5.35241635e-17
-5.52811035e-17
-5.66238402e-17
-5.00063987e-17
-5.12026436e-17
-4.82921587e-17
-4.89902438e-17
-4.88721456e-17
-4.96520771e-17
-5.27182971e-17
-4.54052098e-17
-4.88842011e-17
-4.43230741e-17
-5.00824848e-17
-4.46591587e-17
-4.30153842e-17
-4.50671967e-17
-3.91905504e-17
-4.42857485e-17
-4.43489766e-17
-4.54150927e-17
-4.3270257e-17
-4.17170703e-17
-4.24375736e-17
-4.53926675e-17
-4.73474964e-17
-4.74580212e-17
-4.61720545e-17
-4.87871126e-17
-5.01273835e-17
-5.04447615e-17
-4.94293367e-17
-4.54174933e-17
-4.59926346e-17
-4.47031842e-17
-4.64574895e-17
-4.60914521e-17
-4.45362506e-17
-4.51174158e-17
-4.346734e-17
-4.1036186e-17
-4.05252017e-17
-4.07626732e-17
-3.69042378e-17
-3.709677e-17
-3.51257831e-17
-3.32196612e-17
-3.61116777e-17
-3.42433638e-17
-3.36336918e-17
-3.6039822e-17
-3.38367669e-17
-3.45142757e-17
-3.38190048e-17
-3.62358757e-17
-3.25649112e-17
-3.6390482e-17
-3.77269795e-17
-3.61078702e-17
-3.8612188e-17
-3.72490399e-17
-3.60332376e-17
-3.80487753e-17
-3.95766574e-17
-3.93129324e-17
-3.76981636e-17
-3.45220331e-17
-3.37021618e-17
-3.5461039e-17
-3.12797775e-17
-3.2467151e-17
-2.98184498e-17
-2.61721653e-17
-2.7926651e-17
-2.80301464e-17
-2.59424586e-17
-2.43582617e-17
-2.30311865e-17
-2.53950751e-17
-2.37978117e-17
-2.07324841e-17
-2.24415609e-17
-2.20913302e-17
-1.98419462e-17
-2.15914406e-17
-1.9563164e-17
-2.10227735e-17
-1.887384e-17
-2.03232468e-17
-1.82755878e-17
-1.9160666e-17
-1.70666968e-17
-1.74676873e-17
-1.68200627e-17
-1.84145134e-17
-1.68401077e-17
-1.44536111e-17
-1.28834698e-17
-1.54186228e-17
-1.59963554e-17
-1.40299211e-17
-1.35411793e-17
-1.42891274e-17
-1.29592576e-17
-1.12155884e-17
-1.20552968e-17
-1.03761353e-17
-1.25181861e-17
-1.45768167e-17
-1.04636318e-17
-8.55026661e-18
-8.42768578e-18
-8.34706939e-18
-6.68258971e-18
-7.77269579e-18
-9.90943131e-18
-1.02202632e-17
-1.17182001e-17
-1.39088302e-17
-1.2241776e-17
-9.55017018e-18
-9.85092619e-18
-5.99319603e-18
-4.93951088e-18
-5.3589776e-18
-5.43197611e-18
-5.14381778e-18
-6.39279166e-18
-5.29764793e-18
-4.46263154e-18
-7.41575499e-18
-6.54645763e-18
-8.29837399e-18
-7.34121475e-18
-7.01759673e-18
-3.38957195e-18
-4.51244501e-18
-5.84797448e-18
-8.79073459e-18
-6.09265784e-18
-7.81281166e-18
-6.22021679e-18
-8.93090335e-18
-3.2392677e-18
-4.57384551e-18
-2.23193397e-18
-6.29244617e-19
1.64159159e-18
-1.09923609e-20
8.58654711e-19
2.21196154e-18
-1.22063598e-18
-1.15502243e-18
3.34235567e-18
1.59907777e-18
4.97221134e-18
7.81886077e-18
9.26343118e-18
8.74834476e-18
9.61054034e-18
9.00403525e-18
1.21535867e-17
1.05418735e-17
1.39896634e-17
1.34695962e-17
1.29142954e-17
1.59848331e-17
1.58913701e-17
1.31730519e-17
1.39773803e-17
1.40947397e-17
1.47624232e-17
1.68468524e-17
1.87690173e-17
1.60365171e-17
1.77330828e-17
1.89119162e-17
1.9322835e-17
1.93521344e-17
2.13758062e-17
2.3192796e-17
2.18294756e-17
2.41444985e-17
2.43525701e-17
2.41037838e-17
2.29838015e-17
2.64522279e-17
2.57189447e-17
2.53826808e-17
2.56987035e-17
2.77214933e-17
2.88944055e-17
3.12804726e-17
2.94339412e-17
2.93043078e-17
2.66587293e-17
2.84523794e-17
2.93120102e-17
2.76114325e-17
2.74204569e-17
2.73301741e-17
2.48525104e-17
2.79211979e-17
3.10344642e-17
3.25165794e-17
3.15826465e-17
3.04167851e-17
2.65702234e-17
2.47701088e-17
2.36230355e-17
2.53091848e-17
2.63430495e-17
2.17990383e-17
2.22173521e-17
1.97894554e-17
1.80669981e-17
2.01865134e-17
2.07200681e-17
2.15921617e-17
2.21004254e-17
2.47226722e-17
2.50811058e-17
1.99921494e-17
2.07236755e-17
1.69625819e-17
1.8839619e-17
1.85228739e-17
1.53745434e-17
1.64311957e-17
1.94591775e-17
2.12669904e-17
2.13279527e-17
2.24472499e-17
2.29424198e-17
2.27498942e-17
2.44847388e-17
2.36301021e-17
2.3611138e-17
2.3473699e-17
2.12328317e-17
2.16141244e-17
2.12271759e-17
2.33328371e-17
2.0819642e-17
1.86655893e-17
2.30922268e-17
2.48031282e-17
1.99883078e-17
2.2032263e-17
2.11764728e-17
1.78821769e-17
1.76454994e-17
1.67134809e-17
1.86885375e-17
2.07125618e-17
2.00205367e-17
2.08870714e-17
2.39687366e-17
2.07865002e-17
2.03683611e-17
2.08743868e-17
1.9750009e-17
1.61305337e-17
1.58019887e-17
1.71387317e-17
1.47027859e-17
1.59750737e-17
1.71115885e-17
1.84511421e-17
2.03160007e-17
2.31910101e-17
2.5417505e-17
2.48705562e-17
2.25188034e-17
2.12322959e-17
2.13176011e-17
2.11771565e-17
2.16843865e-17
2.31740975e-17
2.08910392e-17
2.14930964e-17
2.40701884e-17
2.52801351e-17
2.36779166e-17
2.33522527e-17
2.4573923e-17
2.51888773e-17
2.8119403e-17
3.12080006e-17
3.02792133e-17
3.14372083e-17
3.28074359e-17
2.99724934e-17
3.07728146e-17
3.60745087e-17
3.70881952e-17
3.23424314e-17
3.41707707e-17
3.26784203e-17
3.41509879e-17
3.3105969e-17
3.43379478e-17
3.63990333e-17
3.68937087e-17
3.51214506e-17
3.43399872e-17
3.42765752e-17
3.28176193e-17
3.43399221e-17
3.28776208e-17
3.36433643e-17
3.55440896e-17
3.20690636e-17
3.40811751e-17
3.21926847e-17
3.36050344e-17
3.18541044e-17
3.32492315e-17
3.295634e-17
2.98642549e-17
2.65904257e-17
2.7771619e-17
3.03561039e-17
3.06086507e-17
3.12385379e-17
3.19483233e-17
3.39137573e-17
3.29770888e-17
3.36565829e-17
2.50132848e-17
2.50321587e-17
2.82939775e-17
2.4661632e-17
2.34375972e-17
2.37624384e-17
2.6061755e-17
2.53658655e-17
2.59995367e-17
2.49129006e-17
2.59061309e-17
2.42297462e-17
2.4195846e-17
2.50461742e-17
2.49234422e-17
2.30769396e-17
2.1793922e-17
2.10216046e-17
1.86175829e-17
2.08855839e-17
1.97589868e-17
1.9890415e-17
1.96381913e-17
2.02374779e-17
1.84047969e-17
1.73732072e-17
2.00012717e-17
2.3509836e-17
2.23953215e-17
2.40313696e-17
2.42747759e-17
2.25299247e-17
2.13708838e-17
2.45130186e-17
2.28417225e-17
2.1198362e-17
1.87425401e-17
1.74133788e-17
1.70771155e-17
1.78111989e-17
1.75401489e-17
1.70157954e-17
1.62568098e-17
1.36491031e-17
1.59697646e-17
1.56959132e-17
1.81633785e-17
2.09750562e-17
1.9248206e-17
2.16842944e-17
1.77353031e-17
2.05308198e-17
2.41260652e-17
2.31052752e-17
2.36100199e-17
2.46184626e-17
2.32663668e-17
2.29144913e-17
2.44732109e-17
2.23321883e-17
2.41430958e-17
2.66951253e-17
2.31426108e-17
2.71443046e-17
2.72948493e-17
3.10835987e-17
2.87169716e-17
2.80903854e-17
2.71705845e-17
2.59576572e-17
2.85820902e-17
2.7456186e-17
2.34990493e-17
2.65828512e-17
2.32546347e-17
1.96786206e-17
2.19053131e-17
1.73168483e-17
2.21857106e-17
2.28296547e-17
2.52081339e-17
2.12160983e-17
2.38388563e-17
2.13440992e-17
2.43405948e-17
2.06237675e-17
1.81309973e-17
1.76173053e-17
2.04330336e-17
2.06234692e-17
2.39170773e-17
1.85104137e-17
1.83252451e-17
1.8197585e-17
2.03475088e-17
1.80678483e-17
1.72712438e-17
2.01938429e-17
2.31356064e-17
2.15764134e-17
2.14927206e-17
2.32508068e-17
1.94616502e-17
1.81481193e-17
1.9608125e-17
2.1217475e-17
2.09495014e-17
1.80678311e-17
1.78021729e-17
2.09737235e-17
1.92296159e-17
1.93226457e-17
1.81995353e-17
1.95160251e-17
1.99960007e-17
2.07347512e-17
2.28328851e-17
2.2139222e-17
2.15858869e-17
2.2317569e-17
2.11873357e-17
2.4648789e-17
2.22519993e-17
2.25383836e-17
2.25876813e-17
2.28469892e-17
2.52541194e-17
2.34349019e-17
2.29282676e-17
2.75915067e-17
2.77346475e-17
2.90112325e-17
2.8316704e-17
2.95753437e-17
2.64532201e-17
2.77516176e-17
2.92591647e-17
2.82627306e-17
3.12241646e-17
3.13067095e-17
3.09334114e-17
3.26328553e-17
3.1273887e-17
3.34414729e-17
3.2315889e-17
3.52815872e-17
3.48600943e-17
3.71573997e-17
3.55814697e-17
3.66129602e-17
3.69570611e-17
3.50976222e-17
3.51300774e-17
3.10185948e-17
3.49504435e-17
3.60951628e-17
3.74429347e-17
3.76975773e-17
4.06738345e-17
3.78035482e-17
3.87982592e-17
3.65153096e-17
3.58292708e-17
3.84491905e-17
3.52118758e-17
3.56826502e-17
3.5360324e-17
3.54864473e-17
3.44916926e-17
3.78580407e-17
3.79057876e-17
3.74692697e-17
4.06324474e-17
3.96098436e-17
3.62563776e-17
4.03829024e-17
3.90931797e-17
4.00900639e-17
3.82938959e-17
3.86677521e-17
3.92581033e-17
3.85641853e-17
4.08250791e-17
4.41630551e-17
4.33219598e-17
4.11820294e-17
4.30066975e-17
4.30821051e-17
4.69137675e-17
4.77121058e-17
4.67114377e-17
4.7635008e-17
5.07132748e-17
5.13787889e-17
4.93254034e-17
4.94870573e-17
4.85965256e-17
4.87503494e-17
4.79484905e-17
5.0320202e-17
5.0666083e-17
5.11907676e-17
5.00646796e-17
4.89288628e-17
5.05624095e-17
5.20202636e-17
5.04362744e-17
4.88241651e-17
5.04083834e-17
4.89393798e-17
4.91503324e-17
4.84209659e-17
5.06005705e-17
4.63910849e-17
4.80896044e-17
5.24636784e-17
4.86956189e-17
4.75410985e-17
4.62189338e-17
4.21839355e-17
4.3089531e-17
4.50103925e-17
4.4952797e-17
4.26721563e-17
4.18784288e-17
4.16048206e-17
4.05335016e-17
3.99603841e-17
3.98109635e-17
4.15336418e-17
3.97358824e-17
3.94270304e-17
3.72214002e-17
4.02039413e-17
3.86911554e-17
3.92315736e-17
4.05104135e-17
3.87504004e-17
3.66813029e-17
3.88836568e-17
3.78982142e-17
3.89048141e-17
3.82721609e-17
4.05838012e-17
3.94186997e-17
4.00355385e-17
4.17178738e-17
4.06983372e-17
4.08846291e-17
4.15500503e-17
4.30012489e-17
4.43912464e-17
3.92794839e-17
4.27335454e-17
4.437075e-17
4.26670743e-17
4.53767979e-17
4.58800605e-17
4.73405338e-17
4.8527045e-17
4.74431291e-17
4.21344865e-17
3.83170743e-17
3.71617961e-17
3.83058644e-17
3.83079115e-17
4.05950715e-17
4.65177814e-17
4.4631464e-17
4.24222668e-17
4.41880302e-17
4.6627842e-17
4.58591019e-17
4.45775048e-17
4.29613724e-17
4.52215363e-17
4.41430167e-17
4.58865676e-17
4.8064607e-17
4.69199673e-17
4.74593499e-17
4.87202588e-17
4.72350872e-17
4.92282224e-17
4.65899874e-17
4.64985927e-17
4.67147677e-17
4.57572992e-17
4.44838463e-17
4.44328702e-17
4.28710467e-17
3.95454618e-17
4.19858063e-17
3.75117365e-17
3.51833529e-17
3.40831501e-17
3.69661693e-17
3.87876688e-17
3.62038733e-17
3.59395285e-17
3.76422356e-17
3.69363284e-17
3.31222832e-17
2.96105104e-17
3.14595631e-17
3.02514786e-17
2.52523876e-17
2.73137483e-17
2.58948765e-17
2.7929156e-17
2.54521379e-17
2.18575499e-17
2.12652243e-17
1.85114748e-17
1.65223969e-17
1.85787189e-17
1.71709306e-17
1.85918351e-17
2.17757328e-17
2.22010532e-17
2.00140435e-17
1.93421365e-17
1.66359714e-17
1.97520482e-17
1.65402846e-17
1.70339038e-17
1.36248646e-17
1.54914585e-17
1.45603688e-17
1.24057622e-17
9.97502916e-18
1.296276e-17
1.31964306e-17
8.45705818e-18
1.0473092e-17
9.20693377e-18
8.31619949e-18
1.28435518e-17
1.19568201e-17
1.38568774e-17
1.23392402e-17
1.20905071e-17
8.64896836e-18
7.49495429e-18
8.42271699e-18
8.68950845e-18
6.83536866e-18
6.17213815e-18
9.20581916e-18
4.79697505e-18
6.73208682e-18
5.97192322e-18
4.59607222e-18
4.92329376e-18
4.96791596e-19
5.53179275e-18
7.01795646e-18
5.40847132e-18
4.73015091e-18
1.24138649e-18
-6.70070963e-19
-1.94410512e-18
2.20045868e-18
1.59774241e-18
3.08346587e-18
1.62403131e-18
-3.7290251e-19
1.89335155e-18
-2.072018e-18
1.52533844e-19
-8.7515497e-19
4.33747084e-19
-3.1308328e-18
-1.83674696e-18
-2.04509328e-18
-3.35319015e-18
-1.08389163e-18
-7.19173384e-19
-2.72057038e-18
-2.79386635e-18
-6.64524484e-18
-7.28378643e-18
-7.79243991e-18
-7.96903029e-18
-8.91801219e-18
-6.86532017e-18
-6.51357058e-18
-8.00795321e-18
-5.69068112e-18
-9.2041538e-18
-9.90660052e-18
-1.26630251e-17
-1.5136459e-17
-1.61984122e-17
-1.32688587e-17
-1.2300918e-17
-1.05389277e-17
-1.20691788e-17
-1.48534752e-17
-1.21102e-17
-1.63584547e-17
-1.39557271e-17
-1.6738429e-17
-1.73705564e-17
-2.01641649e-17
-1.85458891e-17
-2.16015952e-17
-2.0005759e-17
-2.08690971e-17
-1.89888623e-17
-2.39605845e-17
-2.4146629e-17
-2.41544645e-17
-2.17718173e-17
-2.14469148e-17
-1.99669794e-17
-2.42359108e-17
-2.21637149e-17
-2.05139063e-17
-2.02386248e-17
-2.22995708e-17
-2.0324145e-17
-2.07031394e-17
-2.07711265e-17
-1.87999563e-17
-1.61645446e-17
-1.72490078e-17
-1.69932488e-17
-1.91826153e-17
-2.22813032e-17
-2.03134319e-17
-2.08141817e-17
-1.97061938e-17
-2.17045858e-17
-1.91738953e-17
-1.89888778e-17
-1.81600251e-17
-1.784093e-17
-1.84822287e-17
-1.80285208e-17
-1.72975716e-17
-1.6206806e-17
-1.83456223e-17
-2.04068958e-17
-1.86347023e-17
-1.97938336e-17
-1.97347744e-17
-2.19291442e-17
-2.36845208e-17
-2.2697761e-17
-2.3293422e-17
-2.14562976e-17
-2.00608534e-17
-2.12212201e-17
-1.89268086e-17
-2.1980526e-17
-2.23696511e-17
-2.24504747e-17
-2.36044542e-17
-2.29947783e-17
-2.8698365e-17
-2.20442294e-17
-2.80313516e-17
-2.51030507e-17
-2.66645736e-17
-2.79776151e-17
-2.48313277e-17
-3.16588417e-17
-3.11229709e-17
-3.29516351e-17
-3.25383916e-17
-3.20867044e-17
-3.38378664e-17
-3.37036141e-17
-3.72944337e-17
-3.88352492e-17
-3.94500105e-17
-3.95263907e-17
-3.91342338e-17
-3.99252165e-17
-4.0549272e-17
-4.28079156e-17
-4.0803982e-17
-3.87749516e-17
-3.89158019e-17
-4.03221731e-17
-4.30773774e-17
-4.18430061e-17
-4.237447e-17
-4.21900282e-17
-4.21899281e-17
-4.52472526e-17
-4.69969376e-17
-4.57469387e-17
-4.75084592e-17
-4.30127292e-17
-4.5633664e-17
-4.29491203e-17
-4.29113495e-17
-4.0031505e-17
-4.11797792e-17
-3.85350131e-17
-4.13868477e-17
-3.84746566e-17
-4.12011806e-17
-4.29758811e-17
-4.517877e-17
-4.78850986e-17
-4.5324957e-17
-4.53185733e-17
-4.63514955e-17
-4.68534109e-17
-4.67323469e-17
-4.82238268e-17
-5.10184148e-17
-5.07385275e-17
-4.78788119e-17
-4.7387145e-17
-4.84793741e-17
-4.86681754e-17
-4.8687426e-17
-4.68446725e-17
-4.60753303e-17
-4.52509309e-17
-4.46055821e-17
-4.27513464e-17
-4.15035991e-17
-4.15374365e-17
-4.00348174e-17
-4.33816727e-17
-4.2099992e-17
-4.28121547e-17
-4.34545787e-17
-4.46652849e-17
-4.69575248e-17
-4.47690477e-17
-4.47981765e-17
-4.41554897e-17
-4.67254802e-17
-4.7243825e-17
-4.98646354e-17
-4.54854475e-17
-4.85067551e-17
-4.42949819e-17
-4.46993345e-17
-4.25355929e-17
-4.39466576e-17
-4.25659944e-17
-3.92935592e-17
-3.70042472e-17
-4.14287797e-17
-3.80327384e-17
-3.78347552e-17
-3.64155738e-17
-3.91542817e-17
-4.20958433e-17
-4.14849686e-17
-4.28697665e-17
-3.99612191e-17
-3.79516888e-17
-3.63206073e-17
-3.32563384e-17
-3.45921021e-17
-3.48013435e-17
-3.46741602e-17
-3.31337777e-17
-3.42408598e-17
-3.20218101e-17
-3.09598069e-17
-3.1622176e-17
-3.15029161e-17
-3.08350548e-17
-3.390095e-17
-3.02873905e-17
-2.8222582e-17
-3.24098528e-17
-3.01092935e-17
-3.172392e-17
-2.88144939e-17
-2.94700041e-17
-3.03405729e-17
-2.97664816e-17
-2.92902701e-17
-2.88118642e-17
-2.8273418e-17
-3.10090578e-17
-3.28094531e-17
-3.06643072e-17
-2.9966289e-17
-3.18835844e-17
-2.91214586e-17
-3.00138715e-17
-2.78891941e-17
-3.01337732e-17
-2.62967065e-17
-2.5408278e-17
-2.40650803e-17
-2.59688645e-17
-2.50827704e-17
-2.29415557e-17
-2.1298736e-17
-1.92724941e-17
-2.25925496e-17
-1.88946541e-17
-1.95771861e-17
-2.13769702e-17
-1.88091323e-17
-1.8333388e-17
-1.79184877e-17
-1.80792198e-17
-1.8486623e-17
-1.91327831e-17
-1.99211329e-17
-2.34627291e-17
-2.19864616e-17
-2.42406895e-17
-2.43484394e-17
-2.50307835e-17
-2.55292066e-17
-2.59567204e-17
-2.69972992e-17
-2.8601574e-17
-2.8749811e-17
-2.65983879e-17
-2.91118604e-17
-2.65478114e-17
-2.61632088e-17
-2.62430004e-17
-2.74638371e-17
-2.73591398e-17
-3.16868754e-17
-3.05095922e-17
-2.97865366e-17
-2.91606119e-17
-2.8862506e-17
-2.74261624e-17
-2.98992512e-17
-2.95217069e-17
-3.13668254e-17
-3.36976175e-17
-3.13620512e-17
-3.27353479e-17
-3.36470992e-17
-3.26847148e-17
-2.97640242e-17
-2.90412473e-17
-2.67979742e-17
-2.64297644e-17
-2.78634351e-17
-2.94569096e-17
-2.6119035e-17
-2.64137031e-17
-2.64435304e-17
-2.66098192e-17
-3.01643867e-17
-3.05400039e-17
-3.25081104e-17
-2.74654847e-17
-2.88374096e-17
-3.04255846e-17
-3.05118871e-17
-2.97582149e-17
-3.09411029e-17
-3.41747025e-17
-3.22124259e-17
-3.21301289e-17
-2.94468675e-17
-3.05319308e-17
-3.14778415e-17
-3.18991227e-17
-3.26618461e-17
-2.93370896e-17
-3.16420233e-17
-2.97380246e-17
-2.98074105e-17
-3.25410024e-17
-3.12064482e-17
-3.11168732e-17
-3.35005619e-17
-3.00616262e-17
-3.12364672e-17
-2.91441722e-17
-3.13720747e-17
-3.08290536e-17
-3.2718448e-17
-3.21528156e-17
-3.37949394e-17
-3.24671889e-17
-2.9026247e-17
-3.02413503e-17
-3.28718207e-17
-2.82613597e-17
-2.86728738e-17
-2.81175601e-17
-2.7826867e-17
-2.92696235e-17
-2.65959712e-17
-2.69464083e-17
-2.59099822e-17
-2.54881041e-17
-2.30690091e-17
-2.10717679e-17
-2.44483334e-17
-2.65149943e-17
-2.51132506e-17
-2.26856884e-17
-2.3319926e-17
-2.15852313e-17
-2.08538722e-17
-2.37177143e-17
-2.24754519e-17
-2.42875685e-17
-2.46198091e-17
-2.62821366e-17
-2.41014736e-17
-2.37014213e-17
-2.4435319e-17
-2.37285943e-17
-2.21024999e-17
-2.34705768e-17
-2.4014877e-17
-2.51128468e-17
-2.54726413e-17
-2.70800379e-17
-2.50008067e-17
-2.30712536e-17
-2.5240012e-17
-2.66893093e-17
-2.30907838e-17
-2.42991451e-17
-2.41181537e-17
-2.58841455e-17
-2.67371164e-17
-2.43338e-17
-2.5307091e-17
-2.65734341e-17
-2.65707719e-17
-2.75457083e-17
-2.92091307e-17
-2.94765202e-17
-3.05197379e-17
-2.89580084e-17
-3.11013622e-17
-3.10057259e-17
-2.93543504e-17
-3.52885956e-17
-3.35832604e-17
-3.23864339e-17
-3.01944967e-17
-2.6930529e-17
-2.96757789e-17
-2.95932743e-17
-2.52984433e-17
-2.56614324e-17
-2.62207428e-17
-2.78345194e-17
-2.81315643e-17
-2.61313476e-17
-2.70163139e-17
-2.92479054e-17
-2.72108554e-17
-2.67017997e-17
-2.98439419e-17
-2.77395461e-17
-3.15019015e-17
-3.0587116e-17
-3.09898988e-17
-3.00599082e-17
-2.90164034e-17
-3.27809499e-17
-2.92870629e-17
-3.36098566e-17
-3.11157854e-17
-2.96377824e-17
-3.06166323e-17
-2.7557264e-17
-3.02199447e-17
-2.87505588e-17
-2.77624232e-17
-2.79609912e-17
-2.70048094e-17
-3.13361833e-17
-3.04415642e-17
-3.21177545e-17
-3.63471692e-17
-3.8776931e-17
-3.59994219e-17
-3.76735404e-17
-3.6211237e-17
-3.56093339e-17
-3.4801769e-17
-3.75361935e-17
-3.32821443e-17
-2.97894936e-17
-3.22487899e-17
-3.46926553e-17
-3.14816591e-17
-3.40255635e-17
-3.38066017e-17
-3.29089982e-17
-3.32233587e-17
-3.34259821e-17
-3.40465642e-17
-3.0086979e-17
-3.04888614e-17
-3.09789149e-17
-2.84003173e-17
-2.76270384e-17
-2.48093666e-17
-2.56863648e-17
-2.84726226e-17
-2.80267755e-17
-2.85075679e-17
-2.67594822e-17
-2.64836346e-17
-2.96889145e-17
-3.03447321e-17
-3.03009366e-17
-2.80758253e-17
-2.82732842e-17
-2.64639438e-17
-2.53669765e-17
-2.60355512e-17
-2.5197872e-17
-2.3619337e-17
-2.15212643e-17
-2.19483271e-17
-1.74572915e-17
-2.03772788e-17
-2.29670233e-17
-2.37413536e-17
-2.04975509e-17
-2.07648321e-17
-1.99079565e-17
-2.11170807e-17
-2.15137645e-17
-2.48443968e-17
-2.09654108e-17
-1.86478086e-17
-1.96685954e-17
-2.05486588e-17
-1.73716936e-17
-1.82137913e-17
-1.92341027e-17
-1.94553723e-17
-1.85958422e-17
-2.01849022e-17
-1.93334659e-17
-2.37896589e-17
-2.56743177e-17
-2.41561447e-17
-2.59934929e-17
-2.67965285e-17
-2.63741157e-17
-1.84068172e-17
-2.02699652e-17
-2.3026533e-17
-2.12071942e-17
-2.20846336e-17
-2.23185356e-17
-2.36087249e-17
-2.47616198e-17
-2.35463637e-17
-2.05928664e-17
-1.90464826e-17
-2.03219847e-17
-1.79282049e-17
-2.37102522e-17
-1.96377989e-17
-2.26068278e-17
-1.81797079e-17
-2.16072823e-17
-1.99454802e-17
-1.93894531e-17
-1.71749925e-17
-1.98637081e-17
-1.77674516e-17
-1.91762735e-17
-1.83444663e-17
-1.73481019e-17
-1.89330952e-17
-2.13296679e-17
-2.14423269e-17
-2.05284096e-17
-1.82462608e-17
-2.148504e-17
-2.10246326e-17
-1.87710674e-17
-1.76499433e-17
-1.89233459e-17
-2.10870907e-17
-2.11507693e-17
-2.19878689e-17
-1.75130226e-17
-2.03929579e-17
-2.23034325e-17
-2.12429823e-17
-1.88226924e-17
-1.58612025e-17
-1.90089927e-17
-1.93597697e-17
-1.64883842e-17
-2.0193044e-17
-1.92576215e-17
-2.04970419e-17
-2.05758938e-17
-1.72997858e-17
-1.48740007e-17
-1.56946802e-17
-1.87696312e-17
-2.1401367e-17
-2.1472277e-17
-1.80233761e-17
-1.75726308e-17
-1.45375603e-17
-1.55679345e-17
-1.17326784e-17
-1.01519398e-17
-9.70755833e-18
-9.72269116e-18
-7.5677705e-18
-7.22329369e-18
-4.54437901e-18
-4.28834557e-19
5.23749878e-19
-1.28326189e-18
1.93415627e-18
1.53734986e-18
8.16873532e-19
-2.31350719e-19
-5.97853701e-19
-6.64746924e-19
-2.0517993e-18
-3.13158914e-18
-1.08561607e-18
1.54389796e-19
1.99129913e-18
1.73149211e-18
8.91489227e-19
9.55515166e-19
3.23976787e-18
2.82927992e-18
4.90158339e-18
4.92848437e-18
6.58260613e-18
7.20656407e-18
6.45919262e-18
7.35600357e-18
8.42324886e-18
7.81944458e-18
8.17204797e-18
8.18702792e-18
6.13639176e-18
5.63538656e-18
7.55491721e-18
4.5581513e-18
1.54810965e-18
2.20250112e-18
4.09346943e-18
5.5364985e-18
7.88509121e-18
7.86101004e-18
7.33625726e-18
9.95299327e-18
8.96219555e-18
1.34493848e-17
1.38012616e-17
1.47672927e-17
1.52181564e-17
1.42790175e-17
1.60552127e-17
1.65059689e-17
1.64402131e-17
1.79882422e-17
1.50776749e-17
1.49155855e-17
1.99263104e-17
1.86935202e-17
2.18805669e-17
1.77985112e-17
1.92818708e-17
2.32919371e-17
2.25722246e-17
2.26144782e-17
2.49332973e-17
2.33503007e-17
2.53242825e-17
2.50790184e-17
2.37372209e-17
2.27489466e-17
2.26986874e-17
2.21067391e-17
1.96791288e-17
1.86754016e-17
2.02694576e-17
2.19309189e-17
2.16138077e-17
2.07106201e-17
1.80483208e-17
2.08681673e-17
1.92985576e-17
2.21238924e-17
2.4346707e-17
2.47025983e-17
2.58139432e-17
2.60242872e-17
2.6843969e-17
2.66244112e-17
2.61195891e-17
2.78390677e-17
2.56843642e-17
2.27096521e-17
2.39836399e-17
2.64801187e-17
2.50224957e-17
2.69097599e-17
2.52657128e-17
2.09316254e-17
2.61077759e-17
2.80640513e-17
2.9322041e-17
3.15390114e-17
3.37353725e-17
3.5865912e-17
3.7452039e-17
3.78683207e-17
3.69606039e-17
3.85076054e-17
3.94700086e-17
3.96307472e-17
4.17102949e-17
4.25588893e-17
4.26797634e-17
4.19713022e-17
4.23453393e-17
4.510065e-17
4.80528912e-17
4.75978119e-17
4.63247503e-17
4.65339155e-17
4.53129044e-17
4.49727415e-17
4.84486141e-17
4.65241146e-17
4.53293327e-17
4.30358608e-17
4.70167302e-17
4.85352405e-17
4.56458901e-17
5.0035013e-17
4.86109462e-17
5.00770118e-17
5.00172355e-17
5.12512914e-17
5.17116326e-17
5.10829763e-17
4.95907367e-17
5.05721e-17
5.49402782e-17
5.49406548e-17
5.47721012e-17
5.60603885e-17
5.61473375e-17
5.67073155e-17
5.82574084e-17
5.92635047e-17
5.91550507e-17
5.72555737e-17
5.62571055e-17
5.64795346e-17
5.49420795e-17
5.51467196e-17
5.77769942e-17
5.86725533e-17
5.73657253e-17
6.10081573e-17
6.22705388e-17
6.41331008e-17
6.47986299e-17
6.51647637e-17
6.84420764e-17
6.90985856e-17
7.2552787e-17
7.16550731e-17
7.26094826e-17
7.23588985e-17
7.46078378e-17
7.39835395e-17
7.14292047e-17
7.26896045e-17
7.05890749e-17
7.47519335e-17
7.46904745e-17
7.41111778e-17
7.87162268e-17
8.00287371e-17
8.25762342e-17
8.23218735e-17
8.32304861e-17
8.08253492e-17
8.07386917e-17
8.12646074e-17
7.78626093e-17
7.90245136e-17
7.89206432e-17
8.14273722e-17
7.87085245e-17
7.93828953e-17
7.87537908e-17
7.94561209e-17
7.93866776e-17
7.77121115e-17
8.04477792e-17
7.90134901e-17
7.80113395e-17
8.13759552e-17
7.93969329e-17
8.18952105e-17
8.3890927e-17
8.37629662e-17
8.51793166e-17
8.51677561e-17
8.20481298e-17
7.85688391e-17
7.69355373e-17
7.83019676e-17
8.18713078e-17
8.00825117e-17
7.96100629e-17
7.79778858e-17
7.86117558e-17
8.01007909e-17
8.57378812e-17
8.07017959e-17
7.97803505e-17
7.70571171e-17
7.9155407e-17
7.94401301e-17
7.9744337e-17
7.87988615e-17
7.6464684e-17
7.58754195e-17
7.97579177e-17
8.22553144e-17
8.1636063e-17
8.24512089e-17
8.58555865e-17
8.35765846e-17
8.33768488e-17
8.48151761e-17
8.37473329e-17
8.42454818e-17
8.49409573e-17
8.646977e-17
8.55449184e-17
8.37570156e-17
8.66919552e-17
8.83322418e-17
8.42304127e-17