/*--------------------------------*- C++ -*----------------------------------*\
| =========                 |                                                 |
| \\      /  F ield         | OpenFOAM: The Open Source CFD Toolbox           |
|  \\    /   O peration     | Version:  2206                                  |
|   \\  /    A nd           | Website:  www.openfoam.com                      |
|    \\/     M anipulation  |                                                 |
\*---------------------------------------------------------------------------*/
FoamFile
{
    version     2.0;
    format      ascii;
    arch        "LSB;label=32;scalar=64";
    class       surfaceScalarField;
    location    "2e-07";
    object      phi;
}
// * * * * * * * * * * * * * * * * * * * * * * * * * * * * * * * * * * * * * //

dimensions      [1 0 -1 0 0 0 0];

oriented        oriented;

internalField   nonuniform List<scalar> 
3182
(
-3.51861368e-27
-8.42751584e-27
-1.22883892e-26
-2.71050626e-20
-9.35010371e-27
-7.27587372e-28
-4.97735656e-33
1.92216158e-33
1.52696031e-32
2.47113938e-27
3.53898043e-26
5.77166931e-26
4.06575949e-20
4.56585716e-26
-5.42100495e-20
-8.01223305e-26
2.71049756e-20
-2.71051097e-20
-2.71052049e-20
2.71049556e-20
-7.20370188e-27
-4.22689601e-32
5.13929148e-31
2.0998543e-26
2.76231072e-25
1.6855405e-25
1.08420135e-19
4.45070611e-25
-5.42105888e-20
5.42103223e-20
-1.0841987e-19
1.08419429e-19
1.38605218e-25
-1.08419925e-19
5.42086986e-20
5.42101557e-20
-5.42100612e-20
-5.42114611e-20
5.42097879e-20
-2.49199252e-24
-1.08418982e-19
3.28079182e-26
2.16844257e-19
-2.16839004e-19
1.08420968e-19
1.87387453e-25
-1.08425568e-19
1.08420594e-19
-1.08409401e-19
5.48342162e-24
2.16822536e-19
-4.3367241e-19
-1.44257985e-23
1.08402872e-19
1.68615973e-23
1.52035987e-24
3.26267749e-24
2.16879408e-19
-1.48632184e-23
6.26704335e-23
4.3299646e-23
1.65688174e-24
-2.1677879e-19
1.47323766e-23
-2.16715896e-19
2.1691646e-19
-3.67722652e-23
2.17729989e-22
4.33673712e-19
-4.33712092e-19
4.33578735e-19
-4.33918448e-19
-7.52059153e-22
4.32534416e-19
-4.3445764e-19
-1.0029577e-21
-1.44253885e-21
-4.35183178e-19
-4.34960468e-19
-4.33962877e-19
1.30393072e-18
6.42278106e-21
6.63449354e-21
9.13295017e-21
1.11072432e-20
8.76585141e-19
8.77022605e-19
1.74371902e-18
3.47290842e-18
8.61035319e-19
-1.68413447e-20
-1.53231876e-20
-1.76186337e-18
-2.35605871e-20
8.34579421e-19
-2.55512451e-20
-1.74038082e-18
-1.72749023e-18
-1.66474288e-18
-1.6469798e-18
5.56446457e-20
8.00168499e-20
-1.17240654e-20
1.66386317e-18
-6.93163735e-20
-9.90020423e-20
1.65957681e-18
-4.37589597e-20
-1.73933261e-18
-1.73568767e-18
-1.74417597e-18
-3.55751431e-18
1.58720505e-18
1.56752873e-18
-1.90419862e-18
1.66809116e-18
1.06560249e-19
-1.571622e-18
1.66951119e-19
-1.58027458e-18
-1.68190701e-18
9.1941188e-21
4.38742497e-20
1.80628381e-18
5.26804678e-18
3.54037593e-18
5.23907778e-18
1.65985766e-18
1.66654668e-18
-1.03891257e-19
3.35024518e-18
3.35028284e-18
-1.03498944e-19
-1.80689407e-18
-1.18775928e-19
-4.04741614e-20
-1.7627519e-18
4.52267873e-21
1.81063107e-18
-1.58777993e-18
1.78978083e-19
1.78951941e-19
1.51062101e-19
1.15193358e-19
1.76711471e-18
-3.48251549e-20
1.71067609e-18
3.40227217e-18
-4.35478353e-20
-1.7349497e-18
-1.69951943e-18
-3.48094475e-18
-3.50854496e-18
-5.22821393e-18
-3.53660284e-18
-1.77839073e-18
-4.56985381e-21
1.73423989e-18
1.73862881e-18
1.77390466e-18
1.76647159e-18
1.76696916e-18
3.51354015e-18
1.78309938e-18
1.81070858e-18
1.03301171e-19
1.8376642e-18
7.12586519e-20
4.13841268e-21
-1.77527896e-18
-1.88945332e-18
-1.8300874e-19
-1.94966512e-18
-3.71467089e-18
-3.53417577e-18
-1.25566485e-20
1.78199748e-18
1.0631528e-19
-1.69087221e-18
-3.49935272e-20
-1.76667821e-18
-3.50569745e-18
-8.33587537e-20
-1.81032572e-18
-1.79832964e-18
-6.30685158e-20
-1.69548271e-18
-1.63167025e-18
-1.59502405e-18
-3.27418977e-18
2.3060593e-19
1.76331732e-19
-1.5505775e-18
-1.53112309e-18
-1.57394542e-18
1.79570919e-19
-3.28671617e-18
-1.54850768e-18
1.07493575e-19
1.7671819e-18
3.44255443e-18
1.66738616e-18
1.58433007e-18
3.35747375e-18
-1.08216601e-19
-1.11791165e-19
1.68566828e-18
1.61585632e-18
1.66658332e-18
-6.41076307e-20
-8.36928491e-20
-3.52630014e-18
-3.58513781e-18
-5.3436304e-18
-1.90528312e-18
-1.84247836e-18
-3.513126e-18
-1.69817088e-18
1.50881539e-19
1.88705435e-18
5.4667753e-18
3.76366667e-18
2.55631177e-19
2.03714126e-18
3.69698973e-18
1.87453733e-18
-1.67131997e-18
-1.83682032e-18
-1.86215365e-18
1.55522706e-18
1.53560093e-18
3.34879355e-18
3.32631511e-18
1.62320485e-18
-1.85029622e-18
1.65402112e-18
-8.07456763e-20
-1.15881022e-19
-1.84641718e-18
-1.87746046e-18
-1.16100558e-19
1.57530389e-18
3.31752152e-18
3.32946521e-18
3.3263657e-18
3.38529561e-18
1.64707485e-18
-7.58865212e-20
-6.83884689e-20
-1.15372303e-19
-1.8504037e-18
-1.80748507e-18
-1.11337979e-19
1.65438348e-18
1.65420161e-18
-1.84607677e-18
1.66260924e-18
1.62333706e-18
-1.81040548e-18
1.70746237e-18
3.96227845e-20
-1.67033767e-18
1.08992681e-19
-1.57096452e-18
1.9536597e-19
2.15784698e-19
-1.47616002e-18
2.03201413e-18
1.91485711e-18
1.47390095e-19
8.78193185e-20
-1.7256301e-18
1.60480061e-23
-8.41300607e-21
-1.81804608e-18
-1.07884825e-19
-1.35364904e-19
-1.87749718e-18
-7.55025868e-20
3.0264755e-23
-1.65926046e-18
-1.59151285e-18
-1.58651903e-18
-1.50418709e-18
1.962372e-18
1.95884843e-18
2.03228475e-18
1.95414104e-18
-1.55508061e-18
-5.08450307e-18
-3.42492309e-18
-1.76510912e-18
7.80419231e-21
3.46980175e-18
-7.30310992e-21
-1.69943184e-18
1.7390873e-18
3.47344466e-18
1.76942923e-18
1.72655043e-18
3.46903287e-18
7.61239295e-21
-3.53096931e-20
1.72648584e-18
1.69568289e-18
-2.72434159e-20
-3.46157316e-18
-1.74654429e-18
-3.48601266e-18
-3.5059284e-18
-3.56899005e-18
-5.31645808e-18
-1.54859348e-19
-3.57717615e-18
-1.80733116e-18
-1.85361057e-18
-1.78360686e-18
-1.85044392e-18
-1.88668018e-18
-3.65760924e-18
-1.99370499e-18
-2.24306049e-19
-1.99736501e-18
-2.26832584e-19
-1.91819815e-18
-1.8906735e-18
1.56683766e-18
-1.92215326e-18
-1.86695343e-18
-1.38838868e-19
1.69073487e-18
6.71381255e-20
1.12057795e-19
1.82816198e-19
3.60897535e-18
1.83840468e-18
1.77889785e-18
-2.36122991e-20
1.69427296e-18
-1.27084638e-19
-1.51638745e-19
-3.63301924e-18
1.59494446e-18
-1.23362565e-19
-1.74373774e-18
3.49515982e-20
1.72730086e-18
-4.0585568e-21
-1.76705243e-18
-1.80603104e-18
-5.27121464e-18
-5.2008333e-18
-5.21163908e-18
-1.71086355e-18
1.73446035e-18
1.70271281e-18
1.66339645e-18
3.39792309e-18
1.69417177e-18
1.65072809e-18
3.38876968e-18
3.35692189e-18
3.2779772e-18
3.24248052e-18
1.47593111e-18
-2.94931666e-19
-2.59696244e-19
-1.96234237e-18
1.54737957e-18
-1.80253173e-18
4.0240402e-22
5.90629933e-20
1.83337863e-18
1.81058443e-18
3.51333092e-18
1.73921847e-18
7.34982029e-22
-1.73468661e-18
-1.73483899e-18
-1.73460515e-18
-1.73496133e-18
-1.73490064e-18
-1.73500148e-18
-1.73506682e-18
-1.73462401e-18
-3.46512941e-18
-5.16441295e-18
3.60442351e-20
7.11338845e-20
1.80233705e-18
1.67227428e-21
5.66349814e-20
-1.63784352e-18
-1.55100399e-18
2.01314117e-18
2.95200512e-19
5.55009687e-18
-1.46255583e-18
2.03814869e-18
2.07678615e-18
-1.40427687e-18
2.01772123e-18
1.92227944e-18
1.23347905e-19
1.70864828e-18
3.43813165e-18
-2.74821965e-20
-1.73452538e-18
-1.70759399e-18
3.49682978e-18
1.73483292e-18
-2.8017798e-20
3.43331861e-18
1.65140755e-18
1.65871253e-18
-6.36164543e-20
-1.79715588e-18
-1.69493004e-18
-1.63555591e-18
1.00029546e-19
-1.5800006e-18
-1.61566896e-18
6.37076339e-20
2.79232566e-20
-3.49700881e-18
-1.80264419e-18
-1.54872181e-19
3.31726239e-18
1.5816084e-18
1.46449984e-18
1.47994057e-18
-2.11871214e-19
-2.0087131e-18
-2.35171388e-19
-1.45761189e-19
-1.96172491e-18
-1.95413469e-19
-1.44411026e-19
1.59144556e-18
1.65489674e-18
3.42994628e-18
1.77877154e-18
-3.34960719e-18
-3.28123343e-18
-3.16653175e-18
-3.06456039e-18
-1.38397399e-18
-1.4429398e-18
2.47283207e-19
1.28706431e-19
6.86986449e-20
7.15480429e-20
4.39023345e-20
1.74353602e-18
1.77865575e-18
1.80613225e-18
3.53305799e-18
1.80188491e-18
-1.73024082e-18
-1.76636162e-18
-1.80603881e-18
-6.27735945e-20
1.78235139e-18
6.82839185e-20
1.86999167e-18
1.91716565e-18
1.11972114e-19
3.54530248e-18
1.78279169e-18
1.78285946e-18
1.80610318e-18
1.79825169e-18
7.13788748e-20
3.51300153e-18
-1.73859745e-18
-1.80911251e-18
-1.75913443e-18
-3.50546568e-18
-8.67332153e-20
-3.4749519e-18
-7.13135059e-20
-1.14366473e-19
-1.8377235e-18
-1.78961213e-18
4.36986871e-20
1.86447501e-18
1.89677027e-18
-1.58790046e-18
-1.64751736e-18
-1.73482354e-18
-9.14395911e-20
-1.8659795e-19
-2.07940063e-19
-2.90441869e-19
-2.70929621e-19
-2.36053503e-19
-2.62562369e-19
-2.14523799e-19
-1.70709206e-19
-4.08078907e-20
1.50980471e-20
3.52382169e-18
3.51083708e-20
-1.79328923e-18
-1.75479408e-18
-5.2085558e-18
-5.22812127e-18
-3.47407389e-18
-5.22416906e-18
-1.79745195e-18
-4.31075294e-21
-1.71111806e-18
-5.21147978e-18
3.40049247e-21
-1.80198911e-18
-7.1620694e-20
-3.66157641e-20
1.69961696e-18
1.77481012e-18
-1.6587723e-18
1.84687324e-18
1.92126155e-18
1.91333658e-18
-1.59954385e-18
7.5851742e-20
1.65025363e-20
-3.17308737e-20
3.38627743e-18
3.39390116e-18
1.67058775e-18
5.13285128e-18
3.42601226e-18
3.46951225e-18
1.77471082e-18
1.77089609e-18
1.80578174e-18
7.12585573e-20
1.77051988e-18
1.76978871e-18
-3.93542516e-20
-6.67928893e-20
1.71507558e-18
3.47389342e-18
1.802561e-18
1.7784192e-19
-1.59976278e-18
6.39454151e-20
1.21151219e-20
-5.51116752e-20
-7.13460576e-20
-3.9758537e-20
3.95369598e-20
1.81065273e-18
3.57757344e-18
1.87821007e-18
1.84677165e-18
1.85029199e-18
1.81051852e-18
3.61032116e-20
3.97956769e-20
8.39182691e-21
-1.69536681e-18
-3.43777797e-18
-1.70726084e-18
-5.20828653e-18
-5.27119491e-18
-1.80689603e-18
-1.88916376e-18
1.59238381e-18
-1.79119497e-18
-4.45221014e-20
1.71014574e-18
2.57817734e-20
1.66242392e-18
-1.47236157e-19
-1.87146634e-19
-2.53736128e-19
-1.75565424e-19
-3.61648631e-18
-1.82212566e-18
-4.46868932e-21
4.34853547e-20
7.52926437e-20
1.84226954e-18
1.88256895e-18
-1.57855735e-18
1.93008698e-18
1.95347976e-18
3.63628917e-18
1.83733297e-18
7.84761265e-21
1.60070679e-18
-1.39704155e-19
-3.62502513e-18
-1.92922765e-18
1.62200056e-18
1.55191406e-18
-1.56138836e-19
1.57469791e-18
-2.22299234e-19
1.59836384e-18
-1.87776135e-18
-1.82245332e-18
-1.7435839e-18
-1.73061255e-18
-3.42575133e-18
-1.66320471e-18
-3.39712243e-18
-3.31910037e-18
-1.63122178e-18
-5.17502615e-18
-1.68281177e-18
1.75568777e-18
3.50630608e-18
1.84228039e-18
3.6566092e-18
1.92706778e-18
2.00143285e-18
2.03351888e-18
3.76054789e-18
3.75927706e-18
1.92214256e-18
1.11349987e-19
-1.7698086e-18
-1.8333064e-18
-9.55203012e-20
1.61899792e-18
3.37312676e-18
1.61921194e-18
-1.83057002e-18
-1.84195822e-18
-3.59622414e-18
-3.5536829e-18
1.63116938e-18
-9.88703067e-20
3.44184e-18
7.1358661e-20
-1.59931328e-18
1.91751964e-18
2.30074974e-19
3.65723968e-18
1.83427589e-19
-3.2830643e-18
-3.36601364e-18
-1.74170906e-18
-1.79816439e-18
1.59977228e-18
1.54867261e-18
-1.51355836e-19
1.63074137e-18
1.69860569e-18
3.46205702e-18
1.80605212e-18
1.14903157e-19
-1.62743976e-18
-3.36652346e-18
-1.66334084e-18
-3.46457508e-18
-3.49229816e-18
7.74606812e-21
-1.20565128e-20
1.71828725e-18
3.4370581e-18
1.67088791e-18
-1.84608029e-18
-8.46878356e-20
-1.2391122e-19
-3.65642315e-18
-3.64071996e-18
-1.90906687e-18
-3.59346974e-18
-1.82758524e-18
-1.81975782e-18
-1.56364544e-19
-1.99314409e-18
-1.9774505e-18
-2.14877184e-19
-1.94341866e-19
-1.77981641e-18
-4.46864304e-21
-1.73809938e-18
1.81353001e-18
7.96705287e-20
3.57739825e-18
7.086383e-18
1.88675706e-18
1.89135927e-18
1.92591429e-18
1.91352396e-18
3.60869259e-18
1.84976466e-18
1.78333217e-18
1.74347456e-18
1.770118e-18
1.7276274e-18
-1.51339169e-22
1.73794682e-18
1.66003645e-18
-4.07502131e-20
-7.63094089e-20
-1.84990502e-18
-1.07633628e-19
-9.90777791e-20
-1.76605234e-18
-3.43734957e-18
-1.63106006e-18
-1.58293271e-18
1.95094575e-19
2.18830034e-19
1.91046283e-18
1.91706703e-18
3.54500818e-18
1.69501559e-18
-1.07837595e-19
-1.74893147e-19
1.55576606e-18
5.05716027e-18
5.1285641e-18
3.46505096e-18
1.76622956e-18
1.80149696e-18
1.76628745e-18
3.47358525e-18
7.9314812e-21
-1.76957025e-18
-1.7343319e-18
-1.69504841e-18
-1.702806e-18
3.59292696e-20
-1.65983086e-18
-3.47681417e-18
-3.50833707e-18
-6.95861505e-18
-5.23177153e-18
-1.74210055e-18
7.55484843e-20
1.88922797e-18
3.60893049e-18
1.34912374e-19
1.84521684e-18
8.09125151e-21
-3.19592241e-20
-7.51660798e-20
-1.10435115e-19
1.67126074e-18
1.70718357e-18
2.76623666e-20
1.79404175e-18
-1.65898114e-18
-1.64228186e-18
1.24300738e-19
1.91820051e-18
2.5083664e-19
-1.4797934e-18
1.96172517e-18
1.92613425e-18
1.12335711e-19
-1.65886323e-18
4.01261758e-20
1.69979923e-18
1.69806436e-18
1.65016661e-18
-1.9473324e-19
1.5542344e-18
1.48404624e-18
1.47670883e-18
-1.4821516e-19
3.35798991e-18
-8.49972121e-21
-1.70317352e-18
1.80614447e-18
-1.65877549e-18
-1.6633892e-18
-1.70730765e-18
-1.7743637e-18
-7.24604265e-20
1.54783847e-18
-1.957666e-18
-3.69372287e-18
-2.04168428e-18
-2.04234943e-18
-2.07013478e-18
-3.66239045e-19
1.43905997e-18
-2.67525783e-19
3.27364505e-18
3.35678013e-18
1.65426803e-18
1.6514154e-18
1.69804725e-18
-4.08571575e-20
1.61658715e-18
3.40992703e-18
3.48883853e-18
1.76779001e-18
-1.56415695e-18
3.68802114e-18
1.9223457e-19
2.26746386e-19
-1.58636885e-18
-3.31752056e-18
-1.57939099e-18
1.81604785e-18
1.55182511e-19
1.47259978e-19
1.04384001e-19
3.62422051e-18
-3.35030539e-18
1.79439079e-18
-3.48114671e-18
-1.79454442e-18
1.63881088e-18
-1.88956492e-18
-1.1972313e-19
-7.2401776e-20
-1.10378967e-19
-1.80524745e-18
1.19385265e-20
7.13811669e-20
3.56521241e-18
1.88559405e-18
1.92908139e-18
1.83963696e-18
1.08141534e-19
1.86192041e-18
8.39314396e-20
1.07036541e-19
1.87712325e-18
1.07712691e-19
1.8111968e-18
-1.68997738e-18
-1.72990966e-18
-1.73901731e-18
-4.40460512e-20
-3.54086152e-18
-3.52884104e-18
-1.76240604e-18
-3.44606282e-18
1.55611636e-20
-1.73925771e-18
-1.79449283e-18
-1.83374108e-18
-3.54483308e-18
-1.77858742e-18
-3.46988672e-18
-1.69545636e-18
1.77489944e-18
1.84625502e-18
-3.35695692e-18
1.52043288e-19
1.87020015e-19
-1.59568496e-18
9.86722447e-20
-1.73065423e-18
-1.79384203e-18
-9.47070767e-20
-4.03156463e-20
-5.16731258e-20
-4.84536696e-21
3.47265976e-18
1.66014541e-18
-1.77472002e-18
-7.13728963e-20
-7.17452325e-20
3.42855955e-18
3.38155571e-18
1.61508104e-18
3.32961717e-18
-1.83625237e-19
3.23853935e-18
3.28167862e-18
1.55532544e-18
-1.89058227e-18
3.3060605e-18
1.58707456e-18
1.62977272e-18
1.57557289e-18
1.57993622e-18
-6.04674362e-20
-3.53209091e-18
-3.43706615e-18
-6.80016557e-18
-5.06452456e-18
-3.32205039e-18
-1.61139526e-18
-3.35452481e-18
6.77302949e-20
-1.66343247e-18
4.79718971e-20
4.40480023e-20
-1.69805837e-18
-3.38905142e-18
-1.57982146e-18
1.39909147e-19
1.4443497e-19
1.98803673e-19
1.88171589e-18
1.78661361e-18
1.73069268e-18
3.38222343e-18
-1.35341783e-19
3.31083913e-18
1.6199373e-18
-1.75906051e-18
-1.72567286e-18
-3.35665095e-18
2.62320797e-19
-1.40443545e-18
3.66590564e-19
2.1440322e-18
-1.39975417e-18
2.64381394e-19
3.70114213e-18
1.85578287e-18
1.85072943e-18
1.8106563e-18
3.50549227e-18
3.52934905e-20
1.69495688e-18
-7.58415448e-20
-1.03177229e-19
-1.83800659e-18
-7.57854673e-20
-3.9901829e-20
3.0402516e-20
-8.63132983e-21
3.46044382e-18
-7.98144966e-20
1.55270902e-18
-1.75022299e-19
-2.14235368e-19
-1.51847991e-19
1.64951467e-18
3.38095521e-18
-8.01604555e-20
-3.57709341e-18
-3.62090527e-18
-1.92565046e-18
-1.79560552e-19
-1.8791011e-18
-1.54956292e-19
-7.98188182e-20
-3.18887751e-20
3.38327128e-22
-3.43297227e-18
1.15271102e-19
3.61638815e-18
1.39508119e-19
1.87751262e-18
1.80992272e-18
1.20733247e-23
1.66748016e-18
-6.82024649e-20
-1.84971348e-18
-1.84961624e-18
-3.54190575e-18
-5.31944e-18
-1.84996056e-18
-3.53790699e-18
-1.80657584e-18
-3.51781374e-18
-3.51375309e-18
-3.50169028e-18
-3.50144268e-18
-1.7741589e-18
1.78960303e-22
4.82082013e-20
-1.62302542e-18
1.04696131e-19
1.9143897e-19
2.31077712e-19
1.91498501e-18
3.69239964e-18
3.69549688e-18
1.00012394e-19
5.24067522e-18
1.75428635e-18
1.67197412e-18
-3.89083299e-20
3.95193666e-20
-1.6594738e-18
1.03069803e-19
9.85688037e-20
2.28927793e-20
1.61971805e-18
-3.67554073e-18
-2.38399622e-19
-1.95769342e-18
1.56696103e-18
1.6189167e-18
5.17544934e-18
1.69959607e-18
1.76654788e-18
1.83691058e-18
2.85824083e-20
1.77877569e-18
-1.67860503e-18
4.96233556e-20
1.92149929e-18
3.71526766e-18
3.6728175e-18
1.8685314e-19
3.56172762e-18
3.479142e-18
1.74366888e-18
3.552366e-18
5.2984277e-18
3.47676301e-18
5.1551788e-18
4.96234617e-18
3.15597858e-18
1.41316127e-18
-2.23514227e-19
-8.90152244e-20
1.69085915e-18
-1.62571686e-18
6.76244063e-20
-1.66589751e-18
-1.60311513e-18
-1.57079134e-18
1.76647485e-19
1.98959429e-18
2.97956838e-19
-1.55443492e-18
1.88219018e-18
1.82292802e-18
1.73743709e-20
-1.65539354e-18
1.79903711e-18
6.84093348e-20
-1.61211086e-18
-1.65954232e-18
1.75039203e-18
-1.77876351e-18
-1.83476104e-18
-1.95274503e-18
1.47672561e-18
1.54998965e-18
-2.31283306e-19
1.54283409e-18
-1.09458986e-19
-1.5505049e-19
1.61556838e-18
-6.79649867e-20
1.6635064e-18
-1.77857031e-18
-4.87484699e-21
-4.96723654e-22
-1.73481948e-18
-5.20444993e-18
-6.94732234e-18
-5.28309489e-18
-1.80272441e-18
-1.83795796e-18
-1.0270158e-19
3.85623306e-20
1.76310713e-18
9.94806945e-20
1.1139332e-19
4.08343589e-20
-1.69476796e-18
3.97083919e-21
-3.69323172e-22
1.73839826e-18
3.49891459e-20
-3.18388829e-21
-1.68619462e-18
1.85796558e-18
1.83928915e-18
1.90562577e-18
1.46836485e-19
8.04509703e-20
1.79216921e-18
1.86256073e-18
3.61771467e-18
1.98563848e-18
2.90364055e-19
2.19631082e-19
1.91612027e-19
1.24246021e-19
7.59116278e-20
-1.69863707e-18
-1.69090443e-18
-3.42131146e-18
-1.65910004e-18
-1.63132002e-18
-1.63082773e-18
1.81061535e-18
3.5131502e-18
1.73462705e-18
-4.4459306e-20
1.65425436e-18
-1.87748039e-18
-1.38992116e-19
-1.87735102e-18
-7.59045469e-20
-1.7519333e-20
1.64306658e-18
3.40104018e-18
1.63896518e-18
-1.46257998e-19
1.69884373e-18
3.51349512e-18
1.03429849e-19
1.30961124e-19
1.83787182e-18
3.52071046e-20
-1.10850976e-19
-1.90953508e-18
-5.37581931e-18
-5.3955425e-18
-3.63322024e-18
-1.83843206e-18
1.71463676e-18
3.21028665e-20
1.82637973e-18
1.87757893e-18
1.15319988e-19
1.77114601e-18
8.26335804e-21
1.77304461e-18
3.38188749e-18
1.64614236e-18
-1.79018945e-19
-1.98098868e-18
-2.18783243e-19
-1.95633291e-18
-7.7037269e-20
-3.51396853e-18
-1.74692548e-18
1.76940634e-18
7.63456764e-21
-1.70392305e-18
-3.52510833e-18
-5.31952153e-18
-1.86627664e-18
-1.94410298e-18
-5.35569141e-18
-1.82384734e-18
-1.86246367e-18
1.61777065e-18
1.5508693e-18
-1.98860021e-18
-1.75299972e-19
-1.87761797e-18
-1.78300179e-18
2.29344451e-20
1.76227295e-18
3.4737401e-18
1.75512857e-18
5.28802286e-18
1.8347622e-18
1.70319718e-19
1.47052339e-19
1.8150046e-18
3.51758304e-18
5.2478212e-18
3.50146299e-18
3.49722706e-18
-3.73512065e-23
-2.73340212e-20
-3.50075621e-18
-1.76559197e-18
-3.38588678e-18
-3.3215582e-18
-1.55013711e-18
3.37150144e-19
2.02554781e-18
2.51203005e-19
1.99590906e-18
1.81142495e-18
3.47040137e-18
5.14523102e-18
3.37111495e-18
-7.09671948e-20
-2.44482305e-22
-1.66345875e-18
1.83765932e-18
-1.64036502e-18
-7.50551133e-21
-1.79403375e-18
-9.57021637e-20
-3.62404433e-18
-1.85862874e-18
-3.58207242e-18
1.58712873e-18
-1.47237845e-19
-1.07969941e-19
-8.06426452e-20
1.64684155e-18
-1.81009869e-18
-3.52514768e-18
-1.7271667e-18
-1.70983589e-18
1.03476706e-19
-1.58010803e-18
1.16128732e-19
1.43063878e-19
1.84225876e-18
1.81452466e-18
-5.12018756e-18
-6.89349826e-18
-6.82770922e-18
-3.36589883e-18
-1.66243657e-18
-5.09022385e-18
1.72679166e-18
1.65123079e-18
-1.04491665e-19
-2.14144038e-19
1.51640344e-18
-1.3951262e-19
-3.54093916e-18
-3.44670323e-18
-1.68001988e-18
-1.69863362e-18
-3.41833759e-18
-1.73460602e-18
-4.64240887e-20
1.74273691e-18
3.48575929e-18
1.76705595e-18
1.78984428e-18
1.76190099e-18
-1.76672888e-18
-3.57315239e-18
-3.62153172e-18
1.53929121e-18
-1.95335445e-18
-1.90624073e-18
-1.47119472e-19
-1.82253205e-18
-1.74378574e-18
-1.73491752e-18
3.775025e-22
4.65686228e-21
3.95971223e-20
3.16490387e-20
3.5770092e-20
1.81359268e-18
1.77941844e-18
1.84600174e-18
3.57270089e-18
6.81400021e-20
7.96563451e-20
-3.45161761e-18
-1.64632051e-18
-3.32648497e-18
-3.33768211e-18
-3.29120242e-18
7.56024478e-20
-3.06358151e-20
1.7110545e-18
3.40175335e-18
5.15107585e-18
6.85040063e-18
8.56540002e-18
5.0643972e-18
3.28291491e-18
1.58810612e-18
-6.76760302e-20
3.42962692e-18
5.23152682e-18
5.27106584e-18
3.50087951e-18
3.8994178e-22
-1.75743894e-18
-3.46142996e-18
-1.74657693e-18
-1.75110061e-18
-1.77139815e-18
1.63951543e-18
-5.51468122e-20
1.77459256e-18
9.61414125e-20
1.91423796e-18
3.70001447e-18
3.65314416e-18
3.61333066e-18
1.8889148e-18
-1.65505189e-18
-3.43312663e-18
-3.42999566e-18
-3.46494896e-18
-3.46846667e-18
-1.73450065e-18
-1.74315347e-18
-1.81342324e-18
-6.82919652e-20
-1.12614201e-19
-1.94768769e-19
-1.48297305e-19
-1.83602211e-19
-2.30579346e-19
-1.92173254e-19
-1.96263366e-18
-1.99387979e-18
-1.9109922e-18
-5.35165124e-18
-3.55713633e-18
-3.47794807e-18
-1.73459511e-18
-1.73011514e-18
1.77889123e-18
1.81067331e-18
1.84644584e-18
1.91697055e-18
1.39349297e-19
1.84266584e-18
1.81864767e-18
8.38492349e-21
-1.74340629e-18
-1.81829574e-18
-3.57746072e-18
-3.6089708e-18
-1.82104105e-19
1.61864674e-18
-1.84642961e-18
-1.77146607e-18
-3.47423809e-18
-1.74245021e-18
-3.42926099e-18
-1.68168688e-18
1.19929949e-19
1.90984948e-18
1.71676875e-19
-1.54802536e-18
-3.34972179e-18
-1.69812972e-18
-1.73918024e-18
-1.80642924e-18
-3.57243265e-18
-1.83786581e-18
1.65923928e-18
-3.54793026e-20
1.80932239e-18
3.54139605e-18
3.62079487e-18
2.26642592e-19
-1.55432232e-18
1.94955881e-18
1.51454511e-19
7.59448414e-20
-2.05668428e-23
-3.54564831e-18
1.57872713e-18
1.47209973e-18
1.44745253e-18
3.18228762e-18
-2.62449169e-19
1.58733814e-18
1.7463507e-18
1.38934079e-19
1.64186453e-19
2.62812435e-19
-1.46417207e-18
1.87978345e-18
1.82792411e-19
1.193715e-19
1.77512114e-18
1.77437126e-18
1.73933347e-18
1.74379951e-18
1.81838026e-18
1.83827458e-18
-1.6387834e-18
-1.6198539e-18
7.89382356e-20
-4.69004794e-20
-7.56185987e-20
-1.83441037e-18
-1.91276312e-18
-1.12351951e-19
3.39287895e-18
3.42501137e-18
3.46466436e-18
3.4738945e-18
6.9834064e-18
3.54548065e-18
5.30769689e-18
3.57287755e-18
3.54071801e-18
3.46919347e-18
1.6632212e-18
-1.07682111e-19
-1.882135e-18
-1.88615233e-18
-5.35567657e-18
-5.3513669e-18
-5.30720409e-18
-3.50118408e-18
3.16405136e-20
-1.63579682e-18
-1.63159229e-18
-3.39834936e-18
-1.73449503e-18
-3.52760796e-18
-1.71495756e-18
-1.69822571e-18
-1.63028816e-18
-1.47352352e-18
-1.51939414e-18
1.91068936e-18
3.65958695e-18
1.77960319e-18
4.38316888e-21
1.73783463e-18
1.65523405e-18
-8.3930537e-20
-1.38460724e-19
-3.56096489e-18
-1.77491394e-18
-1.79357465e-18
-1.69946148e-18
1.78587187e-18
1.72703367e-18
-1.20633932e-20
-3.46215522e-18
-3.50121952e-18
-1.81369029e-18
-1.7713738e-18
-1.77154933e-18
-1.81444117e-18
-4.48181027e-20
1.61976725e-18
1.58822655e-18
1.59563197e-18
3.32687324e-18
3.39815923e-18
1.77392937e-18
5.30719813e-18
1.87428876e-18
1.92148035e-18
-1.57907471e-18
1.52070154e-19
5.35586445e-18
3.61667075e-18
1.85103375e-18
1.6359082e-19
1.87240199e-19
1.87131646e-18
1.921893e-18
3.63291047e-18
1.11995484e-19
-3.36187928e-18
-3.35862325e-18
-3.44173364e-18
-1.81391449e-18
-3.57389149e-18
-2.18688011e-19
-2.58318487e-19
-1.84613336e-19
1.49970484e-18
1.50437208e-18
-1.32112916e-19
1.63069958e-18
-5.61656438e-20
1.7532106e-18
-1.73926656e-18
-1.80136236e-18
-1.79782761e-18
-3.54069845e-18
-1.77885973e-18
-1.73922858e-18
1.73884258e-18
1.77824266e-18
1.80627291e-18
3.53311579e-18
1.80152103e-18
-3.18163289e-22
1.65868245e-18
3.31745574e-18
1.50315612e-18
3.13148636e-18
-3.58296445e-19
1.41172096e-18
-3.01901107e-19
1.57886685e-18
-3.68584868e-20
-1.70736351e-18
6.37163657e-20
1.1099193e-19
7.54609596e-20
3.16210615e-20
-4.44907696e-21
1.66311979e-18
-3.56843547e-18
-3.5285776e-18
-1.73881553e-18
-3.45398966e-18
2.70555112e-20
-3.46234826e-18
-6.71263741e-20
-7.51938427e-20
-1.81018009e-18
-3.54067584e-18
-1.76681595e-18
-1.7394179e-18
-1.19375924e-20
-1.73485668e-18
-1.72726248e-18
-3.50467206e-18
-3.47341606e-18
-3.46970278e-18
-1.73465825e-18
-5.19938223e-18
-1.68667623e-18
-1.61958804e-18
1.35593958e-19
1.35403485e-19
-1.61925773e-18
4.84179695e-20
3.47401649e-18
1.73933535e-18
1.77865531e-18
3.54481089e-18
1.03318803e-19
1.84240706e-18
-1.61967673e-18
1.80642284e-18
1.72779851e-18
-3.18041233e-20
1.67084978e-18
1.62804601e-18
-4.06935189e-20
-4.45221802e-20
-1.77872037e-18
-1.77089107e-18
-6.75014821e-20
5.16810923e-18
1.69544657e-18
4.03182164e-21
1.81333749e-18
6.39253559e-20
6.42555769e-20
-1.65104998e-18
1.78743231e-18
6.78227784e-20
3.49310085e-18
1.76512544e-18
-7.55783002e-20
-1.78228183e-19
-1.36476405e-19
-1.86884981e-19
-1.59401723e-19
1.65712111e-18
1.61505015e-18
-1.58592652e-19
-1.87421863e-18
-1.30765526e-19
1.66739841e-18
6.24810178e-20
9.97212566e-20
1.869597e-19
1.87273215e-19
-1.6298332e-18
-1.62327582e-18
1.78262093e-18
1.73888304e-18
8.81552639e-23
4.08010624e-21
1.77017496e-18
1.73175921e-18
3.97496963e-20
-1.69098875e-18
-3.42461203e-18
1.54732927e-19
-1.55593834e-18
-1.56703347e-18
-1.58302364e-18
1.86215287e-18
-1.68974188e-18
1.80606935e-18
1.80140485e-18
3.46170004e-18
-3.57713936e-20
-1.83382566e-18
-1.07498037e-19
1.61501683e-18
1.61060792e-18
1.58744469e-18
-1.87005543e-18
-1.84237271e-18
3.38642447e-18
3.46955982e-18
8.27643824e-20
-1.63131786e-18
-1.63428909e-18
1.88531371e-18
7.962451e-20
2.77359251e-20
-1.7827998e-18
-1.87364623e-18
-1.86212587e-18
-5.34669844e-18
-8.76714168e-20
1.72540078e-18
1.72560531e-18
3.38998597e-18
-1.79870483e-18
-1.79839587e-18
-3.54413302e-18
-3.43452123e-18
-5.14174594e-18
-1.98381534e-20
-3.5057804e-18
-1.82610918e-18
-1.42597482e-19
1.61118696e-18
-1.15326451e-19
-6.78456688e-20
-7.12101388e-20
-3.94879649e-20
3.91401964e-20
7.09944743e-20
1.80255984e-18
1.14691471e-19
1.10820118e-19
-1.70546735e-18
-1.69041463e-18
-1.68301155e-18
-2.71816682e-21
2.82733138e-20
1.77824783e-18
3.51297808e-18
3.50185665e-18
3.50561835e-18
3.54840783e-18
4.06714777e-20
7.12339592e-20
7.49072137e-20
7.14675835e-20
3.221668e-20
-1.72599741e-18
-1.68665891e-18
-1.72940177e-18
1.06318596e-19
1.83362103e-18
-1.70609868e-18
4.75194553e-20
-1.75753327e-18
-1.77366293e-18
-3.47358704e-18
-5.39142234e-23
-1.73447172e-18
-1.72623937e-18
1.82221942e-18
1.46903358e-19
1.90538109e-18
2.1399843e-19
1.47059384e-19
-1.70252415e-18
-7.07466893e-20
-1.86560933e-18
-1.43697766e-19
-1.98305392e-19
1.57889018e-18
1.59065389e-18
1.55226619e-18
3.35706242e-18
1.65827781e-18
1.69081571e-18
1.73016296e-18
-4.63679686e-21
-4.36735691e-20
-7.15715947e-20
3.4008446e-18
5.08898141e-18
1.61968662e-18
1.66193205e-18
-1.85040643e-18
1.60681108e-18
-3.65693435e-18
-3.64146246e-18
-1.83293991e-19
-5.39864184e-18
-1.81120132e-18
-6.72970864e-20
3.83754811e-22
1.8105712e-18
1.46959121e-19
-1.55557926e-18
-1.55159608e-18
-5.02218976e-18
-3.4011596e-18
-5.19488215e-18
-3.44086651e-18
-3.41686338e-18
-3.34232676e-18
-1.611371e-18
-3.34581096e-18
-1.59510429e-18
-3.39249569e-18
1.35643559e-19
1.9128772e-19
1.92595373e-18
1.87471055e-18
1.84279066e-18
8.33540522e-20
1.73868663e-18
-1.77908607e-18
-1.81931136e-18
-1.82689223e-19
-1.91046196e-18
3.24680543e-18
3.24762009e-18
5.13535418e-18
3.39413477e-18
3.49276096e-18
1.80627128e-18
1.81485275e-18
1.84993371e-18
1.84244867e-18
1.84210486e-18
3.57561406e-18
-1.73401036e-18
1.69472755e-20
-1.67853188e-18
6.80790372e-20
1.86160796e-18
1.02366497e-19
3.44619489e-20
1.62434939e-18
-1.9085899e-18
1.56845423e-18
-1.42018037e-19
-4.83708606e-20
2.2585668e-20
3.54696907e-20
7.85623229e-20
-1.69868391e-18
3.1991304e-20
3.50639073e-20
1.69914773e-18
1.70273286e-18
-1.77074925e-18
3.39038792e-18
3.42952968e-18
-7.12066344e-20
1.65459196e-18
-1.19414429e-19
1.59181851e-18
1.63832948e-18
-6.77582828e-20
-3.43753908e-18
-1.58331179e-18
-3.2063014e-18
-3.18584577e-18
2.48007823e-19
1.97027858e-18
3.64147161e-18
3.62069512e-18
1.86984629e-18
3.57245891e-18
1.77379847e-18
1.66746024e-18
5.09698207e-18
-1.42745411e-19
-1.07748659e-19
-8.03927388e-20
1.65095185e-18
-4.08645625e-20
-1.81081986e-18
-1.84977135e-18
-3.57733187e-18
-7.04710155e-18
-3.58914047e-18
-3.59800569e-18
-3.66938929e-18
-2.94078948e-19
-3.79212838e-18
-2.10095497e-18
-3.03148262e-19
-2.31970955e-19
-1.96198898e-19
1.57809969e-18
-1.52127763e-19
1.58287329e-18
1.58736958e-18
1.62751944e-18
-6.67436796e-20
3.51351679e-18
1.47003001e-19
1.94132261e-18
2.10976347e-19
-1.5436602e-18
1.19893736e-19
1.78374039e-18
1.85365909e-18
7.25985418e-20
1.12279699e-19
1.94711711e-19
-5.05588272e-18
-3.29004403e-18
1.91158627e-19
-1.58290459e-18
-5.10064357e-18
-1.70301994e-18
-3.50158298e-18
-3.57303302e-18
-1.88161349e-18
-1.42508127e-19
-6.34401553e-20
3.3012891e-22
-1.6708559e-18
-1.5919924e-18
1.8820367e-18
-1.62254838e-18
-1.61518869e-18
-1.61932107e-18
-1.66689568e-18
6.69381811e-20
8.11106467e-24
-7.14737279e-20
-1.8379339e-18
-9.88571472e-20
1.70262946e-18
3.49691414e-18
3.5292375e-18
3.54513327e-18
7.91455634e-20
1.73138687e-18
1.7305785e-18
-3.60550322e-20
-3.57589773e-18
-6.35737029e-20
-2.80006419e-20
-1.70327286e-18
1.83332188e-18
1.83764678e-18
-1.6674619e-18
-4.33151576e-20
-1.38631348e-19
-1.35900199e-19
1.51687265e-18
3.35297589e-18
5.12409875e-18
5.12512506e-18
3.46827868e-18
1.69919953e-18
1.73038243e-18
3.46455664e-18
3.42965313e-18
3.43760165e-18
-3.17703829e-20
-3.95462458e-20
-8.56684288e-21
-1.77442361e-18
-1.76247291e-18
-3.45724803e-18
1.77595002e-18
1.52311458e-19
2.63194505e-19
-1.43911452e-18
3.70304018e-19
-1.36050047e-18
3.34884335e-19
-3.17468486e-18
-1.55115521e-18
8.01591346e-20
1.74243984e-18
3.35826926e-18
1.59159238e-18
1.63047607e-18
1.58016652e-18
-1.85416741e-18
-7.2672308e-20
-1.11028335e-19
-3.54518776e-18
-5.23640141e-18
3.09522642e-22
2.7664468e-20
3.50066716e-18
3.53372129e-20
-1.77009809e-18
-3.50962065e-18
-5.31475483e-18
-3.572561e-18
-1.8028232e-18
-7.50978237e-20
1.7698568e-18
1.80628006e-18
1.80727887e-18
1.8895375e-18
1.8907413e-18
1.92248502e-18
1.99250615e-18
1.95019431e-18