/*--------------------------------*- C++ -*----------------------------------*\
| =========                 |                                                 |
| \\      /  F ield         | OpenFOAM: The Open Source CFD Toolbox           |
|  \\    /   O peration     | Version:  2206                                  |
|   \\  /    A nd           | Website:  www.openfoam.com                      |
|    \\/     M anipulation  |                                                 |
\*---------------------------------------------------------------------------*/
FoamFile
{
    version     2.0;
    format      ascii;
    arch        "LSB;label=32;scalar=64";
    class       volVectorField;
    location    "2e-07";
    object      U;
}
// * * * * * * * * * * * * * * * * * * * * * * * * * * * * * * * * * * * * * //

dimensions      [0 1 -1 0 0 0 0];

internalField   nonuniform List<vector> 
3183
(
(-2.89536657e-21 0 0)
(1.69504536e-21 0 0)
(1.89611739e-15 0 0)
(-1.99522233e-15 0 0)
(-2.09950583e-15 0 0)
(-2.29884502e-22 0 0)
(-1.41065255e-27 0 0)
(-1.53930558e-28 0 0)
(7.23439242e-28 0 0)
(3.89739288e-27 0 0)
(7.4198843e-22 0 0)
(9.92112024e-21 0 0)
(3.15586491e-15 0 0)
(3.32079341e-15 0 0)
(-3.49434006e-15 0 0)
(-3.67698641e-15 0 0)
(3.86913815e-15 0 0)
(-4.0713823e-15 0 0)
(-4.28418789e-15 0 0)
(4.50805013e-15 0 0)
(-2.27601596e-21 0 0)
(-3.87292803e-26 0 0)
(2.41138085e-26 0 0)
(1.31397902e-25 0 0)
(6.30496411e-21 0 0)
(7.6950215e-20 0 0)
(6.43963494e-15 0 0)
(-3.29582087e-21 0 0)
(-7.13021224e-15 0 0)
(7.5027196e-15 0 0)
(-1.57898968e-14 0 0)
(8.30751291e-15 0 0)
(8.74183982e-15 0 0)
(-9.1986508e-15 0 0)
(9.59789965e-21 0 0)
(1.01848571e-14 0 0)
(-1.07171277e-14 0 0)
(-1.12780125e-14 0 0)
(1.18669151e-14 0 0)
(-6.24336627e-20 0 0)
(-1.31402555e-14 0 0)
(1.02551647e-18 0 0)
(2.90962201e-14 0 0)
(2.06465476e-18 0 0)
(-1.53267288e-18 0 0)
(1.68195097e-18 0 0)
(-1.78373625e-14 0 0)
(1.8767473e-14 0 0)
(-1.9747796e-14 0 0)
(3.01294528e-18 0 0)
(2.18638393e-14 0 0)
(-2.30113203e-14 0 0)
(-2.42021648e-14 0 0)
(2.546243e-14 0 0)
(4.82246492e-18 0 0)
(-2.82022038e-14 0 0)
(3.67812369e-22 0 0)
(3.1225227e-14 0 0)
(3.28648097e-14 0 0)
(-1.46995161e-17 0 0)
(3.27870229e-17 0 0)
(-1.81572219e-17 0 0)
(-4.02485526e-14 0 0)
(1.6386111e-18 0 0)
(-4.45722365e-14 0 0)
(4.69332228e-14 0 0)
(-1.01206777e-17 0 0)
(-1.42336671e-18 0 0)
(5.46828314e-14 0 0)
(-5.75246304e-14 0 0)
(6.05016646e-14 0 0)
(-6.36733867e-14 0 0)
(5.61197424e-18 0 0)
(7.01418703e-14 0 0)
(-7.41509e-14 0 0)
(-7.79813631e-14 0 0)
(-1.92002563e-16 0 0)
(-8.63949554e-14 0 0)
(-9.08140255e-14 0 0)
(-1.81925897e-16 0 0)
(1.0029016e-13 0 0)
(2.11518119e-13 0 0)
(1.184072e-15 0 0)
(8.6683421e-16 0 0)
(1.91850947e-15 0 0)
(1.30240845e-13 0 0)
(1.36637187e-13 0 0)
(1.63433066e-15 0 0)
(4.49422596e-13 0 0)
(3.13938781e-13 0 0)
(-1.85063889e-15 0 0)
(-3.29811705e-15 0 0)
(-1.83364793e-13 0 0)
(-6.75527015e-15 0 0)
(1.99792899e-13 0 0)
(-9.22120092e-15 0 0)
(-2.19565685e-13 0 0)
(-2.73559153e-15 0 0)
(-4.80417432e-13 0 0)
(-2.37747969e-13 0 0)
(1.0686634e-14 0 0)
(6.55220313e-15 0 0)
(1.7799355e-14 0 0)
(2.84748057e-13 0 0)
(-1.85619085e-15 0 0)
(-1.95035218e-14 0 0)
(-1.09801988e-14 0 0)
(3.0632762e-13 0 0)
(-3.19801442e-13 0 0)
(-3.18589423e-13 0 0)
(-1.93294925e-16 0 0)
(-3.21203057e-13 0 0)
(-3.42885431e-13 0 0)
(2.97463029e-13 0 0)
(-3.0458132e-14 0 0)
(-2.17249631e-14 0 0)
(1.20820432e-15 0 0)
(3.16027638e-14 0 0)
(1.8617815e-14 0 0)
(-2.85697727e-13 0 0)
(-3.0371758e-13 0 0)
(1.49446519e-15 0 0)
(1.33649609e-15 0 0)
(1.21728249e-14 0 0)
(6.46832985e-13 0 0)
(6.46778517e-13 0 0)
(6.49004559e-13 0 0)
(6.35687098e-13 0 0)
(-2.17673645e-14 0 0)
(3.19260878e-13 0 0)
(2.8572163e-13 0 0)
(3.14546618e-13 0 0)
(2.85733226e-13 0 0)
(-3.17601587e-13 0 0)
(-2.31062942e-14 0 0)
(-1.34660038e-14 0 0)
(-3.17482229e-13 0 0)
(-9.63383568e-15 0 0)
(1.10264138e-14 0 0)
(3.30832128e-13 0 0)
(-2.85586736e-13 0 0)
(2.22100477e-14 0 0)
(3.28910476e-14 0 0)
(1.36224864e-14 0 0)
(2.18467024e-14 0 0)
(3.06612715e-13 0 0)
(1.15010408e-15 0 0)
(3.09931297e-13 0 0)
(3.06356581e-13 0 0)
(-1.27956258e-15 0 0)
(-6.3576176e-13 0 0)
(9.62977027e-15 0 0)
(-6.50141724e-13 0 0)
(-9.54326112e-13 0 0)
(-6.45506291e-13 0 0)
(-3.3062918e-13 0 0)
(-3.19788072e-13 0 0)
(3.18380968e-13 0 0)
(-4.40350364e-17 0 0)
(6.38218195e-13 0 0)
(3.29303586e-13 0 0)
(-1.04219146e-15 0 0)
(3.29456795e-13 0 0)
(3.21091608e-13 0 0)
(6.49261317e-13 0 0)
(1.11069253e-14 0 0)
(2.07005401e-14 0 0)
(3.29481774e-13 0 0)
(1.0945312e-14 0 0)
(-9.67105326e-15 0 0)
(-3.21302219e-13 0 0)
(-3.63312316e-13 0 0)
(-3.30009575e-13 0 0)
(-3.73144776e-13 0 0)
(-3.39333799e-13 0 0)
(-3.1756852e-13 0 0)
(3.13702202e-13 0 0)
(1.93397699e-14 0 0)
(-3.05090064e-13 0 0)
(1.06474298e-16 0 0)
(-1.08813319e-14 0 0)
(-6.35929517e-13 0 0)
(-3.30689875e-13 0 0)
(-1.34629533e-14 0 0)
(-9.81573612e-15 0 0)
(-3.28255072e-13 0 0)
(-3.28136023e-13 0 0)
(2.17328154e-14 0 0)
(-6.26973363e-13 0 0)
(-2.85469286e-13 0 0)
(2.71050949e-14 0 0)
(4.3900781e-14 0 0)
(1.03935257e-14 0 0)
(-2.72178969e-13 0 0)
(-6.20587932e-13 0 0)
(3.31214387e-14 0 0)
(-2.96315587e-13 0 0)
(3.40943935e-14 0 0)
(-2.95242518e-13 0 0)
(3.28340867e-13 0 0)
(1.39240927e-16 0 0)
(6.28551949e-13 0 0)
(-1.23141154e-14 0 0)
(6.02978146e-13 0 0)
(-4.84150907e-16 0 0)
(-3.28368244e-14 0 0)
(3.16901038e-13 0 0)
(-1.35197903e-14 0 0)
(6.1389107e-13 0 0)
(2.09955986e-15 0 0)
(-2.18389415e-14 0 0)
(-3.22416759e-13 0 0)
(-6.50546407e-13 0 0)
(-6.59019301e-13 0 0)
(-6.57865155e-13 0 0)
(-3.50109368e-13 0 0)
(-3.20041107e-13 0 0)
(-3.30379778e-13 0 0)
(-2.9533698e-13 0 0)
(2.33090839e-14 0 0)
(6.60566787e-13 0 0)
(6.94235219e-13 0 0)
(3.51815479e-13 0 0)
(3.63867588e-13 0 0)
(3.66221546e-13 0 0)
(3.40812822e-13 0 0)
(2.07230973e-14 0 0)
(-1.2005225e-15 0 0)
(-6.67207784e-13 0 0)
(-9.00090912e-15 0 0)
(5.90703832e-13 0 0)
(-1.50439923e-14 0 0)
(6.1486527e-13 0 0)
(2.96520504e-13 0 0)
(-1.23723731e-14 0 0)
(-2.3213632e-14 0 0)
(3.16850403e-13 0 0)
(-2.32269721e-14 0 0)
(-1.24539554e-14 0 0)
(-3.40423489e-13 0 0)
(-3.40498326e-13 0 0)
(3.04749801e-13 0 0)
(2.83134978e-13 0 0)
(3.07057327e-13 0 0)
(6.05298391e-13 0 0)
(6.2458879e-13 0 0)
(-1.35281645e-14 0 0)
(3.05026108e-13 0 0)
(-9.90649458e-15 0 0)
(-1.1151e-14 0 0)
(-2.43732878e-14 0 0)
(-3.29731645e-13 0 0)
(-1.11582132e-14 0 0)
(-2.31238659e-14 0 0)
(-1.61362242e-15 0 0)
(-2.31798679e-14 0 0)
(3.07378906e-13 0 0)
(-1.10977695e-14 0 0)
(2.9528661e-13 0 0)
(-1.04025153e-16 0 0)
(-8.28994163e-15 0 0)
(2.04901939e-14 0 0)
(-3.19150992e-13 0 0)
(3.42250968e-14 0 0)
(-3.02287908e-13 0 0)
(4.39572133e-14 0 0)
(2.24850568e-14 0 0)
(5.71292224e-14 0 0)
(3.52895381e-13 0 0)
(2.1055404e-14 0 0)
(2.43274826e-14 0 0)
(-3.15772868e-13 0 0)
(8.69771688e-17 0 0)
(-8.2035827e-17 0 0)
(-2.50841302e-15 0 0)
(-2.31474522e-14 0 0)
(-1.00713662e-14 0 0)
(-3.50094677e-13 0 0)
(-1.23526113e-14 0 0)
(-1.08953915e-14 0 0)
(1.09047103e-14 0 0)
(-6.24640558e-13 0 0)
(3.17648772e-14 0 0)
(-3.04617077e-13 0 0)
(5.71157075e-14 0 0)
(3.31465386e-13 0 0)
(5.60307666e-14 0 0)
(3.54077162e-13 0 0)
(3.19695381e-14 0 0)
(-6.13627367e-13 0 0)
(-3.04983356e-13 0 0)
(-3.18278967e-13 0 0)
(-3.28048744e-13 0 0)
(3.30451733e-13 0 0)
(3.06629181e-13 0 0)
(9.60795197e-15 0 0)
(-3.17227137e-13 0 0)
(6.37056634e-13 0 0)
(1.1459685e-15 0 0)
(3.28026114e-13 0 0)
(6.24914823e-13 0 0)
(3.30415178e-13 0 0)
(-9.58541267e-15 0 0)
(-1.28679555e-15 0 0)
(-1.24965583e-15 0 0)
(3.07714502e-13 0 0)
(-3.16103022e-13 0 0)
(4.16079508e-17 0 0)
(-6.40653022e-13 0 0)
(-6.3839106e-13 0 0)
(-3.28299444e-13 0 0)
(-9.76294208e-13 0 0)
(-3.32223618e-13 0 0)
(-3.39449599e-14 0 0)
(-3.17711772e-13 0 0)
(-3.41616529e-13 0 0)
(-6.50447498e-13 0 0)
(-1.57585189e-15 0 0)
(-3.4055633e-14 0 0)
(-6.49705026e-13 0 0)
(-3.63689527e-13 0 0)
(-3.53025143e-13 0 0)
(-3.53012603e-13 0 0)
(-4.63431882e-14 0 0)
(-2.35008365e-14 0 0)
(-3.2992853e-14 0 0)
(-3.33511555e-13 0 0)
(-3.6668004e-14 0 0)
(-2.10435027e-14 0 0)
(-1.96714254e-14 0 0)
(-2.30784528e-14 0 0)
(3.28019754e-13 0 0)
(1.11385807e-14 0 0)
(2.3365137e-14 0 0)
(3.29258015e-14 0 0)
(6.47008058e-13 0 0)
(2.18880889e-14 0 0)
(3.10199478e-13 0 0)
(3.19501726e-13 0 0)
(-1.34710119e-14 0 0)
(-2.56596213e-14 0 0)
(-3.39517301e-13 0 0)
(-2.93340795e-14 0 0)
(-1.37052789e-14 0 0)
(-2.42792907e-14 0 0)
(-2.96982124e-13 0 0)
(3.07744071e-13 0 0)
(8.45626317e-15 0 0)
(-9.70593346e-15 0 0)
(-6.37220142e-13 0 0)
(-3.40193671e-13 0 0)
(-9.54393248e-13 0 0)
(-6.37008386e-13 0 0)
(-6.39234621e-13 0 0)
(-3.08876168e-13 0 0)
(3.0879515e-13 0 0)
(3.18320111e-13 0 0)
(6.15175084e-13 0 0)
(3.18259504e-13 0 0)
(-1.22599468e-14 0 0)
(6.23368592e-13 0 0)
(3.07247569e-13 0 0)
(6.13562338e-13 0 0)
(6.01425543e-13 0 0)
(2.84146721e-13 0 0)
(-4.53456498e-14 0 0)
(-4.54667646e-14 0 0)
(-3.44963105e-14 0 0)
(-3.55898271e-14 0 0)
(-2.2095238e-14 0 0)
(1.21639617e-15 0 0)
(-3.19578325e-13 0 0)
(3.37764413e-13 0 0)
(1.10983302e-14 0 0)
(3.30745851e-13 0 0)
(6.38223964e-13 0 0)
(1.31755604e-16 0 0)
(9.45527249e-17 0 0)
(-3.18569036e-13 0 0)
(-6.36924034e-13 0 0)
(-1.1200233e-17 0 0)
(-6.20379433e-17 0 0)
(-3.18478347e-13 0 0)
(-6.37064753e-13 0 0)
(-1.26340586e-17 0 0)
(-6.36928407e-13 0 0)
(-9.54171346e-13 0 0)
(-3.07530261e-13 0 0)
(1.42808751e-16 0 0)
(2.17600268e-14 0 0)
(3.17544703e-13 0 0)
(1.45604079e-15 0 0)
(1.59824373e-14 0 0)
(-3.04637963e-13 0 0)
(4.27211994e-14 0 0)
(4.30063965e-14 0 0)
(3.66374632e-13 0 0)
(3.77111251e-13 0 0)
(3.43663559e-13 0 0)
(3.8673577e-13 0 0)
(3.70745871e-14 0 0)
(-2.53812601e-13 0 0)
(3.40950445e-13 0 0)
(3.52857495e-14 0 0)
(2.69430601e-15 0 0)
(6.26248548e-13 0 0)
(3.19566657e-13 0 0)
(-3.28028701e-13 0 0)
(-3.0888197e-13 0 0)
(3.1723541e-13 0 0)
(6.46653538e-13 0 0)
(-9.64817198e-15 0 0)
(3.19507045e-13 0 0)
(-1.21454912e-14 0 0)
(6.23463351e-13 0 0)
(-9.89621445e-15 0 0)
(-9.69192908e-15 0 0)
(-3.28017468e-13 0 0)
(-2.967014e-13 0 0)
(8.75025313e-15 0 0)
(-2.96435988e-13 0 0)
(2.55908769e-14 0 0)
(-3.07418632e-13 0 0)
(8.54901694e-15 0 0)
(-3.18437e-13 0 0)
(-6.45507072e-13 0 0)
(-1.23780627e-14 0 0)
(2.831772e-13 0 0)
(3.06935317e-13 0 0)
(2.82890684e-13 0 0)
(2.70876417e-13 0 0)
(2.8764504e-13 0 0)
(-3.43964753e-14 0 0)
(-4.99676731e-14 0 0)
(-2.2443953e-14 0 0)
(-2.24373772e-14 0 0)
(-3.6594447e-13 0 0)
(-1.27111277e-14 0 0)
(-3.17544736e-14 0 0)
(3.06123601e-13 0 0)
(3.06268615e-13 0 0)
(6.37026235e-13 0 0)
(-3.0497756e-13 0 0)
(-6.13580077e-13 0 0)
(-2.83924594e-13 0 0)
(-5.78262283e-13 0 0)
(-5.71012423e-13 0 0)
(4.20400371e-14 0 0)
(4.78030785e-14 0 0)
(2.8337898e-14 0 0)
(1.12921013e-14 0 0)
(9.86089967e-15 0 0)
(1.21694595e-14 0 0)
(1.34850911e-15 0 0)
(3.19850796e-13 0 0)
(1.21622238e-14 0 0)
(9.65282755e-13 0 0)
(3.28247055e-13 0 0)
(1.09184565e-14 0 0)
(-9.5382029e-15 0 0)
(-3.18689332e-13 0 0)
(-3.4024104e-13 0 0)
(3.20912421e-13 0 0)
(1.22385242e-14 0 0)
(3.27272612e-13 0 0)
(3.51349487e-13 0 0)
(2.33121205e-14 0 0)
(3.29651049e-13 0 0)
(3.30677294e-13 0 0)
(3.21095057e-13 0 0)
(1.22123286e-14 0 0)
(3.28252031e-13 0 0)
(3.28280611e-13 0 0)
(3.30669326e-13 0 0)
(3.1971323e-13 0 0)
(-3.20906066e-13 0 0)
(-6.57456563e-13 0 0)
(-3.05517316e-13 0 0)
(-2.40590439e-14 0 0)
(-3.21132815e-13 0 0)
(-3.1753388e-13 0 0)
(-2.29100963e-14 0 0)
(-1.23044864e-14 0 0)
(-3.37896087e-13 0 0)
(-3.15976347e-13 0 0)
(1.09457773e-14 0 0)
(3.47491854e-13 0 0)
(2.08898097e-14 0 0)
(-2.94167365e-13 0 0)
(2.53316673e-15 0 0)
(-2.56397709e-15 0 0)
(-2.5591189e-14 0 0)
(-3.1864189e-14 0 0)
(-3.21626394e-14 0 0)
(-5.72673216e-14 0 0)
(-2.61546227e-14 0 0)
(-4.65286154e-14 0 0)
(-3.4316968e-14 0 0)
(-3.17370585e-14 0 0)
(-2.08260159e-14 0 0)
(8.26085762e-15 0 0)
(-3.61201768e-15 0 0)
(3.38840379e-13 0 0)
(-3.2803016e-13 0 0)
(-8.48865455e-15 0 0)
(-3.16177117e-13 0 0)
(-9.59116516e-13 0 0)
(-6.40687354e-13 0 0)
(-6.34680659e-13 0 0)
(-6.45420453e-13 0 0)
(-6.47837607e-13 0 0)
(-3.08947217e-13 0 0)
(-3.20756106e-13 0 0)
(-3.18466184e-13 0 0)
(1.02739637e-15 0 0)
(-6.58710826e-13 0 0)
(-3.1357026e-16 0 0)
(-1.09607903e-14 0 0)
(3.18636976e-13 0 0)
(1.21919364e-14 0 0)
(3.29680025e-13 0 0)
(3.41823679e-13 0 0)
(3.40990947e-14 0 0)
(2.08976691e-14 0 0)
(2.07254931e-14 0 0)
(2.63001807e-15 0 0)
(2.45127816e-15 0 0)
(-1.2221532e-14 0 0)
(6.23584472e-13 0 0)
(6.27097556e-13 0 0)
(6.27097747e-13 0 0)
(6.24885705e-13 0 0)
(3.17197819e-13 0 0)
(6.38279787e-13 0 0)
(3.29490216e-13 0 0)
(3.1861936e-13 0 0)
(2.17460258e-14 0 0)
(1.95197828e-16 0 0)
(3.29312706e-13 0 0)
(-2.99352117e-17 0 0)
(-1.20876331e-14 0 0)
(-8.4785666e-15 0 0)
(6.39400451e-13 0 0)
(6.35911994e-13 0 0)
(2.1947527e-14 0 0)
(3.28117816e-14 0 0)
(-3.09741864e-13 0 0)
(1.09454641e-14 0 0)
(-7.21509665e-15 0 0)
(-9.7543402e-15 0 0)
(-1.22138256e-14 0 0)
(-2.82262002e-17 0 0)
(1.22020522e-14 0 0)
(3.29663158e-13 0 0)
(3.40601737e-13 0 0)
(6.59036723e-13 0 0)
(3.30921535e-13 0 0)
(2.31490022e-14 0 0)
(3.18674884e-13 0 0)
(1.09274899e-14 0 0)
(1.32599766e-15 0 0)
(-6.35713737e-13 0 0)
(-3.07625452e-13 0 0)
(-3.1959502e-13 0 0)
(-6.27406461e-13 0 0)
(-6.47804262e-13 0 0)
(-3.28290747e-13 0 0)
(-3.30903572e-13 0 0)
(-3.51359739e-14 0 0)
(-3.27177668e-13 0 0)
(-8.69630353e-15 0 0)
(3.13473336e-13 0 0)
(-2.55523501e-15 0 0)
(3.28979535e-13 0 0)
(-3.27554589e-14 0 0)
(-1.25800289e-14 0 0)
(-4.50442945e-14 0 0)
(-3.30836012e-14 0 0)
(-3.39460585e-13 0 0)
(-3.42785974e-13 0 0)
(-3.21097703e-13 0 0)
(1.23591491e-15 0 0)
(1.21536614e-14 0 0)
(1.10296978e-14 0 0)
(6.59056481e-13 0 0)
(2.34382879e-14 0 0)
(2.46468271e-14 0 0)
(3.55075531e-14 0 0)
(3.50335532e-13 0 0)
(6.5649436e-13 0 0)
(1.20717991e-14 0 0)
(-9.65544054e-15 0 0)
(2.86876193e-13 0 0)
(-3.29892502e-13 0 0)
(-3.54983244e-13 0 0)
(-2.33923748e-14 0 0)
(3.07169693e-13 0 0)
(-4.49727083e-14 0 0)
(-3.10400348e-15 0 0)
(2.72316363e-13 0 0)
(-2.22786904e-14 0 0)
(-1.97078089e-14 0 0)
(-2.43349867e-14 0 0)
(-6.39649579e-13 0 0)
(-3.18536136e-13 0 0)
(1.3160983e-15 0 0)
(-3.06347613e-13 0 0)
(-6.27088541e-13 0 0)
(-6.24585348e-13 0 0)
(-2.84578932e-13 0 0)
(-9.57495193e-13 0 0)
(1.10115086e-14 0 0)
(4.97262421e-15 0 0)
(1.48249168e-15 0 0)
(3.28352635e-13 0 0)
(6.60222715e-13 0 0)
(3.52863917e-13 0 0)
(2.48466529e-14 0 0)
(3.75761667e-13 0 0)
(6.7169793e-13 0 0)
(6.918783e-13 0 0)
(3.43349597e-14 0 0)
(3.41859086e-13 0 0)
(-3.0757331e-13 0 0)
(-2.17155852e-14 0 0)
(-8.63908349e-15 0 0)
(-2.07725741e-14 0 0)
(3.0362535e-13 0 0)
(3.03688364e-13 0 0)
(-2.07696905e-14 0 0)
(-8.74242202e-15 0 0)
(-6.61247897e-13 0 0)
(-3.33245572e-13 0 0)
(-3.29663189e-13 0 0)
(2.97777846e-13 0 0)
(3.08750663e-13 0 0)
(1.23471209e-15 0 0)
(2.07373344e-14 0 0)
(2.09568215e-14 0 0)
(3.53279479e-14 0 0)
(3.54000275e-13 0 0)
(3.40794653e-13 0 0)
(-2.84315461e-13 0 0)
(-2.95267119e-13 0 0)
(-6.2834223e-13 0 0)
(-1.07803678e-14 0 0)
(-8.75372565e-15 0 0)
(2.85686734e-13 0 0)
(-2.44878269e-14 0 0)
(-2.2116151e-14 0 0)
(3.08584853e-13 0 0)
(3.17265786e-13 0 0)
(3.17430447e-13 0 0)
(3.41504025e-13 0 0)
(-3.06124192e-13 0 0)
(-2.97813743e-13 0 0)
(-3.07466749e-13 0 0)
(-3.07525489e-13 0 0)
(-6.46431913e-13 0 0)
(-3.16061703e-13 0 0)
(-3.90389511e-17 0 0)
(3.14812551e-13 0 0)
(3.17098236e-13 0 0)
(6.28386413e-13 0 0)
(-3.29556191e-13 0 0)
(-2.3217522e-14 0 0)
(-2.85871092e-15 0 0)
(-3.53780628e-13 0 0)
(-6.59248715e-13 0 0)
(-3.4894546e-13 0 0)
(-3.41708284e-13 0 0)
(-6.51937075e-13 0 0)
(-3.32113492e-13 0 0)
(-1.25552689e-14 0 0)
(-3.55909404e-14 0 0)
(-4.39793542e-14 0 0)
(-3.4924456e-13 0 0)
(-3.54041106e-14 0 0)
(-3.4292153e-13 0 0)
(1.0551132e-14 0 0)
(-3.30412905e-13 0 0)
(3.29373432e-13 0 0)
(1.33777215e-14 0 0)
(3.29639466e-13 0 0)
(6.5905732e-13 0 0)
(6.60299383e-13 0 0)
(3.41970782e-13 0 0)
(2.47447832e-14 0 0)
(6.7109645e-13 0 0)
(3.39415511e-13 0 0)
(3.40431282e-13 0 0)
(3.31962718e-13 0 0)
(1.49021939e-15 0 0)
(6.38175996e-13 0 0)
(9.69399949e-15 0 0)
(3.06606881e-13 0 0)
(3.30318188e-13 0 0)
(-1.08398533e-14 0 0)
(-1.21570307e-14 0 0)
(-3.90368116e-16 0 0)
(-2.31060633e-14 0 0)
(-1.23594892e-14 0 0)
(-2.0781983e-14 0 0)
(-3.28210891e-13 0 0)
(-3.18407247e-13 0 0)
(-6.27167147e-13 0 0)
(2.21144857e-14 0 0)
(2.4623411e-14 0 0)
(3.54481629e-14 0 0)
(-2.86554037e-13 0 0)
(3.40665946e-13 0 0)
(3.52451127e-13 0 0)
(3.077866e-13 0 0)
(3.16958613e-13 0 0)
(-3.16770553e-14 0 0)
(2.96311537e-13 0 0)
(2.85557349e-13 0 0)
(9.43120086e-13 0 0)
(3.07543303e-13 0 0)
(6.46560627e-13 0 0)
(1.12080009e-16 0 0)
(3.38933979e-13 0 0)
(3.07756551e-13 0 0)
(1.20035068e-14 0 0)
(-9.56132429e-15 0 0)
(-3.19654181e-13 0 0)
(-3.17196917e-13 0 0)
(-3.075584e-13 0 0)
(-3.19585556e-13 0 0)
(1.21627047e-14 0 0)
(-6.26074186e-13 0 0)
(-6.50137588e-13 0 0)
(-6.35780401e-13 0 0)
(-9.62721106e-13 0 0)
(-3.19720883e-13 0 0)
(-3.1952226e-13 0 0)
(3.42784395e-13 0 0)
(3.41760754e-13 0 0)
(1.96734576e-14 0 0)
(3.40353247e-13 0 0)
(1.21545996e-14 0 0)
(-9.66322223e-15 0 0)
(-3.18663177e-13 0 0)
(-2.29670459e-14 0 0)
(3.07448801e-13 0 0)
(3.09982055e-13 0 0)
(2.39666375e-17 0 0)
(3.26979387e-13 0 0)
(-3.08714696e-13 0 0)
(-3.04935146e-13 0 0)
(1.49130112e-14 0 0)
(3.41846265e-13 0 0)
(3.31339844e-14 0 0)
(-2.74384704e-13 0 0)
(3.52880226e-13 0 0)
(3.55017012e-14 0 0)
(3.41921428e-13 0 0)
(-3.07332137e-13 0 0)
(-3.062814e-13 0 0)
(3.18636652e-13 0 0)
(3.07581491e-13 0 0)
(3.18102466e-13 0 0)
(-2.56525374e-14 0 0)
(-3.43077777e-14 0 0)
(2.97219216e-13 0 0)
(2.6256642e-13 0 0)
(-2.35258812e-14 0 0)
(2.96374782e-13 0 0)
(3.06278144e-13 0 0)
(-3.08895293e-13 0 0)
(3.18609842e-13 0 0)
(-2.96618603e-13 0 0)
(-3.16967918e-13 0 0)
(-2.9803921e-13 0 0)
(-3.30490851e-13 0 0)
(-2.00603778e-16 0 0)
(2.96375146e-13 0 0)
(-3.54330767e-14 0 0)
(-3.51698993e-13 0 0)
(-6.7281531e-13 0 0)
(-5.86726643e-14 0 0)
(-6.73020115e-13 0 0)
(-6.72280532e-14 0 0)
(2.72945216e-13 0 0)
(-4.54971368e-14 0 0)
(2.81609102e-13 0 0)
(6.13559031e-13 0 0)
(3.07207226e-13 0 0)
(3.04991403e-13 0 0)
(3.06328872e-13 0 0)
(8.63985328e-16 0 0)
(3.0504152e-13 0 0)
(2.95554787e-13 0 0)
(3.230901e-13 0 0)
(6.38338262e-13 0 0)
(8.81492334e-15 0 0)
(4.370422e-14 0 0)
(3.42082795e-13 0 0)
(-2.82891845e-13 0 0)
(3.42234952e-14 0 0)
(-6.25515286e-13 0 0)
(-2.83162556e-13 0 0)
(1.25051504e-14 0 0)
(1.25354391e-14 0 0)
(3.52468105e-14 0 0)
(1.00960119e-14 0 0)
(3.40530701e-13 0 0)
(2.56114626e-14 0 0)
(1.10734166e-14 0 0)
(-3.11187087e-13 0 0)
(-3.29387054e-13 0 0)
(3.10967587e-13 0 0)
(-3.40500038e-13 0 0)
(-2.56630276e-14 0 0)
(-1.12009234e-14 0 0)
(-1.10923088e-14 0 0)
(-3.41380314e-13 0 0)
(1.17944269e-15 0 0)
(2.4965492e-15 0 0)
(3.37968261e-13 0 0)
(3.2849055e-13 0 0)
(3.54935677e-13 0 0)
(3.41880738e-13 0 0)
(8.9090075e-15 0 0)
(3.42874688e-13 0 0)
(1.47763553e-14 0 0)
(1.10669757e-14 0 0)
(3.40376481e-13 0 0)
(2.19556693e-14 0 0)
(1.12101472e-14 0 0)
(1.23367566e-14 0 0)
(-3.1704482e-13 0 0)
(-3.18444625e-13 0 0)
(-1.36332428e-15 0 0)
(-3.3068473e-13 0 0)
(-3.28276198e-13 0 0)
(-6.45469337e-13 0 0)
(-3.18511902e-13 0 0)
(-3.11259557e-13 0 0)
(-2.43483856e-15 0 0)
(-3.17447131e-13 0 0)
(-3.37928118e-13 0 0)
(-3.2953206e-13 0 0)
(-6.49137584e-13 0 0)
(-1.34023099e-15 0 0)
(-6.35766845e-13 0 0)
(3.29371749e-13 0 0)
(3.19970501e-13 0 0)
(-2.85628821e-13 0 0)
(-3.16706038e-13 0 0)
(4.50358561e-14 0 0)
(-3.05936353e-13 0 0)
(3.02618703e-14 0 0)
(-3.18365531e-13 0 0)
(-3.17353174e-13 0 0)
(-1.93358539e-14 0 0)
(-9.82540371e-15 0 0)
(-2.58818763e-15 0 0)
(-1.33224854e-14 0 0)
(6.48802215e-13 0 0)
(6.26130375e-13 0 0)
(-1.21220416e-14 0 0)
(-3.18679129e-13 0 0)
(-2.17831338e-14 0 0)
(3.18177892e-13 0 0)
(3.06204135e-13 0 0)
(6.22190771e-13 0 0)
(2.96427626e-13 0 0)
(2.97489052e-13 0 0)
(-3.55432684e-14 0 0)
(6.01416171e-13 0 0)
(6.14711413e-13 0 0)
(-3.51464033e-13 0 0)
(3.0347355e-13 0 0)
(2.83189792e-13 0 0)
(3.08319295e-13 0 0)
(2.96336983e-13 0 0)
(2.91630624e-13 0 0)
(-2.08053366e-14 0 0)
(-3.16299026e-13 0 0)
(-6.58447177e-13 0 0)
(-6.05525782e-13 0 0)
(-9.4418754e-13 0 0)
(-6.05243266e-13 0 0)
(-6.23315191e-13 0 0)
(2.43175173e-14 0 0)
(-3.07417673e-13 0 0)
(-3.08699158e-13 0 0)
(1.2164539e-14 0 0)
(-3.15879345e-13 0 0)
(-3.07529501e-13 0 0)
(-3.18152613e-13 0 0)
(-2.94064466e-13 0 0)
(2.32745158e-14 0 0)
(1.9804912e-14 0 0)
(2.46680623e-14 0 0)
(3.65455801e-14 0 0)
(3.27200692e-13 0 0)
(3.25748469e-13 0 0)
(3.09982074e-13 0 0)
(3.00132597e-13 0 0)
(2.95165979e-13 0 0)
(2.9296875e-13 0 0)
(-9.82672888e-15 0 0)
(-3.16152722e-13 0 0)
(-3.18032169e-13 0 0)
(-2.8420848e-13 0 0)
(-2.71991986e-13 0 0)
(5.52051426e-14 0 0)
(3.76157598e-13 0 0)
(6.83584936e-14 0 0)
(-2.83703922e-13 0 0)
(3.65109602e-13 0 0)
(6.61689165e-13 0 0)
(1.25579016e-14 0 0)
(3.41647327e-13 0 0)
(3.18704815e-13 0 0)
(3.29365566e-13 0 0)
(3.1847332e-13 0 0)
(-1.2232019e-14 0 0)
(-1.11203524e-14 0 0)
(-3.39134784e-13 0 0)
(-1.11529554e-14 0 0)
(-1.21821491e-14 0 0)
(-1.04023725e-16 0 0)
(9.46526294e-15 0 0)
(3.06362898e-13 0 0)
(3.27836615e-13 0 0)
(-3.39264644e-14 0 0)
(-2.211761e-14 0 0)
(-3.1773509e-14 0 0)
(-3.41917068e-14 0 0)
(3.05922023e-13 0 0)
(3.04813e-13 0 0)
(3.04911173e-13 0 0)
(-3.29593381e-13 0 0)
(-6.59009543e-13 0 0)
(-3.43083492e-13 0 0)
(-3.41906715e-14 0 0)
(-3.39583655e-13 0 0)
(-2.33574951e-14 0 0)
(-2.43550995e-14 0 0)
(-2.21914148e-16 0 0)
(-9.59695914e-15 0 0)
(-3.087847e-13 0 0)
(-3.16956046e-13 0 0)
(3.52449173e-13 0 0)
(3.29767161e-13 0 0)
(3.16746201e-14 0 0)
(6.49263255e-13 0 0)
(1.08630128e-14 0 0)
(-1.08592953e-14 0 0)
(-9.84559465e-15 0 0)
(-1.11546275e-14 0 0)
(-2.42519458e-14 0 0)
(-6.48096355e-13 0 0)
(-6.48157768e-13 0 0)
(-6.61278223e-13 0 0)
(-6.48147764e-13 0 0)
(-3.28389269e-13 0 0)
(-3.3070646e-13 0 0)
(-6.3964366e-13 0 0)
(-3.29456144e-13 0 0)
(-6.35929402e-13 0 0)
(-6.47865737e-13 0 0)
(-1.24849238e-15 0 0)
(1.30359605e-15 0 0)
(1.3540192e-14 0 0)
(-2.97633074e-13 0 0)
(1.13842281e-14 0 0)
(4.75617485e-14 0 0)
(3.42075227e-13 0 0)
(3.50400771e-13 0 0)
(6.73706094e-13 0 0)
(3.51354442e-13 0 0)
(6.34897876e-13 0 0)
(3.31799814e-13 0 0)
(3.11195456e-13 0 0)
(-1.2030777e-14 0 0)
(5.05125178e-17 0 0)
(1.21178963e-14 0 0)
(1.10522336e-14 0 0)
(2.06839912e-14 0 0)
(9.66633082e-15 0 0)
(-2.61741475e-15 0 0)
(-3.27939094e-14 0 0)
(-3.49150262e-13 0 0)
(-3.61227037e-13 0 0)
(2.92572359e-13 0 0)
(-2.57422638e-14 0 0)
(3.0857003e-13 0 0)
(6.38043959e-13 0 0)
(6.25083296e-13 0 0)
(2.16874227e-14 0 0)
(3.28262843e-13 0 0)
(-9.76199858e-16 0 0)
(1.45403171e-14 0 0)
(2.73911515e-15 0 0)
(1.25404131e-14 0 0)
(3.63455564e-13 0 0)
(6.67692595e-13 0 0)
(3.50384734e-13 0 0)
(2.56350534e-14 0 0)
(6.39750754e-13 0 0)
(6.37177781e-13 0 0)
(3.210341e-13 0 0)
(6.59955004e-13 0 0)
(6.43011087e-13 0 0)
(3.14699101e-13 0 0)
(9.4415922e-13 0 0)
(5.73809837e-13 0 0)
(6.03613446e-13 0 0)
(-6.56540042e-14 0 0)
(-3.16826536e-15 0 0)
(2.9424542e-13 0 0)
(1.07341476e-14 0 0)
(-2.95655752e-13 0 0)
(-3.20493683e-13 0 0)
(-2.9528578e-13 0 0)
(-3.01162357e-13 0 0)
(3.315287e-14 0 0)
(3.39724494e-13 0 0)
(5.72386153e-14 0 0)
(3.45052798e-14 0 0)
(2.10073715e-14 0 0)
(3.42884939e-13 0 0)
(2.75995794e-15 0 0)
(2.58978492e-15 0 0)
(2.18366983e-14 0 0)
(-2.0338863e-15 0 0)
(-2.95388028e-13 0 0)
(1.46558463e-14 0 0)
(-3.0999265e-13 0 0)
(-3.66867813e-15 0 0)
(-9.89168976e-15 0 0)
(-3.39396712e-13 0 0)
(2.72265692e-13 0 0)
(-3.32199869e-14 0 0)
(-2.36614076e-14 0 0)
(2.70932794e-13 0 0)
(-1.15316239e-14 0 0)
(-2.21718942e-14 0 0)
(-2.55697049e-14 0 0)
(3.07366491e-13 0 0)
(-9.80775797e-15 0 0)
(-1.21206918e-14 0 0)
(-1.38018668e-15 0 0)
(-1.20827543e-16 0 0)
(-3.21186454e-17 0 0)
(-6.36969109e-13 0 0)
(-9.55546122e-13 0 0)
(-9.57964081e-13 0 0)
(-6.5876672e-13 0 0)
(8.56884164e-16 0 0)
(-3.5112965e-13 0 0)
(1.02097122e-15 0 0)
(1.08527566e-14 0 0)
(3.16372688e-13 0 0)
(3.27442477e-14 0 0)
(1.55487144e-15 0 0)
(1.10184367e-14 0 0)
(-3.17201565e-13 0 0)
(-6.16070791e-17 0 0)
(3.18433722e-13 0 0)
(1.18361291e-15 0 0)
(9.58989559e-15 0 0)
(-3.2905608e-13 0 0)
(3.439986e-13 0 0)
(3.30920545e-13 0 0)
(3.38247939e-13 0 0)
(3.28604236e-14 0 0)
(1.23520009e-14 0 0)
(1.24196588e-14 0 0)
(3.23754293e-13 0 0)
(3.52579744e-13 0 0)
(3.30045038e-13 0 0)
(3.84185872e-13 0 0)
(2.37059631e-14 0 0)
(4.3920647e-14 0 0)
(1.50786156e-14 0 0)
(2.31779788e-14 0 0)
(-3.18289862e-13 0 0)
(1.09153953e-14 0 0)
(-6.34394739e-13 0 0)
(1.22444725e-14 0 0)
(-3.07445091e-13 0 0)
(-6.1617345e-13 0 0)
(3.29678157e-13 0 0)
(3.30661379e-13 0 0)
(3.19766955e-13 0 0)
(-1.31081211e-15 0 0)
(-1.23786536e-14 0 0)
(3.06087239e-13 0 0)
(-3.50043523e-13 0 0)
(-1.12393751e-14 0 0)
(-3.26770737e-14 0 0)
(9.30530333e-15 0 0)
(-1.46996815e-14 0 0)
(3.04963438e-13 0 0)
(6.29430931e-13 0 0)
(-2.19442038e-14 0 0)
(2.95395735e-13 0 0)
(3.30528199e-13 0 0)
(1.52050609e-15 0 0)
(3.03265804e-14 0 0)
(3.28483495e-13 0 0)
(2.17627476e-14 0 0)
(-1.09221274e-14 0 0)
(-2.32099985e-14 0 0)
(-6.67587914e-13 0 0)
(-9.77693663e-13 0 0)
(-3.55175049e-13 0 0)
(-3.32224054e-13 0 0)
(-3.36680524e-13 0 0)
(3.30495623e-13 0 0)
(3.16360839e-13 0 0)
(3.03468751e-14 0 0)
(1.36397495e-14 0 0)
(2.18684301e-14 0 0)
(3.07832266e-13 0 0)
(6.50169605e-13 0 0)
(6.35573189e-13 0 0)
(-2.55619571e-14 0 0)
(3.16772778e-13 0 0)
(-3.71894504e-13 0 0)
(-2.24188521e-14 0 0)
(-4.49466999e-14 0 0)
(-2.32890662e-14 0 0)
(-3.18917314e-13 0 0)
(-6.50248827e-13 0 0)
(9.52003985e-15 0 0)
(3.19644996e-13 0 0)
(-3.17294236e-13 0 0)
(-3.1019367e-13 0 0)
(-3.43916693e-13 0 0)
(-9.655444e-13 0 0)
(-3.48905471e-13 0 0)
(-3.52536241e-13 0 0)
(-9.68061922e-13 0 0)
(-1.48377079e-14 0 0)
(-2.44947783e-14 0 0)
(-1.15161699e-14 0 0)
(2.7339146e-13 0 0)
(-3.51562648e-13 0 0)
(-2.08998028e-14 0 0)
(-3.41584676e-13 0 0)
(8.23346785e-15 0 0)
(-1.17172247e-15 0 0)
(3.28140316e-13 0 0)
(3.10153254e-13 0 0)
(6.5158718e-13 0 0)
(3.29689324e-13 0 0)
(3.38085268e-13 0 0)
(3.28437126e-14 0 0)
(3.30921009e-13 0 0)
(6.49255855e-13 0 0)
(6.39509062e-13 0 0)
(6.47874783e-13 0 0)
(3.17440777e-13 0 0)
(3.28084663e-13 0 0)
(-9.61033003e-15 0 0)
(-3.17291922e-13 0 0)
(-1.08343445e-14 0 0)
(-6.35642041e-13 0 0)
(-6.12572277e-13 0 0)
(-2.97348794e-13 0 0)
(3.56989534e-14 0 0)
(6.81129533e-14 0 0)
(2.1434772e-14 0 0)
(3.74398983e-13 0 0)
(2.4508508e-14 0 0)
(6.36080311e-13 0 0)
(6.38156899e-13 0 0)
(6.17638402e-13 0 0)
(3.07541691e-13 0 0)
(-1.09073677e-14 0 0)
(-3.07653744e-13 0 0)
(3.29596868e-13 0 0)
(2.05839412e-14 0 0)
(-3.10015861e-13 0 0)
(-1.07809951e-14 0 0)
(-3.25967065e-13 0 0)
(-3.40472256e-13 0 0)
(-3.44101493e-13 0 0)
(-3.31021846e-13 0 0)
(-3.4062833e-13 0 0)
(2.95182429e-13 0 0)
(-2.20326028e-14 0 0)
(-1.12124236e-14 0 0)
(-1.36182547e-14 0 0)
(3.05044362e-13 0 0)
(-6.46738979e-13 0 0)
(-6.44355167e-13 0 0)
(9.71030603e-15 0 0)
(-2.04717014e-15 0 0)
(3.39086844e-14 0 0)
(-3.04786873e-13 0 0)
(2.20582395e-14 0 0)
(2.19925617e-14 0 0)
(3.29604463e-13 0 0)
(-3.05032877e-13 0 0)
(-9.43051289e-13 0 0)
(-1.27237177e-12 0 0)
(-6.04308352e-13 0 0)
(-3.19265644e-13 0 0)
(-6.13933994e-13 0 0)
(-3.06438213e-13 0 0)
(3.03995928e-13 0 0)
(-1.12183281e-14 0 0)
(-2.09557023e-14 0 0)
(2.73504441e-13 0 0)
(2.962443e-13 0 0)
(-3.39201633e-13 0 0)
(-3.19783202e-13 0 0)
(-3.10185444e-13 0 0)
(-6.28428272e-13 0 0)
(-3.15916801e-13 0 0)
(-3.0531778e-13 0 0)
(-1.31318867e-14 0 0)
(-1.16255522e-15 0 0)
(3.22115805e-13 0 0)
(3.19878595e-13 0 0)
(3.27048565e-13 0 0)
(3.2689535e-13 0 0)
(3.18444546e-13 0 0)
(-6.46785163e-13 0 0)
(-6.59090114e-13 0 0)
(-3.4319581e-13 0 0)
(-3.54655765e-14 0 0)
(-3.18530912e-14 0 0)
(-3.39444623e-13 0 0)
(-3.42826603e-13 0 0)
(-3.21182204e-13 0 0)
(-9.39918512e-17 0 0)
(-3.1845159e-13 0 0)
(8.1993225e-17 0 0)
(1.35190132e-15 0 0)
(1.08404493e-14 0 0)
(-1.09539322e-15 0 0)
(1.21093629e-14 0 0)
(3.30661089e-13 0 0)
(6.38558439e-13 0 0)
(3.51162753e-13 0 0)
(3.17601837e-13 0 0)
(2.18649858e-14 0 0)
(-3.15823833e-13 0 0)
(2.82783234e-15 0 0)
(-6.12579342e-13 0 0)
(-6.17344567e-13 0 0)
(-2.9754122e-13 0 0)
(-2.84547172e-13 0 0)
(-1.06599109e-14 0 0)
(1.22683651e-15 0 0)
(6.28456915e-13 0 0)
(3.06157049e-13 0 0)
(9.51437932e-13 0 0)
(1.25071494e-12 0 0)
(1.26385052e-12 0 0)
(6.04026902e-13 0 0)
(2.93995515e-13 0 0)
(2.97831198e-13 0 0)
(3.18302342e-13 0 0)
(6.24894172e-13 0 0)
(6.57472467e-13 0 0)
(6.37068633e-13 0 0)
(3.28067266e-13 0 0)
(-9.46136581e-15 0 0)
(-6.34504621e-13 0 0)
(1.46629814e-18 0 0)
(-3.22137096e-13 0 0)
(-3.19877254e-13 0 0)
(-3.28386913e-13 0 0)
(2.99071401e-13 0 0)
(2.43417625e-15 0 0)
(3.28327746e-13 0 0)
(1.97609912e-14 0 0)
(3.5399915e-13 0 0)
(6.724524e-13 0 0)
(6.58053144e-13 0 0)
(3.41707591e-13 0 0)
(2.42552948e-14 0 0)
(-3.18209448e-13 0 0)
(-6.2606466e-13 0 0)
(-6.35731227e-13 0 0)
(-3.18341296e-13 0 0)
(-3.18328532e-13 0 0)
(-3.18574525e-13 0 0)
(-3.20992821e-13 0 0)
(-2.17254594e-14 0 0)
(6.97679203e-16 0 0)
(-3.53727198e-14 0 0)
(-2.45985353e-14 0 0)
(-2.10636904e-14 0 0)
(-3.54692695e-14 0 0)
(-3.5528421e-14 0 0)
(-2.36436489e-14 0 0)
(-3.65018014e-13 0 0)
(-3.5175048e-13 0 0)
(-9.7646776e-13 0 0)
(-3.42886392e-13 0 0)
(-6.39571546e-13 0 0)
(-3.18503533e-13 0 0)
(-3.1842861e-13 0 0)
(1.36173037e-15 0 0)
(3.30723797e-13 0 0)
(1.11477511e-14 0 0)
(3.41738516e-13 0 0)
(3.5134885e-13 0 0)
(1.0044028e-14 0 0)
(6.60164174e-13 0 0)
(2.64859273e-15 0 0)
(-6.67907907e-17 0 0)
(-6.39578401e-13 0 0)
(-3.41611837e-13 0 0)
(-3.28618351e-13 0 0)
(-3.51314107e-13 0 0)
(-2.32434047e-14 0 0)
(3.05988048e-13 0 0)
(-3.40383485e-13 0 0)
(-6.26387428e-13 0 0)
(-3.30545311e-13 0 0)
(-3.08805494e-13 0 0)
(-3.15792511e-13 0 0)
(-3.04848657e-13 0 0)
(3.4177629e-13 0 0)
(3.06325932e-14 0 0)
(-2.96257397e-13 0 0)
(-2.8322805e-13 0 0)
(-3.1687904e-13 0 0)
(9.66079103e-15 0 0)
(-3.29518908e-13 0 0)
(-6.48017514e-13 0 0)
(-3.39150314e-13 0 0)
(-3.2957991e-13 0 0)
(3.0633757e-13 0 0)
(1.2238306e-15 0 0)
(6.58717589e-13 0 0)
(6.37379594e-13 0 0)
(4.61936123e-14 0 0)
(2.35919119e-14 0 0)
(3.19554123e-14 0 0)
(3.41945401e-14 0 0)
(1.24398208e-14 0 0)
(1.09443566e-14 0 0)
(-1.09506893e-14 0 0)
(-3.30998304e-13 0 0)
(2.82965468e-13 0 0)
(2.73141719e-13 0 0)
(2.75376345e-13 0 0)
(2.73176086e-13 0 0)
(-3.55009811e-14 0 0)
(3.08605393e-13 0 0)
(1.34605795e-14 0 0)
(2.93186152e-14 0 0)
(2.12360382e-14 0 0)
(5.96865431e-14 0 0)
(2.3618944e-14 0 0)
(2.10464744e-14 0 0)
(3.52371401e-14 0 0)
(1.51854063e-15 0 0)
(6.47891971e-13 0 0)
(1.28764513e-15 0 0)