/*--------------------------------*- C++ -*----------------------------------*\
| =========                 |                                                 |
| \\      /  F ield         | OpenFOAM: The Open Source CFD Toolbox           |
|  \\    /   O peration     | Version:  2206                                  |
|   \\  /    A nd           | Website:  www.openfoam.com                      |
|    \\/     M anipulation  |                                                 |
\*---------------------------------------------------------------------------*/
FoamFile
{
    version     2.0;
    format      ascii;
    arch        "LSB;label=32;scalar=64";
    class       volScalarField;
    location    "4.4e-06";
    object      p;
}
// * * * * * * * * * * * * * * * * * * * * * * * * * * * * * * * * * * * * * //

dimensions      [1 -1 -2 0 0 0 0];

internalField   nonuniform List<scalar> 
3183
(
101325
101325
101325
101325
101325
101325
101325
101325
101325
101325
101325
101325
101325
101325
101325
101325
101325
101325
101325
101325
101325
101325
101325
101325
101325
101325
101325
101325
101325
101325
101325
101325
101325
101325
101325
101325
101325
101325
101325
101325
101325
101325
101325
101325
101325
101325
101325
101325
101325
101325
101325
101325
101325
101325
101325
101325
101325
101325
101325
101325
101325
101325
101325
101325
101325
101325
101325
101325
101325
101325
101325
101325
101325
101325
101325
101325
101325
101325
101325
101325
101325
101325
101325
101325
101325
101325
101325
101325
101325
101325
101325
101325
101325
101325
101325
101325
101325
101325
101325
101325
101325
101325
101325
101325
101325
101325
101325
101325
101325
101325
101325
101325
101325
101325
101325
101325
101325
101325
101325
101325
101325
101325
101325
101325
101325
101325
101325
101325
101325
101325
101325
101325
101325
101325
101325
101325
101325
101325
101325
101325
101325
101325
101325
101325
101325
101325
101325
101325
101325
101325
101325
101325
101325
101325
101325
101325
101325
101325
101325
101325
101325
101325
101325
101325
101325
101325
101325
101325
101325
101325
101325
101325
101325
101325
101325
101325
101325
101325
101325
101325
101325
101325
101325
101325
101325
101325
101325
101325
101325
101325
101325
101325
101325
101325
101325
101325
101325
101325
101325
101325
101325
101325
101325
101325
101325
101325
101325
101325
101325
101325
101325
101325
101325
101325
101325
101325
101325
101325
101325
101325
101325
101325
101325
101325
101325
101325
101325
101325
101325
101325
101325
101325
101325
101325
101325
101325
101325
101325
101325
101325
101325
101325
101325
101325
101325
101325
101325
101325
101325
101325
101325
101325
101325
101325
101325
101325
101325
101325
101325
101325
101325
101325
101325
101325
101325
101325
101325
101325
101325
101325
101325
101325
101325
101325
101325
101325
101325
101325
101325
101325
101325
101325
101325
101325
101325
101325
101325
101325
101325
101325
101325
101325
101325
101325
101325
101325
101325
101325
101325
101325
101325
101325
101325
101325
101325
101325
101325
101325
101325
101325
101325
101325
101325
101325
101325
101325
101325
101325
101325
101325
101325
101325
101325
101325
101325
101325
101325
101325
101325
101325
101325
101325
101325
101325
101325
101325
101325
101325
101325
101325
101325
101325
101325
101325
101325
101325
101325
101325
101325
101325
101325
101325
101325
101325
101325
101325
101325
101325
101325
101325
101325
101325
101325
101325
101325
101325
101325
101325
101325
101325
101325
101325
101325
101325
101325
101325
101325
101325
101325
101325
101325
101325
101325
101325
101325
101325
101325
101325
101325
101325
101325
101325
101325
101325
101325
101325
101325
101325
101325
101325
101325
101325
101325
101325
101325
101325
101325
101325
101325
101325
101325
101325
101325
101325
101325
101325
101325
101325
101325
101325
101325
101325
101325
101325
101325
101325
101325
101325
101325
101325
101325
101325
101325
101325
101325
101325
101325
101325
101325
101325
101325
101325
101325
101325
101325
101325
101325
101325
101325
101325
101325
101325
101325
101325
101325
101325
101325
101325
101325
101325
101325
101325
101325
101325
101325
101325
101325
101325
101325
101325
101325
101325
101325
101325
101325
101325
101325
101325
101325
101325
101325
101325
101325
101325
101325
101325
101325
101325
101325
101325
101325
101325
101325
101325
101325
101325
101325
101325
101325
101325
101325
101325
101325
101325
101325
101325
101325
101325
101325
101325
101325
101325
101325
101325
101325
101325
101325
101325
101325
101325
101325
101325
101325
101325
101325
101325
101325
101325
101325
101325
101325
101325
101325
101325
101325
101325
101325
101325
101325
101325
101325
101325
101325
101325
101325
101325
101325
101325
101325
101325
101325
101325
101325
101325
101325
101325
101325
101325
101325
101325
101325
101325
101325
101325
101325
101325
101325
101325
101325
101325
101325
101325
101325
101325
101325
101325
101325
101325
101325
101325
101325
101325
101325
101325
101325
101325
101325
101325
101325
101325
101325
101325
101325
101325
101325
101325
101325
101325
101325
101325
101325
101325
101325
101325
101325
101325
101325
101325
101325
101325
101325
101325
101325
101325
101325
101325
101325
101325
101325
101325
101325
101325
101325
101325
101325
101325
101325
101325
101325
101325
101325
101325
101325
101325
101325
101325
101325
101325
101325
101325
101325
101325
101325
101325
101325
101325
101325
101325
101325
101325
101325
101325
101325
101325
101325
101325
101325
101325
101325
101325
101325
101325
101325
101325
101325
101325
101325
101325
101325
101325
101325
101325
101325
101325
101325
101325
101325
101325
101325
101325
101325
101325
101325
101325
101325
101325
101325
101325
101325
101325
101325
101325
101325
101325
101325
101325
101325
101325
101325
101325
101325
101325
101325
101325
101325
101325
101325
101325
101325
101325
101325
101325
101325
101325
101325
101325
101325
101325
101325
101325
101325
101325
101325
101325
101325
101325
101325
101325
101325
101325
101325
101325
101325
101325
101325
101325
101325
101325
101325
101325
101325
101325
101325
101325
101325
101325
101325
101325
101325
101325
101325
101325
101325
101325
101325
101325
101325
101325
101325
101325
101325
101325
101325
101325
101325
101325
101325
101325
101325
101325
101325
101325
101325
101325
101325
101325
101325
101325
101325
101325
101325
101325
101325
101325
101325
101325
101325
101325
101325
101325
101325
101325
101325
101325
101325
101325
101325
101325
101325
101325
101325
101325
101325
101325
101325
101325
101325
101325
101325
101325
101325
101325
101325
101325
101325
101325
101325
101325
101325
101325
101325
101325
101325
101325
101325
101325
101325
101325
101325
101325
101325
101325
101325
101325
101325
101325
101325
101325
101325
101325
101325
101325
101325
101325
101325
101325
101325
101325
101325
101325
101325
101325
101325
101325
101325
101325
101325
101325
101325
101325
101325
101325
101325
101325
101325
101325
101325
101325
101325
101325
101325
101325
101325
101325
101325
101325
101325
101325
101325
101325
101325
101325
101325
101325
101325
101325
101325
101325
101325
101325
101325
101325
101325
101325
101325
101325
101325
101325
101325
101325
101325
101325
101325
101325
101325
101325
101325
101325
101325
101325
101325
101325
101325
101325
101325
101325
101325
101325
101325
101325
101325
101325
101325
101325
101325
101325
101325
101325
101325
101325
101325
101325
101325
101325
101325
101325
101325
101325
101325
101325
101325
101325
101325
101325
101325
101325
101325
101325
101325
101325
101325
101325
101325
101325
101325
101325
101325
101325
101325
101325
101325
101325
101325
101325
101325
101325
101325
101325
101325
101325
101325
101325
101325
101325
101325
101325
101325
101325
101325
101325
101325
101325
101325
101325
101325
101325
101325
101325
101325
101325
101325
101325
101325
101325
101325
101325
101325
101325
101325
101325
101325
101325
101325
101325
101325
101325
101325
101325
101325
101325
101325
101325
101325
101325
101325
101325
101325
101325
101325
101325
101325
101325
101325
101325
101325
101325
101325
101325
101325
101325
101325
101325
101325
101325
101325
101325
101325
101325
101325
101325
101325
101325
101325
101325
101325
101325
101325
101325
101325
101325
101325
101325
101325
101325
101325
101325
101325
101325
101325
101325
101325
101325
101325
101325
101325
101325
101325
101325
101325
101325
101325
101325
101325
101325
101325
101325
101325
101325
101325
101325
101325
101325
101325
101325
101325
101325
101325
101325
101325
101325
101325
101325
101325
101325
101325
101325
101325
101325
101325
101325
101325
101325
101325
101325
101325
101325
101325
101325
101325
101325
101325
101325
101325
101325
101325
101325
101325
101325
101325
101325
101325
101325
101325
101325
101325
101325
101325
101325
101325
101325
101325
101325
101325
101325
101325
101325
101325
101325
101325
101325
101325
101325
101325
101325
101325
101325
101325
101325
101325
101325
101325
101325
101325
101325
101325
101325
101325
101325
101325
101325
101325
101325
101325
101325
101325
101325
101325
101325
101325
101325
101325
101325
101325
101325
101325
101325
101325
101325
101325
101325
101325
101325
101325
101325
101325
101325
101325
101325
101325
101325
101325
101325
101325
101325
101325
101325
101325
101325
101325
101325
101325
101325
101325
101325
101325
101325
101325
101325
101325
101325
101325
101325
101325
101325
101325
101325
101325
101325
101325
101325
101325
101325
101325
101325
101325
101325
101325
101325
101325
101325
101325
101325
101325
101325
101325
101325
101325
101325
101325
101325
101325
101325
101325
101325
101325
101325
101325
101325
101325
101325
101325
101325
101325
101325
101325
101325
101325
101325
101325
101325
101325
101325
101325
101325
101325
101325
101325
101325
101325
101325
101325
101325
101325
101325
101325
101325
101325
101325
101325
101325
101325
101325
101325
101325
101325
101325
101325
101325
101325
101325
101325
101325
101325
101325
101325
101325
101325
101325
101325
101325
101325
101325
101325
101325
101325
101325
101325
101325
101325
101325
101325
101325
101325
101325
101325
101325
101325
101325
101325
101325
101325
101325
101325
101325
101325
101325
101325
101325
101325
101325
101325
101325
101325
101325
101325
101325
101325
101325
101325
101325
101325
101325
101325
101325
101325
101325
101325
101325
101325
101325
101325
101325
101325
101325
101325
101325
101325
101325
101325
101325
101325
101325
101325
101325
101325
101325
101325
101325
101325
101325
101325
101325
101325
101325
101325
101325
101325
101325
101325
101325
101325
101325
101325
101325
101325
101325
101325
101325
101325
101325
101325
101325
101325
101325
101325
101325
101325
101325
101325
101325
101325
101325
101325
101325
101325
101325
101325
101325
101325
101325
101325
101325
101325
101325
101325
101325
101325
101325
101325
101325
101325
101325
101325
101325
101325
101325
101325
101325
101325
101325
101325
101325
101325
101325
101325
101325
101325
101325
101325
101325
101325
101325
101325
101325
101325
101325
101325
101325
101325
101325
101325
101325
101325
101325
101325
101325
101325
101325
101325
101325
101325
101325
101325
101325
101325
101325
101325
101325
101325
101325
101325
101325
101325
101325
101325
101325
101325
101325
101325
101325
101325
101325
101325
101325
101325
101325
101325
101325
101325
101325
101325
101325
101325
101325
101325
101325
101325
101325
101325
101325
101325
101325
101325
101325
101325
101325
101325
101325
101325
101325
101325
101325
101325
101325
101325
101325
101325
101325
101325
101325
101325
101325
101325
101325
101325
101325
101325
101325
101325
101325
101325
101325
101325
101325
101325
101325
101325
101325
101325
101325
101325
101325
101325
101325
101325
101325
101325
101325
101325
101325
101325
101325
101325
101325
101325
101325
101325
101325
101325
101325
101325
101325
101325
101325
101325
101325
101325
101325
101325
101325
101325
101325
101325
101325
101325
101325
101325
101325
101325
101325
101325
101325
101325
101325
101325
101325
101325
101325
101325
101325
101325
101325
101325
101325
101325
101325
101325
101325
101325
101325
101325
101325
101325
101325
101325
101325
101325
101325
101325
101325
101325
101325
101325
101325
101325
101325
101325
101325
101325
101325
101325
101325
101325
101325
101325
101325
101325
101325
101325
101325
101325
101325
101325
101325
101325
101325
101325
101325
101325
101325
101325
101325
101325
101325
101325
101325
101325
101325
101325
101325
101325
101325
101325
101325
101325
101325
101325
101325
101325
101325
101325
101325
101325
101325
101325
101325
101325
101325
101325
101325
101325
101325
101325
101325
101325
101325
101325
101325
101325
101325
101325
101325
101325
101325
101325
101325
101325
101325
101325
101325
101325
101325
101325
101325
101325
101325
101325
101325
101325
101325
101325
101325
101325
101325
101325
101325
101325
101325
101325
101325
101325
101325
101325
101325
101325
101325
101325
101325
101325
101325
101325
101325
101325
101325
101325
101325
101325
101325
101325
101325
101325
101325
101325
101325
101325
101325
101325
101325
101325
101325
101325
101325
101325
101325
101325
101325
101325
101325
101325
101325
101325
101325
101325
101325
101325
101325
101325
101325
101325
101325
101325
101325
101325
101325
101325
101325
101325
101325
101325
101325
101325
101325
101325
101325
101325
101325
101325
101325
101325
101325
101325
101325
101325
101325
101325
101325
101325
101325
101325
101325
101325
101325
101325
101325
101325
101325
101325
101325
101325
101325
101325
101325
101325
101325
101325
101325
101325
101325
101325
101325
101325
101325
101325
101325
101325
101325
101325
101325
101325
101325
101325
101325
101325
101325
101325
101325
101325
101325
101325
101325
101325
101325
101325
101325
101325
101325
101325
101325
101325
101325
101325
101325
101325
101325
101325
101325
101325
101325
101325
101325
101325
101325
101325
101325
101325
101325
101325
101325
101325
101325
101325
101325
101325
101325
101325
101325
101325
101325
101325
101325
101325
101325
101325
101325
101325
101325
101325
101325
101325
101325
101325
101325
101325
101325
101325
101325
101325
101325
101325
101325
101325
101325
101325
101325
101325
101325
101325
101325
101325
101325
101325
101325
101325
101325
101325
101325
101325
101325
101325
101325
101325
101325
101325
101325
101325
101325
101325
101325
101325
101325
101325
101325
101325
101325
101325
101325
101325
101325
101325
101325
101325
101325
101325
101325
101325
101325
101325
101325
101325
101325
101325
101325
101325
101325
101325
101325
101325
101325
101325
101325
101325
101325
101325
101325
101325
101325
101325
101325
101325
101325
101325
101325
101325
101325
101325
101325
101325
101325
101325
101325
101325
101325
101325
101325
101325
101325
101325
101325
101325
101325
101325
101325
101325
101325
101325
101325
101325
101325
101325
101325
101325
101325
101325
101325
101325
101325
101325
101325
101325
101325
101325
101325
101325
101325
101325
101325
101325
101325
101325
101325
101325
101325
101325
101325
101325
101325
101325
101325
101325
101325
101325
101325
101325
101325
101325
101325
101325
101325
101325
101325
101325
101325
101325
101325
101325
101325
101325
101325
101325
101325
101325
101325
101325
101325
101325
101325
101325
101325
101325
101325
101325
101325
101325
101325
101325
101325
101325
101325
101325
101325
101325
101325
101325
101325
101325
101325
101325
101325
101325
101325
101325
101325
101325
101325
101325
101325
101325
101325
101325
101325
101325
101325
101325
101325
101325
101325
101325
101325
101325
101325
101325
101325
101325
101325
101325
101325
101325
101325
101325
101325
101325
101325
101325
101325
101325
101325
101325
101325
101325
101325
101325
101325
101325
101325
101325
101325
101325
101325
101325
101325
101325
101325
101325
101325
101325
101325
101325
101325
101325
101325
101325
101325
101325
101325
101325
101325
101325
101325
101325
101325
101325
101325
101325
101325
101325
101325
101325
101325
101325
101325
101325
101325
101325
101325
101325
101325
101325
101325
101325
101325
101325
101325
101325
101325
101325
101325
101325
101325
101325
101325
101325
101325
101325
101325
101325
101325
101325
101325
101325
101325
101325
101325
101325
101325
101325
101325
101325
101325
101325
101325
101325
101325
101325
101325
101325
101325
101325
101325
101325
101325
101325
101325
101325
101325
101325
101325
101325
101325
101325
101325
101325
101325
101325
101325
101325
101325
101325
101325
101325
101325
101325
101325
101325
101325
101325
101325
101325
101325
101325
101325
101325
101325
101325
101325
101325
101325
101325
101325
101325
101325
101325
101325
101325
101325
101325
101325
101325
101325
101325
101325
101325
101325
101325
101325
101325
101325
101325
101325
101325
101325
101325
101325
101325
101325
101325
101325
101325
101325
101325
101325
101325
101325
101325
101325
101325
101325
101325
101325
101325
101325
101325
101325
101325
101325
101325
101325
101325
101325
101325
101325
101325
101325
101325
101325
101325
101325
101325
101324.999
101324.999
101324.999
101324.999
101324.999
101324.999
101324.999
101324.999
101324.999
101324.999
101324.999
101324.999
101324.998
101324.998
101324.998
101324.998
101324.998
101324.998
101324.997
101324.997
101324.997
101324.996
101324.996
101324.996
101324.995
101324.995
101324.994
101324.994
101324.993
101324.993
101324.992
101324.991
101324.991
101324.99
101324.989
101324.988
101324.987
101324.986
101324.984
101324.983
101324.982
101324.98
101324.978
101324.976
101324.974
101324.972
101324.97
101324.967
101324.964
101324.961
101324.958
101324.955
101324.951
101324.947
101324.942
101324.938
101324.932
101324.927
101324.921
101324.914
101324.907
101324.9
101324.892
101324.883
101324.874
101324.864
101324.853
101324.842
101324.829
101324.816
101324.801
101324.786
101324.77
101324.752
101324.733
101324.713
101324.691
101324.668
101324.643
101324.617
101324.589
101324.558
101324.526
101324.492
101324.455
101324.416
101324.374
101324.33
101324.282
101324.232
101324.178
101324.121
101324.061
101323.997
101323.928
101323.856
101323.779
101323.698
101323.611
101323.52
101323.423
101323.321
101323.213
101323.099
101322.978
101322.851
101322.717
101322.575
101322.426
101322.269
101322.104
101321.93
101321.748
101321.556
101321.355
101321.144
101320.922
101320.69
101320.448
101320.194
101319.928
101319.65
101319.361
101319.059
101318.743
101318.415
101318.073
101317.718
101317.348
101316.965
101316.566
101316.153
101315.725
101315.282
101314.824
101314.351
101313.862
101313.357
101312.838
101312.302
101311.752
101311.186
101310.605
101310.009
101309.398
101308.773
101308.133
101307.481
101306.814
101306.136
101305.445
101304.742
101304.029
101303.305
101302.572
101301.831
101301.082
101300.327
101299.566
101298.801
101298.032
101297.262
101296.49
101295.72
101294.951
101294.185
101293.424
101292.669
101291.922
101291.184
101290.457
101289.743
101289.042
101288.357
101287.688
101287.039
101286.409
101285.802
101285.217
101284.657
101284.123
101283.616
101283.138
101282.69
101282.272
101281.887
101281.534
101281.216
101280.931
101280.682
101280.469
101280.292
101280.151
101280.047
101279.98
101279.949
101279.955
101279.997
101280.074
101280.186
101280.333
101280.513
101280.726
101280.971
101281.245
101281.55
101281.881
101282.24
101282.624
101283.031
101283.46
101283.91
101284.378
101284.864
101285.365
101285.88
101286.407
101286.944
101287.491
101288.045
101288.606
101289.17
101289.738
101290.308
101290.878
101291.448
101292.015
101292.58
101293.142
101293.698
101294.249
101294.794
101295.331
101295.861
101296.383
101296.896
101297.399
101297.893
101298.376
101298.848
101299.309
101299.758
101300.195
101300.619
101301.03
101301.427
101301.81
101302.177
101302.529
101302.865
101303.183
101303.484
101303.767
101304.03
101304.273
101304.495
101304.696
101304.875
101305.031
101305.164
101305.272
101305.356
101305.415
101305.449
101305.458
101305.441
101305.4
101305.334
101305.244
101305.13
101304.995
101304.838
101304.662
101304.468
101304.259
101304.036
101303.802
101303.56
101303.312
101303.063
101302.815
101302.573
101302.339
101302.118
101301.915
101301.732
101301.574
101301.446
101301.35
101301.292
101301.275
101301.303
101301.379
101301.51
101301.701
101301.959
101302.295
101302.726
101303.276
101303.98
101304.89
101306.086
101307.679
101309.827
101312.744
101316.776
101322.596
101330.733
101323.175
101319.186
101316.788
101314.224
101312.03
101309.908
101308.172
101306.716
101305.564
101304.657
101303.951
101303.401
101302.97
101302.628
101302.352
101302.124
101301.932
101301.768
101301.625
101301.498
101301.387
101301.288
101301.202
101301.127
101301.064
101301.013
101300.974
101300.947
101300.931
101300.927
101300.934
101300.953
101300.982
101301.021
101301.071
101301.129
101301.196
101301.272
101301.354
101301.443
101301.539
101301.64
101301.745
101301.855
101301.968
101302.084
101302.202
101302.323
101302.444
101302.567
101302.689
101302.811
101302.933
101303.054
101303.173
101303.29
101303.406
101303.518
101303.628
101303.735
101303.838
101303.938
101304.034
101304.126
101304.213
101304.296
101304.374
101304.447
101304.516
101304.579
101304.637
101304.689
101304.736
101304.777
101304.813
101304.843
101304.868
101304.887
101304.899
101304.907
101304.908
101304.904
101304.893
101304.878
101304.856
101304.829
101304.796
101304.758
101304.714
101304.664
101304.61
101304.55
101304.485
101304.414
101304.339
101304.259
101304.174
101304.084
101303.989
101303.89
101303.786
101303.678
101303.565
101303.448
101303.327
101303.202
101303.073
101302.94
101302.803
101302.662
101302.517
101302.369
101302.217
101302.062
101301.903
101301.741
101301.576
101301.407
101301.235
101301.059
101300.881
101300.699
101300.514
101300.326
101300.135
101299.941
101299.744
101299.543
101299.34
101299.134
101298.925
101298.712
101298.497
101298.279
101298.058
101297.834
101297.607
101297.377
101297.144
101296.909
101296.67
101296.429
101296.184
101295.937
101295.687
101295.434
101295.179
101294.92
101294.659
101294.396
101294.129
101293.861
101293.589
101293.316
101293.039
101292.761
101292.48
101292.198
101291.913
101291.626
101291.338
101291.047
101290.756
101290.462
101290.167
101289.871
101289.574
101289.277
101288.978
101288.678
101288.379
101288.078
101287.778
101287.478
101287.178
101286.879
101286.581
101286.283
101285.987
101285.692
101285.399
101285.108
101284.818
101284.531
101284.246
101283.964
101283.685
101283.41
101283.137
101282.869
101282.605
101282.344
101282.089
101281.838
101281.592
101281.351
101281.116
101280.886
101280.662
101280.445
101280.233
101280.029
101279.831
101279.64
101279.456
101279.28
101279.111
101278.95
101278.797
101278.652
101278.516
101278.388
101278.269
101278.158
101278.057
101277.964
101277.881
101277.807
101277.743
101277.688
101277.642
101277.607
101277.581
101277.565
101277.559
101277.563
101277.576
101277.6
101277.634
101277.678
101277.731
101277.795
101277.869
101277.953
101278.046
101278.15
101278.263
101278.387
101278.519
101278.662
101278.814
101278.975
101279.146
101279.326
101279.515
101279.713
101279.92
101280.136
101280.36
101280.593
101280.833
101281.082
101281.339
101281.604
101281.876
101282.156
101282.443
101282.737
101283.038
101283.345
101283.659
101283.979
101284.306
101284.638
101284.975
101285.319
101285.667
101286.02
101286.378
101286.741
101287.108
101287.479
101287.855
101288.233
101288.616
101289.001
101289.39
101289.782
101290.176
101290.572
101290.971
101291.372
101291.775
101292.179
101292.584
101292.991
101293.399
101293.808
101294.217
101294.627
101295.037
101295.447
101295.857
101296.266
101296.675
101297.084
101297.492
101297.899
101298.304
101298.709
101299.112
101299.513
101299.913
101300.311
101300.707
101301.101
101301.493
101301.883
101302.27
101302.654
101303.036
101303.415
101303.791
101304.164
101304.534
101304.901
101305.265
101305.626
101305.983
101306.336
101306.686
101307.033
101307.376
101307.715
101308.051
101308.382
101308.71
101309.034
101309.354
101309.67
101309.982
101310.29
101310.594
101310.894
101311.19
101311.482
101311.77
101312.053
101312.333
101312.608
101312.879
101313.146
101313.409
101313.668
101313.923
101314.173
101314.42
101314.662
101314.9
101315.135
101315.365
101315.591
101315.813
101316.032
101316.246
101316.456
101316.663
101316.866
101317.065
101317.26
101317.451
101317.639
101317.823
101318.003
101318.18
101318.353
101318.523
101318.689
101318.852
101319.011
101319.167
101319.32
101319.47
101319.616
101319.759
101319.899
101320.036
101320.169
101320.3
101320.428
101320.553
101320.675
101320.794
101320.911
101321.024
101321.135
101321.244
101321.35
101321.453
101321.554
101321.652
101321.748
101321.842
101321.933
101322.022
101322.109
101322.193
101322.276
101322.356
101322.434
101322.51
101322.584
101322.657
101322.727
101322.796
101322.862
101322.927
101322.99
101323.052
101323.112
101323.17
101323.226
101323.281
101323.335
101323.387
101323.438
101323.487
101323.534
101323.581
101323.626
101323.67
101323.712
101323.754
101323.794
101323.833
101323.871
101323.907
101323.943
101323.977
101324.011
101324.044
101324.075
101324.106
101324.135
101324.164
101324.192
101324.219
101324.245
101324.271
101324.295
101324.319
101324.342
101324.365
101324.387
101324.408
101324.428
101324.448
101324.467
101324.485
101324.503
101324.52
101324.537
101324.553
101324.569
101324.584
101324.599
101324.613
101324.627
101324.64
101324.653
101324.665
101324.677
101324.689
101324.7
101324.711
101324.721
101324.732
101324.741
101324.751
101324.76
101324.769
101324.777
101324.785
101324.793
101324.801
101324.808
101324.815
101324.822
101324.829
101324.835
101324.841
101324.847
101324.853
101324.859
101324.864
101324.869
101324.874
101324.879
101324.884
101324.888
101324.892
101324.896
101324.9
101324.904
101324.908
101324.912
101324.915
101324.918
101324.922
101324.925
101324.928
101324.931
101324.934
101324.937
101324.94
101324.943
101324.946
101324.95
101324.953
101324.956
101324.96
101324.963
101324.966
101324.969
101324.972
101324.975
101324.978
101324.981
101324.984
101324.986
101324.988
101324.99
101324.992
101324.993
101324.995
101324.996
101324.997
101324.998
101324.998
101324.999
101324.999
101325
101325
101325
101325
101325
101325
101325
101325
101325
101325
101325
101325
101325
101325
101325
101325
101325
101325
101325
101325
101325
101325
101325
101325
101325
101325
101325
101325
101325
101325
101325
101325
101325
101325
101325
101325
101325
101325
101325
101325
101325
101325
101325
101325
101325
101325
101325
)
;

boundaryField
{
    closed
    {
        type            zeroGradient;
    }
    open
    {
        type            waveTransmissive;
        gamma           1.25;
        fieldInf        101325;
        lInf            1;
        value           uniform 101325;
    }
    sides
    {
        type            empty;
    }
}


// ************************************************************************* //
