/*--------------------------------*- C++ -*----------------------------------*\
| =========                 |                                                 |
| \\      /  F ield         | OpenFOAM: The Open Source CFD Toolbox           |
|  \\    /   O peration     | Version:  2206                                  |
|   \\  /    A nd           | Website:  www.openfoam.com                      |
|    \\/     M anipulation  |                                                 |
\*---------------------------------------------------------------------------*/
FoamFile
{
    version     2.0;
    format      ascii;
    arch        "LSB;label=32;scalar=64";
    class       volScalarField;
    location    "4.4e-06";
    object      PVsourcePV;
}
// * * * * * * * * * * * * * * * * * * * * * * * * * * * * * * * * * * * * * //

dimensions      [1 -3 -1 0 0 0 0];

internalField   nonuniform List<scalar> 
3183
(
0
0
0
0
0
0
0
0
0
0
0
0
0
0
0
0
0
0
0
0
0
0
0
0
0
0
0
0
0
0
0
0
0
0
0
0
0
0
0
0
0
0
0
0
0
0
0
0
0
0
0
0
0
0
0
0
0
0
0
0
0
0
0
0
0
0
0
0
0
0
0
0
0
0
0
0
0
0
0
0
0
0
0
0
0
0
0
0
0
0
0
0
0
0
0
0
0
0
0
0
0
0
0
0
0
0
0
0
0
0
0
0
0
0
0
0
0
0
0
0
0
0
0
0
0
0
0
0
0
0
0
0
0
0
0
0
0
0
0
0
0
0
0
0
0
0
0
0
0
0
0
0
0
0
0
0
0
0
0
0
0
0
0
0
0
0
0
0
0
0
0
0
0
0
0
0
0
0
0
0
0
0
0
0
0
0
0
0
0
0
0
0
0
0
0
0
0
0
0
0
0
0
0
0
0
0
0
0
0
0
0
0
0
0
0
0
0
0
0
0
0
0
0
0
0
0
0
0
0
0
0
0
0
0
0
0
0
0
0
0
0
0
0
0
0
0
0
0
0
0
0
0
0
0
0
0
0
0
0
0
0
0
0
0
0
0
0
0
0
0
0
0
0
0
0
0
0
0
0
0
0
0
0
0
0
0
0
0
0
0
0
0
0
0
0
0
0
0
0
0
0
0
0
0
0
0
0
0
0
0
0
0
0
0
0
0
0
0
0
0
0
0
0
0
0
0
0
0
0
0
0
0
0
0
0
0
0
0
0
0
0
0
0
0
0
0
0
0
0
0
0
0
0
0
0
0
0
0
0
0
0
0
0
0
0
0
0
0
0
0
0
0
0
0
0
0
0
0
0
0
0
0
0
0
0
0
0
0
0
0
0
0
0
0
0
0
0
0
0
0
0
0
0
0
0
0
0
0
0
0
0
0
0
0
0
0
0
0
0
0
0
0
0
0
0
0
0
0
0
0
0
0
0
0
0
0
0
0
0
0
0
0
0
0
0
0
0
0
0
0
0
0
0
0
0
0
0
0
0
0
0
0
0
0
0
0
0
0
0
0
0
0
0
0
0
0
0
0
0
0
0
0
0
0
0
0
0
0
0
0
0
0
0
0
0
0
0
0
0
0
0
0
0
0
0
0
0
0
0
0
0
0
0
0
0
0
0
0
0
0
0
0
0
0
0
0
0
0
0
0
0
0
0
0
0
0
0
0
0
0
0
0
0
0
0
0
0
0
0
0
0
0
0
0
0
0
0
0
0
0
0
0
0
0
0
0
0
0
0
0
0
0
0
0
0
0
0
0
0
0
0
0
0
0
0
0
0
0
0
0
0
0
0
0
0
0
0
0
0
0
0
0
0
0
0
0
0
0
0
0
0
0
0
0
0
0
0
0
0
0
0
0
0
0
0
0
0
0
0
0
0
0
0
0
0
0
0
0
0
0
0
0
0
0
0
0
0
0
0
0
0
0
0
0
0
0
0
0
0
0
0
0
0
0
0
0
0
0
0
0
0
0
0
0
0
0
0
0
0
0
0
0
0
0
0
0
0
0
0
0
0
0
0
0
0
0
0
0
0
0
0
0
0
0
0
0
0
0
0
0
0
0
0
0
0
0
0
0
0
0
0
0
0
0
0
0
0
0
0
0
0
0
0
0
0
0
0
0
0
0
0
0
0
0
0
0
0
0
0
0
0
0
0
0
0
0
0
0
0
0
0
0
0
0
0
0
0
0
0
0
0
0
0
0
0
0
0
0
0
0
0
0
0
0
0
0
0
0
0
0
0
0
0
0
0
0
0
0
0
0
0
0
0
0
0
0
0
0
0
0
0
0
0
0
0
0
0
0
0
0
0
0
0
0
0
0
0
0
0
0
0
0
0
0
0
0
0
0
0
0
0
0
0
0
0
0
0
0
0
0
0
0
0
0
0
0
0
0
0
0
0
0
0
0
0
0
0
0
0
0
0
0
0
0
0
0
0
0
0
0
0
0
0
0
0
0
0
0
0
0
0
0
0
0
0
0
0
0
0
0
0
0
0
0
0
0
0
0
0
0
0
0
0
0
0
0
0
0
0
0
0
0
0
0
0
0
0
0
0
0
0
0
0
0
0
0
0
0
0
0
0
0
0
0
0
0
0
0
0
0
0
0
0
0
0
0
0
0
0
0
0
0
0
0
0
0
0
0
0
0
0
0
0
0
0
0
0
0
0
0
0
0
0
0
0
0
0
0
0
0
0
0
0
0
0
0
0
0
0
0
0
0
0
0
0
0
0
0
0
0
0
0
0
0
0
0
0
0
0
0
0
0
0
0
0
0
0
0
0
0
0
0
0
0
0
0
0
0
0
0
0
0
0
0
0
0
0
0
0
0
0
0
0
0
0
0
0
0
0
0
0
0
0
0
0
0
0
0
0
0
0
0
0
0
0
0
0
0
0
0
0
0
0
0
0
0
0
0
0
0
0
0
0
0
0
0
0
0
0
0
0
0
0
0
0
0
0
0
0
0
0
0
0
0
0
0
0
0
0
0
0
0
0
0
0
0
0
0
0
0
0
0
0
0
0
0
0
0
0
0
0
0
0
0
0
0
0
0
0
0
0
0
0
0
0
0
0
0
0
0
0
0
0
0
0
0
0
0
0
0
0
0
0
0
0
0
0
0
0
0
0
0
0
0
0
0
0
0
0
0
0
0
0
0
0
0
0
0
0
0
0
0
0
0
0
0
0
0
0
0
0
0
0
0
0
0
0
0
0
0
0
0
0
0
0
0
0
0
0
0
0
0
0
0
0
0
0
0
0
0
0
0
0
0
0
0
0
0
0
0
0
0
0
0
0
0
0
0
0
0
0
0
0
0
0
0
0
0
0
0
0
0
0
0
0
0
0
0
0
0
0
0
0
0
0
0
0
0
0
0
0
0
0
0
0
0
0
0
0
0
0
0
0
0
0
0
0
0
0
0
0
0
0
0
0
0
0
0
0
0
0
0
0
0
0
0
0
0
0
0
0
0
0
0
0
0
0
0
0
0
0
0
0
0
0
0
0
0
0
0
0
0
0
0
0
0
0
0
0
0
0
0
0
0
0
0
0
0
0
0
0
0
0
0
0
0
0
0
0
0
0
0
0
0
0
0
0
0
0
0
0
0
0
0
0
0
0
0
0
0
0
0
0
0
0
0
0
0
0
0
0
0
0
0
0
0
0
0
0
0
0
0
0
0
0
0
0
0
0
0
0
0
0
0
0
0
0
0
0
0
0
0
0
0
0
0
0
0
0
0
0
0
0
0
0
0
0
0
0
0
0
0
0
0
0
0
0
0
0
0
0
0
0
0
0
0
0
0
0
0
0
0
0
0
0
0
0
0
0
0
0
0
0
0
0
0
0
0
0
0
0
0
0
0
0
0
0
0
0
0
0
0
0
0
0
0
0
0
0
0
0
0
0
0
0
0
0
0
0
0
0
0
0
0
0
0
0
0
0
0
0
0
0
0
0
0
0
0
0
0
0
0
0
0
0
0
0
0
0
0
0
0
0
0
0
0
0
0
0
0
0
0
0
0
0
0
0
0
0
0
0
0
0
0
0
0
0
0
0
0
0
0
0
0
0
0
0
0
0
0
0
0
0
0
0
0
0
0
0
0
0
0
0
0
0
0
0
0
0
0
0
0
0
0
0
0
0
0
0
0
0
0
0
0
0
0
0
0
0
0
0
0
0
0
0
0
0
0
0
0
0
0
0
0
0
0
0
0
0
0
0
0
0
0
0
0
0
0
0
0
0
0
0
0
0
0
0
0
0
0
0
0
0
0
0
0
0
0
0
0
0
0
0
0
0
0
0
0
0
0
0
0
0
0
0
0
0
0
0
0
0
0
0
0
0
0
0
0
0
0
0
0
0
0
0
0
0
0
0
0
0
0
0
0
0
0
0
0
0
0
0
0
0
0
0
0
0
0
0
0
0
0
0
0
0
0
0
0
0
0
0
0
0
0
0
0
0
0
0
0
0
0
0
0
0
0
0
0
0
0
0
0
0
0
0
0
0
0
0
0
0
0
0
0
0
0
0
0
0
0
0
0
0
0
0
0
0
0
0
0
0
0
0
0
0
0
0
0
0
0
0
0
0
0
0
0
0
0
0
0
0
0
0
0
0
0
0
0
0
0
0
0
0
0
0
0
0
0
0
0
0
0
0
0
0
0
0
0
0
0
0
0
0
0
0
0
0
0
0
0
0
0
0
0
0
0
0
0
0
0
0
0
0
0
0
0
0
0
0
0
0
0
0
0
0
0
0
0
0
0
0
0
0
0
0
0
0
0
0
0
0
0
0
0
0
0
0
0
0
0
0
0
0
0
0
0
0
0
0
0
0
0
0
0
0
0
0
0
0
0
0
0
0
0
0
0
0
0
0
0
0
0
0
0
0
0
0
0
0
0
0
0
0
0
0
0
0
0
0
0
0
0
0
0
0
0
0
0
0
0
0
0
0
0
0
0
0
0
0
0
0
0
0
0
0
0
0
0
0
0
0
0
0
0
0
0
0
0
0
0
0
0
0
0
0
0
0
0
0
0
0
0
0
0
0
0
0
0
0
0
0
0
0
0
0
0
0
0
0
0
0
0
0
0
0
0
0
0
0
0
0
0
0
0
0
0
0
0
0
0
0
0
0
0
0
0
0
0
0
0
0
0
0
0
0
0
0
0
0
0
0
0
0
0
0
0
0
0
0
0
0
0
0
0
0
0
0
0
0
0
0
0
0
0
0
0
0
0
0
0
0
0
0
0
0
0
0
0
0
0
0
0
0
0
0
0
0
0
0
0
0
0
0
0
0
0
0
0
0
0
0
0
0
0
0
0
0
0
0
0
0
0
0
0
0
0
0
0
0
0
0
0
0
0
0
0
0
0
0
0
0
0
0
0
0
0
0
0
0
0
0
0
0
0
0
0
0
0
0
0
0
0
0
0
0
0
0
0
0
0
0
0
0
0
0
0
0
0
0
0
0
0
0
0
0
0
0
0
0
0
0
0
0
0
0
0
0
0
0
0
0
0
0
0
0
0
0
0
0
0
0
0
0
0
0
0
0
0
0
0
0
0
0
0
0
0
0
0
0
0
0
0
0
0
0
0
0
0
0
0
0
0
0
0
0
0
0
0
0
0
0
0
0
0
0
0
0
0
0
0
0
0
0
0
0
0
0
0
0
0
0
0
0
0
0
0
0
0
0
0
0
0
0
0
0
0
0
0
0
0
0
0
0
0
0
0
0
0
0
0
0
0
0
0
0
0
0
0
0
0
0
0
0
0
0
0
0
0
0
0
0
0
0
0
0
0
0
0
0
0
0
0
0
0
0
0
0
0
0
0
0
0
0
0
0
0
0
0
0
0
0
0
0
0
0
0
0
0
0
0
0
0
0
0
0
0
0
0
0
0
0
0
0
0
0
0
0
0
0
0
0
0
0
0
0
0
0
0
0
0
0
0
0
0
0
0
0
0
0
0
0
0
0
0
0
0
0
0
0
0
0
0
0
0
0
1.11757983e-297
0
2.12813957e-288
0
2.08767765e-279
0
1.05500858e-270
0
2.746414e-262
0
3.68284712e-254
0
2.54391921e-246
0
9.05163757e-239
0
1.65910191e-231
0
1.56671108e-224
0
7.62395729e-218
0
1.91277927e-211
0
2.47670123e-205
0
1.6582461e-199
0
5.76253688e-194
0
6.8315016e-190
0
4.28693971e-186
0
1.87928582e-182
0
6.44014963e-179
0
1.83207211e-175
0
4.48925254e-172
0
9.71307282e-169
0
1.88869047e-165
0
3.34421656e-162
0
5.44687948e-159
0
8.22595075e-156
0
1.15931487e-152
0
1.53278464e-149
0
1.90952434e-146
0
2.24972473e-143
0
2.51447025e-140
0
2.67320372e-137
0
2.70943677e-134
0
2.62328061e-131
0
2.43036831e-128
0
2.15777495e-125
0
1.83826313e-122
7.99037185e-125
1.50440226e-119
6.08424106e-121
1.18385273e-116
8.74973431e-118
8.96548849e-114
9.42778869e-115
6.5389256e-111
8.79764252e-112
4.59580719e-108
7.46262973e-109
3.11432611e-105
5.88415451e-106
2.03562334e-102
4.36557833e-103
1.28383349e-99
3.07029834e-100
7.81464874e-97
2.05679482e-97
4.59173989e-94
1.31672516e-94
2.60469403e-91
8.07397569e-92
1.42646079e-88
4.7497526e-89
7.54164946e-86
2.68373591e-86
3.84878156e-83
1.45757285e-83
1.89558958e-80
7.61298419e-81
9.00759401e-78
3.824938e-78
4.12819428e-75
1.84868248e-75
1.82391152e-72
8.59439032e-73
7.76434372e-70
3.8420039e-70
3.18261802e-67
1.65081241e-67
1.25521176e-64
6.81357601e-65
4.75908953e-62
2.69936862e-62
1.73288102e-59
1.02555816e-59
6.05271162e-57
3.73245714e-57
2.02531224e-54
1.29959571e-54
6.48237815e-52
4.32265493e-52
1.98115508e-49
1.37109192e-49
5.76993087e-47
4.13885031e-47
1.59764647e-44
1.18623543e-44
4.19444927e-42
3.21922242e-42
1.04083188e-39
8.2456534e-40
2.43208686e-37
1.9858433e-37
5.32774686e-35
4.47657468e-35
1.08831104e-32
9.39419666e-33
2.05954627e-30
1.823035e-30
3.58157287e-28
3.24462652e-28
5.6647832e-26
5.24116326e-26
8.04013265e-24
7.58043673e-24
1.0056362e-21
9.6371531e-22
1.08047475e-19
1.04937259e-19
9.59706141e-18
9.40979037e-18
6.61728438e-16
6.3770193e-16
1.20770137e-12
1.37126922e-12
0.207743146
0.416927606
0.516294507
0.434917009
0.0387897418
0.0342232278
0.0039334598
0.00380850416
0.00035460631
0.000355772531
2.92763888e-05
2.94278694e-05
2.74182264e-06
2.75266368e-06
8.20895679e-07
8.21685956e-07
6.95649217e-07
6.95734189e-07
6.88232002e-07
6.88239619e-07
6.87827239e-07
6.87828058e-07
6.87807171e-07
6.87807463e-07
6.8780622e-07
6.87806223e-07
6.87806539e-07
6.878062e-07
6.8780586e-07
6.8780698e-07
6.87805683e-07
6.87805931e-07
6.87806098e-07
6.87807416e-07
6.8780533e-07
6.87806745e-07
6.87805948e-07
6.87806288e-07
6.87805673e-07
6.87806272e-07
6.87806569e-07
6.87806247e-07
6.87806761e-07
6.87805564e-07
6.87806591e-07
6.87805948e-07
6.87806767e-07
6.87806396e-07
6.87806292e-07
6.87805812e-07
6.87806552e-07
6.87806215e-07
6.87806056e-07
6.87806398e-07
6.87806527e-07
6.87805933e-07
6.87806208e-07
6.87806581e-07
6.87807047e-07
6.87805262e-07
6.8780679e-07
6.87806313e-07
6.87806284e-07
6.8780687e-07
6.87805867e-07
6.87806124e-07
6.87806874e-07
6.87805726e-07
6.87806515e-07
6.87805506e-07
6.87806946e-07
6.87804675e-07
6.87807304e-07
6.87805576e-07
6.87806553e-07
6.87806087e-07
6.87807115e-07
6.87806458e-07
6.87806557e-07
6.87807221e-07
6.87806216e-07
6.87806599e-07
6.87807092e-07
6.87806477e-07
6.87806677e-07
6.87806715e-07
6.87806233e-07
6.87806486e-07
6.87806691e-07
6.87805666e-07
6.87807024e-07
6.87806495e-07
6.87806189e-07
6.87807676e-07
6.87805732e-07
6.87806877e-07
6.87806524e-07
6.87807411e-07
6.87807038e-07
6.87805973e-07
6.87807003e-07
6.87806723e-07
6.87806948e-07
6.87806665e-07
6.87806714e-07
6.87806448e-07
6.87806651e-07
6.8780747e-07
6.87806588e-07
6.87805952e-07
6.87807591e-07
6.87805627e-07
6.87807139e-07
6.87805909e-07
6.87806316e-07
6.87806722e-07
6.8780649e-07
6.8780674e-07
6.87806748e-07
6.8780676e-07
6.8780694e-07
6.87806264e-07
6.8780704e-07
6.87806357e-07
6.87806868e-07
6.87806392e-07
6.87806521e-07
6.87806729e-07
6.87807132e-07
6.87807166e-07
6.87806721e-07
6.8780626e-07
6.87807056e-07
6.87808012e-07
6.87805903e-07
6.87807745e-07
6.87806476e-07
6.87806409e-07
6.87807959e-07
6.87805735e-07
6.87807745e-07
6.87806354e-07
6.87807339e-07
6.87806379e-07
6.87806708e-07
6.87806882e-07
6.87806775e-07
6.87807071e-07
6.87807295e-07
6.8780742e-07
6.87806603e-07
6.87807521e-07
6.87807183e-07
6.87807184e-07
6.87806882e-07
6.8780745e-07
6.878069e-07
6.87807515e-07
6.87806886e-07
6.87806921e-07
6.87806969e-07
6.87806982e-07
6.8780731e-07
6.87806959e-07
6.87807501e-07
6.87807747e-07
6.87807456e-07
6.87806821e-07
6.87807611e-07
6.87807165e-07
6.87806752e-07
6.87806766e-07
6.87806905e-07
6.87807051e-07
6.87806772e-07
6.87807332e-07
6.87807727e-07
6.87807048e-07
6.87807469e-07
6.87808595e-07
6.87807869e-07
6.87808291e-07
6.87807512e-07
6.87807344e-07
6.87807357e-07
6.87807368e-07
6.87808156e-07
6.8780724e-07
6.87808103e-07
6.87807534e-07
6.87808075e-07
6.87807567e-07
6.87808093e-07
6.87807868e-07
6.87808271e-07
6.87807396e-07
6.8780805e-07
6.87807201e-07
6.87808445e-07
6.87806236e-07
6.87808461e-07
6.87807719e-07
6.87806983e-07
6.87808828e-07
6.87807248e-07
6.878074e-07
6.87807929e-07
6.87808047e-07
6.87807882e-07
6.87807592e-07
6.87808814e-07
6.87806593e-07
6.87808381e-07
6.87808009e-07
6.87807881e-07
6.87808003e-07
6.87808033e-07
6.87808103e-07
6.87808213e-07
6.87808829e-07
6.87807512e-07
6.87808511e-07
6.8780782e-07
6.87808284e-07
6.87807856e-07
6.87807708e-07
6.87808149e-07
6.87808129e-07
6.87808084e-07
6.87808003e-07
6.87808368e-07
6.87807846e-07
6.87808554e-07
6.87807836e-07
6.87808763e-07
6.87808678e-07
6.87808243e-07
6.87808754e-07
6.87808004e-07
6.87808638e-07
6.87808812e-07
6.87808442e-07
6.87808555e-07
6.87807828e-07
6.87809237e-07
6.87808194e-07
6.87808204e-07
6.87808448e-07
6.87808107e-07
6.87808486e-07
6.87808389e-07
6.87808789e-07
6.87808951e-07
6.87808699e-07
6.87807918e-07
6.87808334e-07
6.8780947e-07
6.87808365e-07
6.87809167e-07
6.87808002e-07
6.87809203e-07
6.87808956e-07
6.87809224e-07
6.87807791e-07
6.87809929e-07
6.87808173e-07
6.87808488e-07
6.87808156e-07
6.87808389e-07
6.8780779e-07
6.87809188e-07
6.87809023e-07
6.87808424e-07
6.87810002e-07
6.87808293e-07
6.8780958e-07
6.87808222e-07
6.87809079e-07
6.87809372e-07
6.87808755e-07
6.87809331e-07
6.87807719e-07
6.87809005e-07
6.87809078e-07
6.87809233e-07
6.87808653e-07
6.87808447e-07
6.87808984e-07
6.87808759e-07
6.87809105e-07
6.87808452e-07
6.87808729e-07
6.87809094e-07
6.87807945e-07
6.87809292e-07
6.87808415e-07
6.87808723e-07
6.87808948e-07
6.87809594e-07
6.87809093e-07
6.87809792e-07
6.87808836e-07
6.87808851e-07
6.87809179e-07
6.87809466e-07
6.87809e-07
6.87809817e-07
6.8780874e-07
6.87809519e-07
6.87809404e-07
6.87809293e-07
6.87808896e-07
6.87807881e-07
6.87809808e-07
6.87808667e-07
6.87808978e-07
6.87809761e-07
6.87808215e-07
6.87809555e-07
6.87808855e-07
6.8780933e-07
6.87809341e-07
6.87808772e-07
6.87808899e-07
6.87808837e-07
6.8780947e-07
6.87809026e-07
6.87809228e-07
6.87809015e-07
6.87808567e-07
6.87809332e-07
6.8780936e-07
6.87808544e-07
6.87808837e-07
6.87809365e-07
6.87808495e-07
6.87809443e-07
6.87808555e-07
6.87809703e-07
6.87808852e-07
6.87809614e-07
6.87809136e-07
6.8780921e-07
6.87809587e-07
6.87808994e-07
6.87809532e-07
6.87808934e-07
6.87809868e-07
6.87808948e-07
6.87809064e-07
6.87808677e-07
6.87809169e-07
6.87809324e-07
6.87808446e-07
6.87810244e-07
6.8780857e-07
6.87809578e-07
6.87809352e-07
6.87810016e-07
6.8780866e-07
6.87809473e-07
6.87808774e-07
6.8780962e-07
6.87809338e-07
6.8780899e-07
6.87810002e-07
6.87809618e-07
6.87809651e-07
6.87809709e-07
6.87809543e-07
6.87809605e-07
6.87809929e-07
6.87808821e-07
6.87810426e-07
6.87808836e-07
6.87809665e-07
6.8780925e-07
6.87808911e-07
6.87809962e-07
6.87808665e-07
6.87810015e-07
6.87809299e-07
6.87808902e-07
6.87808873e-07
6.87809101e-07
6.87809369e-07
6.87808745e-07
6.87808949e-07
6.87809434e-07
6.87809085e-07
6.87809346e-07
6.87809127e-07
6.87809209e-07
6.87809144e-07
6.87808643e-07
6.87810353e-07
6.87809141e-07
6.87809666e-07
6.87808882e-07
6.87809395e-07
6.87808815e-07
6.87809164e-07
6.8780933e-07
6.87810272e-07
6.87808522e-07
6.87809611e-07
6.87808461e-07
6.87809592e-07
6.87809062e-07
6.87809676e-07
6.87809792e-07
6.87809473e-07
6.87809074e-07
6.87808612e-07
6.87809818e-07
6.8780871e-07
6.87809772e-07
6.87809332e-07
6.87809072e-07
6.87809104e-07
6.8780965e-07
6.87808905e-07
6.8780914e-07
6.87809086e-07
6.87809928e-07
6.87808994e-07
6.87809215e-07
6.87809868e-07
6.87809183e-07
6.87809929e-07
6.87809878e-07
6.87809884e-07
6.87809139e-07
6.87809439e-07
6.87809942e-07
6.87809524e-07
6.87809699e-07
6.8780955e-07
6.87809453e-07
6.87809537e-07
6.87809796e-07
6.87808873e-07
6.87809109e-07
6.87809057e-07
6.87809481e-07
6.87809587e-07
6.87810063e-07
6.87809472e-07
6.878091e-07
6.87810149e-07
6.8780837e-07
6.87808956e-07
6.87809873e-07
6.87808793e-07
6.87809344e-07
6.87809635e-07
6.87809723e-07
6.87808825e-07
6.87809576e-07
6.87809393e-07
6.87808213e-07
6.87809525e-07
6.87809323e-07
6.87809039e-07
6.87809081e-07
6.87808732e-07
6.8780997e-07
6.878085e-07
6.87810207e-07
6.87809513e-07
6.87809233e-07
6.87809651e-07
6.87808964e-07
6.87809645e-07
6.87809205e-07
6.8780967e-07
6.87809453e-07
6.8780913e-07
6.87809113e-07
6.87809078e-07
6.87808627e-07
6.87809111e-07
6.87809032e-07
6.87809801e-07
6.87809262e-07
6.87808683e-07
6.87809783e-07
6.87809227e-07
6.8780965e-07
6.87808926e-07
6.87809076e-07
6.87809701e-07
6.87809824e-07
6.8780962e-07
6.87808856e-07
6.87809032e-07
6.87809389e-07
6.87808931e-07
6.87810149e-07
6.87808659e-07
6.87809981e-07
6.87808528e-07
6.87809081e-07
6.87809766e-07
6.87809027e-07
6.87809824e-07
6.87809268e-07
6.8780928e-07
6.87809103e-07
6.87809177e-07
6.87809492e-07
6.87809028e-07
6.87809348e-07
6.87809212e-07
6.87809415e-07
6.87809355e-07
6.87809151e-07
6.87809213e-07
6.8780929e-07
6.87809202e-07
6.87809244e-07
6.87809313e-07
6.8780925e-07
6.87809257e-07
6.87809223e-07
6.87809211e-07
6.87809255e-07
6.87809258e-07
6.87809251e-07
6.87809301e-07
6.8780925e-07
6.87809256e-07
6.87809253e-07
6.87809251e-07
6.87809291e-07
6.87809251e-07
6.87809235e-07
6.87809245e-07
6.87809261e-07
6.87809254e-07
6.87809255e-07
6.87809256e-07
6.87809257e-07
6.87809255e-07
6.87809261e-07
6.87809257e-07
6.87809262e-07
6.87809237e-07
6.87809259e-07
6.8780925e-07
6.87809251e-07
6.87809259e-07
6.87809255e-07
6.87809254e-07
6.87809263e-07
6.8780925e-07
6.87809255e-07
6.87809241e-07
6.87809252e-07
6.87809257e-07
6.8780926e-07
6.87809258e-07
6.87809259e-07
6.87809245e-07
6.87809259e-07
6.87809254e-07
6.87809255e-07
6.87809257e-07
6.87809248e-07
6.87809269e-07
6.8780925e-07
6.87809259e-07
6.87809253e-07
6.87809251e-07
6.87809261e-07
6.8780925e-07
6.8780925e-07
6.87809257e-07
)
;

boundaryField
{
    closed
    {
        type            calculated;
        value           uniform 0;
    }
    open
    {
        type            calculated;
        value           uniform 0;
    }
    sides
    {
        type            empty;
    }
}


// ************************************************************************* //
