/*--------------------------------*- C++ -*----------------------------------*\
| =========                 |                                                 |
| \\      /  F ield         | OpenFOAM: The Open Source CFD Toolbox           |
|  \\    /   O peration     | Version:  2206                                  |
|   \\  /    A nd           | Website:  www.openfoam.com                      |
|    \\/     M anipulation  |                                                 |
\*---------------------------------------------------------------------------*/
FoamFile
{
    version     2.0;
    format      ascii;
    arch        "LSB;label=32;scalar=64";
    class       surfaceScalarField;
    location    "1.36e-05";
    object      phi;
}
// * * * * * * * * * * * * * * * * * * * * * * * * * * * * * * * * * * * * * //

dimensions      [1 0 -1 0 0 0 0];

oriented        oriented;

internalField   nonuniform List<scalar> 
3182
(
4.85386312e-18
-2.48610504e-18
-1.29776139e-18
-1.85617614e-18
-4.63710756e-21
-2.80466373e-23
-2.00662902e-24
4.98570949e-29
2.75330817e-24
5.15582349e-23
5.87915299e-21
3.30537609e-18
3.52200901e-18
9.43346997e-21
1.61414822e-18
-9.67495123e-19
-3.51838457e-18
-5.07887079e-18
-3.75638809e-18
4.38311646e-18
5.94579316e-20
1.00322575e-21
7.42021804e-19
2.14515181e-18
3.70296399e-18
2.09578418e-18
5.77068029e-18
2.42025143e-18
1.15629163e-18
1.19510767e-18
-1.32095425e-18
-4.45464242e-18
-4.73058866e-18
-6.60240516e-18
-6.72810648e-18
-4.42011225e-18
-3.75465382e-18
-2.6523198e-18
-3.48159962e-18
-3.74668958e-18
-3.67972023e-18
-1.94005684e-18
-1.62465912e-18
7.31625049e-19
1.42983862e-18
2.2770301e-18
4.1112916e-18
5.73837293e-18
6.61220005e-18
7.60479359e-18
9.98956045e-18
1.11008578e-17
1.1722263e-17
1.22659331e-17
1.15051822e-17
1.04375321e-17
8.68899479e-18
6.96173388e-18
5.43409353e-18
3.68856003e-18
6.60539503e-19
-1.54005374e-18
-4.17944779e-18
-6.09682041e-18
-6.89821592e-18
-7.7749905e-18
-9.30555276e-18
-1.16801047e-17
-1.29902433e-17
-1.60911326e-17
-1.77912433e-17
-2.06842671e-17
-2.20481821e-17
-2.22061318e-17
-2.35052872e-17
-2.52463094e-17
-2.66704953e-17
-2.61976485e-17
-2.65771952e-17
-2.77731702e-17
-2.86622276e-17
-2.93253613e-17
-3.07904715e-17
-3.26096112e-17
-3.39549506e-17
-3.44592626e-17
-3.58213992e-17
-3.4173089e-17
-3.55956512e-17
-3.61252062e-17
-3.66573137e-17
-3.6912465e-17
-3.92940363e-17
-3.6162876e-17
-3.72992215e-17
-3.79969298e-17
-4.02344521e-17
-4.18530639e-17
-4.22553962e-17
-4.04596907e-17
-4.32373249e-17
-4.20333385e-17
-4.10204652e-17
-4.37812561e-17
-4.43008575e-17
-4.29145408e-17
-4.41527591e-17
-4.19085024e-17
-4.39702449e-17
-4.68804328e-17
-4.4088225e-17
-4.30077689e-17
-4.26082434e-17
-4.27256954e-17
-4.15635655e-17
-4.28723864e-17
-4.37258273e-17
-4.27392895e-17
-4.39130487e-17
-4.44497234e-17
-4.5176488e-17
-4.59998573e-17
-4.46991784e-17
-4.32622592e-17
-4.40596459e-17
-4.37507043e-17
-4.43926667e-17
-4.38176557e-17
-4.59282762e-17
-4.47285933e-17
-4.83729596e-17
-4.98745206e-17
-4.95076822e-17
-4.74504428e-17
-4.67023132e-17
-4.73425885e-17
-4.62062162e-17
-4.85123584e-17
-4.54013278e-17
-4.74090696e-17
-4.93675767e-17
-4.84759407e-17
-4.91181409e-17
-4.90002299e-17
-4.84763668e-17
-4.56531e-17
-4.6777878e-17
-4.64422826e-17
-4.70483709e-17
-4.76604269e-17
-5.08058907e-17
-5.03267175e-17
-5.52647801e-17
-5.43310919e-17
-5.31956843e-17
-5.16489157e-17
-5.21372528e-17
-5.53786881e-17
-5.58578842e-17
-5.76462126e-17
-5.63689063e-17
-5.86342407e-17
-5.94031414e-17
-6.27497672e-17
-6.34974257e-17
-6.28834257e-17
-6.52598728e-17
-6.38771484e-17
-6.41427383e-17
-6.49165778e-17
-6.78364492e-17
-6.88551117e-17
-6.87318628e-17
-6.87185756e-17
-6.64236191e-17
-6.96059514e-17
-7.09226616e-17
-6.81095155e-17
-7.18651097e-17
-7.32001685e-17
-7.3327073e-17
-7.27095889e-17
-7.22731812e-17
-7.07321265e-17
-7.32344677e-17
-7.37330507e-17
-7.53140071e-17
-7.72042138e-17
-7.79294641e-17
-8.06986179e-17
-7.74232665e-17
-7.76372519e-17
-7.87712147e-17
-7.90651301e-17
-7.89948776e-17
-8.00322158e-17
-8.32299312e-17
-8.15466832e-17
-8.16266912e-17
-8.20538128e-17
-7.97229229e-17
-8.08535022e-17
-8.16904846e-17
-8.2694302e-17
-8.23764087e-17
-8.39817133e-17
-8.64535751e-17
-8.81963309e-17
-8.68532348e-17
-8.85744272e-17
-8.50815097e-17
-8.79897508e-17
-8.69052819e-17
-8.84773003e-17
-8.85926882e-17
-8.81291842e-17
-8.82490232e-17
-9.23739276e-17
-9.06498836e-17
-9.46632539e-17
-9.30209414e-17
-9.27211584e-17
-9.11384429e-17
-8.81844072e-17
-9.00291164e-17
-8.88824488e-17
-8.95814336e-17
-9.07668253e-17
-8.83299755e-17
-9.04437923e-17
-8.81159286e-17
-8.95311152e-17
-9.04453188e-17
-9.31068045e-17
-9.20421558e-17
-9.33282358e-17
-9.60534318e-17
-9.55639605e-17
-9.13226454e-17
-9.47465073e-17
-9.21940358e-17
-9.1966675e-17
-9.18937627e-17
-9.25300849e-17
-9.18824332e-17
-9.22512894e-17
-9.31056445e-17
-9.24849401e-17
-9.23078471e-17
-9.28977159e-17
-9.37341372e-17
-9.76593372e-17
-9.45492919e-17
-9.81737856e-17
-9.47359263e-17
-9.71117991e-17
-9.36534651e-17
-9.40063047e-17
-9.43964739e-17
-9.31238861e-17
-9.60762633e-17
-9.3822775e-17
-9.36577346e-17
-9.50687919e-17
-9.56331222e-17
-9.391405e-17
-9.2747966e-17
-9.31387989e-17
-9.57645118e-17
-9.61235466e-17
-9.62119425e-17
-9.49193848e-17
-9.41118336e-17
-9.35003655e-17
-9.83821184e-17
-9.61369008e-17
-9.40277094e-17
-9.57707151e-17
-9.58543359e-17
-9.98767711e-17
-1.01052716e-16
-1.04001075e-16
-1.02598875e-16
-1.00713091e-16
-9.98046727e-17
-1.0109882e-16
-9.93862196e-17
-1.01612929e-16
-9.75997637e-17
-9.96150687e-17
-1.00994043e-16
-9.83680608e-17
-9.74622801e-17
-9.81698491e-17
-1.00232845e-16
-9.74018586e-17
-9.96939663e-17
-1.02215899e-16
-1.00775767e-16
-1.03386857e-16
-1.05539741e-16
-1.07497767e-16
-1.06552576e-16
-1.06747913e-16
-1.09619368e-16
-1.07514018e-16
-1.06518203e-16
-1.08666489e-16
-1.06282075e-16
-1.07355183e-16
-1.10083947e-16
-1.09720243e-16
-1.13612017e-16
-1.09805744e-16
-1.0965718e-16
-1.14529658e-16
-1.15182327e-16
-1.17098251e-16
-1.18614143e-16
-1.19549808e-16
-1.23015096e-16
-1.22042389e-16
-1.24180066e-16
-1.22778409e-16
-1.21624415e-16
-1.22240355e-16
-1.19963599e-16
-1.19584176e-16
-1.20959031e-16
-1.18060914e-16
-1.18719998e-16
-1.17715666e-16
-1.14942781e-16
-1.14485825e-16
-1.13171362e-16
-1.13197029e-16
-1.10861035e-16
-1.11881481e-16
-1.10344793e-16
-1.10853607e-16
-1.12859795e-16
-1.09667983e-16
-1.11879647e-16
-1.11281831e-16
-1.13973298e-16
-1.10100409e-16
-1.11187986e-16
-1.10244878e-16
-1.13958402e-16
-1.13198223e-16
-1.14414736e-16
-1.1587796e-16
-1.15973137e-16
-1.13778853e-16
-1.11762786e-16
-1.14637449e-16
-1.120243e-16
-1.16239872e-16
-1.15712211e-16
-1.15360507e-16
-1.10861603e-16
-1.13459713e-16
-1.15013035e-16
-1.1457229e-16
-1.13374371e-16
-1.12777651e-16
-1.12642991e-16
-1.15672998e-16
-1.12731014e-16
-1.13855839e-16
-1.1130456e-16
-1.08165221e-16
-1.0947528e-16
-1.10687195e-16
-1.08556304e-16
-1.07848117e-16
-1.09970869e-16
-1.06013275e-16
-1.04777818e-16
-1.09455175e-16
-1.07645341e-16
-1.07153703e-16
-1.04763887e-16
-1.07965141e-16
-1.07503575e-16
-1.05911946e-16
-1.07640914e-16
-1.03680875e-16
-1.02073272e-16
-1.01134198e-16
-9.86847889e-17
-9.36502625e-17
-9.29940561e-17
-9.63724216e-17
-9.27348024e-17
-9.56247282e-17
-9.35216779e-17
-9.56655716e-17
-9.6070097e-17
-9.48641562e-17
-9.03224448e-17
-9.03689003e-17
-9.05611236e-17
-9.40650602e-17
-9.19372547e-17
-9.18733014e-17
-9.05482494e-17
-9.46662851e-17
-9.08876604e-17
-9.06872107e-17
-9.21132684e-17
-9.27645011e-17
-9.22289074e-17
-9.52866482e-17
-9.62451514e-17
-9.53990858e-17
-9.18895284e-17
-9.46924027e-17
-9.31601923e-17
-9.294692e-17
-9.42048679e-17
-9.1709778e-17
-9.14607147e-17
-9.37555678e-17
-9.20642403e-17
-9.42049852e-17
-9.19537828e-17
-8.8491607e-17
-8.58134343e-17
-8.7916768e-17
-8.69826367e-17
-8.85779396e-17
-8.32935783e-17
-8.40958302e-17
-8.45569418e-17
-8.22975405e-17
-8.33873126e-17
-8.02414497e-17
-8.06276567e-17
-8.21561207e-17
-7.92613791e-17
-7.93297616e-17
-8.0111783e-17
-7.68859933e-17
-7.48614747e-17
-7.262809e-17
-7.09062544e-17
-6.94616826e-17
-6.7109276e-17
-6.70670601e-17
-6.75207825e-17
-6.84631903e-17
-6.94573851e-17
-6.77261225e-17
-7.105987e-17
-6.68153652e-17
-6.65428363e-17
-6.36058406e-17
-6.64398757e-17
-6.29793899e-17
-6.35768924e-17
-5.99833378e-17
-5.36424587e-17
-5.61100824e-17
-5.67445787e-17
-5.81489143e-17
-5.67861638e-17
-5.35490988e-17
-5.45604646e-17
-5.27006211e-17
-5.32310787e-17
-5.13228707e-17
-5.24935194e-17
-5.15970944e-17
-5.2510301e-17
-5.18019692e-17
-4.80647523e-17
-5.3307755e-17
-5.35812032e-17
-5.12864264e-17
-4.73971947e-17
-4.74907034e-17
-4.44478614e-17
-4.5043302e-17
-4.07365536e-17
-4.25002939e-17
-4.31342754e-17
-4.21238261e-17
-4.03391983e-17
-4.43758297e-17
-4.19184669e-17
-4.19297472e-17
-4.10595448e-17
-4.15004368e-17
-3.88603555e-17
-4.00749073e-17
-4.01904135e-17
-4.09919542e-17
-4.06574706e-17
-3.91930501e-17
-3.65320472e-17
-3.75178811e-17
-3.90674824e-17
-3.6573652e-17
-3.82411985e-17
-3.41067945e-17
-3.67428986e-17
-3.7897041e-17
-3.88480282e-17
-3.6648257e-17
-3.82323733e-17
-3.95496001e-17
-3.89889658e-17
-3.86984203e-17
-3.74025652e-17
-3.86761946e-17
-3.65330272e-17
-3.81273715e-17
-3.78736793e-17
-3.62480359e-17
-3.74607831e-17
-3.23386794e-17
-3.5035425e-17
-3.73864824e-17
-3.79129798e-17
-3.33273853e-17
-3.63963465e-17
-3.1867211e-17
-3.41233686e-17
-3.55349427e-17
-3.46075677e-17
-3.05616563e-17
-3.25366212e-17
-2.86423452e-17
-2.67218818e-17
-2.33943362e-17
-2.354004e-17
-2.17164979e-17
-2.09802336e-17
-2.04203284e-17
-2.16903933e-17
-2.31443749e-17
-2.03933438e-17
-2.14626587e-17
-2.05902665e-17
-2.12881955e-17
-2.04773193e-17
-2.00416082e-17
-1.49513546e-17
-1.72065093e-17
-1.6612541e-17
-1.70275563e-17
-1.91276263e-17
-1.94688025e-17
-1.97921286e-17
-1.84920658e-17
-1.92726155e-17
-1.93361041e-17
-1.86770126e-17
-1.87439774e-17
-1.86864546e-17
-1.70014649e-17
-1.65132766e-17
-1.36549194e-17
-1.54060471e-17
-1.45116046e-17
-1.39255003e-17
-1.49329419e-17
-1.38717349e-17
-1.08559312e-17
-8.12879525e-18
-8.90288194e-18
-5.2737294e-18
-5.79484672e-18
-6.51405212e-18
-4.75732108e-18
-5.5180837e-18
-6.0812207e-18
-5.29389601e-18
-4.70459535e-18
-1.01832795e-18
-2.23556626e-18
-8.83854231e-19
-1.35271077e-18
7.02517629e-19
-4.64447296e-19
7.96828748e-19
3.45894397e-18
-1.60585809e-18
1.82158305e-18
-1.2687707e-18
-5.34058747e-19
4.3529001e-19
-1.13348457e-18
3.0053768e-19
5.04509907e-19
2.47058737e-18
2.29750307e-18
3.69438002e-18
4.15203424e-18
5.3083043e-18
6.74811867e-18
5.46948681e-18
4.61209733e-18
2.52090429e-18
-8.29290545e-20
1.69376106e-18
1.37432843e-18
3.55948126e-18
6.03336313e-19
-9.87414984e-19
-2.22542943e-19
4.14223797e-18
5.23992542e-18
4.29257747e-18
8.34087732e-18
8.05887653e-18
8.52741432e-18
1.29454124e-17
1.14604381e-17
1.10600725e-17
1.11977429e-17
9.43564401e-18
1.06242234e-17
1.12733183e-17
9.45769413e-18
1.45910633e-17
1.44249994e-17
1.6230938e-17
1.17469704e-17
1.09075756e-17
1.08262336e-17
1.29045799e-17
1.23555746e-17
8.9205046e-18
1.20902709e-17
1.36724539e-17
1.74767962e-17
1.51542317e-17
1.74576656e-17
1.7955002e-17
1.99590527e-17
1.9116575e-17
1.74376951e-17
1.48750723e-17
1.7823853e-17
1.59862007e-17
1.40998318e-17
1.59554701e-17
1.64357395e-17
1.60634071e-17
1.45654687e-17
1.7769724e-17
1.69815496e-17
1.46605596e-17
1.43956483e-17
1.40772814e-17
1.3482909e-17
1.25425887e-17
1.71952164e-17
1.71536796e-17
1.59287637e-17
1.53989601e-17
1.92017348e-17
1.98876063e-17
1.93343844e-17
2.03132586e-17
1.86013879e-17
1.8242815e-17
2.0961441e-17
2.03139735e-17
1.89499794e-17
2.24177518e-17
2.58964204e-17
2.73595827e-17
2.91208139e-17
3.18471509e-17
3.1063789e-17
2.92071694e-17
3.13458003e-17
3.21296835e-17
3.63978973e-17
3.66837104e-17
3.76656968e-17
3.88392944e-17
3.58214477e-17
4.031332e-17
3.81575019e-17
3.82196998e-17
3.76352479e-17
3.8965557e-17
3.92672482e-17
3.8554621e-17
3.82255882e-17
4.20525604e-17
3.87811849e-17
4.01217255e-17
4.52499858e-17
4.42740082e-17
4.51505906e-17
4.45854642e-17
4.66406409e-17
4.36933768e-17
4.68006735e-17
4.86731566e-17
4.87154303e-17
4.86986336e-17
4.79763457e-17
4.91134016e-17
4.95236802e-17
5.24937273e-17
5.22546053e-17
4.9978998e-17
5.12632017e-17
4.899261e-17
4.98107707e-17
5.11570575e-17
5.07379116e-17
4.881604e-17
4.62514002e-17
4.95616062e-17
4.92992865e-17
4.86676391e-17
5.04339644e-17
4.98325429e-17
5.21948041e-17
5.16341182e-17
5.65921636e-17
5.43081543e-17
5.95977342e-17
6.09115095e-17
6.15473494e-17
6.37201465e-17
6.30122227e-17
6.47778931e-17
6.58293201e-17
7.01832407e-17
7.2609799e-17
6.90466176e-17
7.29967242e-17
6.98814247e-17
7.0904721e-17
7.19330329e-17
7.19362662e-17
7.34519911e-17
7.04576257e-17
7.2020758e-17
7.20360553e-17
6.8794749e-17
7.26363687e-17
7.15861292e-17
7.27778315e-17
7.06298502e-17
7.43100575e-17
7.31761554e-17
7.47959013e-17
7.37932236e-17
7.42259838e-17
7.1288303e-17
6.98008739e-17
7.23309683e-17
7.0630379e-17
6.7702476e-17
6.86931091e-17
7.02155269e-17
6.8511551e-17
6.77315586e-17
6.55931006e-17
6.76095771e-17
6.739258e-17
7.05932401e-17
6.61776603e-17
6.93678892e-17
6.83586282e-17
7.01314932e-17
6.77135606e-17
6.82924674e-17
6.87678104e-17
6.64940009e-17
6.76960933e-17
6.94256227e-17
7.10637512e-17
7.04970615e-17
6.94315379e-17
7.02663752e-17
6.54249282e-17
6.8512792e-17
6.66781389e-17
7.08393829e-17
6.72938346e-17
6.77230407e-17
6.66343801e-17
6.86613313e-17
6.81163886e-17
6.72605388e-17
6.95281131e-17
6.9802499e-17
6.94673712e-17
7.28245443e-17
7.26643643e-17
6.72081354e-17
6.72171334e-17
6.85181126e-17
6.68162729e-17
6.5087615e-17
6.63335175e-17
6.43445033e-17
6.14927024e-17
6.05796264e-17
6.35313008e-17
5.92499544e-17
6.19720822e-17
6.0552106e-17
6.1142056e-17
5.96872272e-17
5.71195484e-17
5.83190512e-17
5.77420095e-17
6.04588548e-17
6.2282348e-17
6.05610364e-17
6.18636017e-17
6.29318993e-17
6.28611867e-17
6.31994286e-17
6.41077191e-17
6.16307603e-17
6.06110036e-17
5.95013376e-17
6.16469244e-17
5.72894038e-17
5.61875684e-17
5.6409056e-17
5.49944338e-17
5.33351434e-17
5.80216128e-17
5.90078648e-17
5.96859644e-17
6.03235806e-17
5.83988775e-17
5.82022201e-17
5.82122997e-17
5.94481726e-17
5.99626637e-17
5.94027168e-17
6.02952758e-17
6.08160752e-17
6.30239893e-17
6.09824625e-17
5.95333536e-17
6.22726911e-17
6.43578866e-17
6.55356261e-17
6.50185518e-17
6.75993393e-17
6.54048147e-17
6.54197659e-17
6.47098827e-17
6.48330964e-17
6.69344983e-17
6.59958746e-17
6.75069924e-17
6.54863269e-17
6.43915414e-17
6.63328831e-17
6.78901112e-17
6.67987151e-17
7.08434311e-17
6.74251855e-17
6.69367151e-17
6.55131196e-17
6.5051341e-17
6.42646181e-17
6.44298871e-17
6.33391541e-17
6.49764413e-17
6.4450854e-17
6.4041582e-17
6.20787228e-17
6.2062857e-17
6.0084839e-17
6.08839177e-17
6.25777863e-17
6.36941904e-17
6.40945e-17
6.28325587e-17
6.51677227e-17
6.3685324e-17
6.29569213e-17
6.40534279e-17
6.17471435e-17
6.0600133e-17
5.93001955e-17
6.28682452e-17
6.28259454e-17
6.17437391e-17
6.45320315e-17
6.3209882e-17
6.21037352e-17
5.95204027e-17
5.40909107e-17
5.44795343e-17
5.25849906e-17
4.94661989e-17
4.84458853e-17
5.00691386e-17
5.40951126e-17
5.2307131e-17
5.10774546e-17
5.031296e-17
5.11126261e-17
5.08726034e-17
5.04177784e-17
5.23049503e-17
5.42941354e-17
5.44198745e-17
5.21356062e-17
5.31243864e-17
5.1800721e-17
5.424988e-17
5.47233372e-17
5.33417347e-17
5.61753089e-17
5.92081277e-17
5.62372006e-17
5.54967735e-17
5.63086872e-17
5.36281826e-17
5.4658512e-17
5.29419291e-17
5.43862227e-17
5.42522537e-17
5.41778421e-17
5.65749059e-17
5.54343016e-17
5.34303504e-17
5.83334384e-17
5.93739896e-17
5.82805899e-17
5.80647543e-17
5.60529708e-17
6.05941764e-17
6.07374093e-17
6.2534755e-17
6.42547922e-17
6.29406908e-17
6.1692596e-17
5.90184214e-17
5.7242095e-17
5.62088588e-17
5.44000609e-17
5.21897636e-17
5.28300336e-17
5.17696678e-17
5.28246065e-17
5.50610053e-17
5.43514871e-17
5.11582577e-17
5.14431843e-17
5.47920322e-17
5.52640925e-17
5.43270766e-17
5.56508468e-17
5.25543461e-17
5.1997449e-17
5.35476e-17
5.23679758e-17
5.29897209e-17
5.59305303e-17
5.45230246e-17
5.58988148e-17
5.28122406e-17
5.33389067e-17
5.28110889e-17
5.24312206e-17
5.35905641e-17
5.03947551e-17
5.06577687e-17
5.27377328e-17
5.02861217e-17
5.22229123e-17
5.06223496e-17
5.05190863e-17
5.32299431e-17
4.98235446e-17
4.89211417e-17
5.11875754e-17
5.09429518e-17
4.97215357e-17
4.7730239e-17
4.80247516e-17
4.52211659e-17
4.41196718e-17
4.2852615e-17
4.55857819e-17
4.23753105e-17
4.40698055e-17
4.59124717e-17
4.59635866e-17
4.97997391e-17
5.08414683e-17
5.05547749e-17
4.93123895e-17
4.91191466e-17
4.83713525e-17
4.67829882e-17
4.50006962e-17
4.44275531e-17
4.34003953e-17
4.61211011e-17
4.43183931e-17
4.1737601e-17
4.3560393e-17
4.43947835e-17
4.49631395e-17
4.39720698e-17
4.55819037e-17
4.54109562e-17
4.27236265e-17
3.84966903e-17
3.99009906e-17
3.90356918e-17
3.57334101e-17
3.41049557e-17
3.51244901e-17
3.34417532e-17
3.13823347e-17
3.13894635e-17
3.61639061e-17
3.2827925e-17
2.89659841e-17
3.0193139e-17
3.15019589e-17
2.70054653e-17
2.63427509e-17
2.66881222e-17
2.72274736e-17
2.82803423e-17
2.90953498e-17
2.71167096e-17
2.69289025e-17
2.86862869e-17
2.7324615e-17
2.94919923e-17
2.76974719e-17
2.87077445e-17
3.06068773e-17
2.8865809e-17
2.7557721e-17
2.76395913e-17
2.76236755e-17
2.91513796e-17
3.06710956e-17
2.94325541e-17
2.72154782e-17
2.6108701e-17
2.38066324e-17
2.35653985e-17
2.44642754e-17
2.13624849e-17
2.43567506e-17
2.35890975e-17
2.49966762e-17
2.56763641e-17
2.25204023e-17
1.97665019e-17
2.12805612e-17
2.05403542e-17
2.12549519e-17
2.20773992e-17
1.97996985e-17
1.93708723e-17
2.27291704e-17
2.37905252e-17
2.33810628e-17
2.4931412e-17
2.54639226e-17
2.55048936e-17
2.47883036e-17
2.32266929e-17
2.31503251e-17
2.24047235e-17
1.96687063e-17
1.96881096e-17
1.72169552e-17
1.7646128e-17
1.68408334e-17
1.59425906e-17
1.51694165e-17
1.89289757e-17
1.55347616e-17
1.54710869e-17
1.71003741e-17
1.68746676e-17
2.05446155e-17
1.84987637e-17
1.52317225e-17
1.6391306e-17
1.17550868e-17
1.21562918e-17
1.10337869e-17
8.26760913e-18
9.6826905e-18
9.82365055e-18
4.8472438e-18
5.48664411e-18
1.72690105e-18
3.03942181e-18
-6.6934244e-20
-2.87155098e-18
-4.07023343e-18
-7.01419296e-18
-6.87745645e-18
-5.65003131e-18
-7.0655286e-18
-1.21271013e-17
-1.14936052e-17
-1.20679847e-17
-1.21520806e-17
-8.91137246e-18
-9.89182958e-18
-9.82703038e-18
-1.30693816e-17
-1.38950936e-17
-1.29695439e-17
-1.43544985e-17
-1.40834925e-17
-1.42716443e-17
-1.48692825e-17
-1.50044541e-17
-1.80037867e-17
-1.96096007e-17
-2.1081146e-17
-2.20952932e-17
-2.20635574e-17
-1.95067927e-17
-1.92710558e-17
-1.97323819e-17
-1.65162044e-17
-1.75613603e-17
-1.92247359e-17
-1.789676e-17
-1.98223841e-17
-1.77492239e-17
-1.67452973e-17
-1.9693369e-17
-1.84505423e-17
-2.19442222e-17
-2.41178743e-17
-2.14716709e-17
-2.16900956e-17
-2.25212296e-17
-2.38146105e-17
-2.070775e-17
-2.64865428e-17
-2.47078234e-17
-2.74802823e-17
-2.62383235e-17
-2.49932848e-17
-2.67680361e-17
-2.48247302e-17
-2.57628401e-17
-2.57316004e-17
-2.66847198e-17
-2.64883833e-17
-2.68168809e-17
-2.72555437e-17
-2.59845144e-17
-2.78566182e-17
-3.05651173e-17
-3.10264402e-17
-3.2451598e-17
-3.17710014e-17
-3.37089412e-17
-3.49225863e-17
-3.53107633e-17
-3.36208482e-17
-3.43622808e-17
-3.5328743e-17
-3.75205471e-17
-3.77336474e-17
-3.71148737e-17
-3.67758822e-17
-4.02379806e-17
-3.97715256e-17
-4.21752256e-17
-4.39561513e-17
-4.5412026e-17
-4.82121921e-17
-4.68895251e-17
-4.75760344e-17
-4.94367787e-17
-4.82520484e-17
-5.6002186e-17
-5.84585789e-17
-5.4791338e-17
-5.07652515e-17
-5.48879138e-17
-5.75495998e-17
-6.06923053e-17
-6.34535129e-17
-6.33179959e-17
-6.64483816e-17
-6.24516955e-17
-6.15828435e-17
-6.120533e-17
-6.29217339e-17
-6.13486256e-17
-6.4622705e-17
-6.56415127e-17
-6.60969285e-17
-6.86781279e-17
-6.74905685e-17
-6.7910272e-17
-6.75127931e-17
-6.86990528e-17
-7.01919617e-17
-6.83410954e-17
-6.79576322e-17
-6.4545957e-17
-6.78863536e-17
-6.79191372e-17
-6.46554616e-17
-6.88599543e-17
-7.15349751e-17
-6.86062875e-17
-6.81695312e-17
-6.705323e-17
-6.70897181e-17
-6.59414428e-17
-6.38380552e-17
-6.36646464e-17
-6.18524506e-17
-6.42120107e-17
-5.94718063e-17
-5.99163434e-17
-5.69846726e-17
-5.75612233e-17
-5.57118253e-17
-5.60857371e-17
-5.23883194e-17
-5.11021537e-17
-5.45188766e-17
-5.61900613e-17
-5.56914071e-17
-5.77793644e-17
-5.90910979e-17
-5.67414217e-17
-5.84285733e-17
-5.55010582e-17
-5.77301078e-17
-5.3079499e-17
-5.6680768e-17
-5.69705191e-17
-5.67875299e-17
-5.63987588e-17
-5.54947167e-17
-5.66121802e-17
-5.59497512e-17
-5.90465095e-17
-5.89701264e-17
-5.67030873e-17
-5.98209347e-17
-5.79100112e-17
-5.89202119e-17
-5.83025355e-17
-6.0143309e-17
-5.73513915e-17
-5.5665348e-17
-5.24932081e-17
-5.40949091e-17
-5.31280889e-17
-5.29647898e-17
-5.19891702e-17
-5.28932311e-17
-5.16772574e-17
-5.0351164e-17
-5.18213254e-17
-5.29826477e-17
-5.37886637e-17
-5.60839117e-17
-5.15775216e-17
-5.41529236e-17
-5.76829382e-17
-5.26325885e-17
-5.66975762e-17
-5.64741833e-17
-5.58872626e-17
-5.82249093e-17
-5.46511698e-17
-5.53774437e-17
-5.37327933e-17
-5.27491759e-17
-5.24600027e-17
-5.25029891e-17
-5.50657854e-17
-5.78845616e-17
-5.77066996e-17
-5.73657439e-17
-5.91478648e-17
-5.95082529e-17
-6.06744077e-17
-6.20342836e-17
-6.10670111e-17
-6.16871755e-17
-6.32402491e-17
-6.2088411e-17
-6.28900324e-17
-6.3729153e-17
-6.34226377e-17
-6.39788162e-17
-6.5728473e-17
-6.2018199e-17
-6.18635374e-17
-6.4389858e-17
-6.34835218e-17
-6.50040455e-17
-6.71580686e-17
-6.51876765e-17
-6.30155004e-17
-6.27528524e-17
-6.22965236e-17
-6.49767362e-17
-6.36920198e-17
-6.57650725e-17
-6.42420475e-17
-6.46311061e-17
-6.33751008e-17
-6.31207294e-17
-6.51660987e-17
-6.40227986e-17
-6.32520665e-17
-6.11636411e-17
-5.91753772e-17
-5.85288843e-17
-6.12292824e-17
-6.41692421e-17
-6.45773779e-17
-6.57512997e-17
-6.24226501e-17
-6.3548287e-17
-6.53890423e-17
-6.77480213e-17
-6.76891407e-17
-6.72966592e-17
-6.96686698e-17
-6.87803227e-17
-7.27689548e-17
-7.14168933e-17
-7.25129307e-17
-7.41306969e-17
-7.3769827e-17
-7.4652722e-17
-7.41493553e-17
-7.29999924e-17
-7.38935125e-17
-7.08879164e-17
-7.24773961e-17
-7.16007756e-17
-7.09262178e-17
-7.23080432e-17
-7.64495326e-17
-7.77011871e-17
-7.6033459e-17
-7.60411188e-17
-7.72696003e-17
-7.84070552e-17
-7.47368758e-17
-7.33295207e-17
-7.3886345e-17
-7.29560128e-17
-7.09841781e-17
-7.42953144e-17
-7.63820222e-17
-7.60816611e-17
-8.06805289e-17
-7.7200839e-17
-7.51289901e-17
-7.46360932e-17
-7.53223942e-17
-7.82650946e-17
-7.70682714e-17
-7.89672197e-17
-7.85186855e-17
-7.8040355e-17
-7.85512935e-17
-7.49012697e-17
-7.53489678e-17
-7.45900285e-17
-7.51885043e-17
-7.28336301e-17
-7.30692976e-17
-7.46003993e-17
-7.49940443e-17
-7.65859882e-17
-7.63282812e-17
-7.33571107e-17
-7.50147246e-17
-7.45327286e-17
-7.84184698e-17
-7.87399245e-17
-7.83454665e-17
-7.83977234e-17
-7.87946538e-17
-7.9414091e-17
-7.99969303e-17
-8.00543887e-17
-8.24526404e-17
-7.85993346e-17
-7.77497475e-17
-7.46576103e-17
-7.5974059e-17
-7.51303723e-17
-7.51361926e-17
-7.60459347e-17
-7.68492248e-17
-7.48367332e-17
-7.58117345e-17
-7.54922511e-17
-7.43436103e-17
-7.29922701e-17
-7.34307184e-17
-7.43199853e-17
-7.22409199e-17
-7.13499315e-17
-7.3627314e-17
-7.19083516e-17
-7.29994533e-17
-7.23462711e-17
-6.78214784e-17
-6.79101382e-17
-6.90307583e-17
-6.6100656e-17
-6.25940629e-17
-6.23488826e-17
-6.10825434e-17
-6.18745208e-17
-6.04125054e-17
-5.91542138e-17
-6.15322779e-17
-5.91477778e-17
-5.87390983e-17
-5.35731817e-17
-5.6897177e-17
-5.43449854e-17
-5.4816066e-17
-5.14800706e-17
-5.17113577e-17
-5.1912897e-17
-5.12719579e-17
-5.16789703e-17
-5.25827213e-17
-5.14072853e-17
-5.32560518e-17
-5.10532801e-17
-5.42836263e-17
-5.23897268e-17
-5.42045708e-17
-5.06163401e-17
-5.17642626e-17
-5.26307996e-17
-5.24368942e-17
-4.86762868e-17
-5.13412493e-17
-5.21900137e-17
-5.0213615e-17
-5.34591083e-17
-5.25855588e-17
-5.27455283e-17
-5.52585971e-17
-5.29248927e-17
-5.31896693e-17
-5.26815141e-17
-4.81387806e-17
-5.12828034e-17
-4.86345313e-17
-4.7843431e-17
-4.57096913e-17
-4.46415324e-17
-4.42222485e-17
-4.1888613e-17
-4.52717207e-17
-4.407788e-17
-4.2086061e-17
-4.36659789e-17
-4.56876963e-17
-4.68221082e-17
-4.97104394e-17
-5.13293486e-17
-5.20640582e-17
-5.03308783e-17
-5.11841505e-17
-5.33681401e-17
-5.37128015e-17
-5.4521425e-17
-5.28869206e-17
-4.88172406e-17
-4.80467905e-17
-4.80475722e-17
-4.7537625e-17
-4.46853974e-17
-4.81163002e-17
-4.51828691e-17
-4.56057205e-17
-4.4227954e-17
-4.05186294e-17
-3.85841266e-17
-4.192958e-17
-4.15064384e-17
-4.2890563e-17
-4.17195939e-17
-3.90806507e-17
-3.88319733e-17
-3.81897367e-17
-3.93042019e-17
-3.9659098e-17
-3.64642946e-17
-3.70924366e-17
-3.70106471e-17
-3.93492102e-17
-3.85177415e-17
-3.63145481e-17
-4.01208589e-17
-3.64073247e-17
-3.86476281e-17
-3.92346452e-17
-3.8623888e-17
-3.53870327e-17
-3.50769686e-17
-3.23974588e-17
-3.31924979e-17
-3.01192557e-17
-2.90840354e-17
-2.59578658e-17
-2.74571934e-17
-2.78743248e-17
-2.9027639e-17
-2.80053762e-17
-2.76065787e-17
-2.81510754e-17
-2.65700841e-17
-2.94026937e-17
-2.83899201e-17
-3.02389639e-17
-2.8204845e-17
-2.63155126e-17
-2.83313351e-17
-2.89666899e-17
-3.03482612e-17
-2.74768963e-17
-2.75395909e-17
-2.86244012e-17
-3.1045702e-17
-3.17199579e-17
-3.01473842e-17
-3.04748844e-17
-3.2197846e-17
-3.13944796e-17
-2.90823536e-17
-2.86720823e-17
-2.53653649e-17
-2.55257627e-17
-2.58136627e-17
-2.67893835e-17
-2.70549656e-17
-2.57732468e-17
-2.75306742e-17
-2.58817161e-17
-2.38864661e-17
-2.57004956e-17
-2.27824926e-17
-2.67968484e-17
-2.32863343e-17
-2.45606899e-17
-2.28141201e-17
-2.6053499e-17
-1.95961118e-17
-1.7689738e-17
-1.56040479e-17
-1.70093519e-17
-1.77694533e-17
-1.86169137e-17
-2.00058017e-17
-1.92794842e-17
-2.25054881e-17
-2.44895818e-17
-2.07166753e-17
-2.1448585e-17
-2.11162984e-17
-1.94814827e-17
-2.09530167e-17
-1.73164742e-17
-1.98937547e-17
-1.89721564e-17
-1.75574963e-17
-1.20191224e-17
-1.33500185e-17
-1.36626536e-17
-1.39592159e-17
-1.40956726e-17
-1.24529748e-17
-1.03542072e-17
-1.14987556e-17
-1.0176446e-17
-1.23267049e-17
-1.11857356e-17
-1.27127939e-17
-9.0033484e-18
-9.51514704e-18
-7.39241694e-18
-7.63006858e-18
-9.06451907e-18
-9.2312168e-18
-5.84437702e-18
-4.59464983e-18
-3.85061518e-19
-3.06241553e-18
-2.19944545e-18
-1.61208374e-18
7.48060259e-19
2.93218229e-18
5.39181308e-18
4.94375136e-18
6.89221745e-18
4.65011233e-18
6.11613331e-18
7.78600752e-18
1.15707447e-17
1.50543324e-17
1.35110488e-17
1.2736264e-17
1.38446142e-17
1.44779772e-17
1.31137244e-17
1.13863848e-17
1.29750634e-17
1.1016108e-17
1.2675809e-17
1.24592809e-17
1.67999621e-17
1.67637808e-17
1.86407334e-17
2.11354538e-17
2.21285036e-17
2.10598983e-17
1.53944945e-17
2.08079061e-17
2.07056754e-17
2.34909479e-17
2.67662426e-17
2.5361382e-17
2.60563095e-17
2.66459798e-17
2.73337243e-17
3.06274063e-17
3.53722461e-17
3.0678071e-17
3.27492449e-17
3.43484937e-17
3.50053147e-17
3.98885087e-17
3.88105254e-17
4.05742493e-17
4.24201475e-17
4.18764659e-17
4.11996057e-17
4.55861638e-17
4.33178668e-17
4.66314746e-17
4.5611775e-17
4.63891627e-17
4.89102492e-17
4.79813336e-17
4.73215101e-17
4.77093291e-17
4.8930727e-17
5.11994893e-17
4.77998653e-17
4.53475257e-17
4.58689414e-17
4.36408186e-17
4.59621064e-17
4.95635433e-17
4.86909146e-17
4.72820628e-17
5.02760748e-17
4.87613969e-17
4.84077131e-17
4.88913942e-17
4.82316626e-17
4.70942308e-17
5.06901179e-17
5.31889543e-17
5.15761501e-17
4.84497566e-17
4.98477725e-17
5.23452128e-17
5.1955489e-17
5.27674039e-17
5.32881022e-17
5.42184229e-17
5.67616134e-17
5.63673316e-17
5.35355928e-17
5.51400069e-17
5.93936218e-17
6.1331513e-17
5.84970918e-17
5.80505352e-17
6.05563652e-17
6.03607579e-17
5.87626483e-17
6.23440339e-17
6.5738618e-17
6.24484045e-17
6.13772602e-17
6.24513322e-17
6.18649323e-17
6.28804587e-17
6.39930725e-17
6.71071301e-17
6.93017354e-17
6.58299219e-17
6.58461254e-17
6.35453565e-17
6.5954991e-17
6.8266587e-17
7.23721082e-17
7.28167293e-17
7.91270674e-17
7.92074846e-17
8.21814708e-17
8.23377151e-17
8.36586376e-17
8.36414429e-17
8.37945817e-17
8.63870373e-17
8.91558332e-17
9.33741339e-17
9.25794807e-17
9.34959817e-17
9.36184724e-17
1.00075291e-16
1.01205199e-16
1.05334822e-16
1.09879937e-16
1.14756064e-16
1.18637892e-16
1.2018328e-16
1.28270604e-16
1.29007731e-16
1.32811453e-16
1.39636798e-16
1.45677081e-16
1.54306999e-16
1.6459048e-16
1.72131744e-16
1.81317718e-16
1.91342386e-16
2.05961181e-16
2.17772327e-16
2.29126676e-16
2.39336057e-16
2.54772958e-16
2.70895112e-16
2.86190538e-16
3.05246002e-16
3.22491852e-16
3.4385043e-16
3.6692689e-16
3.92670118e-16
4.18488527e-16
4.45160931e-16
4.81604751e-16
5.15425968e-16
5.49119114e-16
5.90392654e-16
6.29692571e-16
6.72631758e-16
7.2119987e-16
7.73769655e-16
8.321056e-16
8.9671213e-16
9.64289965e-16
1.03628712e-15
1.10965069e-15
1.19523345e-15
1.28534031e-15
1.38530839e-15
1.48960791e-15
1.60618489e-15
1.73071079e-15
1.86464087e-15
2.00636027e-15
2.16622365e-15
2.33346301e-15
2.51347014e-15
2.71096001e-15
2.92269158e-15
3.15373642e-15
3.40409247e-15
3.66763391e-15
3.95506042e-15
4.26375056e-15
4.60181064e-15
4.96717816e-15
5.3491439e-15
5.76491044e-15
6.2200056e-15
6.70315442e-15
7.23216435e-15
7.79823251e-15
8.41010986e-15
9.06725168e-15
9.77775932e-15
1.05452223e-14
1.13664275e-14
1.22595294e-14
1.32155592e-14
1.42412584e-14
1.53525733e-14
1.6547438e-14
1.78340682e-14
1.92206283e-14
2.07073315e-14
2.23151131e-14
2.40408541e-14
2.5902066e-14
2.78990224e-14
3.00502412e-14
3.23669294e-14
3.48561068e-14
3.75317157e-14
4.04101923e-14
4.35024105e-14
4.68280749e-14
5.04053956e-14
5.42443227e-14
5.83750318e-14
6.28201208e-14
6.75868243e-14
7.27112312e-14
7.82200917e-14
8.41318508e-14
9.04871889e-14
9.73078679e-14
1.04633884e-13
1.12499612e-13
1.20939857e-13
1.29997967e-13
1.39725777e-13
1.50161406e-13
1.6136127e-13
1.73376361e-13
1.86261925e-13
2.00082197e-13
2.14910589e-13
2.30807091e-13
2.47854984e-13
2.66131092e-13
2.85721393e-13
3.06718675e-13
3.29218404e-13
3.53328992e-13
3.79162195e-13
4.06834804e-13
4.36478225e-13
4.68227433e-13
5.0222404e-13
5.386243e-13
5.77596715e-13
6.19312819e-13
6.63961877e-13
7.11746736e-13
7.62880525e-13
8.17586947e-13
8.76115688e-13
9.38715279e-13
1.0056676e-12
1.07726095e-12
1.15381162e-12
1.23565031e-12