/*--------------------------------*- C++ -*----------------------------------*\
| =========                 |                                                 |
| \\      /  F ield         | OpenFOAM: The Open Source CFD Toolbox           |
|  \\    /   O peration     | Version:  2206                                  |
|   \\  /    A nd           | Website:  www.openfoam.com                      |
|    \\/     M anipulation  |                                                 |
\*---------------------------------------------------------------------------*/
FoamFile
{
    version     2.0;
    format      ascii;
    arch        "LSB;label=32;scalar=64";
    class       volScalarField;
    location    "1.36e-05";
    object      PVsourcePV;
}
// * * * * * * * * * * * * * * * * * * * * * * * * * * * * * * * * * * * * * //

dimensions      [1 -3 -1 0 0 0 0];

internalField   nonuniform List<scalar> 
3183
(
0
0
0
0
0
0
0
0
0
0
0
0
0
0
0
0
0
0
0
0
0
0
0
0
0
0
0
0
0
0
0
0
0
0
0
0
0
0
0
0
0
0
0
0
0
0
0
0
0
0
0
0
0
0
0
0
0
0
0
0
0
0
0
0
0
0
0
0
0
0
0
0
0
0
0
0
0
0
0
0
0
0
0
0
0
0
0
0
0
0
0
0
0
0
0
0
0
0
0
0
0
0
0
0
0
0
0
0
0
0
0
0
0
0
0
0
0
0
0
0
0
0
0
0
0
0
0
0
0
0
0
0
0
0
0
0
0
0
0
0
0
0
0
0
0
0
0
0
0
0
0
0
0
0
0
0
0
0
0
0
0
0
0
0
0
0
0
0
0
0
0
0
0
0
0
0
0
0
0
0
0
0
0
0
0
0
0
0
0
0
0
0
0
0
0
0
0
0
0
0
0
0
0
0
0
0
0
0
0
0
0
0
0
0
0
0
0
0
0
0
0
0
0
0
0
0
0
0
0
0
0
0
0
0
0
0
0
0
0
0
0
0
0
0
0
0
0
0
0
0
0
0
0
0
0
0
0
0
0
0
0
0
0
0
0
0
0
0
0
0
0
0
0
0
0
0
0
0
0
0
0
0
0
0
0
0
0
0
0
0
0
0
0
0
0
0
0
0
0
0
0
0
0
0
0
0
0
0
0
0
0
0
0
0
0
0
0
0
0
0
0
0
0
0
0
0
0
0
0
0
0
0
0
0
0
0
0
0
0
0
0
0
0
0
0
0
0
0
0
0
0
0
0
0
0
0
0
0
0
0
0
0
0
0
0
0
0
0
0
0
0
0
0
0
0
0
0
0
0
0
0
0
0
0
0
0
0
0
0
0
0
0
0
0
0
0
0
0
0
0
0
0
0
0
0
0
0
0
0
0
0
0
0
0
0
0
0
0
0
0
0
0
0
0
0
0
0
0
0
0
0
0
0
0
0
0
0
0
0
0
0
0
0
0
0
0
0
0
0
0
0
0
0
0
0
0
0
0
0
0
0
0
0
0
0
0
0
0
0
0
0
0
0
0
0
0
0
0
0
0
0
0
0
0
0
0
0
0
0
0
0
0
0
0
0
0
0
0
0
0
0
0
0
0
0
0
0
0
0
0
0
0
0
0
0
0
0
0
0
0
0
0
0
0
0
0
0
0
0
0
0
0
0
0
0
0
0
0
0
0
0
0
0
0
0
0
0
0
0
0
0
0
0
0
0
0
0
0
0
0
0
0
0
0
0
0
0
0
0
0
0
0
0
0
0
0
0
0
0
0
0
0
0
0
0
0
0
0
0
0
0
0
0
0
0
0
0
0
0
0
0
0
0
0
0
0
0
0
0
0
0
0
0
0
0
0
0
0
0
0
0
0
0
0
0
0
0
0
0
0
0
0
0
0
0
0
0
0
0
0
0
0
0
0
0
0
0
0
0
0
0
0
0
0
0
0
0
0
0
0
0
0
0
0
0
0
0
0
0
0
0
0
0
0
0
0
0
0
0
0
0
0
0
0
0
0
0
0
0
0
0
0
0
0
0
0
0
0
0
0
0
0
0
0
0
0
0
0
0
0
0
0
0
0
0
0
0
0
0
0
0
0
0
0
0
0
0
0
0
0
0
0
0
0
0
0
0
0
0
0
0
0
0
0
0
0
0
0
0
0
0
0
0
0
0
0
0
0
0
0
0
0
0
0
0
0
0
0
0
0
0
0
0
0
0
0
0
0
0
0
0
0
0
0
0
0
0
0
0
0
0
0
0
0
0
0
0
0
0
0
0
0
0
0
0
0
0
0
0
0
0
0
0
0
0
0
0
0
0
0
0
0
0
0
0
0
0
0
0
0
0
0
0
0
0
0
0
0
0
0
0
0
0
0
0
0
0
0
0
0
0
0
0
0
0
0
0
0
0
0
0
0
0
0
0
0
0
0
0
0
0
0
0
0
0
0
0
0
0
0
0
0
0
0
0
0
0
0
0
0
0
0
0
0
0
0
0
0
0
0
0
0
0
0
0
0
0
0
0
0
0
0
0
0
0
0
0
0
0
0
0
0
0
0
0
0
0
0
0
0
0
0
0
0
0
0
0
0
0
0
0
0
0
0
0
0
0
0
0
0
0
0
0
0
0
0
0
0
0
0
0
0
0
0
0
0
0
0
0
0
0
0
0
0
0
0
0
0
0
0
0
0
0
0
0
0
0
0
0
0
0
0
0
0
0
0
0
0
0
0
0
0
0
0
0
0
0
0
0
0
0
0
0
0
0
0
0
0
0
0
0
0
0
0
0
0
0
0
0
0
0
0
0
0
0
0
0
0
0
0
0
0
0
0
0
0
0
0
0
0
0
0
0
0
0
0
0
0
0
0
0
0
0
0
0
0
0
0
0
0
0
0
0
0
0
0
0
0
0
0
0
0
0
0
0
0
0
0
0
0
0
0
0
0
0
0
0
0
0
0
0
0
0
0
0
0
0
0
0
0
0
0
0
0
0
0
0
0
0
0
0
0
0
0
0
0
0
0
0
0
0
0
0
0
0
0
0
0
0
0
0
0
0
0
0
0
0
0
0
0
0
0
0
0
0
0
0
0
0
0
0
0
0
0
0
0
0
0
0
0
0
0
0
0
0
0
0
0
0
0
0
0
0
0
0
0
0
0
0
0
0
0
0
0
0
0
0
0
0
0
0
0
0
0
0
0
0
0
0
0
0
0
0
0
0
0
0
0
0
0
0
0
0
0
0
0
0
0
0
0
0
0
0
0
0
0
0
0
0
0
0
0
0
0
0
0
0
0
0
0
0
0
0
0
0
0
0
0
0
0
0
0
0
0
0
0
0
0
0
0
0
0
0
0
0
0
0
0
0
0
0
0
0
0
0
0
0
0
0
0
0
0
0
0
0
0
0
0
0
0
0
0
0
0
0
0
0
0
0
0
0
0
0
0
0
0
0
0
0
0
0
0
0
0
0
0
0
0
0
0
0
0
0
0
0
0
0
0
0
0
0
0
0
0
0
0
0
0
0
0
0
0
0
0
0
0
0
0
0
0
0
0
0
0
0
0
0
0
0
0
0
0
0
0
0
0
0
0
0
0
0
0
0
0
0
0
0
0
0
0
0
0
0
0
0
0
0
0
0
0
0
0
0
0
0
0
0
0
0
0
0
0
0
0
0
0
0
0
0
0
0
0
0
0
0
0
0
0
0
0
0
0
0
0
0
0
0
0
0
0
0
0
0
0
0
0
0
0
0
0
0
0
0
0
0
0
0
0
0
0
0
0
0
0
0
0
0
0
0
0
0
0
0
0
0
0
0
0
0
0
0
0
0
0
0
0
0
0
0
0
0
0
0
0
0
0
0
0
0
0
0
0
0
0
0
0
0
0
0
0
0
0
0
0
0
0
0
0
0
0
0
0
0
0
0
0
0
0
0
0
0
0
0
0
0
0
0
0
0
0
0
0
0
0
0
0
0
0
0
0
0
0
0
0
0
0
0
0
0
0
0
0
0
0
0
0
0
0
0
0
0
0
0
0
0
0
0
0
0
0
0
0
0
0
0
0
0
0
0
0
0
0
0
0
0
0
0
0
0
0
0
0
0
0
0
0
0
0
0
0
0
0
0
0
0
0
0
0
0
0
0
0
0
0
0
0
0
0
0
0
0
0
0
0
0
0
0
0
0
0
0
0
0
0
0
0
0
0
0
0
0
0
0
0
0
0
0
0
0
0
0
0
0
0
0
0
0
0
0
0
0
0
0
0
0
0
0
0
0
0
0
0
0
0
0
0
0
0
0
0
0
0
0
0
0
0
0
0
0
0
0
0
0
0
0
0
0
0
0
0
0
0
0
0
0
0
0
0
0
0
0
0
0
0
0
0
0
0
0
0
0
0
0
0
0
0
0
0
0
0
0
0
0
0
0
0
0
0
0
0
0
0
0
0
0
0
0
0
0
0
0
0
0
0
0
0
0
0
0
0
0
0
0
0
0
0
0
0
0
0
0
0
0
0
0
0
0
0
0
0
0
0
0
0
0
0
0
0
0
0
0
0
0
0
0
0
0
0
0
0
0
0
0
0
0
0
0
0
0
0
0
0
0
0
0
0
0
0
0
0
0
0
0
0
0
0
0
0
0
0
0
0
0
0
0
0
0
0
0
0
0
0
0
0
0
0
0
0
0
0
0
0
0
0
0
0
0
0
0
0
0
0
0
0
0
0
0
0
0
0
0
0
0
0
0
0
0
0
0
0
0
0
0
0
0
0
0
0
0
0
0
0
0
0
0
0
0
0
0
0
0
0
0
0
0
0
0
0
0
0
0
0
0
0
0
0
0
0
0
0
0
0
0
0
0
0
0
0
0
0
0
0
0
0
0
0
0
0
0
0
0
0
0
0
0
0
0
0
0
0
0
0
0
0
0
0
0
0
0
0
0
0
0
0
0
0
0
0
0
0
0
0
0
0
0
0
0
0
0
0
0
0
0
0
0
0
0
0
0
0
0
0
0
0
0
0
0
0
0
0
0
0
0
0
0
0
0
0
0
0
0
0
0
0
0
0
0
0
0
0
0
0
0
0
0
0
0
0
0
0
0
0
0
0
0
0
0
0
0
0
0
0
0
0
0
0
0
0
0
0
0
0
0
0
0
0
0
0
0
0
0
0
0
0
0
0
0
0
0
0
0
0
0
0
0
0
0
0
0
0
0
0
0
0
0
0
0
0
0
0
0
0
0
0
0
0
0
0
0
0
0
0
0
0
0
0
0
0
0
0
0
0
0
0
0
0
0
0
0
0
0
0
0
0
0
0
0
0
0
0
0
0
0
0
0
0
0
0
0
0
0
0
0
0
0
0
0
0
0
0
0
0
0
0
0
0
0
0
0
0
0
0
0
0
0
0
0
0
0
0
0
0
0
0
0
0
0
0
0
0
0
0
0
0
0
0
0
0
0
0
0
0
0
0
0
0
0
0
0
0
0
0
0
0
0
0
0
0
0
0
0
0
0
0
0
0
0
0
0
0
0
0
0
0
0
0
0
0
0
0
0
0
0
0
0
0
0
0
0
0
0
0
0
0
0
0
0
0
0
0
0
0
0
0
0
0
0
0
0
0
0
0
0
0
0
0
0
0
0
0
0
0
0
0
0
0
0
0
0
0
0
0
0
0
0
0
0
0
0
0
0
0
0
0
0
0
0
0
0
0
0
0
0
0
0
0
0
0
0
0
0
0
0
0
0
0
0
0
0
0
0
0
0
0
0
0
0
0
0
0
0
0
0
0
0
0
0
0
0
0
0
0
0
0
0
0
0
0
0
0
0
0
0
0
0
0
0
0
0
5.30348479e-298
1.66979386e-298
3.54130706e-295
1.14211774e-295
2.3365752e-292
7.71279292e-293
1.52344841e-289
5.14298139e-290
9.81576397e-287
3.3858937e-287
6.25005841e-284
2.20179426e-284
3.9329789e-281
1.41419018e-281
2.44596035e-278
8.96653923e-279
1.50341504e-275
5.62060709e-276
9.13314262e-273
3.47984254e-273
5.48381016e-270
2.12969025e-270
3.2544166e-267
1.28645894e-267
1.90896943e-264
7.6776635e-265
1.10679e-261
4.52723305e-262
6.34272736e-259
2.6376802e-259
3.59281104e-256
1.51848258e-256
2.01160172e-253
8.63787329e-254
1.11326741e-250
4.85536932e-251
6.08984571e-248
2.69689117e-248
3.29276405e-245
1.48025254e-245
1.75978463e-242
8.02866383e-243
9.29605937e-240
4.30316445e-240
4.85370536e-237
2.27913647e-237
2.50482032e-234
1.1928596e-234
1.27761703e-231
6.16939019e-232
6.44075596e-229
3.15300589e-229
3.20903831e-226
1.59232284e-226
1.58016888e-223
7.9460973e-224
7.68971154e-221
3.91817756e-221
3.69811714e-218
1.90902386e-218
1.7575197e-215
9.19017096e-216
8.25376728e-213
4.37126624e-213
3.83017791e-210
2.05422139e-210
1.75622953e-207
9.53733166e-208
7.95643864e-205
4.374495e-205
3.56130685e-202
1.98212266e-202
1.57481664e-199
8.87183071e-200
6.87948207e-197
3.92241016e-197
2.96865935e-194
1.71287263e-194
1.26536569e-191
7.38759396e-192
5.32713156e-189
3.14672444e-189
2.21493741e-186
1.32361679e-186
9.09468126e-184
5.49771209e-184
3.68754305e-181
2.2546772e-181
1.47629835e-178
9.12922701e-179
5.83526501e-176
3.64916548e-176
2.27696603e-173
1.4398714e-173
8.77041572e-171
5.60767804e-171
3.33432234e-168
2.15540145e-168
1.25104453e-165
8.17548134e-166
4.63198942e-163
3.05978296e-163
1.69216032e-160
1.12982133e-160
6.09876364e-158
4.11545705e-158
2.16826904e-155
1.47863271e-155
7.60322368e-153
5.23936475e-153
2.62926934e-150
1.83068012e-150
8.96523711e-148
6.30664489e-148
3.01378055e-145
2.14175588e-145
9.98654588e-143
7.16898584e-143
3.26137153e-140
2.36476983e-140
1.04951982e-137
7.68576759e-138
3.32741489e-135
2.46078164e-135
1.03912079e-132
7.76002003e-133
3.19580872e-130
2.40973375e-130
9.67742788e-128
7.36715962e-128
2.88474828e-125
2.21697016e-125
8.46300303e-123
6.56519557e-123
2.44289364e-120
1.91274875e-120
6.93645921e-118
5.48125247e-118
1.93690614e-115
1.54453222e-115
5.31734942e-113
4.27845755e-113
1.4347292e-110
1.16472163e-110
3.8036314e-108
3.11506164e-108
9.904653e-106
8.1823602e-106
2.53246559e-103
2.11012546e-103
6.35556759e-101
5.34069651e-101
1.5649702e-98
1.32611439e-98
3.77940943e-96
3.22910203e-96
8.94794284e-94
7.70751641e-94
2.07590935e-91
1.80252998e-91
4.71707155e-89
4.12836117e-89
1.04929087e-86
9.25506006e-87
2.28373428e-84
2.02979766e-84
4.86041833e-82
4.35260213e-82
1.01091874e-79
9.12016211e-80
2.05348702e-77
1.86608129e-77
4.07099185e-75
3.72589641e-75
7.87081088e-73
7.2540392e-73
1.48287649e-70
1.37604104e-70
2.72011023e-68
2.54104919e-68
4.85361769e-66
4.56377702e-66
8.41612749e-64
7.96403872e-64
1.41664784e-61
1.34887806e-61
2.31212029e-59
2.21480651e-59
3.65434883e-57
3.52104559e-57
5.58551474e-55
5.41226227e-55
8.24359082e-53
8.03152443e-53
1.17287599e-50
1.1486874e-50
1.6057553e-48
1.58045098e-48
2.11116903e-46
2.08747595e-46
2.65956148e-44
2.64038768e-44
3.20223713e-42
3.18907806e-42
3.67479078e-40
3.66510004e-40
4.00652942e-38
3.991071e-38
4.13515514e-36
4.09937236e-36
4.02347888e-34
3.95818814e-34
3.67285685e-32
3.59604283e-32
3.12768658e-30
3.09237464e-30
2.46773741e-28
2.46471199e-28
1.78985824e-26
1.78170232e-26
1.18200958e-24
1.17307284e-24
7.02014965e-23
6.95175007e-23
3.69193149e-21
3.65417181e-21
1.68449453e-19
1.6839682e-19
6.48277897e-18
6.44782731e-18
2.02233697e-16
2.02279492e-16
4.79521519e-15
4.79415791e-15
5.9794638e-11
6.04610769e-11
0.00682104728
0.0297622252
0.605211813
0.69911069
0.588876595
0.514291093
0.14355592
0.11669779
0.0221584728
0.019624882
0.00443925798
0.004093453
0.000784522236
0.000754996443
0.000125545866
0.000124934849
1.92346999e-05
1.92503769e-05
3.22250052e-06
3.22038614e-06
9.93108784e-07
9.93553811e-07
7.0786392e-07
7.079884e-07
6.73902725e-07
6.73924248e-07
6.70128979e-07
6.70128356e-07
6.69729074e-07
6.69730799e-07
6.69689924e-07
6.69690632e-07
6.69686515e-07
6.69688052e-07
6.69684497e-07
6.69687515e-07
6.69685487e-07
6.69685659e-07
6.6968607e-07
6.69684974e-07
6.69687069e-07
6.69684998e-07
6.69687693e-07
6.69685058e-07
6.69686479e-07
6.6968604e-07
6.69686924e-07
6.69685873e-07
6.69686676e-07
6.69686381e-07
6.6968675e-07
6.69685853e-07
6.69686422e-07
6.69686518e-07
6.69686408e-07
6.69686397e-07
6.69686002e-07
6.69687633e-07
6.69685301e-07
6.69686735e-07
6.69686563e-07
6.69687016e-07
6.69686671e-07
6.69685734e-07
6.69686321e-07
6.69685747e-07
6.69686672e-07
6.69685963e-07
6.69686176e-07
6.69685761e-07
6.69685936e-07
6.69686194e-07
6.69685294e-07
6.69686204e-07
6.69685456e-07
6.69686266e-07
6.69686303e-07
6.69687035e-07
6.69686239e-07
6.696872e-07
6.696852e-07
6.69686893e-07
6.69686333e-07
6.69686403e-07
6.69686448e-07
6.69685402e-07
6.69687145e-07
6.69685264e-07
6.69686999e-07
6.69684771e-07
6.69687357e-07
6.69685658e-07
6.69687224e-07
6.69685724e-07
6.69687149e-07
6.69685885e-07
6.69686717e-07
6.69686233e-07
6.69687569e-07
6.69686753e-07
6.69686485e-07
6.6968638e-07
6.69686298e-07
6.69686728e-07
6.69686789e-07
6.69686438e-07
6.69686375e-07
6.69686746e-07
6.6968608e-07
6.69687165e-07
6.69685586e-07
6.69686679e-07
6.69686179e-07
6.69686041e-07
6.6968644e-07
6.69685848e-07
6.69685454e-07
6.69687458e-07
6.69685009e-07
6.69687155e-07
6.69686228e-07
6.69686907e-07
6.69685386e-07
6.69686224e-07
6.69686244e-07
6.69686582e-07
6.69686248e-07
6.69687129e-07
6.69685944e-07
6.6968745e-07
6.69686718e-07
6.69686433e-07
6.69687139e-07
6.69687383e-07
6.69686636e-07
6.69686933e-07
6.69687006e-07
6.69686726e-07
6.69686227e-07
6.69686618e-07
6.6968574e-07
6.69686546e-07
6.6968557e-07
6.69686846e-07
6.69685655e-07
6.69686518e-07
6.69685538e-07
6.69686322e-07
6.69687254e-07
6.69685476e-07
6.69687209e-07
6.69685458e-07
6.69687347e-07
6.69685924e-07
6.69687128e-07
6.69686486e-07
6.69686932e-07
6.69687162e-07
6.69686268e-07
6.69686214e-07
6.69688664e-07
6.69685458e-07
6.69688308e-07
6.69685944e-07
6.69688346e-07
6.69685809e-07
6.69687412e-07
6.69685986e-07
6.69686207e-07
6.69686158e-07
6.69685954e-07
6.69686629e-07
6.69684959e-07
6.69687239e-07
6.6968579e-07
6.69687223e-07
6.6968694e-07
6.69687297e-07
6.696868e-07
6.696877e-07
6.69687259e-07
6.69687822e-07
6.69687206e-07
6.69687781e-07
6.69686553e-07
6.69686538e-07
6.69687345e-07
6.69685782e-07
6.6968756e-07
6.69686674e-07
6.69687072e-07
6.69685745e-07
6.69687619e-07
6.69686517e-07
6.69687709e-07
6.69686563e-07
6.69686148e-07
6.69686284e-07
6.6968706e-07
6.69685935e-07
6.69687979e-07
6.69685554e-07
6.69688084e-07
6.69685903e-07
6.69687144e-07
6.69686935e-07
6.69686572e-07
6.69686823e-07
6.69688129e-07
6.69687183e-07
6.69687737e-07
6.69687006e-07
6.69687175e-07
6.69686881e-07
6.6968765e-07
6.69686921e-07
6.69686659e-07
6.69686871e-07
6.69686258e-07
6.69687267e-07
6.69686961e-07
6.69686859e-07
6.69686548e-07
6.6968744e-07
6.69687348e-07
6.69686697e-07
6.69688294e-07
6.69686274e-07
6.69686917e-07
6.6968775e-07
6.69686947e-07
6.69687152e-07
6.6968692e-07
6.69687541e-07
6.69687215e-07
6.69687832e-07
6.69686817e-07
6.69687957e-07
6.69686699e-07
6.69687669e-07
6.69687249e-07
6.6968844e-07
6.69686478e-07
6.69688973e-07
6.69685655e-07
6.69688446e-07
6.69686726e-07
6.69685832e-07
6.6968788e-07
6.69685712e-07
6.6968776e-07
6.69687287e-07
6.69687295e-07
6.69686609e-07
6.69687606e-07
6.69687078e-07
6.69686918e-07
6.69687172e-07
6.69687137e-07
6.69687742e-07
6.69687665e-07
6.69686669e-07
6.69688189e-07
6.69686375e-07
6.69687972e-07
6.69686401e-07
6.69687165e-07
6.69686983e-07
6.69687375e-07
6.6968574e-07
6.69688003e-07
6.69686413e-07
6.69687049e-07
6.69687193e-07
6.69686598e-07
6.69688254e-07
6.69686745e-07
6.69687651e-07
6.69687617e-07
6.69686665e-07
6.69687614e-07
6.69687139e-07
6.69686654e-07
6.69687306e-07
6.69686772e-07
6.69687055e-07
6.6968688e-07
6.69687617e-07
6.69687128e-07
6.69687889e-07
6.69686755e-07
6.69687138e-07
6.69687807e-07
6.69686314e-07
6.69686402e-07
6.69687775e-07
6.69686687e-07
6.69687809e-07
6.69687428e-07
6.69687664e-07
6.69687278e-07
6.69687326e-07
6.6968811e-07
6.69686933e-07
6.69687697e-07
6.69687039e-07
6.69687062e-07
6.69687169e-07
6.69686638e-07
6.69687882e-07
6.69686831e-07
6.69687901e-07
6.69686371e-07
6.69688656e-07
6.69686622e-07
6.69687561e-07
6.6968737e-07
6.69687506e-07
6.69687685e-07
6.69686466e-07
6.69688449e-07
6.69685963e-07
6.69688819e-07
6.69686632e-07
6.69687764e-07
6.69686992e-07
6.69687118e-07
6.69687923e-07
6.69687007e-07
6.6968837e-07
6.69686799e-07
6.69687646e-07
6.69686988e-07
6.69687552e-07
6.69686893e-07
6.69687465e-07
6.69687338e-07
6.69687853e-07
6.69686641e-07
6.69687821e-07
6.69687381e-07
6.69688052e-07
6.69688161e-07
6.69687409e-07
6.69687544e-07
6.69687853e-07
6.69686957e-07
6.69687699e-07
6.69687964e-07
6.69686779e-07
6.69687932e-07
6.6968809e-07
6.69687073e-07
6.69687039e-07
6.69687831e-07
6.69687019e-07
6.69688142e-07
6.69686993e-07
6.69688016e-07
6.69687835e-07
6.69687614e-07
6.69687045e-07
6.69687475e-07
6.6968761e-07
6.69688394e-07
6.69687433e-07
6.6968822e-07
6.69687663e-07
6.6968867e-07
6.69688037e-07
6.69688833e-07
6.69688153e-07
6.69687665e-07
6.69687925e-07
6.69688093e-07
6.69687183e-07
6.69687686e-07
6.69687935e-07
6.69688e-07
6.69688071e-07
6.6968778e-07
6.69687238e-07
6.69688477e-07
6.69687841e-07
6.69687954e-07
6.69687863e-07
6.69687093e-07
6.6968845e-07
6.69686655e-07
6.69687908e-07
6.69687088e-07
6.69688105e-07
6.69686814e-07
6.69687689e-07
6.69687996e-07
6.69687827e-07
6.69688689e-07
6.69687891e-07
6.69688422e-07
6.6968743e-07
6.69687855e-07
6.69687658e-07
6.69687133e-07
6.69688902e-07
6.69686597e-07
6.69688483e-07
6.69686633e-07
6.69688578e-07
6.69687992e-07
6.69687791e-07
6.69688037e-07
6.69688738e-07
6.69688266e-07
6.69688179e-07
6.69688346e-07
6.69687693e-07
6.69688106e-07
6.69688056e-07
6.69688121e-07
6.69687687e-07
6.69688385e-07
6.69688176e-07
6.69687578e-07
6.69689679e-07
6.69687888e-07
6.69688833e-07
6.69688041e-07
6.69689306e-07
6.69687412e-07
6.69689268e-07
6.69687624e-07
6.69688905e-07
6.69688515e-07
6.69688046e-07
6.69688869e-07
6.6968795e-07
6.69688389e-07
6.69688765e-07
6.69687832e-07
6.69689173e-07
6.69687605e-07
6.69688844e-07
6.69687962e-07
6.69687914e-07
6.69687557e-07
6.69689216e-07
6.69687847e-07
6.69689164e-07
6.69687777e-07
6.69688082e-07
6.69688835e-07
6.6968781e-07
6.69688792e-07
6.69687938e-07
6.69687611e-07
6.6968898e-07
6.69687507e-07
6.69687957e-07
6.6968869e-07
6.69687463e-07
6.69689086e-07
6.6968823e-07
6.69687845e-07
6.69689048e-07
6.69687564e-07
6.69689528e-07
6.69687981e-07
6.69688913e-07
6.6968809e-07
6.69688497e-07
6.69687785e-07
6.69688359e-07
6.69688151e-07
6.69687988e-07
6.69688009e-07
6.69688931e-07
6.69687708e-07
6.69689031e-07
6.6968754e-07
6.69688327e-07
6.69687553e-07
6.69688362e-07
6.69687022e-07
6.69688537e-07
6.6968763e-07
6.6968787e-07
6.6968829e-07
6.69687204e-07
6.69689245e-07
6.69687021e-07
6.69688893e-07
6.69687745e-07
6.69689506e-07
6.69687403e-07
6.6968963e-07
6.69686323e-07
6.69690458e-07
6.69686272e-07
6.69690074e-07
6.69686832e-07
6.69689027e-07
6.69687656e-07
6.69688479e-07
6.6968888e-07
6.69688835e-07
6.69687953e-07
6.69689116e-07
6.69687927e-07
6.69688349e-07
6.69688341e-07
6.69688603e-07
6.6968816e-07
6.69688587e-07
6.69688477e-07
6.69688847e-07
6.69688516e-07
6.69688465e-07
6.69688832e-07
6.69688491e-07
6.69688359e-07
6.69688751e-07
6.69688743e-07
6.69688705e-07
6.69688668e-07
6.69688734e-07
6.69688638e-07
6.69688822e-07
6.69688819e-07
6.69688855e-07
6.69688907e-07
6.69688945e-07
6.69689063e-07
6.69689138e-07
6.69689111e-07
6.69689253e-07
6.69689339e-07
6.69689385e-07
6.69689498e-07
6.69689637e-07
6.69689799e-07
6.69689903e-07
6.6969007e-07
6.69690275e-07
6.69690433e-07
6.69690652e-07
6.6969088e-07
6.69691091e-07
6.69691241e-07
6.69691464e-07
6.69691603e-07
6.69691714e-07
6.69691813e-07
6.69691861e-07
6.69691894e-07
6.69691928e-07
6.69691931e-07
6.69691931e-07
6.69691903e-07
6.69691902e-07
6.69691937e-07
6.6969192e-07
6.69691923e-07
6.69691926e-07
6.69691927e-07
6.69691934e-07
6.69691933e-07
6.69691928e-07
6.69691946e-07
6.69691925e-07
6.6969193e-07
6.69691922e-07
6.69691927e-07
6.69691929e-07
6.69691926e-07
6.69691933e-07
6.6969192e-07
6.6969191e-07
6.69691951e-07
)
;

boundaryField
{
    closed
    {
        type            calculated;
        value           uniform 0;
    }
    open
    {
        type            calculated;
        value           uniform 0;
    }
    sides
    {
        type            empty;
    }
}


// ************************************************************************* //
