/*--------------------------------*- C++ -*----------------------------------*\
| =========                 |                                                 |
| \\      /  F ield         | OpenFOAM: The Open Source CFD Toolbox           |
|  \\    /   O peration     | Version:  2206                                  |
|   \\  /    A nd           | Website:  www.openfoam.com                      |
|    \\/     M anipulation  |                                                 |
\*---------------------------------------------------------------------------*/
FoamFile
{
    version     2.0;
    format      ascii;
    arch        "LSB;label=32;scalar=64";
    class       volScalarField;
    location    "1.36e-05";
    object      sourcePV;
}
// * * * * * * * * * * * * * * * * * * * * * * * * * * * * * * * * * * * * * //

dimensions      [1 -3 -1 0 0 0 0];

internalField   nonuniform List<scalar> 
3183
(
0
0
0
0
0
0
0
0
0
0
0
0
0
0
0
0
0
0
0
0
0
0
0
0
0
0
0
0
0
0
0
0
0
0
0
0
0
0
0
0
0
0
0
0
0
0
0
0
0
0
0
0
0
0
0
0
0
0
0
0
0
0
0
0
0
0
0
0
0
0
0
0
0
0
0
0
0
0
0
0
0
0
0
0
0
0
0
0
0
0
0
0
0
0
0
0
0
0
0
0
0
0
0
0
0
0
0
0
0
0
0
0
0
0
0
0
0
0
0
0
0
0
0
0
0
0
0
0
0
0
0
0
0
0
0
0
0
0
0
0
0
0
0
0
0
0
0
0
0
0
0
0
0
0
0
0
0
0
0
0
0
0
0
0
0
0
0
0
0
0
0
0
0
0
0
0
0
0
0
0
0
0
0
0
0
0
0
0
0
0
0
0
0
0
0
0
0
0
0
0
0
0
0
0
0
0
0
0
0
0
0
0
0
0
0
0
0
0
0
0
0
0
0
0
0
0
0
0
0
0
0
0
0
0
0
0
0
0
0
0
0
0
0
0
0
0
0
0
0
0
0
0
0
0
0
0
0
0
0
0
0
0
0
0
0
0
0
0
0
0
0
0
0
0
0
0
0
0
0
0
0
0
0
0
0
0
0
0
0
0
0
0
0
0
0
0
0
0
0
0
0
0
0
0
0
0
0
0
0
0
0
0
0
0
0
0
0
0
0
0
0
0
0
0
0
0
0
0
0
0
0
0
0
0
0
0
0
0
0
0
0
0
0
0
0
0
0
0
0
0
0
0
0
0
0
0
0
0
0
0
0
0
0
0
0
0
0
0
0
0
0
0
0
0
0
0
0
0
0
0
0
0
0
0
0
0
0
0
0
0
0
0
0
0
0
0
0
0
0
0
0
0
0
0
0
0
0
0
0
0
0
0
0
0
0
0
0
0
0
0
0
0
0
0
0
0
0
0
0
0
0
0
0
0
0
0
0
0
0
0
0
0
0
0
0
0
0
0
0
0
0
0
0
0
0
0
0
0
0
0
0
0
0
0
0
0
0
0
0
0
0
0
0
0
0
0
0
0
0
0
0
0
0
0
0
0
0
0
0
0
0
0
0
0
0
0
0
0
0
0
0
0
0
0
0
0
0
0
0
0
0
0
0
0
0
0
0
0
0
0
0
0
0
0
0
0
0
0
0
0
0
0
0
0
0
0
0
0
0
0
0
0
0
0
0
0
0
0
0
0
0
0
0
0
0
0
0
0
0
0
0
0
0
0
0
0
0
0
0
0
0
0
0
0
0
0
0
0
0
0
0
0
0
0
0
0
0
0
0
0
0
0
0
0
0
0
0
0
0
0
0
0
0
0
0
0
0
0
0
0
0
0
0
0
0
0
0
0
0
0
0
0
0
0
0
0
0
0
0
0
0
0
0
0
0
0
0
0
0
0
0
0
0
0
0
0
0
0
0
0
0
0
0
0
0
0
0
0
0
0
0
0
0
0
0
0
0
0
0
0
0
0
0
0
0
0
0
0
0
0
0
0
0
0
0
0
0
0
0
0
0
0
0
0
0
0
0
0
0
0
0
0
0
0
0
0
0
0
0
0
0
0
0
0
0
0
0
0
0
0
0
0
0
0
0
0
0
0
0
0
0
0
0
0
0
0
0
0
0
0
0
0
0
0
0
0
0
0
0
0
0
0
0
0
0
0
0
0
0
0
0
0
0
0
0
0
0
0
0
0
0
0
0
0
0
0
0
0
0
0
0
0
0
0
0
0
0
0
0
0
0
0
0
0
0
0
0
0
0
0
0
0
0
0
0
0
0
0
0
0
0
0
0
0
0
0
0
0
0
0
0
0
0
0
0
0
0
0
0
0
0
0
0
0
0
0
0
0
0
0
0
0
0
0
0
0
0
0
0
0
0
0
0
0
0
0
0
0
0
0
0
0
0
0
0
0
0
0
0
0
0
0
0
0
0
0
0
0
0
0
0
0
0
0
0
0
0
0
0
0
0
0
0
0
0
0
0
0
0
0
0
0
0
0
0
0
0
0
0
0
0
0
0
0
0
0
0
0
0
0
0
0
0
0
0
0
0
0
0
0
0
0
0
0
0
0
0
0
0
0
0
0
0
0
0
0
0
0
0
0
0
0
0
0
0
0
0
0
0
0
0
0
0
0
0
0
0
0
0
0
0
0
0
0
0
0
0
0
0
0
0
0
0
0
0
0
0
0
0
0
0
0
0
0
0
0
0
0
0
0
0
0
0
0
0
0
0
0
0
0
0
0
0
0
0
0
0
0
0
0
0
0
0
0
0
0
0
0
0
0
0
0
0
0
0
0
0
0
0
0
0
0
0
0
0
0
0
0
0
0
0
0
0
0
0
0
0
0
0
0
0
0
0
0
0
0
0
0
0
0
0
0
0
0
0
0
0
0
0
0
0
0
0
0
0
0
0
0
0
0
0
0
0
0
0
0
0
0
0
0
0
0
0
0
0
0
0
0
0
0
0
0
0
0
0
0
0
0
0
0
0
0
0
0
0
0
0
0
0
0
0
0
0
0
0
0
0
0
0
0
0
0
0
0
0
0
0
0
0
0
0
0
0
0
0
0
0
0
0
0
0
0
0
0
0
0
0
0
0
0
0
0
0
0
0
0
0
0
0
0
0
0
0
0
0
0
0
0
0
0
0
0
0
0
0
0
0
0
0
0
0
0
0
0
0
0
0
0
0
0
0
0
0
0
0
0
0
0
0
0
0
0
0
0
0
0
0
0
0
0
0
0
0
0
0
0
0
0
0
0
0
0
0
0
0
0
0
0
0
0
0
0
0
0
0
0
0
0
0
0
0
0
0
0
0
0
0
0
0
0
0
0
0
0
0
0
0
0
0
0
0
0
0
0
0
0
0
0
0
0
0
0
0
0
0
0
0
0
0
0
0
0
0
0
0
0
0
0
0
0
0
0
0
0
0
0
0
0
0
0
0
0
0
0
0
0
0
0
0
0
0
0
0
0
0
0
0
0
0
0
0
0
0
0
0
0
0
0
0
0
0
0
0
0
0
0
0
0
0
0
0
0
0
0
0
0
0
0
0
0
0
0
0
0
0
0
0
0
0
0
0
0
0
0
0
0
0
0
0
0
0
0
0
0
0
0
0
0
0
0
0
0
0
0
0
0
0
0
0
0
0
0
0
0
0
0
0
0
0
0
0
0
0
0
0
0
0
0
0
0
0
0
0
0
0
0
0
0
0
0
0
0
0
0
0
0
0
0
0
0
0
0
0
0
0
0
0
0
0
0
0
0
0
0
0
0
0
0
0
0
0
0
0
0
0
0
0
0
0
0
0
0
0
0
0
0
0
0
0
0
0
0
0
0
0
0
0
0
0
0
0
0
0
0
0
0
0
0
0
0
0
0
0
0
0
0
0
0
0
0
0
0
0
0
0
0
0
0
0
0
0
0
0
0
0
0
0
0
0
0
0
0
0
0
0
0
0
0
0
0
0
0
0
0
0
0
0
0
0
0
0
0
0
0
0
0
0
0
0
0
0
0
0
0
0
0
0
0
0
0
0
0
0
0
0
0
0
0
0
0
0
0
0
0
0
0
0
0
0
0
0
0
0
0
0
0
0
0
0
0
0
0
0
0
0
0
0
0
0
0
0
0
0
0
0
0
0
0
0
0
0
0
0
0
0
0
0
0
0
0
0
0
0
0
0
0
0
0
0
0
0
0
0
0
0
0
0
0
0
0
0
0
0
0
0
0
0
0
0
0
0
0
0
0
0
0
0
0
0
0
0
0
0
0
0
0
0
0
0
0
0
0
0
0
0
0
0
0
0
0
0
0
0
0
0
0
0
0
0
0
0
0
0
0
0
0
0
0
0
0
0
0
0
0
0
0
0
0
0
0
0
0
0
0
0
0
0
0
0
0
0
0
0
0
0
0
0
0
0
0
0
0
0
0
0
0
0
0
0
0
0
0
0
0
0
0
0
0
0
0
0
0
0
0
0
0
0
0
0
0
0
0
0
0
0
0
0
0
0
0
0
0
0
0
0
0
0
0
0
0
0
0
0
0
0
0
0
0
0
0
0
0
0
0
0
0
0
0
0
0
0
0
0
0
0
0
0
0
0
0
0
0
0
0
0
0
0
0
0
0
0
0
0
0
0
0
0
0
0
0
0
0
0
0
0
0
0
0
0
0
0
0
0
0
0
0
0
0
0
0
0
0
0
0
0
0
0
0
0
0
0
0
0
0
0
0
0
0
0
0
0
0
0
0
0
0
0
0
0
0
0
0
0
0
0
0
0
0
0
0
0
0
0
0
0
0
0
0
0
0
0
0
0
0
0
0
0
0
0
0
0
0
0
0
0
0
0
0
0
0
0
0
0
0
0
0
0
0
0
0
0
0
0
0
0
0
0
0
0
0
0
0
0
0
0
0
0
0
0
0
0
0
0
0
0
0
0
0
0
0
0
0
0
0
0
0
0
0
0
0
0
0
0
0
0
0
0
0
0
0
0
0
0
0
0
0
0
0
0
0
0
0
0
0
0
0
0
0
0
0
0
0
0
0
0
0
0
0
0
0
0
0
0
0
0
0
0
0
0
0
0
0
0
0
0
0
0
0
0
0
0
0
0
0
0
0
0
0
0
0
0
0
0
0
0
0
0
0
0
0
0
0
0
0
0
0
0
0
0
0
0
0
0
0
0
0
0
0
0
0
0
0
0
0
0
0
0
0
0
0
0
0
0
0
0
0
0
0
0
0
0
0
0
0
0
0
0
0
0
0
0
0
0
0
0
0
0
0
0
0
0
0
0
0
0
0
0
0
0
0
0
0
0
0
0
0
0
0
0
0
0
0
0
0
0
0
0
0
0
0
0
0
0
0
0
0
0
0
0
0
0
0
0
0
0
0
0
0
0
0
0
0
0
0
0
0
0
0
0
0
0
0
0
0
0
0
0
0
0
0
0
0
0
0
0
0
0
0
0
0
0
0
0
0
0
0
0
0
0
0
0
0
0
0
0
0
0
0
0
0
0
0
0
0
0
0
0
0
0
0
0
0
0
0
0
0
0
0
0
0
0
0
0
0
0
0
0
0
0
0
0
0
0
0
0
0
0
0
0
0
0
0
0
0
0
0
0
0
0
0
0
0
0
0
0
0
0
0
0
0
0
0
0
0
0
0
0
0
0
0
0
0
0
0
0
0
0
0
0
0
0
0
0
0
0
0
0
0
0
0
0
0
0
0
0
0
0
0
0
0
0
0
0
0
0
0
0
0
0
0
0
0
0
0
0
0
0
0
0
0
0
0
0
0
0
0
0
0
0
0
0
0
0
0
0
2.00326993e-300
0
1.37016539e-297
4.20725644e-298
9.25935155e-295
2.91529229e-295
6.18276629e-292
1.99402281e-292
4.07942552e-289
1.34657614e-289
2.65978785e-286
8.97912873e-287
1.71373376e-283
5.91143019e-284
1.0911974e-280
3.84411154e-281
6.86658597e-278
2.46903396e-278
4.270401e-275
1.56546765e-275
2.6248116e-272
9.81301521e-273
1.59455493e-269
6.07545541e-270
9.57418152e-267
3.71822519e-267
5.68188438e-264
2.24602804e-264
3.33286882e-261
1.3404429e-261
1.93234413e-258
7.90409399e-259
1.10737646e-255
4.60512459e-256
6.27268707e-253
2.65111801e-253
3.51205447e-250
1.50808588e-250
1.94365304e-247
8.47698696e-248
1.06322587e-244
4.708501e-245
5.74883517e-242
2.5843722e-242
3.07240713e-239
1.40172403e-239
1.62299856e-236
7.51289274e-237
8.47408184e-234
3.97914327e-234
4.37316459e-231
2.082613e-231
2.23059096e-228
1.07711354e-228
1.12449127e-225
5.50483146e-226
5.60265844e-223
2.78003568e-223
2.75881609e-220
1.38730875e-220
1.34254637e-217
6.84074432e-218
6.45654093e-215
3.33296383e-215
3.0684528e-212
1.60451151e-212
1.44102483e-209
7.63179162e-210
6.68710578e-207
3.58646414e-207
3.06620029e-204
1.66512227e-204
1.38911424e-201
7.63742871e-202
6.21768391e-199
3.460587e-199
2.74947161e-196
1.5489325e-196
1.20108844e-193
6.84813401e-194
5.18298094e-191
2.9905035e-191
2.20920135e-188
1.28979967e-188
9.30063642e-186
5.49386469e-186
3.86705815e-183
2.31090191e-183
1.58783996e-180
9.59845288e-181
6.43807964e-178
3.93643983e-178
2.57746858e-175
1.5938713e-175
1.01877864e-172
6.37107626e-173
3.9753539e-170
2.51387078e-170
1.53122646e-167
9.79044239e-168
5.82139177e-165
3.76311436e-165
2.18419804e-162
1.42735689e-162
8.0869881e-160
5.3420736e-160
2.95434189e-157
1.97255452e-157
1.06478285e-154
7.18517448e-155
3.78557988e-152
2.58154414e-152
1.32744646e-149
9.1474044e-150
4.59044008e-147
3.19618354e-147
1.56524031e-144
1.10107683e-144
5.26175802e-142
3.73929055e-142
1.74355057e-139
1.25163289e-139
5.69402698e-137
4.12865051e-137
1.83235614e-134
1.34185779e-134
5.80933205e-132
4.29627748e-132
1.81420049e-129
1.35482152e-129
5.57956091e-127
4.20715299e-127
1.68958167e-124
1.28623204e-124
5.03648064e-122
3.87060714e-122
1.47755529e-119
1.14621718e-119
4.26504682e-117
3.33946712e-117
1.21103608e-114
9.56971605e-115
3.3816435e-112
2.69659806e-112
9.28355778e-110
7.46975697e-110
2.50489302e-107
2.03348693e-107
6.64075823e-105
5.43858462e-105
1.72925289e-102
1.42855787e-102
4.42143045e-100
3.68406703e-100
1.10961824e-97
9.32431946e-98
2.73228072e-95
2.31526247e-95
6.59846911e-93
5.63768768e-93
1.56222091e-90
1.34565492e-90
3.62432913e-88
3.14703622e-88
8.23553295e-86
7.20770379e-86
1.83195643e-83
1.61584049e-83
3.98717057e-81
3.54382275e-81
8.48580202e-79
7.59920597e-79
1.76496254e-76
1.59228866e-76
3.58518199e-74
3.25799043e-74
7.10754272e-72
6.50504075e-72
1.37416449e-69
1.26648236e-69
2.58895335e-67
2.40242938e-67
4.74903914e-65
4.43641655e-65
8.47392879e-63
7.9678961e-63
1.46937129e-60
1.39044114e-60
2.47332478e-58
2.35500556e-58
4.03672971e-56
3.86682962e-56
6.38012587e-54
6.1473918e-54
9.75174749e-52
9.44926609e-52
1.43924813e-49
1.40222346e-49
2.04772363e-47
2.00549279e-47
2.80348741e-45
2.75930861e-45
3.68588899e-43
3.64452325e-43
4.64332711e-41
4.60985158e-41
5.59078426e-39
5.56780985e-39
6.41581546e-37
6.3988964e-37
6.99499779e-35
6.96800893e-35
7.21956537e-33
7.15709224e-33
7.02458983e-31
6.91059877e-31
6.412439e-29
6.27832944e-29
5.46062649e-27
5.39897539e-27
4.30842156e-25
4.30313948e-25
3.12491265e-23
3.11067322e-23
2.06366995e-21
2.04806731e-21
1.22564759e-19
1.21370571e-19
6.44574142e-18
6.3798168e-18
2.9409582e-16
2.94003927e-16
1.13182807e-14
1.12572586e-14
3.53079714e-13
3.53159668e-13
8.3719639e-12
8.37011799e-12
8.79973105e-09
8.88089524e-09
0.153785389
0.60412295
8.74285516
9.749694
7.33157015
6.33592156
1.70553198
1.38280541
0.26025416
0.230496804
0.0521396622
0.0480781374
0.00921431244
0.00886752814
0.00147454873
0.00146737225
0.000225910166
0.000226094294
3.7844788e-05
3.78199544e-05
1.16602903e-05
1.16655172e-05
8.310052e-06
8.31151403e-06
7.91117333e-06
7.91142611e-06
7.86685018e-06
7.86684287e-06
7.86215325e-06
7.86217351e-06
7.86169342e-06
7.86170173e-06
7.86165339e-06
7.86167143e-06
7.86162968e-06
7.86166513e-06
7.86164131e-06
7.86164332e-06
7.86164815e-06
7.86163529e-06
7.86165989e-06
7.86163556e-06
7.86166722e-06
7.86163627e-06
7.86165296e-06
7.8616478e-06
7.86165818e-06
7.86164585e-06
7.86165527e-06
7.86165181e-06
7.86165614e-06
7.86164561e-06
7.8616523e-06
7.86165342e-06
7.86165213e-06
7.861652e-06
7.86164736e-06
7.86166651e-06
7.86163912e-06
7.86165597e-06
7.86165395e-06
7.86165926e-06
7.86165522e-06
7.86164421e-06
7.86165111e-06
7.86164436e-06
7.86165523e-06
7.8616469e-06
7.8616494e-06
7.86164453e-06
7.86164659e-06
7.86164962e-06
7.86163905e-06
7.86164973e-06
7.86164094e-06
7.86165046e-06
7.8616509e-06
7.86165949e-06
7.86165015e-06
7.86166142e-06
7.86163793e-06
7.86165782e-06
7.86165125e-06
7.86165207e-06
7.86165259e-06
7.86164032e-06
7.86166078e-06
7.86163869e-06
7.86165906e-06
7.8616329e-06
7.86166327e-06
7.86164331e-06
7.86166171e-06
7.86164409e-06
7.86166083e-06
7.86164598e-06
7.86165576e-06
7.86165007e-06
7.86166577e-06
7.86165618e-06
7.86165304e-06
7.8616518e-06
7.86165083e-06
7.86165589e-06
7.86165661e-06
7.86165248e-06
7.86165173e-06
7.8616561e-06
7.86164827e-06
7.86166102e-06
7.86164247e-06
7.86165531e-06
7.86164944e-06
7.86164782e-06
7.86165251e-06
7.86164555e-06
7.86164092e-06
7.86166445e-06
7.8616357e-06
7.8616609e-06
7.86165002e-06
7.86165798e-06
7.86164013e-06
7.86164997e-06
7.8616502e-06
7.86165417e-06
7.86165025e-06
7.8616606e-06
7.86164667e-06
7.86166437e-06
7.86165577e-06
7.86165242e-06
7.86166072e-06
7.86166357e-06
7.86165481e-06
7.86165829e-06
7.86165915e-06
7.86165586e-06
7.86165e-06
7.86165459e-06
7.86164428e-06
7.86165375e-06
7.86164229e-06
7.86165727e-06
7.86164328e-06
7.86165342e-06
7.86164191e-06
7.86165112e-06
7.86166206e-06
7.86164119e-06
7.86166153e-06
7.86164096e-06
7.86166315e-06
7.86164644e-06
7.86166059e-06
7.86165305e-06
7.86165828e-06
7.86166098e-06
7.86165048e-06
7.86164985e-06
7.86167862e-06
7.86164097e-06
7.86167444e-06
7.86164668e-06
7.86167489e-06
7.86164509e-06
7.86166391e-06
7.86164717e-06
7.86164976e-06
7.86164919e-06
7.8616468e-06
7.86165472e-06
7.86163511e-06
7.86166189e-06
7.86164487e-06
7.8616617e-06
7.86165837e-06
7.86166257e-06
7.86165673e-06
7.8616673e-06
7.86166212e-06
7.86166873e-06
7.8616615e-06
7.86166826e-06
7.86165383e-06
7.86165365e-06
7.86166313e-06
7.86164478e-06
7.86166566e-06
7.86165525e-06
7.86165992e-06
7.86164434e-06
7.86166635e-06
7.86165341e-06
7.86166741e-06
7.86165395e-06
7.86164908e-06
7.86165067e-06
7.86165978e-06
7.86164657e-06
7.86167058e-06
7.8616421e-06
7.86167181e-06
7.86164619e-06
7.86166077e-06
7.86165832e-06
7.86165405e-06
7.861657e-06
7.86167234e-06
7.86166123e-06
7.86166774e-06
7.86165915e-06
7.86166114e-06
7.86165769e-06
7.86166671e-06
7.86165815e-06
7.86165507e-06
7.86165757e-06
7.86165037e-06
7.86166222e-06
7.86165862e-06
7.86165742e-06
7.86165377e-06
7.86166425e-06
7.86166316e-06
7.86165551e-06
7.86167428e-06
7.86165055e-06
7.8616581e-06
7.86166789e-06
7.86165846e-06
7.86166086e-06
7.86165814e-06
7.86166543e-06
7.8616616e-06
7.86166885e-06
7.86165693e-06
7.86167032e-06
7.86165555e-06
7.86166693e-06
7.86166201e-06
7.86167599e-06
7.86165295e-06
7.86168225e-06
7.86164328e-06
7.86167606e-06
7.86165586e-06
7.86164536e-06
7.86166941e-06
7.86164395e-06
7.861668e-06
7.86166245e-06
7.86166255e-06
7.86165449e-06
7.8616662e-06
7.86165999e-06
7.86165812e-06
7.8616611e-06
7.86166068e-06
7.86166779e-06
7.86166689e-06
7.8616552e-06
7.86167304e-06
7.86165173e-06
7.86167049e-06
7.86165204e-06
7.86166101e-06
7.86165888e-06
7.86166348e-06
7.86164428e-06
7.86167086e-06
7.86165219e-06
7.86165966e-06
7.86166135e-06
7.86165436e-06
7.86167381e-06
7.86165609e-06
7.86166673e-06
7.86166633e-06
7.86165514e-06
7.8616663e-06
7.86166072e-06
7.86165502e-06
7.86166267e-06
7.8616564e-06
7.86165973e-06
7.86165768e-06
7.86166633e-06
7.86166059e-06
7.86166952e-06
7.8616562e-06
7.8616607e-06
7.86166856e-06
7.86165102e-06
7.86165205e-06
7.86166818e-06
7.8616554e-06
7.86166858e-06
7.8616641e-06
7.86166688e-06
7.86166235e-06
7.86166291e-06
7.86167212e-06
7.86165829e-06
7.86166727e-06
7.86165954e-06
7.8616598e-06
7.86166106e-06
7.86165483e-06
7.86166944e-06
7.86165709e-06
7.86166966e-06
7.86165169e-06
7.86167853e-06
7.86165464e-06
7.86166567e-06
7.86166343e-06
7.86166503e-06
7.86166712e-06
7.8616528e-06
7.86167609e-06
7.8616469e-06
7.86168045e-06
7.86165476e-06
7.86166805e-06
7.86165899e-06
7.86166046e-06
7.86166992e-06
7.86165916e-06
7.86167517e-06
7.86165672e-06
7.86166667e-06
7.86165894e-06
7.86166557e-06
7.86165782e-06
7.86166454e-06
7.86166305e-06
7.8616691e-06
7.86165487e-06
7.86166872e-06
7.86166355e-06
7.86167143e-06
7.86167271e-06
7.86166388e-06
7.86166547e-06
7.86166909e-06
7.86165858e-06
7.86166729e-06
7.86167041e-06
7.86165648e-06
7.86167002e-06
7.86167188e-06
7.86165994e-06
7.86165954e-06
7.86166884e-06
7.86165931e-06
7.86167249e-06
7.861659e-06
7.86167101e-06
7.86166889e-06
7.86166629e-06
7.8616596e-06
7.86166466e-06
7.86166624e-06
7.86167546e-06
7.86166417e-06
7.86167341e-06
7.86166687e-06
7.86167869e-06
7.86167126e-06
7.86168061e-06
7.86167262e-06
7.86166689e-06
7.86166994e-06
7.86167192e-06
7.86166122e-06
7.86166713e-06
7.86167006e-06
7.86167083e-06
7.86167166e-06
7.86166825e-06
7.86166188e-06
7.86167642e-06
7.86166896e-06
7.86167029e-06
7.86166922e-06
7.86166018e-06
7.86167611e-06
7.86165503e-06
7.86166975e-06
7.86166011e-06
7.86167206e-06
7.86165689e-06
7.86166718e-06
7.86167078e-06
7.8616688e-06
7.86167892e-06
7.86166955e-06
7.86167578e-06
7.86166413e-06
7.86166912e-06
7.86166681e-06
7.86166064e-06
7.86168142e-06
7.86165435e-06
7.8616765e-06
7.86165477e-06
7.86167761e-06
7.86167073e-06
7.86166837e-06
7.86167126e-06
7.86167949e-06
7.86167395e-06
7.86167293e-06
7.86167489e-06
7.86166722e-06
7.86167207e-06
7.86167149e-06
7.86167225e-06
7.86166714e-06
7.86167534e-06
7.8616729e-06
7.86166587e-06
7.86169055e-06
7.86166951e-06
7.86168061e-06
7.86167131e-06
7.86168617e-06
7.86166392e-06
7.86168572e-06
7.86166641e-06
7.86168145e-06
7.86167688e-06
7.86167136e-06
7.86168103e-06
7.86167024e-06
7.86167539e-06
7.86167981e-06
7.86166885e-06
7.8616846e-06
7.86166619e-06
7.86168073e-06
7.86167037e-06
7.86166981e-06
7.86166562e-06
7.86168511e-06
7.86166903e-06
7.86168449e-06
7.8616682e-06
7.86167178e-06
7.86168064e-06
7.86166859e-06
7.86168013e-06
7.8616701e-06
7.86166625e-06
7.86168233e-06
7.86166504e-06
7.86167032e-06
7.86167893e-06
7.86166452e-06
7.86168358e-06
7.86167353e-06
7.86166901e-06
7.86168314e-06
7.8616657e-06
7.86168877e-06
7.86167061e-06
7.86168155e-06
7.86167188e-06
7.86167667e-06
7.8616683e-06
7.86167504e-06
7.8616726e-06
7.86167068e-06
7.86167094e-06
7.86168176e-06
7.8616674e-06
7.86168294e-06
7.86166542e-06
7.86167466e-06
7.86166558e-06
7.86167508e-06
7.86165934e-06
7.86167713e-06
7.86166648e-06
7.86166929e-06
7.86167423e-06
7.86166148e-06
7.86168545e-06
7.86165933e-06
7.86168131e-06
7.86166783e-06
7.86168852e-06
7.86166381e-06
7.86168997e-06
7.86165113e-06
7.86169969e-06
7.86165053e-06
7.86169519e-06
7.8616571e-06
7.86168288e-06
7.86166678e-06
7.86167645e-06
7.86168116e-06
7.86168063e-06
7.86167027e-06
7.86168393e-06
7.86166997e-06
7.86167492e-06
7.86167483e-06
7.8616779e-06
7.8616727e-06
7.86167771e-06
7.86167642e-06
7.86168077e-06
7.86167689e-06
7.86167628e-06
7.86168059e-06
7.86167659e-06
7.86167504e-06
7.86167964e-06
7.86167956e-06
7.8616791e-06
7.86167867e-06
7.86167944e-06
7.86167832e-06
7.86168048e-06
7.86168045e-06
7.86168087e-06
7.86168147e-06
7.86168193e-06
7.86168331e-06
7.86168419e-06
7.86168388e-06
7.86168554e-06
7.86168655e-06
7.86168709e-06
7.86168842e-06
7.86169005e-06
7.86169196e-06
7.86169318e-06
7.86169514e-06
7.86169754e-06
7.8616994e-06
7.86170197e-06
7.86170465e-06
7.86170713e-06
7.86170889e-06
7.86171151e-06
7.86171314e-06
7.86171444e-06
7.86171561e-06
7.86171617e-06
7.86171656e-06
7.86171695e-06
7.861717e-06
7.861717e-06
7.86171667e-06
7.86171666e-06
7.86171706e-06
7.86171687e-06
7.8617169e-06
7.86171693e-06
7.86171694e-06
7.86171703e-06
7.86171702e-06
7.86171696e-06
7.86171718e-06
7.86171692e-06
7.86171699e-06
7.86171689e-06
7.86171694e-06
7.86171698e-06
7.86171693e-06
7.86171702e-06
7.86171687e-06
7.86171674e-06
7.86171723e-06
)
;

boundaryField
{
    closed
    {
        type            calculated;
        value           uniform 0;
    }
    open
    {
        type            calculated;
        value           uniform 0;
    }
    sides
    {
        type            empty;
    }
}


// ************************************************************************* //
