/*--------------------------------*- C++ -*----------------------------------*\
| =========                 |                                                 |
| \\      /  F ield         | OpenFOAM: The Open Source CFD Toolbox           |
|  \\    /   O peration     | Version:  2206                                  |
|   \\  /    A nd           | Website:  www.openfoam.com                      |
|    \\/     M anipulation  |                                                 |
\*---------------------------------------------------------------------------*/
FoamFile
{
    version     2.0;
    format      ascii;
    arch        "LSB;label=32;scalar=64";
    class       surfaceScalarField;
    location    "4e-07";
    object      phi;
}
// * * * * * * * * * * * * * * * * * * * * * * * * * * * * * * * * * * * * * //

dimensions      [1 0 -1 0 0 0 0];

oriented        oriented;

internalField   nonuniform List<scalar> 
3182
(
1.35525265e-20
1.18161359e-26
2.71050324e-20
-6.77624048e-20
-8.25662479e-26
-2.91031881e-27
-1.70224229e-32
1.82723267e-33
6.94134704e-32
9.88460904e-27
1.35800573e-25
2.65826639e-25
9.48670771e-20
8.93507005e-26
-1.35523837e-19
-3.44363902e-25
5.42087014e-20
-8.13150009e-20
-5.42092601e-20
8.13145149e-20
1.89977487e-25
1.34052878e-25
9.78163756e-27
8.3996416e-26
1.10491197e-24
1.10780769e-24
2.16829374e-19
-1.08419441e-19
-1.08418098e-19
1.08410495e-19
-2.71037114e-19
2.71040172e-19
1.73942912e-24
-2.16824972e-19
1.08412066e-19
1.08410841e-19
-1.08414902e-19
-1.0841734e-19
1.0840949e-19
-5.62426283e-24
-1.08395115e-19
-1.08403127e-19
5.42069042e-19
-3.25161304e-19
2.16805615e-19
-2.95573353e-24
-2.168287e-19
1.08373376e-19
-1.08361826e-19
-3.06569264e-23
3.25106029e-19
-8.67109851e-19
-5.15543805e-23
4.33583617e-19
1.95385011e-23
1.91300624e-23
7.66301107e-23
4.33686974e-19
1.44992127e-22
1.99482548e-22
-2.16884335e-19
-6.5830547e-23
-2.16781185e-19
-1.61813442e-22
-4.33209483e-19
2.1673234e-19
2.1711443e-19
8.67704488e-19
-8.09472832e-22
5.15248512e-22
-4.35719906e-19
-4.33606616e-19
-4.36047392e-19
-4.38452172e-19
-1.31063869e-21
-4.36635383e-19
-3.00356841e-21
-4.31820788e-19
-4.29014807e-19
-4.2376593e-19
1.30452236e-18
8.82657368e-19
1.75068155e-18
8.86329035e-19
2.62363373e-18
1.74533632e-18
3.48977399e-18
3.47655086e-18
2.5790081e-18
8.79964308e-19
1.30253504e-20
-8.60955874e-19
-1.70814053e-18
-8.22943404e-21
7.9816296e-19
3.44777832e-18
-1.71145625e-18
-1.67567548e-18
1.30853717e-19
-1.63457848e-18
-3.42804771e-18
-1.67674644e-18
-1.82077643e-18
-1.96015408e-18
1.63955111e-18
-1.23360639e-19
1.56995539e-18
-1.71156773e-18
-1.51032597e-18
-1.54380967e-18
-1.67192249e-18
-1.69349816e-18
1.25876678e-18
-5.82017355e-19
1.35130057e-18
-4.72512671e-19
-1.85206245e-18
8.64260337e-20
1.82427267e-18
2.85584038e-19
3.72835678e-18
1.9240196e-18
2.44313183e-19
1.24544909e-19
1.58675874e-18
-1.06527657e-19
3.17558043e-18
-7.50855674e-20
1.68201371e-18
1.75499159e-18
3.24515139e-18
-2.74685287e-19
-9.75046389e-20
-1.69506185e-18
-1.4875768e-19
-5.27665434e-18
-1.67269195e-18
-5.24122532e-18
-3.5553307e-18
-1.50025e-18
1.88240225e-18
1.91444549e-18
1.7784755e-19
1.38034004e-19
1.64258139e-18
1.63617956e-18
-1.76433874e-19
1.38373484e-18
1.65073866e-18
1.96880975e-19
1.53044259e-19
1.99801583e-19
1.95931101e-18
2.8195134e-19
1.03226323e-19
7.5343282e-21
1.67618303e-18
1.62211058e-18
1.6752758e-18
4.89122236e-20
8.93173756e-20
3.53482162e-18
1.72135089e-18
1.84625865e-18
1.90773315e-18
-1.4184535e-18
1.63479104e-19
-3.25335481e-18
-1.65888956e-18
-1.69730684e-18
-1.90744263e-18
-3.92044816e-19
1.35508897e-18
-2.87394826e-19
-8.95629635e-20
1.45763214e-18
1.44288507e-18
1.69091242e-18
-1.68596787e-18
-1.80627247e-18
8.52342736e-20
-3.30358139e-18
-3.58446911e-18
-1.79305911e-18
-3.51257021e-18
-3.60060146e-18
-6.89426374e-18
-5.05412665e-18
-5.00874049e-18
-6.60508288e-18
-5.04927544e-18
-1.59726657e-18
1.92729993e-18
-1.48204084e-18
1.9636858e-19
-1.58012967e-18
-3.00747768e-18
-3.0575311e-18
-1.44079212e-18
-1.64151251e-18
-8.87328715e-20
-3.47991071e-18
-1.66652437e-19
3.14353588e-18
1.5731475e-18
1.40491436e-18
-3.96291613e-19
-5.70378561e-19
-2.23009626e-18
1.39944452e-18
-2.11330781e-18
-4.33504996e-20
-1.90686988e-18
-1.07600673e-19
1.37706999e-18
-3.01934756e-19
-6.45275326e-20
-3.32204117e-20
3.23932996e-20
-1.78008639e-18
-1.48052171e-19
3.54781543e-18
3.2012826e-19
3.70270964e-18
3.52981014e-18
3.60427026e-18
3.68243205e-18
1.7957404e-18
1.81045801e-18
1.44371012e-18
-1.99042279e-18
1.43545566e-18
3.16444683e-18
3.35491936e-18
3.67516406e-18
3.60857652e-18
5.55943312e-18
3.8610627e-18
2.22758033e-18
3.97668349e-19
-1.54512157e-18
-1.77471952e-18
-1.24320937e-19
-1.36901852e-19
1.55326343e-18
1.62316036e-18
1.6442924e-18
1.69758934e-18
5.17143772e-18
1.63646704e-18
3.55988209e-18
5.35345891e-18
5.20239898e-18
1.73040994e-18
1.7242328e-18
1.9291086e-18
5.50839663e-20
1.68115819e-18
1.85611824e-18
1.63640949e-18
3.49127732e-18
3.65666454e-18
1.49626214e-19
-1.33725879e-18
-1.43549428e-18
-1.45240913e-18
-3.06196045e-18
-3.40559945e-18
-7.01110754e-18
-8.65735837e-18
-6.92185582e-18
-3.30913355e-18
-1.63336278e-18
-1.63862097e-18
-1.59263004e-18
-1.88693648e-18
1.49365888e-18
1.53991786e-18
-2.11234687e-18
-3.32180696e-19
-8.15739031e-20
-1.73167745e-18
-1.74441772e-18
-1.5893869e-18
-1.87716728e-18
-3.62593398e-18
-1.83337548e-18
-1.85364265e-18
-1.58160125e-18
3.28469521e-19
1.91578868e-18
1.80777104e-18
6.86525872e-21
-1.95820497e-18
-3.44503918e-18
-1.54724588e-18
3.27414917e-18
1.385017e-18
1.57805327e-18
5.00364793e-18
1.462721e-18
-5.33625324e-20
-6.06197723e-20
-1.97437561e-19
-2.00930982e-18
-1.80984484e-18
-1.60103164e-18
-1.81125362e-18
-3.18249895e-20
-1.42005322e-19
-3.63591993e-18
-3.51245446e-18
-2.11771225e-18
-3.53005706e-18
-1.65446274e-19
-1.89558741e-18
-3.54442536e-18
-5.27876467e-18
-5.28729213e-18
-8.73151657e-18
-7.19808199e-18
-9.03571495e-18
-5.49460422e-18
-3.77693392e-18
-3.60509667e-18
-1.84215259e-18
-2.05846507e-18
-3.53012634e-18
1.91305988e-20
-1.80594738e-18
1.60214741e-18
3.53788409e-18
1.33828192e-19
-1.43926755e-18
-1.70686615e-18
1.92117606e-19
-1.51500554e-18
-1.57306615e-18
9.29448731e-21
-5.2340652e-21
1.63338007e-18
8.27023102e-20
3.16721464e-18
1.53717509e-18
-4.51778024e-20
-1.92287775e-18
-3.52301555e-19
-5.54792364e-18
-5.41080311e-18
-2.76473909e-19
-3.5740863e-18
-5.15958018e-18
-1.68715104e-18
-7.84415998e-20
1.499403e-18
-1.23005016e-19
-9.92934243e-20
3.25553222e-18
3.48767398e-18
1.6788729e-18
3.28164407e-18
3.29107413e-18
1.48867225e-18
-2.96848789e-19
-1.98508524e-18
-1.95814464e-18
-2.82466185e-19
-1.64346555e-19
-3.72107891e-19
1.79314929e-18
1.0464553e-19
1.89207126e-18
1.85180047e-18
6.12623774e-20
3.30960092e-18
-7.57495417e-20
1.77240033e-18
1.1878976e-19
1.85834766e-18
1.86396988e-18
-1.68765647e-18
7.45849164e-21
-2.53694648e-20
-1.35557892e-19
3.27293295e-18
-1.76454182e-18
1.09874184e-19
-3.70591519e-18
3.30369022e-18
-2.04992786e-18
-2.02850343e-18
-1.97665878e-18
-3.53165153e-20
1.86039572e-18
1.81751347e-18
3.71887118e-19
2.2714481e-19
-2.75753e-18
-1.24213296e-18
-1.24553017e-18
6.55998751e-19
3.12264699e-19
-3.29078037e-18
3.0278806e-19
-4.27238429e-20
1.44435306e-18
1.63680479e-18
-1.7731957e-18
4.86107028e-21
-3.81637965e-18
1.51437539e-18
-1.84201554e-18
-4.31006729e-19
-2.08391318e-18
1.47270021e-18
1.66867371e-18
5.33264523e-18
3.00054663e-19
7.27860434e-18
5.46959013e-18
4.31559019e-19
4.30087949e-19
3.22820018e-19
2.1648791e-19
-3.06155428e-18
-3.2528071e-18
-1.76781029e-18
-2.50033034e-19
1.60921965e-18
1.57176569e-18
1.5665286e-18
1.68618553e-18
-5.9622821e-21
-2.72866772e-19
-3.35312359e-19
-2.07893674e-18
-2.20185066e-18
-3.30175267e-19
-2.08897857e-18
-1.9293495e-18
-2.03676006e-18
-1.85293255e-19
-4.97495038e-18
-3.25455116e-18
-3.22660919e-18
-1.33986602e-18
-1.50351954e-18
3.61887131e-18
1.81955031e-18
3.49265943e-18
1.73447441e-18
1.80842144e-18
1.47933952e-19
-1.73648177e-18
1.40349235e-19
1.6011061e-19
1.68903561e-18
8.17036608e-20
1.30511559e-19
-1.42796107e-20
-4.43416963e-20
1.57947747e-18
1.62309826e-18
-1.55986115e-18
2.02800606e-19
3.8521378e-19
4.72780076e-19
2.32163947e-19
2.02840071e-18
3.65503335e-18
3.60387779e-18
3.49155049e-18
1.08214998e-19
-2.04384971e-19
1.77978296e-18
1.75918282e-18
2.40830132e-20
9.75590468e-20
-1.08253922e-19
1.65713082e-19
-1.10113301e-19
-1.10504168e-19
1.48900656e-20
-1.37163065e-20
3.4056461e-18
1.60454831e-18
-1.41448672e-19
-1.59269076e-18
-1.68753893e-18
-3.49711817e-18
-3.6999047e-18
-3.7961938e-18
-3.75891336e-18
-5.53463161e-18
-2.00507337e-18
-3.6641723e-18
-3.65848177e-18
-1.55170623e-19
1.59057891e-18
3.35832114e-18
3.37694874e-18
1.31855023e-18
-1.9078293e-19
-3.59071161e-18
-5.40276422e-18
-3.37117811e-18
-5.13899516e-18
-3.51398484e-18
-5.11354592e-18
-3.58103055e-18
-1.84576071e-18
-3.40041362e-18
-1.38546989e-18
-1.8039939e-18
-1.74199756e-18
-1.91626253e-18
-1.96380625e-18
-2.03238994e-18
-2.21602637e-19
1.80485198e-18
3.33260185e-18
5.19551106e-18
3.45834175e-18
1.91989733e-18
3.62026036e-18
3.59327671e-18
3.58005195e-18
5.14446989e-18
5.14069325e-18
5.29352952e-18
1.59766166e-18
5.26091184e-18
1.82148553e-18
3.7413975e-18
3.74031556e-18
1.90794257e-18
3.73320569e-18
1.73922438e-18
3.46151012e-18
7.95068514e-20
8.11220354e-20
2.21050806e-20
-1.86980077e-18
5.94511448e-20
1.7722018e-19
3.69735298e-18
1.56720595e-19
1.22449757e-19
-1.65894539e-18
1.179913e-19
-1.60536992e-18
1.92599504e-18
1.87414204e-18
1.25472416e-19
3.07477923e-19
1.98602912e-18
2.09531436e-18
1.93662124e-18
2.04170345e-19
1.21131186e-19
-5.28091057e-18
-5.18680022e-18
-6.92263496e-18
-5.30947429e-18
-3.39489882e-18
-5.22854817e-18
-3.68217508e-18
-5.48969519e-18
-2.1738395e-18
-5.2170742e-18
-3.56464589e-18
-1.25454959e-19
1.78482444e-18
4.9667694e-18
1.47549135e-18
1.45198849e-18
-3.441571e-19
-1.95103627e-18
1.85811436e-18
7.44772449e-20
1.80820399e-18
5.2510997e-18
3.58807397e-18
1.84295396e-18
5.33674591e-18
2.22201658e-18
5.50494193e-18
7.29471663e-18
5.37697241e-18
3.62067784e-18
1.88770383e-18
1.53478988e-18
-3.6457999e-18
-1.72172496e-18
-1.37179883e-19
3.12311458e-18
1.36318179e-18
-1.54918624e-19
1.48733956e-18
-1.84574983e-18
-8.10391516e-20
-1.61347202e-18
-1.62317684e-18
1.99268355e-19
-1.63955025e-18
-1.56420614e-18
-1.67483641e-18
-3.31918113e-18
-3.33177879e-18
-3.42700552e-18
-4.94622064e-18
-5.1744413e-18
-1.87192428e-18
-1.77053212e-19
3.47128908e-18
1.70911521e-18
5.36790841e-18
5.46238051e-18
2.06229865e-18
1.91335129e-18
2.36521384e-19
-1.57798674e-18
2.16859864e-19
2.2920899e-19
1.87405155e-18
-1.71786849e-18
-1.57991172e-19
-2.69243449e-19
-2.09078395e-19
-5.20736128e-18
-3.43198101e-18
1.26301589e-19
1.87617612e-19
-1.81700488e-18
-1.75596881e-18
1.53253045e-18
1.06020377e-19
3.68555226e-18
1.72149174e-18
3.62873042e-18
1.61630769e-18
1.75906909e-19
-3.05269356e-18
3.43786221e-19
-1.6548166e-18
-9.41798068e-20
-4.4196714e-19
-5.54705585e-19
1.31917417e-18
1.23968986e-18
3.07817937e-18
1.29195556e-18
1.49880175e-18
4.41113013e-20
-1.50985219e-18
-4.84197588e-18
-5.01857183e-18
-3.27696754e-18
-3.378756e-18
-3.65499699e-18
-2.56903163e-19
-4.52381821e-19
-6.7876436e-19
-6.18384192e-19
-3.60477568e-19
-3.92854922e-19
-3.22269294e-19
-1.82458886e-18
-1.76800417e-18
-1.88324737e-18
-1.63747214e-18
-1.62303479e-18
1.46782444e-19
9.55306287e-20
-3.37897189e-18
-1.631324e-18
-5.21908266e-18
-2.88429143e-20
2.26792042e-19
3.61599253e-18
2.00331003e-18
3.54410993e-18
1.99977923e-18
3.47576669e-18
3.29512244e-18
1.90872727e-18
3.61409602e-18
1.87582793e-18
1.86544013e-18
1.72920351e-18
1.76307975e-18
1.81361328e-18
1.57199712e-21
5.1125854e-20
1.81355184e-18
6.77570153e-20
1.69559032e-18
1.60842393e-18
3.54605278e-18
8.66885778e-20
1.83469667e-19
-1.60135727e-18
-1.67914982e-18
1.27272105e-19
4.05416656e-19
2.72325644e-19
1.9546338e-18
1.89576906e-18
1.70769077e-19
2.54866842e-20
8.82328622e-20
4.84576829e-20
1.82976583e-18
5.37721372e-18
3.5885002e-18
6.90142145e-18
4.91481102e-18
3.20310839e-18
3.358197e-18
6.92475306e-18
6.95692992e-18
5.15309581e-18
5.03352102e-18
6.93879147e-20
-1.69848221e-18
-1.75981929e-18
-1.81143408e-18
-1.90228007e-18
-3.76456576e-18
-1.83098928e-18
-3.44739714e-18
-3.48643526e-18
-3.22793922e-18
-5.02894387e-18
-3.48143697e-18
-5.21120087e-18
-1.67707095e-18
-4.48751018e-21
1.93204615e-18
1.78798355e-18
1.74514705e-18
1.6321739e-18
1.54633332e-18
1.43589622e-18
1.32977985e-18
1.40547165e-18
1.57367653e-18
5.02423663e-18
3.62420843e-18
1.91302854e-18
1.89347776e-18
5.78344559e-20
1.97846055e-18
3.81251779e-19
-1.66510985e-18
1.79069762e-18
-1.69773051e-18
1.34215461e-19
-3.44656873e-18
-5.32313901e-18
-3.5064488e-18
-3.53248053e-18
-5.15314332e-18
-1.76130457e-18
-3.47688412e-18
4.49448552e-20
-1.53339756e-18
1.61634766e-18
1.85432085e-18
1.93537685e-18
-5.35324838e-20
1.85671816e-19
1.8256085e-18
1.79131319e-18
-1.75514358e-18
-1.89167005e-18
-3.79274726e-18
1.51833e-18
-1.8178569e-18
1.42609305e-18
1.41278736e-18
-1.71485905e-19
3.21886107e-18
1.48610179e-18
1.71778355e-18
6.72824225e-18
1.60214367e-18
5.25789154e-18
3.52484909e-18
1.86349387e-18
3.68292378e-18
1.76732157e-18
-4.68457238e-20
-5.26187167e-18
-1.72504957e-18
-1.4912753e-18
-2.37385219e-19
1.68225176e-18
1.6680481e-18
2.12668011e-20
3.7605457e-18
1.97004897e-18
5.19668127e-18
3.76808536e-18
1.99053053e-18
1.95743021e-18
1.83194989e-18
4.79305103e-19
1.24472934e-19
-1.3222938e-18
-1.60216884e-18
1.59907776e-18
-1.68495502e-20
-1.89079226e-18
-1.24757475e-19
-2.25597432e-19
-3.58724826e-18
-1.16391139e-19
1.6859903e-18
5.00302089e-18
5.30039953e-18
1.878105e-18
3.55814289e-18
2.47158991e-19
1.06726408e-19
1.17088583e-19
-1.61680666e-18
-3.48696326e-18
-2.1981662e-20
-1.92867377e-18
-7.98674015e-21
-3.60365608e-18
-1.49692807e-19
-2.99267658e-19
-5.31485014e-18
-1.7676686e-18
-1.86860015e-18
-1.67360696e-18
-1.98483735e-18
-2.06162339e-19
-5.46803519e-18
-7.30893642e-18
-5.25642287e-18
-7.08184614e-18
-5.11819638e-18
-6.82810877e-18
-3.69974839e-18
-1.85775327e-18
-1.47583726e-18
-1.67864444e-18
-3.24992157e-18
-3.14250129e-18
-1.52005938e-18
-1.41687086e-18
-1.56041296e-18
5.05911496e-20
1.76835949e-18
1.69247345e-18
3.99697233e-20
-2.00137809e-19
1.68169661e-18
1.99923831e-18
1.96433119e-18
2.14740277e-19
1.68958757e-18
1.62860946e-18
-1.84588061e-18
1.50881374e-18
-6.27551974e-21
3.2325159e-18
1.47861548e-18
1.58949808e-18
1.82169351e-18
4.87060773e-18
-1.75536609e-19
3.30788595e-18
1.49575888e-18
1.46195691e-18
1.63121112e-18
-1.62409083e-18
-1.59201824e-18
-3.01333632e-18
-4.86136034e-18
-6.65519003e-18
-3.35431288e-18
-5.04509996e-18
-1.90463283e-19
-3.7140202e-18
-2.19626714e-18
1.3076061e-18
-2.79411898e-19
-1.75424881e-18
4.34863084e-20
1.72174674e-18
-1.71255407e-18
7.6524197e-20
-4.72304779e-20
-1.87456864e-18
1.59728747e-18
3.16163341e-18
-1.08432053e-19
-3.66235312e-19
3.19988012e-18
6.29973665e-20
1.84011076e-18
2.05825288e-18
2.57665262e-19
4.4919076e-19
2.09000727e-18
1.90705762e-18
4.02556076e-19
2.01470043e-18
3.48319982e-18
1.94171491e-18
3.72134652e-18
1.94813076e-18
-1.65544211e-18
1.98805957e-18
1.80742242e-18
3.58517911e-18
3.47722566e-18
1.90504575e-18
1.74666002e-18
3.50674786e-18
1.83809489e-18
3.56848166e-18
1.53908465e-18
-1.82323674e-18
1.43927672e-18
1.4161928e-18
-3.20661471e-19
-2.19778902e-19
-2.57657541e-19
-2.09075969e-18
-1.89272098e-18
-3.39485058e-18
-1.77760126e-18
-3.63475416e-18
-1.86640813e-18
-1.69601285e-18
-1.79728057e-18
-1.79369501e-20
1.63784739e-18
-1.86073893e-18
1.4798614e-19
-1.6961863e-18
-3.56842942e-18
-1.45419479e-18
1.92705518e-19
-1.61212504e-18
1.7782699e-19
-1.83713943e-18
-3.50722961e-18
-3.57416642e-18
-3.60673784e-18
-5.33129219e-18
-5.38183097e-18
-5.54663765e-18
-7.2097303e-18
-9.04061795e-18
-5.3440388e-18
-3.67133559e-18
-1.48456313e-19
-1.77471402e-18
-1.44167545e-19
-1.89126595e-18
1.71816847e-18
-1.53143367e-18
1.88009431e-18
3.32380558e-19
2.14194687e-18
7.22119721e-18
3.70744741e-18
1.96240877e-18
2.09400741e-18
-1.76644831e-18
-1.62584513e-18
8.8426231e-22
-1.61027848e-18
-1.57264938e-18
-1.43043821e-18
2.17999104e-19
3.76366841e-18
5.40799887e-18
3.40965745e-18
1.97808707e-18
1.73490218e-18
3.51795886e-18
1.67843745e-18
3.58297776e-18
5.12319186e-18
3.62314323e-18
3.71126542e-18
1.90442071e-18
3.58545702e-18
1.82238896e-18
2.06779531e-18
1.96265052e-18
-1.42005058e-18
3.68306038e-18
7.0006975e-18
3.73734429e-18
6.9235941e-18
8.59119298e-18
8.83342918e-18
8.86419583e-18
8.73947272e-18
8.84954889e-18
6.92691302e-18
5.06510803e-18
5.06573474e-18
5.01820531e-18
5.18474582e-18
5.16369294e-18
6.73350703e-18
1.82906511e-19
5.17279956e-18
5.74086334e-20
1.52844825e-19
-1.48207911e-18
-1.52631686e-18
1.93442464e-18
-3.0221926e-18
-1.24693502e-18
-1.57728254e-18
-1.62032697e-18
-3.32252326e-18
-4.96920339e-18
-6.09301531e-20
-3.39873632e-18
1.36169157e-19
-3.38300581e-18
-2.00249599e-18
1.55091498e-18
1.53500395e-18
3.08964988e-18
2.87398093e-18
-2.16643139e-18
-2.04805958e-18
-5.52425852e-18
-5.31733735e-18
-3.58943365e-18
1.48724488e-18
-7.58546943e-20
-2.3095656e-19
-1.76854145e-18
-3.59154374e-18
-1.92028605e-18
-3.56044026e-18
-1.57520379e-18
-4.93487888e-18
-1.59170574e-18
-3.52891725e-18
-3.57212562e-18
-5.49188648e-18
-3.6513157e-18
-3.52958366e-19
-3.71091587e-18
-3.57980506e-18
1.56635799e-18
1.78363844e-18
7.32052581e-20
-1.63377384e-18
-1.67636404e-18
-1.51629756e-18
-3.36355824e-18
-3.26510826e-18
-1.73405283e-18
-1.85943425e-18
1.67488341e-18
1.80894844e-18
3.47441629e-18
1.71149632e-18
3.58526921e-18
6.98421554e-18
5.54037424e-18
7.40860864e-18
5.62614517e-18
5.66541325e-18
2.07875936e-18
2.09068204e-18
2.05223248e-18
3.10483282e-19
-1.27109784e-18
2.04800305e-18
-1.26184873e-18
-1.28456412e-18
-1.59117477e-18
-1.48649042e-20
1.73110455e-18
1.8490738e-18
1.73473842e-18
-1.49851822e-18
-1.59282939e-18
2.3460968e-19
7.95088703e-20
-1.67712501e-18
1.48016298e-18
1.30522471e-18
3.09609587e-18
-4.12152247e-19
3.00714991e-18
2.93771358e-18
1.53497118e-18
3.28971196e-18
1.4907023e-18
3.39432066e-18
3.27640254e-18
3.33844733e-18
-1.52238761e-18
1.91853178e-19
4.19895789e-20
9.50509463e-20
-5.96403856e-20
-1.6713399e-18
-1.70414749e-18
2.4161207e-20
-3.33399279e-18
3.84615778e-20
-3.29551405e-18
1.84132599e-18
-1.05495808e-19
-3.52620876e-18
-3.61819899e-18
-1.85862115e-18
-1.98009617e-18
-1.9852124e-18
-2.03913255e-18
-1.73517122e-18
-1.80339448e-18
-2.06084725e-18
-1.04645266e-19
-5.12865302e-18
-5.25103729e-18
-6.90842479e-18
-5.40901879e-18
-5.55387403e-18
-3.37269728e-18
-1.76285897e-18
-1.23859275e-19
-2.00702453e-18
-2.1710907e-18
-2.45386332e-19
-3.72459099e-18
-1.82352893e-18
1.76626079e-18
3.41410227e-18
5.10947664e-18
4.96495531e-18
1.65533222e-18
1.46404391e-18
5.10244424e-18
5.31573321e-18
3.58426551e-18
5.13696219e-18
3.32440665e-18
1.52629107e-18
-1.40498461e-19
-1.88842089e-18
-1.62117816e-18
8.37293764e-20
2.53628856e-19
1.84482597e-19
3.78093959e-19
-1.30210497e-18
-3.08190601e-18
-1.30962339e-18
-3.06851926e-18
-2.99378108e-18
5.32408174e-19
-1.34411677e-18
1.19255845e-19
1.72130797e-18
5.17149759e-18
1.93427678e-18
3.81486946e-18
3.99157355e-18
2.0081066e-18
-1.18758841e-18
-3.27509532e-18
-1.51442759e-18
-3.44685394e-18
-1.60076086e-18
-1.73543208e-18
-3.41630897e-18
-4.11411081e-19
-2.05275367e-18
-3.71580412e-18
-3.63887262e-18
1.41965207e-18
-1.47121788e-19
1.72716743e-18
-3.61789046e-18
-3.63275413e-18
-1.86589624e-18
4.28922649e-20
-1.96273121e-18
-1.93386821e-18
-2.11633947e-18
-2.21558679e-18
-6.85314648e-18
-4.99241136e-18
-6.64116974e-18
-6.80673484e-18
-8.65478621e-18
-3.18591422e-18
-5.47816269e-18
-3.78158495e-18
-1.96320127e-18
-3.76356894e-18
-3.88445535e-18
-1.99426698e-18
-3.46126606e-18
-3.50444983e-18
-1.85171686e-19
1.46200208e-18
1.55059087e-18
-1.98219716e-18
1.38801151e-18
1.37808665e-18
1.34925778e-18
1.53066357e-18
1.57536115e-18
1.50890281e-18
-6.45610974e-20
-6.82661785e-20
-1.88348326e-18
1.235162e-18
-2.56377689e-19
-1.95063187e-18
-2.0578994e-18
-1.37602845e-19
-1.10967988e-19
-3.49757543e-18
-7.06344515e-20
-1.80574231e-18
-1.713738e-18
-1.79091724e-18
-1.83981158e-18
1.59154494e-18
-1.96839326e-18
-1.56517885e-19
-3.73683058e-18
-1.87285906e-18
-1.79873332e-18
-1.66012929e-18
-1.67444491e-18
-1.40998504e-18
2.877278e-19
3.93659213e-18
2.83235759e-19
2.11539793e-18
2.09016623e-18
3.78428047e-18
3.75644766e-18
5.28643062e-18
8.59440698e-18
6.94400532e-18
5.23750926e-18
5.28744129e-18
7.19985169e-18
8.74840119e-18
5.15172753e-18
8.63453456e-18
5.22160678e-18
3.6215276e-18
-1.44883271e-18
4.00405362e-19
1.93013675e-18
2.3208978e-19
1.78823449e-19
1.72069921e-18
1.97076321e-18
1.92874062e-18
-1.34380561e-18
3.26202155e-19
1.89916521e-18
-1.66577567e-18
1.71115658e-18
7.43600959e-20
1.17624771e-19
-3.37626723e-18
-5.08753295e-18
-6.97156544e-18
-5.26154856e-18
-7.07879752e-18
-5.38826867e-18
-7.18499447e-18
-7.22564402e-18
-7.23511628e-18
-5.43447048e-18
-1.85831583e-18
-1.85521694e-18
-1.20583089e-19
-1.5616361e-19
-1.85054286e-18
-2.74643191e-19
1.50889435e-18
-3.16646118e-20
1.5523346e-18
-1.00863501e-19
1.49485787e-18
1.44756538e-18
6.48546118e-18
1.34738837e-18
-3.56467299e-19
-2.44226839e-19
-9.03436489e-20
-2.1384046e-19
-5.41271319e-18
-1.880677e-18
-1.8040193e-18
-1.91748541e-18
-1.85361925e-18
-3.57797727e-18
-2.09066396e-18
-3.60673802e-19
-3.57902199e-18
-3.45306883e-18
-1.55163866e-18
-1.64854814e-18
-3.15384411e-18
-3.22426505e-18
-3.31829374e-18
-3.44639829e-18
-1.5806605e-18
-3.18845234e-18
-1.38188309e-18
-1.54211959e-18
-1.57105881e-18
6.05409718e-20
1.52257345e-19
6.41021232e-20
1.58223636e-18
-1.65258619e-18
1.26509624e-19
3.98159712e-22
1.80747249e-18
2.0309163e-18
3.16025785e-19
1.86702117e-20
3.9698831e-20
8.06768928e-21
-6.05700539e-20
2.09167515e-19
3.32701507e-18
4.95816408e-18
1.53937486e-18
3.05353465e-18
3.2760915e-18
3.20009376e-18
5.02536604e-18
3.52920298e-18
6.96198152e-18
5.4339885e-18
2.12531056e-18
1.82363084e-18
5.48688927e-18
3.69883559e-18
7.06991974e-22
-6.79200078e-21
-8.01901857e-21
1.73201144e-18
1.03230916e-19
-1.60906844e-18
2.05620465e-18
2.69826922e-19
1.82388578e-18
-6.52223196e-20
1.62207443e-18
2.2313541e-20
-1.28011116e-20
-1.82135562e-18
1.44992778e-18
4.99996678e-18
3.3803894e-18
5.25213006e-18
5.14986303e-18
2.0592726e-18
3.6283162e-18
1.42758032e-19
3.48722259e-18
1.53722642e-18
-2.37483006e-19
-1.79930536e-19
-1.82467905e-18
-1.4184444e-19
-1.66816781e-18
-1.64626068e-18
-3.37603496e-18
-3.44440991e-18
-5.3581478e-18
-5.16841013e-18
-6.93589817e-18
-3.40819579e-18
-3.51024135e-18
-6.84967985e-18
-5.11160671e-18
-5.01203705e-18
-3.15701387e-18
-3.05096235e-18
-3.10941648e-18
5.59512049e-20
-1.82548551e-18
-1.8857668e-18
-7.30312345e-20
-1.90670436e-18
3.14168661e-18
3.23142521e-18
-3.01686094e-19
3.44203122e-18
3.39047655e-18
-4.74974307e-20
1.82767438e-18
1.66922971e-18
1.63279461e-18
5.18045654e-20
3.32088823e-19
-1.46498338e-18
-3.34248389e-18
-5.05666746e-18
-3.34898575e-18
-3.40639549e-18
-3.49843029e-18
-1.5423985e-19
1.64771397e-18
2.36988121e-20
1.67205554e-18
1.71102725e-18
2.10163742e-19
3.43546949e-18
2.43483112e-19
5.5290607e-18
4.00396761e-18
2.17307067e-18
3.51763007e-18
1.89899e-18
3.68778497e-18
3.81996441e-18
3.88302074e-18
1.97308763e-18
1.961505e-18
3.49640594e-18
1.90029938e-18
3.764563e-18
3.16990537e-19
3.66955119e-18
2.03238424e-20
1.42041683e-19
-1.98794297e-18
1.51221333e-18
-1.84970952e-19
-3.64688715e-19
-4.26642722e-19
-2.06365844e-19
-3.35940269e-19
-2.1449988e-19
-5.41816275e-18
-5.15029647e-18
-1.71556308e-18
9.251771e-20
1.98035179e-18
1.84415551e-18
5.28327575e-18
1.55501093e-18
1.55114661e-18
3.30757074e-18
3.28774355e-18
-2.65667082e-20
-3.38125984e-18
-1.02112103e-19
3.14128455e-18
3.10640396e-18
6.29079465e-18
4.77830651e-18
2.95501834e-18
3.16345207e-18
1.48181699e-18
-1.9623195e-21
-1.50684983e-18
-1.58984374e-18
-1.52054338e-18
-1.55662911e-18
-1.63219724e-18
-1.74406298e-18
-3.77000804e-18
-3.49815909e-18
-3.48775528e-18
-5.26169453e-18
-1.63011068e-18
-5.74006701e-20
-3.3351514e-18
-3.67799572e-18
-5.42428347e-18
-3.68699495e-18
-5.28432929e-18
-7.10649478e-18
-5.47030232e-18
-3.81162257e-18
-1.94240484e-18
-3.75342033e-18
-3.60876818e-18
-5.41865444e-18
-1.99366468e-18
-3.76435592e-18
-3.50260151e-18
-5.35817757e-18
-5.20702024e-18
-5.31935123e-18
-1.85810481e-18
-2.6575238e-20
-1.02961975e-19
-2.09168811e-18
-2.09927694e-19
-3.59293016e-18
-1.93847213e-18
-1.67691362e-18
-1.79831113e-18
2.08156483e-19
5.26756718e-21
1.71347878e-18
5.34328036e-18
5.30948652e-18
3.46926702e-18
3.65464569e-18
1.93117145e-18
3.09972061e-19
2.08502028e-18
2.6748813e-19
-8.23300424e-20
-1.63531071e-18
3.14266594e-19
1.95692312e-18
5.47979447e-18
2.05341923e-18
3.55578022e-19
1.90757866e-20
1.93175307e-19
3.35666966e-18
1.73738649e-18
1.8113763e-18
-4.97824867e-20
-3.11405878e-20
-3.54192512e-18
-8.02869114e-21
1.64238169e-18
1.60293514e-18
3.4200622e-18
1.75634195e-18
3.38067076e-18
1.55269087e-18
1.7882423e-18
3.52363573e-18
1.10494915e-19
-1.64616558e-18
1.89873931e-18
-1.54122195e-18
-1.77542938e-18
-3.48070535e-18
-1.66974121e-18
6.44153064e-20
-1.23324941e-19
1.55995845e-18
6.04719049e-20
1.92072823e-19
-3.08117819e-18
-1.38611737e-18
2.15088887e-18
3.58770542e-19
3.54010918e-19
1.58799401e-20
1.79101175e-19
1.76561295e-18
8.57721538e-20
-7.80595404e-20
1.78130627e-19
1.95088677e-18
3.5116663e-18
-1.8722365e-18
1.51983216e-18
-2.90990477e-19
-3.5091535e-18
-1.76330298e-18
-2.06598984e-18
-1.90272711e-18
-3.35750545e-18
-6.72418714e-18
-3.23457495e-18
-5.1642876e-18
-3.39977539e-18
8.42560153e-21
-1.70252717e-18
3.31999909e-18
3.25009857e-18
1.74925073e-18
3.19853565e-18
3.12690576e-18
3.12973798e-18
4.62004659e-18
-2.74544143e-19
1.41458097e-18
3.20395465e-18
3.38475456e-18
-1.70698316e-18
3.20112555e-18
9.66102417e-20
-1.75197887e-18
-3.51115261e-18
-1.90903838e-18
-4.48993741e-20
-1.76032777e-18
-1.79109418e-18
-1.68897032e-18
-1.59436415e-18
3.6346976e-18
1.79813306e-18
-1.53028021e-18
-1.55000792e-18
-1.51092044e-18
2.38541499e-19
-1.51033104e-18
1.82537365e-18
1.86709352e-18
3.53013048e-18
3.47834555e-18
-1.18850885e-19
-1.74212151e-19
-5.35307329e-18
-3.45157901e-18
-3.37199514e-18
-1.6016673e-18
-1.60246237e-18
-1.74721087e-18
-3.52080158e-18
-3.54399507e-18
-3.62512379e-18
-5.414809e-18
-5.54517784e-18
-1.91325155e-18
-5.47771855e-18
-3.65890828e-18
-1.87673414e-18
-3.31191817e-18
-6.9008674e-20
1.85142311e-18
1.90185525e-18
3.43666398e-18
5.37938645e-18
6.98831452e-18
5.38046427e-18
5.354673e-18
3.61489675e-18
1.5813373e-18
-7.57105475e-20
3.22723666e-18
3.1255618e-18
6.57313438e-18
4.8509024e-18
6.53546617e-18
3.15526281e-18
1.56467856e-18
1.69791063e-18
8.85003108e-20
-1.59000544e-18
-3.32048094e-18
-3.30547437e-18
-1.75192222e-18
-1.8771035e-18
-3.22399874e-18
-3.23855166e-18
-3.13751489e-18
-1.67636262e-18
1.52141777e-19
-1.65311935e-18
-3.67956912e-18
-5.13163769e-18
-1.76237468e-18
-1.92202958e-18
1.52675306e-18
-3.79173379e-18
-3.80671204e-18
-3.74700631e-18
-2.00928949e-18
-3.55236369e-18
-1.91294501e-18
-6.61449014e-20
-5.33554185e-18
-5.24170981e-18
-5.17161845e-18
-1.82264572e-18
-5.15539482e-18
-5.19426639e-18
-3.40736634e-18
-5.2216253e-18
-1.62606373e-18
-5.34384945e-20
-1.87563396e-20
1.72289059e-18
1.80474916e-18
3.39042971e-18
1.88550632e-18
3.50940598e-18
5.07751341e-18
3.53963868e-18
3.19390721e-18
3.3276903e-18
3.46367184e-18
1.89097171e-18
1.97871639e-18
3.81012394e-18
5.42278126e-18
3.62430242e-18
5.29011027e-18
7.08006149e-18
8.70501644e-18
5.54581048e-18
3.75058293e-18
2.05510391e-18
5.34369002e-18
6.9966092e-18
3.58432993e-18
6.23971522e-20
-1.89919921e-18
-3.40998656e-18
-1.93669797e-18
-1.76311663e-18
1.01968511e-20
1.63237898e-20
-3.43101525e-18
-1.8420841e-18
-2.83262276e-20
1.55591159e-18
-1.97032172e-19
-2.11837965e-18
-2.03205858e-18
5.87774348e-22
1.33058983e-18
-2.57581148e-19
-3.6313917e-20
-1.73586282e-19
-8.92833329e-20
-1.95199995e-18
-1.37592752e-19
-1.76262768e-18
-1.34259054e-18
4.41565471e-19
-2.80152774e-18
2.5596971e-18
5.9033087e-19
5.09800753e-19
3.76917564e-18
3.79486274e-18
2.11914233e-18
1.92265025e-18
2.05974868e-18
3.65419209e-18
-1.5224888e-19
1.47637004e-19
-3.38543692e-18
-1.73487866e-18
-3.64546187e-18
-3.67114116e-18
-3.64189355e-18
-3.77599832e-18
-2.02547497e-18
-1.68499682e-18
1.52361172e-18
-2.34914438e-19
-2.90328958e-19
-6.45686421e-19
-2.17653887e-18
-4.97298365e-19
1.27449939e-18
3.10435139e-18
-2.76287615e-19
1.39945414e-18
3.31878409e-18
3.21221192e-18
1.52464303e-18
1.58106366e-18
-3.49725575e-18
-2.15828417e-19
5.32442053e-20
-6.42118547e-20
-1.77215124e-18
-1.68680196e-18
-1.89048078e-18
-2.07932898e-18
-2.04642013e-18
-1.99220506e-18
-5.41327712e-18
-5.83138436e-20
-1.38012982e-18
-3.21310725e-18
-3.38552737e-18
-5.06788974e-18
-8.43305135e-18
-3.56147851e-18
-3.42228428e-18
-1.76625792e-18
-5.26989494e-18
-3.55229463e-18
1.66932432e-18
3.54953217e-18
3.62397489e-18
5.43115215e-18
3.49344629e-18
1.89480372e-18
3.6381169e-18
1.69099246e-19
7.3564316e-20
-1.83388953e-18
1.54688423e-18
1.41262372e-18
-2.01197252e-18
-3.51150003e-19
-3.31408608e-19
1.47356571e-18
1.60915085e-18
1.73628597e-18
2.06388039e-18
1.87188104e-18
3.64696109e-18
3.78540123e-18
2.29904144e-18
2.15786503e-18
4.89741878e-19
6.72330626e-19
4.32239026e-19
-3.10622061e-18
5.30571155e-19
-1.46716772e-18
1.61227781e-19
1.85177075e-18
1.63107257e-18
-9.06621562e-20
3.30799575e-18
3.26062319e-18
5.19964208e-18
3.46731868e-18
3.38657613e-18
6.7573495e-18
3.21681975e-18
6.69201001e-18
1.73516533e-18
5.16662718e-18
3.45390342e-18
-1.72048273e-18
-3.39681618e-18
-3.24315258e-18
-1.85338476e-18
-1.55550679e-18
-3.2443489e-18
2.12844003e-18
-1.35353138e-18
-2.9404901e-18
-3.06138838e-18
-4.55283077e-18
-3.04368987e-18
-1.5401225e-18
1.75860738e-18
3.21975912e-18
1.53737538e-18
1.50875942e-18
3.16188805e-18
1.6624583e-18
-1.48907991e-19
3.2871934e-18
1.79742582e-18
3.73407716e-18
1.67059967e-18
2.12459834e-20
-1.95505505e-18
-3.43226158e-18
-3.33620947e-18
-1.56121506e-18
2.98628226e-19
-1.54470217e-18
-3.36907725e-18
-1.69867832e-18
1.71976726e-18
3.56569243e-18
1.80494702e-18
3.67899373e-18
1.94112368e-18
3.64268486e-18
2.01266779e-18
3.59949805e-18