/*--------------------------------*- C++ -*----------------------------------*\
| =========                 |                                                 |
| \\      /  F ield         | OpenFOAM: The Open Source CFD Toolbox           |
|  \\    /   O peration     | Version:  2206                                  |
|   \\  /    A nd           | Website:  www.openfoam.com                      |
|    \\/     M anipulation  |                                                 |
\*---------------------------------------------------------------------------*/
FoamFile
{
    version     2.0;
    format      ascii;
    arch        "LSB;label=32;scalar=64";
    class       volVectorField;
    location    "4e-07";
    object      U;
}
// * * * * * * * * * * * * * * * * * * * * * * * * * * * * * * * * * * * * * //

dimensions      [0 1 -1 0 0 0 0];

internalField   nonuniform List<vector> 
3183
(
(1.71243893e-15 0 0)
(-1.80194186e-15 0 0)
(3.79222977e-15 0 0)
(-3.9904385e-15 0 0)
(-4.19901127e-15 0 0)
(-9.19530038e-22 0 0)
(-4.00387203e-27 0 0)
(-1.30620447e-27 0 0)
(1.78997676e-27 0 0)
(1.91412385e-26 0 0)
(2.96796581e-21 0 0)
(3.79553608e-20 0 0)
(9.4675628e-15 0 0)
(6.64157182e-15 0 0)
(-6.98866362e-15 0 0)
(-1.10309432e-14 0 0)
(7.73820042e-15 0 0)
(-4.07135769e-15 0 0)
(-1.28524871e-14 0 0)
(4.50796098e-15 0 0)
(4.7437078e-15 0 0)
(3.91035631e-20 0 0)
(3.08982875e-21 0 0)
(7.06645688e-25 0 0)
(2.52203581e-20 0 0)
(3.07796686e-19 0 0)
(1.93187147e-14 0 0)
(-2.31539447e-20 0 0)
(-2.13904057e-14 0 0)
(1.5004479e-14 0 0)
(-3.15789279e-14 0 0)
(8.30701601e-15 0 0)
(2.6224771e-14 0 0)
(-1.8396063e-14 0 0)
(8.68024654e-20 0 0)
(2.03685507e-14 0 0)
(-2.14338051e-14 0 0)
(-2.25544013e-14 0 0)
(2.3731484e-14 0 0)
(-3.73978403e-19 0 0)
(-2.62785346e-14 0 0)
(-1.38228173e-14 0 0)
(5.81898304e-14 0 0)
(4.61442498e-18 0 0)
(1.61098514e-14 0 0)
(-2.49596597e-18 0 0)
(-3.56657028e-14 0 0)
(1.87543182e-14 0 0)
(-1.97374758e-14 0 0)
(3.29568409e-18 0 0)
(4.37099293e-14 0 0)
(-6.90121354e-14 0 0)
(-4.84035786e-14 0 0)
(5.09163515e-14 0 0)
(2.68059359e-14 0 0)
(-5.6386058e-14 0 0)
(3.90902914e-18 0 0)
(6.24463255e-14 0 0)
(6.57136613e-14 0 0)
(1.26511563e-17 0 0)
(-3.63245918e-14 0 0)
(-5.8678334e-17 0 0)
(-4.01858242e-14 0 0)
(-8.9940436e-17 0 0)
(-8.90536684e-14 0 0)
(4.68404678e-14 0 0)
(4.93965147e-14 0 0)
(1.03856425e-13 0 0)
(5.45821483e-14 0 0)
(-5.73399198e-14 0 0)
(6.01306447e-14 0 0)
(-1.27102336e-13 0 0)
(-6.71574593e-14 0 0)
(-6.89429982e-16 0 0)
(-7.42893305e-14 0 0)
(-1.55810017e-13 0 0)
(-4.97590478e-16 0 0)
(-8.61644431e-14 0 0)
(-8.98090273e-14 0 0)
(4.00809458e-16 0 0)
(1.01229525e-13 0 0)
(3.16760686e-13 0 0)
(3.34725036e-13 0 0)
(1.19040968e-13 0 0)
(2.48185335e-13 0 0)
(3.88208955e-13 0 0)
(4.07209623e-13 0 0)
(2.90942902e-13 0 0)
(4.45189031e-13 0 0)
(1.57818471e-13 0 0)
(2.3680418e-15 0 0)
(-1.71558817e-13 0 0)
(-1.77763685e-13 0 0)
(-4.12214279e-15 0 0)
(1.96812699e-13 0 0)
(4.05279914e-13 0 0)
(-2.05726246e-13 0 0)
(-1.78557774e-14 0 0)
(-2.0920828e-13 0 0)
(-2.38679061e-13 0 0)
(-2.63707511e-13 0 0)
(-2.68860939e-13 0 0)
(-2.83848382e-13 0 0)
(-5.18566579e-14 0 0)
(-3.22500096e-13 0 0)
(2.92360256e-13 0 0)
(-1.18685785e-14 0 0)
(2.94499507e-13 0 0)
(-6.05855453e-13 0 0)
(-2.7344796e-13 0 0)
(3.17353405e-13 0 0)
(5.59065422e-15 0 0)
(-3.41420383e-13 0 0)
(-8.62507765e-14 0 0)
(2.40406489e-13 0 0)
(2.41139188e-13 0 0)
(-6.67749965e-13 0 0)
(3.13134287e-13 0 0)
(3.13082298e-13 0 0)
(5.50497541e-14 0 0)
(3.58430118e-13 0 0)
(3.43383642e-13 0 0)
(3.51874197e-13 0 0)
(4.18381127e-14 0 0)
(-1.05493325e-14 0 0)
(-1.2236935e-14 0 0)
(2.8373849e-13 0 0)
(-3.29635365e-14 0 0)
(2.78408847e-15 0 0)
(3.1435072e-13 0 0)
(6.02587491e-13 0 0)
(-4.64097759e-15 0 0)
(-4.98996761e-14 0 0)
(-2.98608812e-13 0 0)
(-2.25436288e-14 0 0)
(-3.41746184e-13 0 0)
(-6.13956675e-13 0 0)
(-6.55765356e-13 0 0)
(-3.11101717e-13 0 0)
(-3.37435597e-13 0 0)
(-2.64705849e-13 0 0)
(3.32250742e-13 0 0)
(3.60059134e-13 0 0)
(1.31877416e-14 0 0)
(2.93143109e-14 0 0)
(2.75678876e-13 0 0)
(-9.60886531e-15 0 0)
(-2.98380594e-14 0 0)
(2.70288645e-13 0 0)
(3.18750095e-13 0 0)
(-2.51068623e-13 0 0)
(3.05252332e-13 0 0)
(4.47167859e-14 0 0)
(-2.57399421e-13 0 0)
(3.43532219e-13 0 0)
(-3.19496627e-13 0 0)
(1.03905345e-14 0 0)
(6.08555944e-13 0 0)
(8.61991282e-15 0 0)
(2.8450154e-13 0 0)
(1.97145401e-14 0 0)
(3.41151833e-13 0 0)
(1.234234e-14 0 0)
(3.32063545e-13 0 0)
(6.2840644e-13 0 0)
(5.47767944e-14 0 0)
(-2.75879933e-13 0 0)
(2.26097675e-14 0 0)
(-2.96631818e-13 0 0)
(-3.16989825e-13 0 0)
(-3.23339708e-13 0 0)
(-3.59754075e-13 0 0)
(-3.46863376e-14 0 0)
(2.43338743e-13 0 0)
(-4.33821493e-14 0 0)
(-1.42327791e-14 0 0)
(5.65885248e-13 0 0)
(3.14591108e-13 0 0)
(1.24780048e-14 0 0)
(-3.30830333e-13 0 0)
(-9.68615131e-15 0 0)
(-2.75495349e-13 0 0)
(-6.36639311e-13 0 0)
(-3.32161514e-13 0 0)
(-3.60138598e-13 0 0)
(-6.23475804e-13 0 0)
(-1.28306289e-12 0 0)
(-6.28988869e-13 0 0)
(-9.10180466e-13 0 0)
(-9.11229287e-13 0 0)
(-3.12868751e-13 0 0)
(-5.94895033e-13 0 0)
(2.47723655e-16 0 0)
(4.41696409e-14 0 0)
(-2.55521513e-13 0 0)
(4.55938516e-15 0 0)
(-5.7185695e-13 0 0)
(2.41918093e-14 0 0)
(-5.49209314e-13 0 0)
(-3.15743777e-13 0 0)
(-2.77648476e-13 0 0)
(-3.56607285e-13 0 0)
(-2.90646127e-13 0 0)
(5.50758154e-13 0 0)
(1.58999233e-14 0 0)
(-6.5650784e-14 0 0)
(2.60511947e-13 0 0)
(-4.91694348e-14 0 0)
(1.84970145e-13 0 0)
(-3.44560237e-13 0 0)
(2.41324487e-13 0 0)
(-3.35821247e-13 0 0)
(-3.22247301e-13 0 0)
(-3.50607947e-14 0 0)
(-2.08440633e-14 0 0)
(-5.99507804e-14 0 0)
(-2.59581117e-14 0 0)
(-2.39481685e-14 0 0)
(2.07791194e-14 0 0)
(-3.07217603e-13 0 0)
(-3.2295767e-14 0 0)
(3.27968347e-13 0 0)
(3.40882579e-13 0 0)
(3.49899928e-13 0 0)
(3.51835818e-13 0 0)
(3.33759783e-13 0 0)
(6.78089973e-13 0 0)
(9.42553001e-13 0 0)
(-2.79733769e-13 0 0)
(3.10113034e-13 0 0)
(2.30192854e-13 0 0)
(-3.15985087e-13 0 0)
(5.72361061e-13 0 0)
(2.96932682e-13 0 0)
(6.38139472e-13 0 0)
(3.43294103e-13 0 0)
(6.69881626e-13 0 0)
(1.00986333e-12 0 0)
(7.03148247e-13 0 0)
(7.07001691e-14 0 0)
(5.88057417e-14 0 0)
(-3.1891125e-13 0 0)
(-1.89496188e-14 0 0)
(-3.07778161e-13 0 0)
(2.73373544e-13 0 0)
(2.93541384e-13 0 0)
(-2.97855106e-13 0 0)
(2.84889313e-13 0 0)
(3.18575229e-13 0 0)
(9.45289376e-13 0 0)
(2.98399818e-13 0 0)
(6.70024755e-13 0 0)
(6.35007179e-13 0 0)
(6.38390709e-13 0 0)
(3.46192282e-14 0 0)
(3.18002873e-13 0 0)
(3.1835547e-13 0 0)
(3.19701075e-14 0 0)
(6.03387116e-13 0 0)
(3.28982516e-13 0 0)
(3.15083697e-13 0 0)
(6.47095592e-13 0 0)
(3.26434068e-14 0 0)
(3.55011444e-14 0 0)
(-2.4648247e-13 0 0)
(-2.76280417e-13 0 0)
(-2.73763835e-13 0 0)
(-5.93591097e-13 0 0)
(-6.45814163e-13 0 0)
(-1.27245734e-12 0 0)
(-9.51937188e-13 0 0)
(-9.3165847e-13 0 0)
(-6.26287425e-13 0 0)
(2.05257311e-14 0 0)
(9.06519443e-15 0 0)
(-2.67951413e-15 0 0)
(-3.62674227e-13 0 0)
(-7.96467759e-15 0 0)
(-6.68967332e-14 0 0)
(-4.93772928e-14 0 0)
(-5.2904471e-14 0 0)
(-2.83638935e-13 0 0)
(-2.68491444e-14 0 0)
(-3.09500493e-13 0 0)
(-2.97599447e-13 0 0)
(-4.98674628e-14 0 0)
(-9.38895162e-13 0 0)
(-3.20594897e-14 0 0)
(-3.08163951e-13 0 0)
(4.38858383e-14 0 0)
(3.30263945e-13 0 0)
(3.32421858e-13 0 0)
(-3.02869935e-13 0 0)
(-1.3502017e-14 0 0)
(-3.43758376e-13 0 0)
(-3.07771067e-13 0 0)
(-2.86353205e-13 0 0)
(8.78069558e-13 0 0)
(-3.18738391e-13 0 0)
(6.03862724e-13 0 0)
(8.97493216e-13 0 0)
(-1.80391718e-14 0 0)
(-2.04648586e-14 0 0)
(1.79942348e-15 0 0)
(-3.4371187e-13 0 0)
(-3.6292885e-13 0 0)
(-2.97173438e-13 0 0)
(2.8540035e-13 0 0)
(-3.01904902e-13 0 0)
(-3.30682645e-13 0 0)
(-3.92768777e-14 0 0)
(-6.34770144e-13 0 0)
(-3.5670334e-13 0 0)
(-3.7612128e-13 0 0)
(-3.32450797e-13 0 0)
(-2.99177571e-14 0 0)
(-6.27255251e-13 0 0)
(-6.62714841e-13 0 0)
(-3.53077256e-13 0 0)
(-1.25788607e-12 0 0)
(-1.31557716e-12 0 0)
(-1.62354211e-12 0 0)
(-1.30956396e-12 0 0)
(-7.05657308e-13 0 0)
(-6.62964345e-13 0 0)
(-5.31414542e-14 0 0)
(-6.31787519e-13 0 0)
(-3.62886196e-13 0 0)
(-1.16496505e-14 0 0)
(-1.98261158e-14 0 0)
(-2.10443633e-15 0 0)
(2.94647606e-13 0 0)
(3.41323388e-13 0 0)
(-3.00116347e-13 0 0)
(7.26043533e-14 0 0)
(-3.52475085e-13 0 0)
(-2.3240149e-13 0 0)
(-3.55216598e-15 0 0)
(8.5679344e-15 0 0)
(9.17276605e-15 0 0)
(3.07701446e-13 0 0)
(-3.1683297e-13 0 0)
(6.07845817e-13 0 0)
(-2.65680043e-14 0 0)
(2.84226711e-13 0 0)
(5.46959728e-15 0 0)
(-3.81890017e-13 0 0)
(-3.48679998e-13 0 0)
(-7.12622559e-13 0 0)
(-6.17885203e-13 0 0)
(-7.48852501e-14 0 0)
(-9.35565312e-13 0 0)
(-6.43816915e-13 0 0)
(-1.28029962e-15 0 0)
(-3.12028137e-13 0 0)
(2.76936988e-13 0 0)
(-3.38547901e-15 0 0)
(2.61967496e-13 0 0)
(6.3537235e-13 0 0)
(2.20904371e-14 0 0)
(5.90624429e-13 0 0)
(3.14755516e-13 0 0)
(5.93528039e-13 0 0)
(2.71984445e-13 0 0)
(-3.55638322e-13 0 0)
(-3.43543375e-13 0 0)
(-3.62221906e-13 0 0)
(2.75247739e-13 0 0)
(-3.63217877e-13 0 0)
(2.86008674e-13 0 0)
(3.31586563e-13 0 0)
(4.11938514e-14 0 0)
(3.25740941e-13 0 0)
(-2.74812945e-13 0 0)
(3.08555063e-13 0 0)
(2.86947237e-13 0 0)
(3.19640541e-13 0 0)
(1.04463741e-14 0 0)
(3.29737188e-13 0 0)
(-2.62341725e-13 0 0)
(3.09197836e-13 0 0)
(-1.35859825e-14 0 0)
(1.00369775e-15 0 0)
(2.05151281e-14 0 0)
(2.6329092e-13 0 0)
(1.74613218e-15 0 0)
(-6.11248682e-13 0 0)
(-3.33151047e-13 0 0)
(-3.60725617e-14 0 0)
(-1.49655958e-14 0 0)
(2.51275661e-13 0 0)
(-3.63806625e-13 0 0)
(-3.47659346e-13 0 0)
(3.21906195e-13 0 0)
(2.03965256e-14 0 0)
(4.24614878e-14 0 0)
(4.99731972e-14 0 0)
(-2.29732855e-13 0 0)
(4.62724871e-14 0 0)
(9.83412306e-14 0 0)
(-2.51320763e-13 0 0)
(1.1994464e-13 0 0)
(-3.04914905e-13 0 0)
(-5.80650561e-13 0 0)
(3.69103706e-14 0 0)
(5.79846349e-13 0 0)
(-2.45338117e-14 0 0)
(-5.61633184e-15 0 0)
(-3.17655639e-13 0 0)
(-3.66998286e-14 0 0)
(-6.23753947e-14 0 0)
(-1.25318342e-14 0 0)
(-3.61063468e-13 0 0)
(-3.55681296e-13 0 0)
(2.4110244e-13 0 0)
(-1.0356045e-14 0 0)
(6.26990327e-13 0 0)
(3.53147032e-13 0 0)
(7.01760153e-13 0 0)
(1.29887625e-12 0 0)
(7.8865613e-14 0 0)
(3.91368811e-14 0 0)
(7.8412661e-14 0 0)
(4.30600113e-14 0 0)
(-2.72813883e-13 0 0)
(-5.64798207e-13 0 0)
(-3.16893867e-13 0 0)
(-3.38528557e-14 0 0)
(-1.3097104e-14 0 0)
(2.858792e-13 0 0)
(2.93856277e-13 0 0)
(6.02752482e-13 0 0)
(3.15686591e-13 0 0)
(-3.64027509e-14 0 0)
(-4.76156616e-14 0 0)
(-5.56303725e-14 0 0)
(-3.83720971e-13 0 0)
(-6.93496554e-13 0 0)
(-3.63625218e-13 0 0)
(-3.6754629e-13 0 0)
(-1.79266951e-14 0 0)
(-3.85810396e-13 0 0)
(-6.11821931e-13 0 0)
(-5.99291089e-13 0 0)
(-2.97746682e-13 0 0)
(-5.90687481e-13 0 0)
(8.94797862e-14 0 0)
(6.25741746e-13 0 0)
(3.38358378e-13 0 0)
(3.24732321e-13 0 0)
(3.19386701e-13 0 0)
(3.17508277e-13 0 0)
(3.4215573e-13 0 0)
(-2.96605385e-13 0 0)
(-3.26028851e-13 0 0)
(6.56367759e-14 0 0)
(5.91304252e-13 0 0)
(1.74163169e-14 0 0)
(3.41105712e-13 0 0)
(-1.98004488e-14 0 0)
(-3.17961044e-13 0 0)
(3.11367637e-13 0 0)
(2.7780223e-13 0 0)
(-2.97293929e-13 0 0)
(1.05768038e-14 0 0)
(3.63293525e-13 0 0)
(8.86822936e-14 0 0)
(3.48182876e-14 0 0)
(6.67049058e-14 0 0)
(6.53633079e-13 0 0)
(5.53613226e-14 0 0)
(6.37881765e-13 0 0)
(3.17321791e-13 0 0)
(3.08210274e-13 0 0)
(2.95866819e-13 0 0)
(-8.73098115e-16 0 0)
(3.77346746e-14 0 0)
(-9.8894826e-16 0 0)
(2.96576119e-13 0 0)
(-3.07835438e-13 0 0)
(1.03366944e-14 0 0)
(-2.216853e-14 0 0)
(-1.18568102e-14 0 0)
(1.56279602e-15 0 0)
(3.19759495e-13 0 0)
(1.15457957e-15 0 0)
(2.92127827e-13 0 0)
(-3.20802484e-13 0 0)
(-2.87314737e-13 0 0)
(-3.15213428e-14 0 0)
(-6.51336951e-13 0 0)
(-3.750808e-13 0 0)
(-9.99471162e-13 0 0)
(-6.82087613e-13 0 0)
(-6.93608029e-13 0 0)
(-3.45092911e-13 0 0)
(-6.70322476e-13 0 0)
(-2.48549045e-14 0 0)
(-2.29236848e-14 0 0)
(2.97025962e-13 0 0)
(6.24214788e-13 0 0)
(-1.57242481e-14 0 0)
(2.5900421e-13 0 0)
(-6.36234019e-13 0 0)
(-6.89926738e-13 0 0)
(-3.41558605e-13 0 0)
(-9.24900345e-13 0 0)
(-6.48143548e-13 0 0)
(-6.25330094e-13 0 0)
(-6.43482618e-13 0 0)
(-9.31090771e-13 0 0)
(-6.27466897e-13 0 0)
(1.88111318e-14 0 0)
(1.99405885e-14 0 0)
(-3.37682306e-13 0 0)
(-9.31440948e-13 0 0)
(-3.53639995e-13 0 0)
(-3.53868554e-13 0 0)
(-4.13929311e-14 0 0)
(3.06523916e-13 0 0)
(6.1005999e-13 0 0)
(6.14687522e-13 0 0)
(3.52982474e-13 0 0)
(3.1793602e-13 0 0)
(6.57171865e-13 0 0)
(6.63208427e-13 0 0)
(3.30377495e-13 0 0)
(6.59136393e-13 0 0)
(9.44948059e-13 0 0)
(9.32238318e-13 0 0)
(6.35491716e-13 0 0)
(3.0053668e-13 0 0)
(3.61655069e-13 0 0)
(9.46752e-13 0 0)
(7.00083147e-13 0 0)
(3.31717665e-13 0 0)
(5.4982883e-14 0 0)
(3.44716908e-13 0 0)
(3.08519458e-13 0 0)
(3.40887203e-13 0 0)
(2.07958686e-15 0 0)
(2.28987004e-14 0 0)
(-2.31521726e-14 0 0)
(-3.2622834e-14 0 0)
(4.38685919e-14 0 0)
(6.47670944e-13 0 0)
(-2.73889409e-13 0 0)
(2.57325713e-14 0 0)
(1.19709355e-14 0 0)
(1.13618967e-14 0 0)
(-2.93517027e-13 0 0)
(1.48604505e-14 0 0)
(3.62519814e-13 0 0)
(1.3773211e-14 0 0)
(5.48985733e-14 0 0)
(3.28932531e-13 0 0)
(3.56088383e-13 0 0)
(8.83058088e-14 0 0)
(3.07225188e-13 0 0)
(5.20535761e-14 0 0)
(-3.33241904e-13 0 0)
(-1.23805616e-12 0 0)
(-9.56665852e-13 0 0)
(-9.79280504e-13 0 0)
(-6.16242424e-13 0 0)
(-6.5752037e-13 0 0)
(-3.50918153e-13 0 0)
(-6.62980625e-13 0 0)
(-7.1375745e-13 0 0)
(-6.34927099e-13 0 0)
(-6.57868257e-13 0 0)
(-3.4897511e-13 0 0)
(3.25225104e-13 0 0)
(6.2358582e-13 0 0)
(2.73652365e-13 0 0)
(2.83499133e-13 0 0)
(-5.20702335e-14 0 0)
(-5.38991851e-14 0 0)
(9.3674282e-15 0 0)
(-1.41168863e-15 0 0)
(3.49889656e-13 0 0)
(3.31780569e-13 0 0)
(9.56612757e-13 0 0)
(3.53857024e-13 0 0)
(6.27865882e-13 0 0)
(6.79838929e-13 0 0)
(1.02526615e-12 0 0)
(3.7865396e-13 0 0)
(1.01972955e-12 0 0)
(9.52141733e-13 0 0)
(4.28214308e-14 0 0)
(3.22768586e-13 0 0)
(-5.0965463e-14 0 0)
(-3.2182121e-13 0 0)
(-3.41185628e-13 0 0)
(6.025536e-13 0 0)
(2.6114354e-13 0 0)
(-4.21802574e-14 0 0)
(-5.52073892e-15 0 0)
(2.62713438e-13 0 0)
(-3.18972672e-13 0 0)
(-3.05585261e-13 0 0)
(-1.29322933e-14 0 0)
(-2.64147368e-13 0 0)
(-2.82137242e-13 0 0)
(-2.19226306e-14 0 0)
(2.14884194e-14 0 0)
(-6.10689881e-13 0 0)
(-6.02801736e-13 0 0)
(-3.18015194e-13 0 0)
(-1.20913207e-12 0 0)
(-3.49346767e-13 0 0)
(-3.1583743e-13 0 0)
(-6.44499206e-13 0 0)
(5.94915082e-15 0 0)
(9.20745279e-13 0 0)
(3.53061836e-13 0 0)
(6.67691032e-13 0 0)
(7.00636564e-13 0 0)
(6.44840267e-13 0 0)
(3.29493755e-14 0 0)
(-5.6705627e-13 0 0)
(3.11710052e-13 0 0)
(-2.44936727e-13 0 0)
(3.00633647e-13 0 0)
(6.60358064e-13 0 0)
(-3.36682411e-13 0 0)
(-3.34057476e-13 0 0)
(2.81192405e-13 0 0)
(-6.49176726e-13 0 0)
(-6.63115405e-13 0 0)
(-2.73746114e-13 0 0)
(3.04886814e-13 0 0)
(-2.77155056e-13 0 0)
(-2.92995743e-14 0 0)
(-3.4048796e-13 0 0)
(1.26830465e-14 0 0)
(3.38447523e-13 0 0)
(6.46184466e-13 0 0)
(3.42565076e-13 0 0)
(3.21378464e-13 0 0)
(3.09169322e-13 0 0)
(-2.55005823e-13 0 0)
(-2.83681034e-13 0 0)
(-2.55184246e-13 0 0)
(-3.16376138e-14 0 0)
(-3.47276206e-14 0 0)
(2.32006193e-13 0 0)
(-6.94409101e-14 0 0)
(-5.85108835e-14 0 0)
(5.57935584e-13 0 0)
(-4.84989732e-14 0 0)
(2.60689764e-13 0 0)
(2.96579397e-13 0 0)
(-2.82997085e-13 0 0)
(-5.96160443e-13 0 0)
(-2.77811417e-13 0 0)
(-6.13438568e-13 0 0)
(-6.08987258e-13 0 0)
(-6.44780251e-13 0 0)
(-3.45736792e-13 0 0)
(-7.392527e-14 0 0)
(-7.24274722e-14 0 0)
(-1.28822043e-13 0 0)
(-3.6519164e-13 0 0)
(2.39318173e-13 0 0)
(-4.17963049e-14 0 0)
(-3.53846336e-13 0 0)
(-3.18544606e-13 0 0)
(-3.36423342e-13 0 0)
(-2.07346442e-14 0 0)
(-5.94041187e-13 0 0)
(2.07898733e-14 0 0)
(9.52709451e-15 0 0)
(-2.9859809e-13 0 0)
(-2.93957249e-14 0 0)
(-5.90617004e-13 0 0)
(-3.47359015e-13 0 0)
(4.20652738e-14 0 0)
(1.28874449e-14 0 0)
(3.72794414e-13 0 0)
(6.27997197e-13 0 0)
(6.83814434e-13 0 0)
(3.31183239e-13 0 0)
(3.15483165e-13 0 0)
(3.29001277e-13 0 0)
(3.32217646e-13 0 0)
(3.64171725e-13 0 0)
(6.27673408e-13 0 0)
(2.02169827e-14 0 0)
(3.26606752e-13 0 0)
(3.12036251e-13 0 0)
(4.5619365e-14 0 0)
(-5.21951783e-14 0 0)
(6.08774947e-14 0 0)
(2.96759212e-13 0 0)
(3.16315348e-13 0 0)
(4.99982271e-15 0 0)
(3.11963563e-13 0 0)
(3.48595805e-13 0 0)
(-3.41768953e-15 0 0)
(2.25435539e-14 0 0)
(1.85212367e-14 0 0)
(-2.97822241e-13 0 0)
(2.55846103e-14 0 0)
(-2.26987425e-13 0 0)
(3.1789907e-13 0 0)
(3.49418675e-13 0 0)
(3.3714054e-13 0 0)
(-2.62485924e-13 0 0)
(-3.29271906e-13 0 0)
(3.08940132e-14 0 0)
(3.32550015e-13 0 0)
(6.45112129e-13 0 0)
(6.60039828e-13 0 0)
(9.46973906e-13 0 0)
(6.26857263e-13 0 0)
(5.80763036e-13 0 0)
(3.15459756e-13 0 0)
(1.25046327e-12 0 0)
(6.49037779e-13 0 0)
(9.63823679e-13 0 0)
(9.24305088e-13 0 0)
(3.15458762e-14 0 0)
(-1.01806422e-14 0 0)
(-3.12024966e-13 0 0)
(-3.25614105e-13 0 0)
(-3.27917677e-13 0 0)
(-6.7207233e-13 0 0)
(-3.52182045e-13 0 0)
(-6.25856812e-13 0 0)
(-6.27113809e-13 0 0)
(-3.19391212e-13 0 0)
(-5.99780452e-13 0 0)
(-6.42982439e-13 0 0)
(-1.26456456e-12 0 0)
(-1.15435169e-14 0 0)
(-2.96250369e-13 0 0)
(2.9320682e-14 0 0)
(3.27849647e-13 0 0)
(3.40400143e-13 0 0)
(2.99781047e-13 0 0)
(9.20191055e-15 0 0)
(2.73349859e-13 0 0)
(2.49536761e-13 0 0)
(2.55688858e-13 0 0)
(2.94781707e-13 0 0)
(5.8901466e-13 0 0)
(3.48405753e-13 0 0)
(3.43278372e-13 0 0)
(6.52202201e-13 0 0)
(1.15783638e-14 0 0)
(3.39594081e-13 0 0)
(-2.42471896e-13 0 0)
(3.22496536e-13 0 0)
(-2.86183005e-13 0 0)
(-1.89026015e-16 0 0)
(1.15795313e-14 0 0)
(-6.00165064e-13 0 0)
(-6.66733836e-13 0 0)
(-6.50900964e-13 0 0)
(-3.23009624e-13 0 0)
(-9.55463538e-13 0 0)
(-3.02768037e-13 0 0)
(-6.45995194e-13 0 0)
(-3.26307367e-16 0 0)
(-2.8944169e-13 0 0)
(1.08729943e-14 0 0)
(6.19687268e-13 0 0)
(5.41096299e-14 0 0)
(2.88792976e-13 0 0)
(-2.67909842e-13 0 0)
(1.36540702e-14 0 0)
(3.39876022e-13 0 0)
(3.09419991e-15 0 0)
(-3.42746411e-13 0 0)
(-3.64623829e-13 0 0)
(-3.85305512e-14 0 0)
(2.75507869e-13 0 0)
(-3.08854303e-13 0 0)
(2.20883742e-13 0 0)
(5.53457409e-15 0 0)
(2.67208868e-13 0 0)
(5.89017666e-13 0 0)
(-1.37202369e-14 0 0)
(6.23402838e-13 0 0)
(5.9342758e-13 0 0)
(6.47441937e-13 0 0)
(9.54468651e-13 0 0)
(3.29473708e-13 0 0)
(4.35406526e-14 0 0)
(6.37089506e-13 0 0)
(2.85958846e-15 0 0)
(-6.24217859e-13 0 0)
(-2.27717684e-14 0 0)
(-2.9979522e-13 0 0)
(-2.99582843e-13 0 0)
(-3.57544348e-13 0 0)
(2.29019481e-14 0 0)
(6.15612808e-13 0 0)
(3.49669725e-14 0 0)
(6.83888078e-13 0 0)
(3.29149649e-13 0 0)
(6.61368177e-13 0 0)
(3.86043082e-13 0 0)
(6.48179974e-13 0 0)
(3.52921838e-14 0 0)
(3.66068506e-13 0 0)
(2.35494287e-14 0 0)
(-2.43242234e-13 0 0)
(-2.96775829e-13 0 0)
(3.00224398e-13 0 0)
(1.38612255e-14 0 0)
(-3.39281781e-14 0 0)
(-3.32612798e-13 0 0)
(-2.42871118e-14 0 0)
(-3.4158929e-13 0 0)
(-2.80475665e-14 0 0)
(-7.79043109e-15 0 0)
(6.07683514e-13 0 0)
(6.34361441e-13 0 0)
(6.62151956e-13 0 0)
(6.48880144e-13 0 0)
(3.02807061e-14 0 0)
(2.37488818e-14 0 0)
(2.39920595e-14 0 0)
(-3.06425145e-13 0 0)
(-3.16311894e-13 0 0)
(-6.29660244e-13 0 0)
(-3.32565631e-13 0 0)
(-3.26758957e-13 0 0)
(-3.27550742e-13 0 0)
(-2.51995787e-14 0 0)
(-3.57711646e-14 0 0)
(-6.71274851e-13 0 0)
(-2.9813799e-14 0 0)
(-6.2505083e-13 0 0)
(-2.3812483e-14 0 0)
(-3.05892608e-13 0 0)
(-6.75326221e-14 0 0)
(-6.47797323e-13 0 0)
(-1.0188186e-12 0 0)
(-9.9897635e-13 0 0)
(-1.25426236e-12 0 0)
(-3.75123383e-13 0 0)
(-1.22087115e-12 0 0)
(-3.52325005e-13 0 0)
(-3.62618628e-13 0 0)
(-5.93354689e-13 0 0)
(-3.12426845e-13 0 0)
(-2.85204397e-13 0 0)
(-5.80585922e-13 0 0)
(-2.89080582e-13 0 0)
(-2.59720716e-13 0 0)
(-2.72321098e-13 0 0)
(-7.37160336e-15 0 0)
(2.29491251e-14 0 0)
(6.24379407e-13 0 0)
(-4.16945659e-16 0 0)
(2.86449692e-13 0 0)
(2.74714184e-13 0 0)
(3.3887013e-13 0 0)
(4.61836475e-14 0 0)
(4.65880199e-14 0 0)
(3.15945343e-13 0 0)
(3.37166181e-13 0 0)
(-4.36050824e-14 0 0)
(-3.3843755e-13 0 0)
(2.98915387e-13 0 0)
(-4.43496706e-15 0 0)
(5.98490949e-13 0 0)
(2.63924954e-13 0 0)
(2.47233796e-14 0 0)
(9.20146817e-13 0 0)
(2.81126944e-13 0 0)
(2.94735391e-13 0 0)
(2.85430174e-13 0 0)
(2.70902047e-13 0 0)
(-2.15249203e-14 0 0)
(3.30211419e-13 0 0)
(-6.22381179e-13 0 0)
(-2.74952592e-13 0 0)
(-5.78140831e-13 0 0)
(-9.09416519e-13 0 0)
(-8.99959844e-13 0 0)
(-3.31472705e-13 0 0)
(-3.09457899e-13 0 0)
(-6.59885066e-13 0 0)
(-3.85757827e-13 0 0)
(-5.27687655e-14 0 0)
(-3.39848368e-14 0 0)
(-4.4989037e-14 0 0)
(8.93931624e-15 0 0)
(3.08057536e-13 0 0)
(-3.12053204e-13 0 0)
(3.93553348e-16 0 0)
(2.31690135e-14 0 0)
(-2.28329423e-14 0 0)
(-2.72866298e-14 0 0)
(2.96394694e-13 0 0)
(-4.26500531e-14 0 0)
(-3.54972672e-14 0 0)
(2.71253299e-13 0 0)
(2.97594884e-13 0 0)
(2.54096441e-14 0 0)
(3.32585837e-13 0 0)
(5.5480247e-14 0 0)
(6.86173175e-14 0 0)
(3.73299975e-13 0 0)
(3.50994068e-13 0 0)
(3.5433946e-14 0 0)
(7.36382262e-14 0 0)
(3.31055317e-13 0 0)
(6.36385652e-13 0 0)
(3.75746743e-13 0 0)
(6.72151972e-13 0 0)
(-2.95015744e-13 0 0)
(3.49464883e-13 0 0)
(3.20751378e-13 0 0)
(3.53483858e-13 0 0)
(6.37608732e-13 0 0)
(2.38312187e-14 0 0)
(6.50705568e-13 0 0)
(3.08427314e-13 0 0)
(3.40029677e-13 0 0)
(3.28771085e-13 0 0)
(3.16621189e-13 0 0)
(2.90148959e-13 0 0)
(-3.39476231e-13 0 0)
(2.85871754e-13 0 0)
(2.53021127e-13 0 0)
(-3.32701723e-14 0 0)
(-5.64750811e-14 0 0)
(-2.99201067e-14 0 0)
(-3.68155162e-13 0 0)
(-3.17465519e-13 0 0)
(-6.22771837e-13 0 0)
(-3.53636987e-13 0 0)
(-3.49113228e-13 0 0)
(-3.06332344e-13 0 0)
(-3.33598743e-13 0 0)
(-4.14904814e-15 0 0)
(3.17111915e-13 0 0)
(-2.84551994e-14 0 0)
(-3.06758879e-13 0 0)
(-3.14684025e-13 0 0)
(8.06417449e-15 0 0)
(-6.45475986e-13 0 0)
(7.28087807e-14 0 0)
(-2.05326641e-14 0 0)
(5.12221053e-14 0 0)
(-3.14953227e-13 0 0)
(-6.3467273e-13 0 0)
(-3.32418428e-13 0 0)
(-5.56778616e-14 0 0)
(-9.34993035e-13 0 0)
(-1.00088068e-12 0 0)
(-9.87511318e-13 0 0)
(-1.29512521e-12 0 0)
(-1.02541769e-12 0 0)
(-9.91440614e-13 0 0)
(-9.70290088e-13 0 0)
(-5.50797752e-14 0 0)
(1.61976059e-15 0 0)
(-3.18235732e-13 0 0)
(-3.5606672e-13 0 0)
(3.07865724e-13 0 0)
(5.52265608e-15 0 0)
(4.21934655e-14 0 0)
(2.46408132e-14 0 0)
(7.77024902e-14 0 0)
(6.62584236e-13 0 0)
(1.00970911e-12 0 0)
(6.63751607e-13 0 0)
(3.69561298e-13 0 0)
(-8.50905476e-15 0 0)
(-2.74270263e-13 0 0)
(-1.7750683e-14 0 0)
(-2.85584039e-13 0 0)
(-6.31555599e-13 0 0)
(4.44881694e-14 0 0)
(1.18378644e-14 0 0)
(3.73772077e-13 0 0)
(9.90764991e-13 0 0)
(3.45939164e-13 0 0)
(6.28475032e-13 0 0)
(3.48978772e-13 0 0)
(1.43219648e-14 0 0)
(6.00220812e-13 0 0)
(3.42986762e-14 0 0)
(6.5250911e-13 0 0)
(9.60460938e-13 0 0)
(9.45565041e-13 0 0)
(7.72909402e-14 0 0)
(3.08325187e-13 0 0)
(3.42293976e-13 0 0)
(3.59037117e-13 0 0)
(6.61610105e-13 0 0)
(-2.72943253e-13 0 0)
(6.62271583e-14 0 0)
(9.62752877e-13 0 0)
(9.74940893e-13 0 0)
(6.77903433e-13 0 0)
(1.25833819e-12 0 0)
(1.56847167e-12 0 0)
(1.31777816e-12 0 0)
(1.61502419e-12 0 0)
(1.29439938e-12 0 0)
(6.78435524e-13 0 0)
(1.25156404e-12 0 0)
(9.35700936e-13 0 0)
(5.99919103e-13 0 0)
(9.28189686e-13 0 0)
(6.58258452e-13 0 0)
(8.99634144e-13 0 0)
(6.44433185e-13 0 0)
(3.52464219e-13 0 0)
(3.19608132e-13 0 0)
(2.36142438e-14 0 0)
(-2.87977773e-13 0 0)
(-2.86081014e-13 0 0)
(3.28178377e-13 0 0)
(6.66762375e-14 0 0)
(-2.47447977e-13 0 0)
(-2.76695275e-13 0 0)
(-2.96919943e-13 0 0)
(-2.89949079e-13 0 0)
(-6.20269144e-13 0 0)
(-3.00206102e-13 0 0)
(-3.18160242e-13 0 0)
(-2.74965761e-13 0 0)
(-1.64710717e-14 0 0)
(-9.27249174e-13 0 0)
(-5.0191504e-14 0 0)
(5.9320035e-13 0 0)
(2.85882692e-13 0 0)
(8.33751123e-13 0 0)
(-3.65250545e-13 0 0)
(-6.85767605e-13 0 0)
(-6.97564914e-14 0 0)
(-1.28786632e-12 0 0)
(-3.39408079e-13 0 0)
(-3.34508693e-13 0 0)
(2.73186402e-13 0 0)
(-3.18615976e-13 0 0)
(-3.36172521e-14 0 0)
(-3.32647821e-13 0 0)
(-3.4191867e-13 0 0)
(-3.52189574e-13 0 0)
(-3.05739998e-13 0 0)
(-9.1976847e-13 0 0)
(-2.86831186e-13 0 0)
(-6.25272566e-13 0 0)
(-2.2950756e-14 0 0)
(-9.79001351e-13 0 0)
(-6.79945328e-13 0 0)
(-3.3151138e-13 0 0)
(-8.07750446e-14 0 0)
(-6.52620464e-13 0 0)
(-1.83315701e-14 0 0)
(2.84975983e-13 0 0)
(3.36924242e-14 0 0)
(1.09213814e-14 0 0)
(-3.20396985e-13 0 0)
(-6.02212231e-13 0 0)
(-2.85989743e-13 0 0)
(-6.14790389e-13 0 0)
(3.37022705e-15 0 0)
(-3.28709405e-13 0 0)
(2.83249864e-13 0 0)
(3.16894184e-14 0 0)
(3.09651025e-13 0 0)
(3.28850752e-13 0 0)
(6.34333695e-13 0 0)
(6.6821263e-13 0 0)
(6.49723238e-13 0 0)
(1.35765245e-12 0 0)
(9.94305176e-13 0 0)
(7.28054241e-13 0 0)
(3.69424546e-13 0 0)
(3.73479216e-13 0 0)
(3.95168809e-13 0 0)
(3.24688227e-13 0 0)
(-2.22027466e-13 0 0)
(6.53230618e-13 0 0)
(6.53241295e-14 0 0)
(-5.27362532e-13 0 0)
(1.41205951e-14 0 0)
(-2.95466189e-13 0 0)
(2.44090911e-15 0 0)
(1.13236166e-14 0 0)
(3.42371828e-13 0 0)
(3.0948328e-13 0 0)
(-5.9260541e-13 0 0)
(3.3988332e-13 0 0)
(1.3474924e-14 0 0)
(-3.0747918e-13 0 0)
(6.728491e-15 0 0)
(2.48254457e-13 0 0)
(5.82704905e-13 0 0)
(-6.77516278e-14 0 0)
(2.37258526e-13 0 0)
(5.68793235e-13 0 0)
(2.75876292e-13 0 0)
(2.99589641e-13 0 0)
(5.7845252e-13 0 0)
(-1.73860346e-15 0 0)
(6.15578132e-13 0 0)
(5.98924893e-13 0 0)
(4.77051977e-15 0 0)
(5.9926975e-14 0 0)
(2.94858858e-13 0 0)
(6.51844854e-15 0 0)
(2.98085339e-14 0 0)
(-3.29291839e-13 0 0)
(-1.44376884e-14 0 0)
(-2.79754676e-13 0 0)
(-3.12411254e-13 0 0)
(-2.82852721e-13 0 0)
(-3.27397417e-13 0 0)
(6.31377968e-13 0 0)
(3.0468999e-13 0 0)
(-9.44107193e-13 0 0)
(-1.39489953e-14 0 0)
(-6.68824916e-13 0 0)
(-3.39660714e-13 0 0)
(-5.43778317e-14 0 0)
(-6.01164092e-14 0 0)
(-3.30026876e-13 0 0)
(-6.33317319e-13 0 0)
(-3.36224824e-13 0 0)
(-6.77989622e-14 0 0)
(-2.82908197e-13 0 0)
(-6.42236889e-13 0 0)
(-6.76174821e-13 0 0)
(-1.56661781e-12 0 0)
(-6.73644516e-13 0 0)
(-7.00916221e-13 0 0)
(-5.66010448e-13 0 0)
(-5.02941298e-14 0 0)
(-2.52096549e-14 0 0)
(-6.58239751e-13 0 0)
(-9.82149e-14 0 0)
(-3.33194008e-13 0 0)
(-3.60265944e-13 0 0)
(-4.42787266e-16 0 0)
(6.32246287e-13 0 0)
(3.06170032e-13 0 0)
(9.5349496e-13 0 0)
(2.7682927e-13 0 0)
(3.06366708e-13 0 0)
(2.92734862e-13 0 0)
(1.26131195e-12 0 0)
(3.43395394e-13 0 0)
(9.43828596e-13 0 0)
(9.17062021e-13 0 0)
(2.98038604e-13 0 0)
(-2.09576305e-14 0 0)
(-1.45544245e-14 0 0)
(-6.39704601e-13 0 0)
(1.56215002e-14 0 0)
(3.22327796e-14 0 0)
(6.29895674e-13 0 0)
(-2.47545955e-13 0 0)
(5.96624039e-14 0 0)
(-5.71175334e-13 0 0)
(-2.79833284e-13 0 0)
(9.22400265e-14 0 0)
(-8.86881741e-13 0 0)
(-2.62672404e-13 0 0)
(1.22999173e-13 0 0)
(-3.28273133e-13 0 0)
(3.50809848e-13 0 0)
(6.23290482e-13 0 0)
(3.29855558e-13 0 0)
(3.46487418e-13 0 0)
(7.37402307e-13 0 0)
(3.4145676e-13 0 0)
(7.60852898e-14 0 0)
(-2.40981597e-13 0 0)
(-3.14074085e-13 0 0)
(-5.88430926e-13 0 0)
(-3.15309907e-13 0 0)
(-3.10450873e-13 0 0)
(-3.19679135e-13 0 0)
(-6.49454217e-13 0 0)
(2.41657301e-13 0 0)
(-3.61655114e-13 0 0)
(-6.69658226e-13 0 0)
(-3.37967134e-13 0 0)
(5.74318166e-13 0 0)
(-3.16011423e-13 0 0)
(-3.09103479e-13 0 0)
(-4.80297512e-14 0 0)
(-3.58106402e-13 0 0)
(-7.6883855e-16 0 0)
(-9.03054137e-16 0 0)
(-3.65715504e-13 0 0)
(-6.51060656e-13 0 0)
(-8.85355854e-14 0 0)
(-9.77618233e-13 0 0)
(-9.29667883e-13 0 0)
(-9.09673113e-13 0 0)
(-6.0665771e-13 0 0)
(-1.27131302e-12 0 0)
(-6.04473294e-13 0 0)
(-9.46128405e-13 0 0)
(-6.93299335e-13 0 0)
(-3.43389742e-13 0 0)
(-6.8241836e-13 0 0)
(-6.71895228e-14 0 0)
(-7.04627241e-13 0 0)
(-3.30746304e-13 0 0)
(-3.33743976e-13 0 0)
(-3.44043072e-13 0 0)
(-2.1286107e-15 0 0)
(-5.25146809e-14 0 0)
(2.84266581e-13 0 0)
(2.61626632e-13 0 0)
(-4.98968849e-14 0 0)
(2.73449494e-13 0 0)
(-4.3614786e-14 0 0)
(2.92208684e-13 0 0)
(2.88633882e-13 0 0)
(2.71745495e-13 0 0)
(1.19825052e-14 0 0)
(-3.37304837e-13 0 0)
(-3.53220283e-13 0 0)
(2.59867425e-13 0 0)
(-5.7689045e-14 0 0)
(-6.60641784e-13 0 0)
(-3.1078998e-14 0 0)
(-3.22716285e-13 0 0)
(2.73669303e-13 0 0)
(-6.15695004e-13 0 0)
(-2.09525436e-14 0 0)
(-3.194007e-13 0 0)
(-3.11109329e-13 0 0)
(-2.46791286e-14 0 0)
(-3.26164385e-13 0 0)
(-2.15287353e-14 0 0)
(2.38734986e-13 0 0)
(-3.1625869e-13 0 0)
(-6.91491337e-13 0 0)
(-1.00868147e-14 0 0)
(-6.24520975e-13 0 0)
(2.76065277e-13 0 0)
(-5.68930887e-13 0 0)
(4.61328117e-14 0 0)
(3.53198459e-13 0 0)
(3.97574157e-13 0 0)
(3.01959556e-14 0 0)
(4.05503357e-13 0 0)
(6.5233868e-13 0 0)
(4.07808048e-13 0 0)
(6.58793441e-13 0 0)
(9.52593195e-13 0 0)
(1.26085621e-12 0 0)
(1.26723409e-12 0 0)
(6.61695112e-13 0 0)
(9.49314135e-13 0 0)
(1.31567813e-12 0 0)
(9.44498222e-13 0 0)
(9.73042654e-13 0 0)
(9.48611911e-13 0 0)
(6.56934912e-13 0 0)
(3.23276568e-13 0 0)
(-2.2818809e-13 0 0)
(6.3992511e-13 0 0)
(4.23374333e-14 0 0)
(-2.82300652e-13 0 0)
(2.59361958e-14 0 0)
(3.25597889e-13 0 0)
(3.61979618e-13 0 0)
(3.49610695e-13 0 0)
(-2.51316314e-13 0 0)
(4.81501957e-14 0 0)
(1.0231883e-14 0 0)
(3.15300339e-13 0 0)
(3.67783574e-15 0 0)
(-2.84388643e-13 0 0)
(-1.27581852e-14 0 0)
(-6.03271344e-13 0 0)
(-9.39060615e-13 0 0)
(-6.71177276e-13 0 0)
(-9.68956825e-13 0 0)
(-9.77976053e-13 0 0)
(-1.30105063e-12 0 0)
(-7.00520022e-13 0 0)
(-9.80202378e-13 0 0)
(-1.02192246e-12 0 0)
(-6.41418402e-13 0 0)
(-3.36085897e-14 0 0)
(-3.21978389e-13 0 0)
(-3.36361851e-14 0 0)
(-1.44481547e-14 0 0)
(-3.54578425e-13 0 0)
(-4.14129591e-14 0 0)
(2.40912053e-14 0 0)
(2.61871247e-13 0 0)
(3.11192232e-13 0 0)
(-3.15121103e-14 0 0)
(2.83200767e-13 0 0)
(5.6895905e-13 0 0)
(5.80246627e-13 0 0)
(-4.76605011e-14 0 0)
(2.71265296e-13 0 0)
(-3.50391939e-14 0 0)
(-3.33337486e-13 0 0)
(-3.76537645e-13 0 0)
(-3.31706273e-13 0 0)
(-3.50205947e-13 0 0)
(-6.19528585e-13 0 0)
(-4.43870183e-14 0 0)
(-3.40745587e-13 0 0)
(-3.59681205e-13 0 0)
(-3.64814984e-13 0 0)
(-4.98470807e-14 0 0)
(-6.58230124e-13 0 0)
(-5.81339902e-13 0 0)
(-3.25492779e-13 0 0)
(-2.7788479e-13 0 0)
(-2.91947255e-13 0 0)
(-5.80956433e-13 0 0)
(-6.46445313e-13 0 0)
(-2.87036468e-13 0 0)
(-5.98910377e-13 0 0)
(5.55196183e-14 0 0)
(-2.95400061e-13 0 0)
(2.13400607e-14 0 0)
(-3.04310731e-13 0 0)
(-2.84689464e-13 0 0)
(5.33636635e-15 0 0)
(2.14611635e-14 0 0)
(2.87438806e-13 0 0)
(-2.84221076e-13 0 0)
(-2.37102195e-15 0 0)
(6.2528194e-13 0 0)
(6.41274242e-14 0 0)
(2.7073314e-14 0 0)
(3.28676526e-14 0 0)
(1.02472909e-14 0 0)
(1.97637688e-15 0 0)
(5.07745464e-16 0 0)
(-1.91578718e-14 0 0)
(3.06246417e-14 0 0)
(9.18343173e-13 0 0)
(5.91278321e-13 0 0)
(2.96969529e-13 0 0)
(5.60462201e-13 0 0)
(-5.09970946e-15 0 0)
(8.92499513e-13 0 0)
(6.59752818e-13 0 0)
(6.32589997e-13 0 0)
(9.66948079e-13 0 0)
(6.96244376e-13 0 0)
(3.42112184e-13 0 0)
(3.59601209e-13 0 0)
(6.82908254e-13 0 0)
(3.43180304e-13 0 0)