/*--------------------------------*- C++ -*----------------------------------*\
| =========                 |                                                 |
| \\      /  F ield         | OpenFOAM: The Open Source CFD Toolbox           |
|  \\    /   O peration     | Version:  2206                                  |
|   \\  /    A nd           | Website:  www.openfoam.com                      |
|    \\/     M anipulation  |                                                 |
\*---------------------------------------------------------------------------*/
FoamFile
{
    version     2.0;
    format      ascii;
    arch        "LSB;label=32;scalar=64";
    class       surfaceScalarField;
    location    "1.2e-06";
    object      phi;
}
// * * * * * * * * * * * * * * * * * * * * * * * * * * * * * * * * * * * * * //

dimensions      [1 0 -1 0 0 0 0];

oriented        oriented;

internalField   nonuniform List<scalar> 
3182
(
1.35515943e-19
-1.21962e-19
8.1298646e-20
-1.76165424e-19
-2.80548355e-24
-2.12099896e-25
-1.52596782e-26
-7.97438032e-32
1.24270429e-30
9.6378036e-26
1.33411878e-24
2.19271345e-23
5.41986858e-19
-1.62617731e-19
-4.60693331e-19
-3.20253083e-24
4.33564554e-19
-4.8785518e-19
-5.42033859e-19
7.04536674e-19
2.57781774e-23
3.45988124e-24
2.64112814e-25
9.66075144e-25
1.27058762e-23
1.1871832e-22
1.24579327e-18
-1.08371256e-18
-3.25202663e-19
2.70624498e-19
-7.5825919e-19
8.12629877e-19
2.99544758e-23
-6.50055331e-19
3.2515611e-19
3.24999573e-19
-3.25200693e-19
-3.2504711e-19
3.25117166e-19
-1.5175306e-22
-1.0855081e-19
-9.741685e-19
1.19113356e-18
2.18601276e-19
3.24835424e-19
1.08391049e-19
1.0860365e-19
-1.08863942e-19
-5.41808063e-19
-1.08801136e-19
-3.26555777e-19
-1.51476802e-18
-1.08020678e-19
8.65130961e-19
8.67468196e-19
2.17406328e-19
2.17556626e-19
6.49912122e-19
2.17334687e-19
-2.16189538e-19
-4.34024158e-19
-6.53000211e-19
-6.50120411e-19
-6.51455917e-19
-8.62435906e-19
6.29582874e-22
8.67565718e-19
8.66715669e-19
2.69867299e-21
1.29874973e-18
4.32940765e-19
4.22605178e-21
4.29318665e-19
-8.73738193e-19
-8.66543001e-19
-8.62433285e-19
1.30616254e-18
1.74831443e-18
2.18680224e-18
2.64093819e-18
3.49242161e-18
4.36145602e-18
3.48187927e-18
3.53191597e-18
3.46430501e-18
2.59247421e-18
2.59423241e-18
3.48094892e-18
2.59437029e-18
8.58006813e-19
-7.86714746e-19
1.00241016e-18
1.65219788e-19
1.86317178e-20
-9.62877205e-19
-1.78064321e-18
3.13533401e-19
8.72891551e-20
1.63569658e-18
3.35802574e-18
3.53583408e-18
3.73159307e-18
1.61003782e-18
3.13398979e-18
4.97660313e-18
5.11564259e-18
4.87365295e-18
1.54824436e-18
2.06752509e-18
3.4146151e-19
3.41565082e-18
2.19594111e-18
2.81713517e-18
9.52414898e-19
3.01237092e-18
4.9982233e-18
3.41712139e-18
1.5601819e-18
-1.93810966e-18
-1.55629671e-18
-3.40645491e-19
1.23792926e-18
-1.43267531e-19
-1.57450745e-18
-5.87277507e-19
-2.05796549e-18
-3.8610372e-18
-6.73935419e-18
-8.62279632e-18
-8.434976e-18
-1.04395798e-17
-1.05306425e-17
-1.04791091e-17
-8.41852914e-18
-5.43975865e-18
-6.60170001e-18
-3.05746268e-18
-1.69522871e-18
-1.64412543e-19
3.44473365e-18
4.68278774e-18
2.65866412e-18
3.33870652e-18
2.00133855e-18
1.76999657e-18
1.8920875e-18
-1.35238293e-18
-2.66997555e-19
2.67249496e-20
-1.28475093e-18
-1.2566758e-18
1.37146397e-19
1.93227471e-18
9.0283898e-19
4.10953536e-18
2.20858538e-18
1.49247238e-18
1.23348088e-18
1.11121908e-18
1.10673453e-18
-2.52065468e-18
-7.2484742e-19
-4.99450056e-19
-4.26280826e-19
-4.36994705e-19
3.4693552e-19
-1.59337408e-18
-3.08358887e-18
-1.82788696e-18
-5.66437327e-18
-4.01610201e-18
-4.1636237e-18
-2.52193837e-18
-6.557072e-19
-3.46996801e-18
-2.2887392e-18
-2.13342736e-18
-3.58081827e-18
-1.92899079e-18
-1.60105996e-21
-1.75218833e-18
3.61779302e-20
-1.66970668e-18
-3.81696791e-18
-5.08921006e-18
-5.15946829e-18
-6.5905607e-18
-8.30378131e-18
-4.23303918e-18
-2.60037632e-18
-2.89797162e-18
-3.35391792e-18
-3.88865442e-18
-1.77529883e-18
-5.38340141e-18
-5.64277297e-18
-4.84597694e-18
-4.97174725e-18
-6.82927806e-18
-7.30099316e-18
-8.5217381e-18
-4.49279633e-18
-3.13335629e-18
1.62836211e-19
1.96870188e-18
1.68094715e-18
5.246806e-18
1.51384808e-18
3.56147801e-18
3.39254109e-18
1.44768112e-18
2.86537665e-19
5.16681863e-18
3.74681904e-18
6.57537347e-18
4.7406998e-18
3.49238381e-18
3.218189e-18
5.06320652e-18
6.90983528e-18
6.65263584e-18
8.31456495e-18
5.45006963e-18
6.66541741e-18
5.24897094e-18
5.4782445e-18
5.60817198e-18
4.24097996e-18
4.18896605e-18
6.93807659e-18
7.26044829e-18
6.55531267e-18
2.9784589e-18
4.30168398e-18
1.76599712e-18
1.99328747e-18
2.217571e-18
5.59589183e-19
2.66749575e-18
2.80942873e-18
5.73730973e-18
7.53570304e-18
5.22356657e-18
6.81401415e-18
6.56914902e-18
3.64295589e-18
5.05885048e-18
3.19889273e-18
6.55430213e-18
3.25022186e-18
3.53964789e-18
3.41826637e-18
3.15216422e-18
1.15627706e-19
1.0544664e-19
-1.3025238e-18
2.19379991e-19
1.62606493e-18
1.41558063e-18
-2.257932e-18
8.84505841e-19
1.28156016e-18
-2.07690401e-19
-1.87039312e-18
-1.42081265e-18
-3.09656008e-18
-8.9465331e-19
5.09887771e-19
-1.10273962e-18
-1.26788526e-18
1.67927969e-18
2.89689816e-20
2.64806345e-19
1.21832091e-19
3.07490288e-19
-1.47627945e-18
-3.87454061e-19
-2.07123418e-18
1.60738871e-18
1.60213512e-18
-1.69363505e-18
-2.0247075e-18
-2.23257927e-18
-3.95097725e-18
-4.35358186e-18
-5.44429991e-18
-5.50251395e-18
-3.47124246e-18
-5.08438419e-18
-1.59182407e-18
-5.06653035e-18
-5.63617334e-18
-9.08038759e-18
-1.0669962e-17
-1.04603587e-17
-8.68603176e-18
-9.26229006e-18
-9.6839777e-18
-6.96923619e-18
-7.61610055e-18
-5.83154322e-18
-7.06346102e-18
-7.63445511e-18
-9.21265339e-18
-9.67475507e-18
-9.61527775e-18
-9.41837521e-18
-7.96994905e-18
-8.16260736e-18
-6.02194796e-18
-9.2659897e-18
-1.07583878e-17
-1.26999333e-17
-9.01196599e-18
-1.30726248e-17
-1.10305012e-17
-1.3589554e-17
-1.39049335e-17
-1.05878473e-17
-1.23132118e-17
-1.15696043e-17
-1.13193912e-17
-1.11202399e-17
-9.80537574e-18
-9.07701739e-18
-9.43215588e-18
-6.13723179e-18
-3.91600501e-18
-6.71092574e-18
-3.37063405e-18
-4.17904277e-18
-5.26900671e-18
-3.58748997e-18
-5.09461271e-18
-1.8163341e-18
-3.57131362e-18
-1.673027e-18
-1.87818054e-18
-3.8637184e-18
-2.49167198e-18
-2.45459417e-18
-3.75849407e-18
-2.85255622e-18
-4.20906938e-18
-6.11143522e-18
-6.11410247e-18
-4.7257011e-18
-5.38189328e-18
-5.1226311e-18
-5.85979383e-18
-3.33649698e-18
-3.00420462e-18
-1.69392217e-18
-2.08955376e-18
-5.82021858e-19
-3.68156163e-18
-1.80995732e-18
-4.33364399e-18
-5.71499611e-18
-4.30266971e-18
-3.39376254e-18
-3.25520076e-18
-3.22943847e-18
-3.17355394e-18
-2.58022573e-18
-3.56792114e-18
-2.30814498e-18
-1.63898609e-18
-2.01762815e-19
1.56715055e-18
1.83660543e-18
1.74206129e-18
1.44506534e-18
-4.35158063e-19
-6.61090022e-19
-3.60789978e-18
-1.95417826e-18
-5.2484221e-18
2.44991e-19
3.29168432e-19
-1.49877595e-18
-3.72733511e-18
-1.89890042e-18
-5.3616368e-18
-5.81737556e-18
-4.86330077e-18
-4.92893956e-18
-3.60475164e-18
-3.98243784e-18
-7.18332826e-18
-3.76395625e-18
-2.35986617e-18
-6.4288845e-19
-3.80035211e-18
-2.76513118e-19
-2.05330219e-18
-7.18646026e-18
-2.55910048e-18
-3.08775478e-18
-4.61076002e-18
-9.65807057e-18
-3.66426446e-18
-4.74719269e-18
-9.55874318e-19
8.73329216e-20
-3.74409771e-18
-5.09633316e-18
-3.27536867e-18
-3.71525177e-18
-2.00861127e-18
-1.79966763e-19
-1.52798529e-18
-7.00645338e-18
-2.95971693e-20
-1.48568622e-18
-1.59448505e-18
-2.02144618e-18
1.07637021e-18
1.35931685e-18
3.13655167e-18
3.64214896e-19
2.07996495e-18
5.16048916e-18
5.18972124e-18
6.08100979e-18
2.5780117e-18
3.80433991e-18
-5.05516493e-19
3.23017662e-18
3.24722566e-18
1.64184063e-18
3.06514989e-19
1.92601825e-18
4.62262325e-18
1.73222963e-18
3.20974125e-18
1.10048817e-18
4.68027236e-18
1.23931678e-18
1.13416469e-18
1.32001006e-18
-1.95788906e-18
-6.80707367e-19
-8.54635847e-19
9.51484539e-19
-2.79592072e-19
8.70341076e-19
-1.10205718e-18
-3.00430857e-18
-2.11265407e-18
-1.84052501e-18
-3.58573741e-18
-1.43989864e-18
2.97544016e-19
6.81878628e-19
-3.13073439e-18
-1.68441628e-18
-1.12494622e-18
-1.44696081e-18
-3.55817767e-18
-5.41086341e-18
-3.00450162e-18
-8.99529922e-19
-5.21923037e-18
-1.68376998e-18
1.56397511e-19
1.98807434e-18
2.03101171e-19
1.17524787e-19
1.60507679e-18
3.37310881e-18
1.55970508e-18
4.21411753e-18
6.80439064e-18
7.26255905e-18
7.13994369e-18
5.55442621e-18
4.02820872e-18
3.72400577e-18
2.50406575e-18
3.613344e-18
5.3344722e-18
3.64213412e-18
5.04162334e-18
6.29793204e-18
7.79279483e-18
4.67317699e-18
5.43391161e-18
3.64253446e-18
3.13069138e-19
1.82811081e-18
-1.7017794e-18
-1.40201969e-18
-3.48617743e-18
-1.95902302e-18
-1.34551221e-18
1.26920422e-21
-3.76668749e-19
-5.55250449e-19
3.9557143e-19
-1.12529328e-18
2.12075824e-18
9.20081137e-19
1.40112541e-18
-2.70342178e-19
-1.89654792e-18
-2.9641431e-18
-4.83202277e-18
-6.43240093e-18
-6.84633249e-18
-9.14590397e-18
-1.19645398e-17
-1.00085319e-17
-8.66747422e-18
-7.37306353e-18
-8.9427815e-18
-3.93956702e-18
-5.47211386e-18
-3.43658669e-18
-2.9818811e-18
-3.46029275e-18
1.17685638e-18
-3.25450294e-18
-4.40534875e-18
4.75702276e-19
3.86736823e-18
7.19040608e-18
8.35821695e-18
4.84441953e-18
1.6794252e-18
3.03602842e-18
4.61678692e-18
-2.46248527e-19
1.52729293e-18
1.19891687e-18
-6.83711348e-19
-1.86757618e-18
-5.19212916e-18
-5.38700728e-18
-1.84382021e-18
-3.26557702e-18
-3.56289244e-18
-2.11404826e-18
-3.19527774e-18
-5.17934167e-18
-3.18583312e-18
-4.87313555e-18
-1.43731493e-18
-1.43550068e-18
-1.48286358e-18
-2.99803391e-18
-5.80100641e-18
-5.59115406e-18
-7.2575833e-18
-7.35207894e-18
-4.22966903e-18
-5.48592281e-18
-5.22843381e-18
-5.33910365e-18
-5.72070246e-18
-7.22423921e-18
-5.42116287e-18
-2.19020055e-18
-2.57672981e-19
-1.33716677e-18
-1.1908099e-18
-1.68423579e-18
4.04979101e-19
3.26601914e-18
2.28146559e-18
4.03871654e-18
7.04573546e-18
8.85426257e-18
9.12587487e-18
7.25113771e-18
5.10300024e-18
7.1621756e-18
5.71038125e-18
3.79466e-18
3.64515889e-18
3.50170865e-18
6.62039318e-18
5.18077352e-18
2.46494105e-18
5.75519155e-18
2.83272921e-18
7.62363035e-18
5.29558308e-18
5.25684814e-18
6.61771691e-18
5.34127931e-18
5.19743071e-18
2.16985493e-18
2.47565786e-18
9.29639618e-19
3.47787809e-18
4.75958226e-18
6.68502261e-18
1.10801811e-17
1.0508629e-17
8.52484646e-18
9.98714138e-18
7.01841339e-18
6.90336926e-18
7.15445625e-18
7.40424209e-18
8.74523094e-18
6.17214437e-18
7.78884364e-18
6.17679511e-18
6.40673275e-18
2.59255441e-18
2.0502453e-18
3.52282954e-18
1.652916e-18
3.66102655e-18
-9.70511097e-20
3.9207874e-19
2.34725672e-18
3.01442082e-19
3.91820948e-19
-3.4791384e-18
-3.7556991e-18
-5.19368859e-18
-4.91308636e-18
-5.14138932e-18
-3.90984646e-18
-4.22871444e-18
-4.39263662e-18
-4.76113137e-18
-5.04371098e-18
-5.40630081e-18
-1.98582272e-18
-3.69033607e-18
-2.26738118e-18
-2.42047363e-18
-3.73959021e-18
-3.81395756e-18
-1.90298331e-18
-1.67302916e-18
-2.33977637e-19
-1.47083536e-18
-7.25654599e-19
-1.29529717e-18
-1.24770707e-18
-1.26197994e-18
-1.87181147e-18
-1.83160556e-18
-2.10834466e-18
-9.16318738e-19
-2.60846536e-19
-1.73584123e-18
-5.03291217e-19
-4.82701885e-18
-6.18559664e-18
-4.77895256e-18
-1.65527735e-18
-5.33240544e-18
-5.2554064e-18
-2.42999509e-18
-7.85355027e-19
-2.56574319e-18
-9.64842821e-19
-1.78615855e-18
-1.86891629e-18
1.46394926e-18
-4.72700614e-21
1.74192071e-18
-1.72456296e-18
-2.13863434e-19
1.78770866e-19
1.43234822e-18
1.43889522e-18
1.5906766e-19
-1.43184343e-18
-9.05564323e-19
-1.24076672e-18
-2.15267599e-18
1.89890205e-19
1.36478593e-18
-1.46981821e-19
-6.6469233e-19
1.76102426e-18
2.81741302e-18
1.0603494e-18
3.25390902e-18
2.87568171e-18
1.41239827e-18
1.56970428e-18
4.71962974e-18
3.07959651e-18
1.79889471e-18
3.82002038e-19
2.19090171e-18
7.67115989e-19
2.53802228e-18
1.99884654e-18
3.71211318e-18
3.84772357e-18
7.27404811e-18
9.49837942e-18
7.58069721e-18
7.45719442e-18
5.56601358e-18
6.38901909e-18
7.54482531e-18
7.39616655e-18
9.14008631e-18
5.71789511e-18
7.73705236e-18
9.10583306e-18
7.42662761e-18
3.90103024e-18
8.72135775e-18
7.24317386e-18
6.63253885e-18
6.43117987e-18
7.86908297e-18
7.19006584e-18
5.04465625e-18
5.27159388e-18
4.9215515e-18
6.74202179e-18
5.59702532e-18
2.49775296e-18
7.28660945e-19
-1.09729634e-18
4.38294216e-19
2.4342499e-18
-8.98571219e-20
5.60303026e-18
5.05100007e-18
2.49263377e-18
-1.11837006e-18
1.65309093e-18
4.84305075e-19
2.06077081e-18
-1.17784872e-18
4.48651447e-19
4.09399045e-19
4.90142492e-19
1.95794809e-18
3.50580184e-18
3.45914454e-18
3.07727106e-18
1.66574e-18
2.86250156e-18
2.42487379e-18
-3.70343127e-19
-3.31810285e-19
4.10793914e-22
1.32028555e-18
1.51419727e-18
3.62079489e-18
5.05318899e-18
4.70308849e-18
3.12748571e-18
3.31545051e-18
1.35465272e-18
1.11422713e-18
1.40981834e-18
1.45710584e-18
2.18434372e-18
-1.23786675e-19
1.53272455e-19
3.2843807e-18
7.10327812e-19
3.46171909e-20
2.54275139e-19
5.84633383e-19
1.67600196e-18
3.79277134e-18
3.56252127e-18
2.25536782e-18
7.75549124e-19
4.15971104e-19
2.33982113e-18
1.69762398e-18
-1.43730973e-18
-3.67133102e-18
-3.32934825e-19
-1.15920451e-18
-5.55227812e-19
-1.34356113e-19
1.94676888e-18
-2.26326412e-18
5.41317953e-19
3.66184242e-18
-8.47293749e-19
1.90169511e-18
1.74297123e-18
1.42338785e-19
2.1990312e-18
6.02561362e-19
5.44613021e-18
3.52138197e-18
1.50137201e-18
-1.67966589e-18
3.30220146e-18
4.46664602e-19
1.80924215e-18
3.5237873e-18
1.52195144e-18
1.9500944e-18
5.44739281e-18
3.14092458e-19
3.54317125e-18
3.78712438e-18
4.91888962e-18
1.43735132e-18
-1.83656302e-18
9.05484654e-19
1.27905299e-18
2.7086426e-18
2.67528967e-18
-2.16160801e-18
-5.31087679e-18
-8.41677441e-18
-5.18845587e-18
-3.64471419e-18
-3.09875533e-18
-3.3050717e-18
-5.38410096e-18
-5.09765827e-18
-3.68536066e-18
-5.59498584e-18
-5.29381292e-18
-7.19404066e-18
-7.40586674e-18
-7.72324298e-18
-7.37965748e-18
-7.36941809e-18
-1.10035389e-17
-1.09775161e-17
-8.41789368e-18
-1.05352013e-17
-7.30847206e-18
-7.3613493e-18
-4.38855818e-18
-4.18098156e-18
-2.19894486e-18
-2.45451361e-18
-5.82290616e-18
-4.01053187e-18
-5.30750413e-18
-3.10481715e-18
-3.73770991e-18
-3.65958435e-18
-4.96135907e-18
-3.52171024e-18
5.33503428e-19
-2.40446792e-18
-3.00546136e-18
-1.34400906e-18
7.36185221e-20
-7.59070131e-20
-2.20154975e-18
-8.19018193e-19
-3.09885839e-19
-9.72978519e-19
1.16913577e-18
3.60720101e-18
-5.1060401e-19
-4.0772081e-19
9.30659706e-19
-7.12816794e-19
-1.97152806e-18
-2.89693089e-19
1.93466001e-18
2.8563514e-19
1.92760619e-18
-1.03345369e-18
7.86161818e-19
1.44545734e-18
3.59469374e-18
1.23557605e-18
2.77600363e-18
4.98738955e-18
6.60708474e-18
5.7499117e-18
5.27907531e-18
7.813461e-18
4.74977244e-18
4.95531529e-18
4.37479685e-18
2.50134704e-18
5.14294162e-18
3.28464013e-18
3.22955374e-18
-3.26229481e-19
-2.11080541e-19
3.90590059e-19
3.26364616e-19
3.39820603e-19
7.54322961e-19
8.31786759e-19
4.05259332e-18
4.97458328e-19
-1.15506948e-18
-1.11316343e-19
-4.70253655e-18
-3.05144123e-18
2.40621443e-19
-1.25126247e-18
-4.16453292e-20
-1.16748206e-18
-1.33970171e-18
3.10580986e-19
-2.21673228e-18
-6.47666841e-19
-1.65509411e-18
-2.00473898e-18
2.72615483e-18
3.13483475e-18
1.20530213e-18
1.48717309e-18
1.57322947e-18
9.67169623e-19
3.00925742e-18
1.23100126e-18
-6.32236746e-20
1.67862828e-18
1.43478901e-19
1.24977923e-19
1.75605383e-18
3.72025772e-18
1.30209974e-18
1.64136438e-19
3.079544e-18
1.14963663e-18
3.19779702e-18
1.30862738e-19
-1.79502533e-18
-1.44915923e-20
-3.54386547e-18
-6.78064435e-18
-3.57075188e-18
-5.07850249e-18
-3.82723804e-18
-3.30679762e-18
-3.30359928e-18
-2.19551369e-18
-8.29693453e-19
-5.02303621e-18
-3.28977439e-18
-3.51371467e-18
-3.2756754e-18
-3.36422291e-18
-1.40599545e-18
-1.47085095e-18
3.89879009e-20
-1.84800889e-18
-3.42560325e-18
-3.55767175e-18
-7.44067096e-20
3.35782174e-19
-1.54063209e-18
-3.34978337e-18
-3.1759759e-18
-3.53947654e-18
2.66498112e-19
2.63521726e-19
3.50705048e-18
3.54068918e-18
3.50587216e-18
3.57661454e-18
1.53989144e-18
1.82910007e-18
-2.30456604e-19
-1.61587158e-18
1.96688649e-18
1.99888291e-18
2.10496293e-18
2.3313694e-18
2.53810529e-18
4.07972981e-18
2.89210895e-18
5.7991096e-18
4.39835207e-18
6.14468368e-18
7.77111474e-18
7.6838003e-18
9.24504285e-18
9.1063177e-18
8.73000281e-18
5.94566284e-18
7.2733848e-18
8.89066493e-18
1.09145332e-17
1.12650784e-17
1.16355608e-17
1.11207956e-17
1.28777747e-17
9.36271545e-18
1.05028932e-17
1.03756804e-17
9.38074641e-18
8.05650619e-18
1.01879902e-17
9.7132566e-18
1.42893436e-17
8.38672653e-18
9.72678763e-18
1.24659527e-17
1.27424939e-17
1.27085217e-17
1.42016085e-17
1.40002888e-17
1.38939154e-17
1.1535758e-17
1.0149462e-17
1.12418504e-17
8.19215826e-18
8.34547249e-18
8.00774843e-18
5.59091667e-18
8.57105692e-18
5.65749131e-18
4.18546423e-18
4.89314311e-18
4.24253263e-18
3.85308722e-18
4.66665889e-18
2.9589581e-18
5.99265506e-18
3.91132783e-18
5.76310844e-18
2.61279004e-18
1.59650379e-18
3.56660252e-18
-9.08102252e-20
-3.60344985e-18
-4.98019529e-19
-2.98269141e-18
-3.94434014e-18
-6.27099716e-18
-6.91365683e-18
-7.56201792e-18
-1.28949657e-17
-1.57960245e-17
-1.71775041e-17
-1.35948231e-17
-1.21378886e-17
-7.29643794e-18
-8.9503673e-18
-7.03087835e-18
-3.26316247e-18
-6.43579555e-18
-6.99013939e-18
-8.8126123e-18
-8.51071715e-18
-7.02744707e-18
-5.45325075e-18
-2.47168234e-18
-5.79133026e-18
-4.30725019e-18
-7.85575887e-18
-5.47486488e-18
-6.70976816e-18
-1.87489938e-18
1.05070366e-19
3.65902101e-18
1.94688656e-18
5.15659026e-18
5.0942687e-18
5.30051334e-18
3.64531334e-18
6.77790568e-18
4.8494353e-18
1.45314946e-18
3.57041461e-18
3.51764002e-18
5.04196414e-18
7.12506852e-18
6.98686351e-18
5.699328e-18
8.74784114e-18
7.20219424e-18
7.35785688e-18
1.26761471e-17
7.9622339e-18
1.15392059e-17
8.11946525e-18
6.71455902e-18
6.39720815e-18
7.23533883e-18
6.95809323e-18
7.85615142e-18
7.90105306e-18
9.0983265e-18
7.73968657e-18
5.95783084e-18
3.23272346e-18
1.22186322e-18
4.05708498e-18
4.12886262e-18
4.06222771e-18
4.68434546e-18
3.0169015e-18
2.9500363e-18
-3.4758792e-19
6.2455805e-19
2.57107142e-18
-2.12000397e-18
-6.85503256e-19
-2.33426097e-18
-1.72270097e-18
-3.69122324e-18
-4.8881763e-18
-4.51542549e-18
-2.96648771e-18
-3.25595214e-18
-1.76463681e-18
4.71880918e-20
2.25164869e-18
1.71016974e-18
1.07570078e-18
-1.76367342e-18
-1.69572163e-18
-3.05455396e-18
-3.83360889e-18
-1.81167958e-18
-1.73946214e-18
-1.92286663e-18
-1.81931144e-18
-5.65842221e-18
-3.70962162e-18
-4.05769081e-18
-4.11354527e-18
-7.528894e-18
-4.46723873e-18
-4.36062824e-18
-3.45103257e-18
-2.55244609e-18
-5.35783127e-18
-7.5638365e-18
-7.77840795e-18
-5.54421777e-18
-3.22809383e-18
-4.26385439e-18
-3.86070768e-18
-4.03668378e-18
-6.00753252e-18
-5.48945435e-18
-5.05022469e-18
-3.7709882e-18
-2.22564493e-18
-2.68218973e-18
-8.26837548e-19
1.01185471e-19
-1.53489751e-19
-4.83295799e-19
2.08943318e-19
4.65287456e-20
-5.3900386e-19
1.91892796e-18
1.80649776e-18
1.95074041e-18
5.46483163e-18
4.51236212e-18
4.40148573e-18
6.00988949e-18
2.44077996e-18
5.83700623e-18
5.51777882e-18
2.90209349e-18
5.88574256e-18
2.79044115e-18
6.0550465e-18
5.74976945e-18
3.33248366e-19
1.61979605e-18
-2.70040834e-19
4.49241517e-18
6.41168808e-18
3.19797278e-18
1.83379232e-18
-1.22502362e-19
5.60388441e-19
-3.32659502e-18
-3.30311792e-18
-3.80182885e-18
-8.82005998e-18
-7.0481164e-18
-1.03071493e-17
-1.12122707e-17
-1.24222986e-17
-9.9286627e-18
-1.03565254e-17
-7.71519631e-18
-7.23667576e-18
-1.00792608e-17
-4.93847274e-18
-8.72517346e-18
-4.94485257e-18
-6.93354219e-18
-5.61578579e-18
-4.46383371e-18
-7.92904083e-18
-6.33840579e-18
-1.06204564e-17
-6.9673104e-18
-8.03786885e-18
-6.43001024e-18
-1.70308342e-18
-1.95208127e-19
-4.4772441e-18
-4.35657542e-18
-7.65581202e-18
-6.1221483e-18
-9.86219561e-18
-2.99014209e-18
-6.03755272e-18
-5.80776246e-18
-8.0988425e-18
-8.47632938e-18
-6.19002923e-18
-9.69529654e-18
-6.04527379e-18
-8.10064507e-18
-8.3185662e-18
-4.27159102e-18
-4.60482274e-18
-7.81978626e-18
-7.48191901e-18
-7.00337393e-18
-7.34094555e-18
-6.13600943e-18
-6.05811091e-18
-4.05355924e-18
-6.22351301e-18
-2.10453452e-18
-3.89784406e-18
-4.97660296e-18
-6.4911236e-18
-2.91615161e-18
-7.32299477e-19
-2.88212308e-18
9.07371653e-19
-1.27573456e-18
-1.27717392e-19
-2.11958896e-18
-5.52449861e-20
-2.09305979e-18
-3.00663206e-19
-1.93703145e-18
3.65527081e-18
2.45912588e-18
2.2744606e-18
2.50379804e-18
2.49974907e-18
5.34977834e-19
3.91146154e-18
2.1311496e-18
5.07525873e-18
2.90407454e-18
4.43568728e-18
3.41208718e-18
2.09903897e-18
1.48541946e-19
2.22003078e-19
3.14901643e-18
3.11553659e-18
3.37640363e-18
4.99160447e-18
4.82427815e-18
4.04925675e-18
1.72664905e-18
1.24316359e-18
1.36531219e-18
1.09119834e-18
2.98635518e-18
6.75500592e-20
1.51227018e-18
5.05583721e-19
-2.94548171e-18
-7.39843436e-18
-8.87988718e-18
-7.22645509e-18
-1.01287203e-17
-6.80557773e-18
-7.12754469e-18
-9.44718275e-18
-9.67407692e-18
-8.09645022e-18
-6.92092491e-18
-5.22012058e-18
-6.80108377e-18
-5.12166142e-18
-3.61011231e-18
-3.39300197e-18
-3.66803553e-18
-6.99994297e-19
-3.73416321e-18
-2.30841006e-18
-7.16335654e-18
-8.81493103e-18
-6.11244696e-18
-7.84290459e-18
-9.35346689e-18
-1.13452002e-17
-1.15323347e-17
-8.58728152e-18
-5.90179135e-18
-6.31249446e-18
-8.49082321e-18
-9.63486206e-18
-9.01975758e-18
-8.70586946e-18
-1.12144739e-17
-7.84345322e-18
-9.66657893e-18
-6.09064458e-18
-4.74126772e-18
-9.53293913e-18
-8.27675794e-18
-7.14712721e-18
-4.84941185e-18
3.63152194e-19
1.63969346e-18
3.47967172e-18
3.64862958e-18
-7.37334546e-20
-1.85255567e-18
1.42145503e-18
1.63054366e-18
3.5736512e-18
7.1493477e-18
6.9619129e-18
6.55844673e-18
8.31938801e-18
4.29714433e-18
3.16734239e-18
4.88193042e-18
7.22090801e-18
4.24578374e-18
7.52378282e-18
7.19440615e-18
9.49246353e-18
7.198244e-18
6.67123072e-18
5.49481278e-18
5.17637251e-18
1.83718452e-18
2.29361177e-18
3.47041447e-18
1.45685451e-18
4.15683672e-18
6.63508709e-18
5.47217367e-18
6.97372012e-18
5.05211726e-18
5.50013637e-18
5.09946832e-18
6.79873315e-18
2.06209907e-18
3.77532945e-18
1.85902552e-18
2.03122818e-18
2.32964702e-18
3.90655231e-18
4.48529291e-18
3.89664372e-18
7.99205944e-18
8.35231305e-18
7.92916631e-18
1.00955196e-17
7.49425898e-18
5.63651655e-18
6.94720231e-18
6.96447096e-18
6.4175388e-18
3.51264519e-18
4.25930096e-18
7.69947405e-18
8.27351055e-18
9.89831764e-18
8.04662144e-18
8.82650046e-18
6.88404211e-18
5.20156356e-18
8.54927473e-18
1.78590239e-18
2.04903947e-18
1.08017426e-19
2.02200816e-18
3.82938132e-18
2.06453588e-18
4.60126351e-18
3.07925018e-18
2.45937179e-18
8.52754987e-19
4.68367265e-19
1.99881678e-18
-1.48157694e-18
4.88276285e-19
-2.58800421e-18
-2.38936035e-18
-9.67807572e-19
-1.11401335e-18
-1.67341622e-18
-3.38344566e-18
-1.86792194e-18
-3.73479936e-18
-5.42735313e-18
-2.06685555e-18
-3.46849141e-18
-2.29458835e-18
-5.11491347e-18
-1.57367185e-18
-2.11493074e-18
-2.06391531e-18
-4.27324093e-19
-2.11300801e-18
-6.19789989e-19
-6.41016502e-19
-2.02213044e-18
2.79310207e-20
-1.81680058e-18
-1.65880819e-18
-6.54386925e-19
-8.05376868e-19
4.10634203e-18
5.09595875e-19
3.16853069e-18
1.57896901e-21
-3.18800613e-18
-3.66404081e-18
-3.66970423e-18
-2.30140875e-18
-1.21026236e-18
-2.234265e-18
-4.09098348e-18
-3.17683674e-18
-4.56735374e-18
-3.55051541e-19
-1.3454426e-18
-1.67502299e-18
3.22285786e-19
-1.12211412e-18
-1.19223433e-18
2.3245928e-19
1.22432094e-18
1.90733988e-18
1.42800084e-18
-1.626729e-18
-2.13210478e-18
-1.97107703e-18
-2.1087381e-18
-1.00847662e-18
-1.02172258e-18
1.34124424e-18
-3.93048761e-18
-2.24497666e-18
-1.80519881e-18
-2.46001786e-18
-1.74797436e-18
-1.22848236e-18
-2.51990667e-18
4.49020144e-19
2.12408272e-18
2.93394238e-19
-1.68547325e-19
1.01311761e-18
1.24506858e-18
1.43859294e-18
1.15472837e-18
-3.96802504e-19
-1.65594134e-18
-4.57822126e-18
-5.23909038e-18
-5.26368821e-18
-1.68032234e-19
-3.0036722e-18
-2.06028809e-18
2.76364321e-18
8.11682277e-19
1.54622161e-18
-8.76978116e-20
-1.81535332e-18
-1.87891241e-18
-1.3776969e-18
-6.16292918e-18
-5.07045316e-18
-3.11310564e-18
-6.64986364e-18
-8.14586598e-18
-8.27306507e-18
-4.99638873e-18
-5.18805413e-18
-3.95592053e-18
-3.35859318e-18
-5.23907755e-19
-1.92247223e-18
-2.48215061e-18
-3.59730411e-18
-1.85825264e-18
-2.57036818e-18
-6.04492184e-18
-2.4981709e-18
-2.54635978e-18
-5.73192383e-18
-9.37639744e-18
-7.69782114e-18
-7.90543351e-18
-1.12800148e-17
-7.59019057e-18
-8.84851333e-18
-7.17526806e-18
-1.04114098e-17
-8.97208045e-18
-7.12168704e-18
-8.81636544e-18
-3.87769557e-18
-4.96211527e-18
-3.39359431e-18
-3.80350379e-18
-3.37925186e-18
-5.60025848e-18
-7.05093878e-18
-5.74710335e-18
-2.48990375e-18
-4.07089267e-18
-4.04726103e-18
-3.80008872e-18
-3.57316272e-18
-5.24196345e-18
-5.22746435e-18
-1.74383222e-18
-5.8046232e-18
-3.64230291e-18
-3.33383815e-18
1.96672946e-18
2.73614775e-18
-4.56739959e-19
1.33033387e-20
1.37381728e-19
3.43729274e-19
2.0503903e-18
5.38835079e-19
2.36646914e-18
2.29214095e-18
-1.0966665e-18
2.59320829e-18
2.23705631e-18
5.28425605e-18
5.27324441e-18
3.45848224e-18
2.02466578e-18
1.81006193e-18
1.59944777e-18
3.64339717e-18
5.15937655e-18
6.89599853e-18
3.32751012e-18
4.75418898e-18
1.40798193e-19
3.15616119e-18
3.42538708e-18
1.90296498e-18
1.56898633e-18
4.85514695e-18
3.11320747e-18
4.18896133e-18
2.40075614e-18
2.7571721e-18
4.10983704e-18
-9.04437152e-19
8.42962578e-19
3.81315087e-18
6.77906109e-20
2.16240784e-18
-1.51963518e-18
4.03462019e-19
-1.63241664e-18
2.52474707e-19
-1.64775396e-18
-1.99252815e-19
5.11435946e-18
3.05212662e-18
1.47407917e-18
3.35136401e-18
3.68432404e-18
2.79414901e-18
1.87217123e-18
3.64805342e-19
2.16956552e-18
2.28314646e-18
4.04162304e-18
5.63023946e-18
2.11543111e-18
5.74259048e-18
2.7363794e-18
-2.49076239e-19
-1.76954509e-18
2.89773104e-18
2.84471365e-18
4.30878262e-18
2.34870036e-18
1.29735714e-18
1.37824722e-18
1.16034318e-18
2.10735645e-19
-2.02219535e-18
2.92949683e-18
-1.7845202e-18
-5.11562879e-18
-8.64465527e-18
-7.22246376e-18
-5.25025656e-18
-4.85671679e-18
-6.99783509e-18
-8.77242175e-18
-5.48139494e-18
-5.89080593e-18
-7.25759536e-18
-9.0883021e-18
-8.95345849e-18
-9.31592878e-18
-1.0741395e-17
-5.88033348e-18
-7.7546806e-18
-7.10749102e-18
-9.01846431e-18
-7.30867254e-18
-5.85985839e-18
-7.55295004e-18
-6.73432893e-18
-5.36236873e-18
-4.9757925e-18
-3.06200863e-18
-4.01907809e-18
-2.0180452e-18
-5.74852078e-19
-2.40717782e-18
-1.80405647e-18
-3.78869304e-18
-3.85909577e-19
-5.2156922e-19
-3.70836658e-19
-1.85112829e-18
-3.44403483e-18
2.22250711e-18
-1.76371052e-18
-1.69363092e-18
-2.97411082e-18
-2.12796727e-18
-3.70099718e-18
-5.84439633e-18
-4.0879087e-18
-5.27011038e-18
-6.92170709e-18
-5.49251216e-18
-5.02357282e-18
-2.52697256e-18
-4.62412829e-18
-4.38463349e-18
-2.85859572e-18
6.75998533e-19
-1.70343333e-18
-1.59623484e-18
-1.10117218e-20
1.54879277e-19
-3.44656918e-18
1.45128199e-19
-1.69329796e-18
-3.24375918e-18
-1.77195166e-19
-1.67465603e-18
-6.22339961e-18
-4.62117096e-18
-1.62276018e-18
-1.27483356e-18
1.31929656e-19
1.88579504e-18
1.68136715e-20
3.49666924e-18
3.54374759e-18
1.29017245e-18
3.12378501e-19
3.21455696e-19
-3.13214067e-18
-3.26870002e-18
-1.05729476e-18
4.31452359e-21
1.49162721e-18
2.14829837e-18
7.2786868e-19
6.20510357e-20
-2.93167968e-19
1.87351408e-18
1.87253346e-18
5.34100686e-18
7.19380858e-18
5.56004561e-18
3.79870569e-18
8.68087365e-18
6.89730476e-18
5.86830808e-18
6.85928497e-18
5.34846367e-18
5.22390148e-18
1.34700418e-18
3.83608124e-18
5.42110354e-18
6.78810153e-18
5.47770552e-18
4.26937465e-18
4.16849688e-18
5.83108902e-18
6.85377051e-18
8.68560638e-18
6.84071511e-18
6.52888339e-18
8.30697753e-18
5.43414684e-18
5.66047656e-18
7.98809227e-18
5.40809115e-18
4.95689521e-18
3.45801334e-18
6.81372918e-18
3.72485754e-18
4.8258321e-19
1.85023952e-18
3.41441339e-18
1.74053054e-18
3.28523578e-18
3.07828416e-19
1.8996134e-18
-9.45677796e-20
-2.30701186e-18
-3.71040528e-18
-2.42039583e-18
-2.61089514e-18
-1.8341733e-18
-9.67341517e-19
2.97204326e-18
-3.23363398e-18
-3.8215766e-18
-3.75819749e-18
-4.91513844e-18
-5.00837883e-18
-3.39038661e-18
-4.58983759e-18
-1.66163744e-18
-2.34847261e-18
-2.34891597e-18
-1.2897385e-18
1.01335653e-19
-1.57049788e-18
-3.25753831e-18
-1.55714023e-18
-3.29026555e-18
-2.90891354e-18
-3.43785914e-18
5.67641939e-20
5.59652118e-19
3.81778206e-19
3.48261202e-18
4.68729317e-18
4.92721916e-18
5.05240388e-18
3.31874657e-18
2.69843921e-18
4.63495938e-18
4.01097501e-18
6.1201075e-19
2.5319068e-18
2.65487967e-18
1.45580148e-18
-5.71122778e-19
1.09810522e-18
-2.24700048e-18
-3.99822601e-18
-7.82397797e-18
-5.71397346e-18
-4.34286949e-18
-5.28997642e-18
-5.19696922e-18
-2.82164346e-18
-3.71415976e-20
-1.49876952e-18
-1.88167732e-18
-3.20097542e-18
-4.6277983e-18
-6.41416383e-18
-5.04279732e-18
-1.01161568e-19
-2.1035122e-18
-3.45961771e-18
-2.12066389e-18
-9.88049093e-19
-9.53979981e-19
5.04519105e-20
-1.55098251e-18
-4.64975943e-18
-1.72164947e-18
-1.01444382e-18
2.02563025e-18
3.87921971e-18
5.52181248e-18
5.05229134e-18
3.75339045e-18
3.58568848e-18
3.18017683e-18
1.53021475e-18
3.76369116e-18
1.41658934e-18
2.29428362e-19
2.38196612e-19
1.24717178e-18
2.96772269e-18
-4.87035736e-19
-3.36500017e-18
-2.36540514e-18
-6.63299552e-19
-3.64556501e-19
-6.49755889e-20
5.38936366e-18
2.56285947e-18
4.14775604e-18
2.29529165e-18
2.49868359e-18
2.57503777e-18
4.70702589e-18
4.74588858e-18
2.93467671e-18
4.38123907e-18
2.86656271e-18
3.0142026e-18
4.55448821e-18
2.83596063e-18
4.75664354e-19
1.76178421e-18
1.27815304e-19
1.01563211e-18
9.7833499e-19
1.46290288e-18
1.41053421e-18
1.13532638e-18
4.54946169e-18
7.88110822e-18
8.04660806e-18
5.46115499e-18
5.19156491e-18
5.03532353e-18
3.80350306e-18
1.99171738e-20
3.31023142e-18
5.9639502e-18
3.4594365e-18
3.55536201e-18
2.55211678e-18
3.19714974e-18
6.37486393e-18
4.37957407e-18
6.91611072e-18
6.56168249e-18
2.79274944e-18
3.56630321e-18
5.37337367e-18
6.97344712e-18
5.18557089e-18
7.90555582e-18
8.58086059e-18
6.7741815e-18
7.07896345e-18
5.46217849e-18
5.23194393e-18
4.91758287e-18
5.49071074e-18
3.92749243e-18
2.67117678e-18
-1.99395553e-18
1.04825788e-18
3.11764673e-18
4.79253658e-18
3.01050052e-18
4.40383722e-18
7.17793309e-18
7.55317569e-18
7.74298263e-18
9.7232577e-18
1.46325657e-17
1.28265908e-17
1.02237425e-17
1.09762536e-17