/*--------------------------------*- C++ -*----------------------------------*\
| =========                 |                                                 |
| \\      /  F ield         | OpenFOAM: The Open Source CFD Toolbox           |
|  \\    /   O peration     | Version:  2206                                  |
|   \\  /    A nd           | Website:  www.openfoam.com                      |
|    \\/     M anipulation  |                                                 |
\*---------------------------------------------------------------------------*/
FoamFile
{
    version     2.0;
    format      ascii;
    arch        "LSB;label=32;scalar=64";
    class       volVectorField;
    location    "1.2e-06";
    object      U;
}
// * * * * * * * * * * * * * * * * * * * * * * * * * * * * * * * * * * * * * //

dimensions      [0 1 -1 0 0 0 0];

internalField   nonuniform List<vector> 
3183
(
(1.02745686e-14 0 0)
(-3.60383196e-15 0 0)
(3.79213925e-15 0 0)
(-1.19712794e-14 0 0)
(-1.25969807e-14 0 0)
(-6.1941007e-20 0 0)
(-4.8213517e-21 0 0)
(-4.12384944e-26 0 0)
(1.52460766e-26 0 0)
(3.58649508e-25 0 0)
(2.89384333e-20 0 0)
(3.73085644e-19 0 0)
(4.10257795e-14 0 0)
(2.3245196e-14 0 0)
(-3.14487254e-14 0 0)
(-4.04459364e-14 0 0)
(3.86898888e-14 0 0)
(-8.14309436e-15 0 0)
(-8.99655273e-14 0 0)
(9.01504331e-15 0 0)
(5.21794135e-14 0 0)
(1.00538148e-18 0 0)
(8.34301095e-20 0 0)
(1.7163518e-23 0 0)
(2.90060469e-19 0 0)
(3.53945323e-18 0 0)
(1.03028622e-13 0 0)
(-4.10796057e-19 0 0)
(-1.14075789e-13 0 0)
(3.74993066e-14 0 0)
(-8.6831529e-14 0 0)
(2.49200187e-14 0 0)
(7.86622445e-14 0 0)
(-5.5176243e-14 0 0)
(8.20121885e-19 0 0)
(6.1092031e-14 0 0)
(-6.4292275e-14 0 0)
(-6.76492884e-14 0 0)
(7.11726097e-14 0 0)
(-3.86463706e-18 0 0)
(-7.88273443e-14 0 0)
(-1.1057233e-13 0 0)
(8.72472703e-14 0 0)
(1.07179352e-13 0 0)
(9.66455778e-14 0 0)
(8.19448075e-18 0 0)
(3.40884936e-17 0 0)
(-7.16426299e-17 0 0)
(-9.86749276e-14 0 0)
(-2.08124527e-14 0 0)
(-2.19937785e-14 0 0)
(-1.37951129e-13 0 0)
(-9.66870574e-14 0 0)
(7.62457308e-14 0 0)
(1.8745115e-13 0 0)
(-2.78477193e-14 0 0)
(2.97217428e-14 0 0)
(1.24759332e-13 0 0)
(9.84356724e-14 0 0)
(-3.43973846e-14 0 0)
(-7.26393058e-14 0 0)
(-1.15101861e-13 0 0)
(-8.04860269e-14 0 0)
(-1.69554444e-13 0 0)
(-1.33129291e-13 0 0)
(-3.7690985e-16 0 0)
(9.87111947e-14 0 0)
(2.0726465e-13 0 0)
(1.09163231e-13 0 0)
(5.83035674e-14 0 0)
(2.39900641e-13 0 0)
(1.8807771e-15 0 0)
(6.64664046e-14 0 0)
(6.76639026e-14 0 0)
(-1.47294033e-13 0 0)
(-3.85875238e-13 0 0)
(8.15601892e-14 0 0)
(1.74973841e-13 0 0)
(2.73396989e-13 0 0)
(3.84194476e-13 0 0)
(6.06308131e-13 0 0)
(6.2922455e-13 0 0)
(5.57706917e-13 0 0)
(3.5694404e-13 0 0)
(2.59950445e-13 0 0)
(6.36146084e-13 0 0)
(4.00179155e-13 0 0)
(1.67492178e-13 0 0)
(5.90062517e-13 0 0)
(-1.47272849e-13 0 0)
(1.936888e-14 0 0)
(1.81216036e-13 0 0)
(-1.54380242e-13 0 0)
(-1.71660064e-13 0 0)
(1.77424125e-13 0 0)
(-2.36588068e-13 0 0)
(-3.43596052e-13 0 0)
(1.77087607e-13 0 0)
(5.09025774e-13 0 0)
(3.82795148e-14 0 0)
(4.78050387e-13 0 0)
(8.34078296e-13 0 0)
(8.14725954e-14 0 0)
(7.31306347e-13 0 0)
(1.54794968e-13 0 0)
(1.10777996e-12 0 0)
(6.52832959e-13 0 0)
(8.18357976e-13 0 0)
(1.26984041e-13 0 0)
(-2.11913207e-13 0 0)
(8.48824419e-13 0 0)
(8.47210463e-13 0 0)
(9.13156086e-14 0 0)
(-2.5892742e-14 0 0)
(4.84137723e-13 0 0)
(5.32712461e-13 0 0)
(4.38605103e-13 0 0)
(4.67658854e-13 0 0)
(-5.00864131e-14 0 0)
(-5.40885591e-13 0 0)
(-3.68189494e-14 0 0)
(2.42502826e-13 0 0)
(2.55569806e-13 0 0)
(-2.80390104e-14 0 0)
(-2.85622453e-13 0 0)
(2.25270651e-13 0 0)
(-1.27029282e-13 0 0)
(-1.76206285e-12 0 0)
(-6.76016901e-13 0 0)
(-1.79160765e-12 0 0)
(-8.37919558e-13 0 0)
(-1.74385244e-12 0 0)
(-1.65107762e-12 0 0)
(-1.80923578e-12 0 0)
(-9.51489396e-13 0 0)
(-7.04409607e-13 0 0)
(-8.40000017e-13 0 0)
(-2.78365217e-13 0 0)
(-3.71714929e-13 0 0)
(5.17836326e-13 0 0)
(3.93771183e-13 0 0)
(2.35490282e-13 0 0)
(1.10846477e-12 0 0)
(-2.43070837e-13 0 0)
(6.6361588e-13 0 0)
(5.84986527e-13 0 0)
(-2.50030581e-13 0 0)
(-2.53099801e-13 0 0)
(-3.17811168e-13 0 0)
(-3.23745294e-14 0 0)
(-8.82363619e-14 0 0)
(4.72112653e-13 0 0)
(-1.85526935e-13 0 0)
(-1.61531176e-13 0 0)
(7.27537165e-13 0 0)
(1.0511816e-13 0 0)
(4.32268565e-13 0 0)
(6.83384281e-13 0 0)
(7.21428037e-14 0 0)
(-1.71228512e-13 0 0)
(-3.63670639e-13 0 0)
(-1.57818632e-13 0 0)
(-4.0826267e-14 0 0)
(-3.08414631e-14 0 0)
(-1.41465388e-13 0 0)
(5.28936757e-13 0 0)
(-1.01386406e-12 0 0)
(-3.38159528e-13 0 0)
(2.38853506e-13 0 0)
(-6.56235402e-13 0 0)
(-1.25697336e-12 0 0)
(-1.7655317e-13 0 0)
(-6.7032448e-13 0 0)
(-1.71763918e-13 0 0)
(-1.38570087e-13 0 0)
(-7.93893604e-13 0 0)
(1.76480381e-14 0 0)
(-5.91066527e-13 0 0)
(-5.4658201e-14 0 0)
(-3.18165497e-13 0 0)
(-3.52487532e-13 0 0)
(-2.98569046e-13 0 0)
(-2.43596749e-13 0 0)
(2.2265661e-13 0 0)
(-4.30019478e-13 0 0)
(-8.63755671e-13 0 0)
(-8.6502939e-13 0 0)
(-1.00818302e-12 0 0)
(-1.6431259e-12 0 0)
(-4.89108245e-13 0 0)
(1.52651894e-13 0 0)
(-4.76475693e-13 0 0)
(-9.19384334e-13 0 0)
(-1.40934894e-13 0 0)
(-5.3771663e-13 0 0)
(-7.69133682e-13 0 0)
(-8.74637941e-13 0 0)
(-7.12592793e-13 0 0)
(-5.65690555e-13 0 0)
(-1.59719301e-12 0 0)
(-9.61319706e-13 0 0)
(-1.71963319e-12 0 0)
(-6.78984109e-16 0 0)
(2.07335228e-13 0 0)
(-3.95452471e-13 0 0)
(3.15930607e-13 0 0)
(7.81720665e-15 0 0)
(9.46890794e-13 0 0)
(1.75069974e-13 0 0)
(4.56815288e-13 0 0)
(5.60779491e-13 0 0)
(2.7192319e-13 0 0)
(-1.26501064e-13 0 0)
(1.38300102e-12 0 0)
(1.56035081e-13 0 0)
(1.16150942e-12 0 0)
(6.37744439e-13 0 0)
(3.40103464e-13 0 0)
(5.32310002e-13 0 0)
(7.57940344e-13 0 0)
(5.90248703e-13 0 0)
(1.25181549e-12 0 0)
(1.50158104e-12 0 0)
(1.22636441e-12 0 0)
(4.12715621e-13 0 0)
(1.46289916e-13 0 0)
(9.84843129e-13 0 0)
(1.16865764e-12 0 0)
(6.37922917e-13 0 0)
(3.63667499e-13 0 0)
(1.75097865e-12 0 0)
(7.81086003e-13 0 0)
(7.7951157e-13 0 0)
(9.44687894e-13 0 0)
(4.97896928e-13 0 0)
(-2.02362191e-13 0 0)
(4.02808731e-13 0 0)
(8.62335292e-13 0 0)
(1.23254559e-13 0 0)
(4.69945236e-13 0 0)
(4.60694711e-13 0 0)
(7.54132573e-13 0 0)
(1.26184304e-12 0 0)
(7.52785406e-13 0 0)
(9.06222816e-13 0 0)
(1.13095781e-12 0 0)
(-1.28280591e-14 0 0)
(5.03141282e-13 0 0)
(9.63164277e-13 0 0)
(5.4242081e-13 0 0)
(6.28525282e-13 0 0)
(6.23488628e-13 0 0)
(3.25839824e-13 0 0)
(2.87000701e-13 0 0)
(3.61550958e-13 0 0)
(-2.34163869e-13 0 0)
(-7.10180414e-14 0 0)
(4.53079435e-13 0 0)
(6.86946228e-13 0 0)
(-3.02547364e-13 0 0)
(-3.8230959e-13 0 0)
(7.17585413e-13 0 0)
(-2.54675114e-13 0 0)
(-3.25487565e-13 0 0)
(-2.92080981e-14 0 0)
(-8.01052167e-13 0 0)
(1.77723228e-15 0 0)
(-1.06128052e-13 0 0)
(2.79604509e-13 0 0)
(-7.31272805e-13 0 0)
(4.94029198e-13 0 0)
(4.60516774e-14 0 0)
(-5.18120806e-13 0 0)
(-1.64731881e-14 0 0)
(5.56537563e-13 0 0)
(-6.57314539e-14 0 0)
(-4.90108399e-13 0 0)
(-3.53031697e-13 0 0)
(-3.72541962e-14 0 0)
(2.99491927e-13 0 0)
(-4.47483956e-14 0 0)
(-2.7469863e-13 0 0)
(-4.92019952e-13 0 0)
(-3.49766095e-13 0 0)
(-6.40682436e-13 0 0)
(-3.32052995e-13 0 0)
(-7.55946106e-13 0 0)
(-5.51490961e-13 0 0)
(-1.4017156e-12 0 0)
(2.04305432e-13 0 0)
(-3.39859518e-13 0 0)
(-1.31308681e-12 0 0)
(-6.74501616e-13 0 0)
(-1.61029597e-12 0 0)
(-1.62148012e-12 0 0)
(-1.33457874e-12 0 0)
(-1.50151859e-12 0 0)
(-9.38643596e-13 0 0)
(-1.84385144e-12 0 0)
(-1.53212417e-12 0 0)
(-6.10861945e-14 0 0)
(-1.21310263e-12 0 0)
(-7.66485328e-13 0 0)
(-1.65720683e-12 0 0)
(-1.56477967e-12 0 0)
(-2.10464549e-12 0 0)
(-1.32974694e-12 0 0)
(-1.28466743e-12 0 0)
(-1.03086249e-12 0 0)
(-1.38891325e-12 0 0)
(-8.67742283e-13 0 0)
(-1.58260937e-12 0 0)
(-1.73895364e-12 0 0)
(-1.65665988e-12 0 0)
(-1.39241855e-12 0 0)
(-2.59970819e-12 0 0)
(-2.15158801e-12 0 0)
(-1.61214042e-12 0 0)
(-1.491762e-12 0 0)
(-2.37879823e-12 0 0)
(-1.72913846e-12 0 0)
(-1.99067868e-12 0 0)
(-2.20852256e-12 0 0)
(-1.24780931e-12 0 0)
(-1.60972606e-12 0 0)
(-1.21326866e-12 0 0)
(-1.87200282e-12 0 0)
(-7.53738435e-13 0 0)
(-4.74313322e-13 0 0)
(-6.04676287e-13 0 0)
(-4.19564068e-13 0 0)
(-6.72226476e-13 0 0)
(-6.68401682e-13 0 0)
(-6.04269229e-13 0 0)
(-3.71044105e-13 0 0)
(-6.24932798e-13 0 0)
(-2.62494138e-13 0 0)
(-3.53956394e-13 0 0)
(-4.00777181e-13 0 0)
(-6.92762655e-13 0 0)
(-4.57600746e-13 0 0)
(-2.91077801e-13 0 0)
(-8.30171075e-13 0 0)
(-9.26239432e-13 0 0)
(2.58823338e-14 0 0)
(-1.09889441e-12 0 0)
(-1.33319913e-12 0 0)
(-4.99300192e-13 0 0)
(-9.31840046e-13 0 0)
(-1.21131948e-12 0 0)
(-2.5851244e-13 0 0)
(-4.11476504e-13 0 0)
(-6.46940045e-13 0 0)
(-1.94906585e-14 0 0)
(-3.15359381e-13 0 0)
(-3.76725684e-13 0 0)
(-9.0969188e-14 0 0)
(-6.50765816e-13 0 0)
(-8.23761179e-13 0 0)
(-1.18927176e-12 0 0)
(-2.90506856e-13 0 0)
(-1.07260834e-12 0 0)
(-5.71228317e-13 0 0)
(-3.9439955e-14 0 0)
(-4.43458208e-13 0 0)
(-9.35743343e-13 0 0)
(-6.1865104e-13 0 0)
(3.42981918e-13 0 0)
(-4.34385704e-13 0 0)
(7.44357312e-13 0 0)
(2.81591785e-13 0 0)
(7.09996854e-14 0 0)
(5.8047557e-13 0 0)
(-5.24430917e-13 0 0)
(1.82309401e-13 0 0)
(-3.76530778e-13 0 0)
(-3.88213094e-13 0 0)
(-5.61567471e-13 0 0)
(-1.71680604e-13 0 0)
(-5.96962678e-13 0 0)
(4.65051278e-13 0 0)
(-5.87727216e-13 0 0)
(-4.0424617e-13 0 0)
(-8.69855899e-13 0 0)
(-1.02510392e-12 0 0)
(-9.83032192e-13 0 0)
(-9.9988784e-13 0 0)
(-4.18914663e-13 0 0)
(-3.65285276e-13 0 0)
(-9.79540414e-13 0 0)
(-5.091563e-13 0 0)
(-6.96862911e-13 0 0)
(-3.36160572e-13 0 0)
(-1.91280625e-13 0 0)
(-3.09335203e-13 0 0)
(-2.8417019e-13 0 0)
(-7.19874902e-13 0 0)
(-5.44011033e-13 0 0)
(-3.69648492e-13 0 0)
(-5.82496332e-13 0 0)
(-5.86433104e-13 0 0)
(-1.44962114e-12 0 0)
(-6.76748308e-13 0 0)
(-4.06687088e-13 0 0)
(-5.26859965e-13 0 0)
(3.87643327e-13 0 0)
(-5.59552671e-13 0 0)
(-9.44714047e-13 0 0)
(-5.73981998e-13 0 0)
(-4.38735842e-13 0 0)
(-2.0898944e-14 0 0)
(-2.34999235e-14 0 0)
(-1.20057204e-12 0 0)
(-5.65248329e-13 0 0)
(4.4359473e-13 0 0)
(-4.29902442e-13 0 0)
(-1.352418e-13 0 0)
(-5.01959782e-13 0 0)
(4.03076905e-13 0 0)
(1.00575927e-12 0 0)
(1.18500648e-13 0 0)
(-2.39649166e-13 0 0)
(7.0930807e-13 0 0)
(1.19656521e-12 0 0)
(7.05145098e-13 0 0)
(8.10893383e-13 0 0)
(6.59848289e-13 0 0)
(2.95637487e-13 0 0)
(-2.55826263e-14 0 0)
(5.99735522e-13 0 0)
(8.59558946e-13 0 0)
(-4.9998053e-14 0 0)
(6.98270881e-14 0 0)
(1.11373212e-12 0 0)
(2.79042857e-13 0 0)
(-2.20574909e-13 0 0)
(4.98955831e-13 0 0)
(6.11527594e-13 0 0)
(-2.64278747e-13 0 0)
(2.34056052e-13 0 0)
(2.15986517e-13 0 0)
(2.53846893e-13 0 0)
(-4.9153128e-13 0 0)
(1.32330392e-13 0 0)
(4.28514235e-14 0 0)
(1.9656314e-13 0 0)
(2.23863818e-13 0 0)
(2.08251368e-13 0 0)
(-4.36048315e-13 0 0)
(-4.11298257e-13 0 0)
(-8.70726847e-13 0 0)
(-8.15080804e-14 0 0)
(-3.0480598e-15 0 0)
(-2.31421847e-13 0 0)
(9.56077044e-14 0 0)
(-2.26444746e-13 0 0)
(-1.14337797e-13 0 0)
(5.01325e-14 0 0)
(-5.20708612e-13 0 0)
(-1.27317332e-13 0 0)
(-5.85766426e-13 0 0)
(-1.07510509e-12 0 0)
(-4.66964847e-13 0 0)
(-3.70769067e-13 0 0)
(-9.36441947e-13 0 0)
(1.89888592e-13 0 0)
(4.53848327e-13 0 0)
(-1.99089597e-14 0 0)
(-1.6225524e-13 0 0)
(4.44522935e-13 0 0)
(1.94888242e-13 0 0)
(5.02680365e-13 0 0)
(1.57928685e-13 0 0)
(1.17966379e-12 0 0)
(1.20416548e-12 0 0)
(7.62187012e-13 0 0)
(4.92031408e-13 0 0)
(9.7252908e-13 0 0)
(8.93196388e-13 0 0)
(1.86113954e-13 0 0)
(4.0725135e-13 0 0)
(6.2894335e-13 0 0)
(6.60082915e-13 0 0)
(6.61776671e-13 0 0)
(8.82312301e-13 0 0)
(1.20492626e-12 0 0)
(5.70055994e-13 0 0)
(1.21014894e-12 0 0)
(4.57435815e-13 0 0)
(2.12381933e-13 0 0)
(9.56421093e-14 0 0)
(2.48175486e-13 0 0)
(-2.19198056e-13 0 0)
(-8.87113902e-13 0 0)
(2.45339996e-13 0 0)
(-9.36660567e-13 0 0)
(6.61074475e-14 0 0)
(2.19520162e-13 0 0)
(-3.79439513e-13 0 0)
(1.78852941e-13 0 0)
(7.98047453e-14 0 0)
(-6.23853426e-13 0 0)
(-1.96542895e-13 0 0)
(9.16310021e-13 0 0)
(2.19282503e-13 0 0)
(1.82660821e-13 0 0)
(-7.94894562e-13 0 0)
(-9.00757805e-13 0 0)
(-5.48493134e-13 0 0)
(-7.00371344e-13 0 0)
(-1.98228045e-12 0 0)
(-1.61577164e-12 0 0)
(-1.8734568e-12 0 0)
(-7.65538552e-13 0 0)
(-9.49985517e-13 0 0)
(-2.14795815e-12 0 0)
(-1.25587912e-12 0 0)
(-4.35736896e-13 0 0)
(-1.20506926e-12 0 0)
(2.05348013e-13 0 0)
(-9.49246532e-13 0 0)
(2.14810447e-13 0 0)
(-5.24360225e-13 0 0)
(-5.26655858e-13 0 0)
(6.75703167e-15 0 0)
(9.4329454e-14 0 0)
(4.27233638e-13 0 0)
(1.83621299e-12 0 0)
(9.58727198e-13 0 0)
(5.19649468e-13 0 0)
(3.05231261e-13 0 0)
(5.52624932e-13 0 0)
(3.31830414e-13 0 0)
(9.18462778e-14 0 0)
(2.99165151e-13 0 0)
(7.48653628e-13 0 0)
(-8.10284317e-13 0 0)
(-6.40248297e-13 0 0)
(-6.32019375e-13 0 0)
(-3.74198446e-13 0 0)
(-1.21508203e-12 0 0)
(-3.05741247e-13 0 0)
(-1.39045025e-13 0 0)
(-9.15976385e-13 0 0)
(-3.6262937e-13 0 0)
(-8.70294216e-14 0 0)
(-7.64465289e-13 0 0)
(-5.82630681e-13 0 0)
(-2.79871689e-13 0 0)
(2.83023197e-13 0 0)
(-1.09815796e-12 0 0)
(-3.87981129e-13 0 0)
(-1.29985113e-12 0 0)
(-7.48705211e-13 0 0)
(-1.2249607e-12 0 0)
(-8.29769911e-13 0 0)
(-7.23336314e-13 0 0)
(-8.85992063e-13 0 0)
(-6.92980966e-13 0 0)
(-7.50296962e-13 0 0)
(-1.26948084e-12 0 0)
(-1.18073476e-12 0 0)
(-7.07723277e-13 0 0)
(2.17480396e-13 0 0)
(-2.07596004e-14 0 0)
(-2.69008862e-13 0 0)
(2.05001131e-13 0 0)
(2.8854821e-14 0 0)
(6.44052299e-14 0 0)
(6.85918081e-13 0 0)
(6.27974119e-13 0 0)
(7.82474696e-13 0 0)
(1.26945154e-12 0 0)
(1.26966888e-12 0 0)
(1.09797924e-12 0 0)
(9.58128137e-13 0 0)
(1.01736834e-12 0 0)
(6.448575e-13 0 0)
(1.00247633e-12 0 0)
(3.94035025e-13 0 0)
(2.81879181e-13 0 0)
(7.28742154e-13 0 0)
(1.45533411e-12 0 0)
(1.74252186e-13 0 0)
(3.84633355e-13 0 0)
(1.30666184e-12 0 0)
(6.85677818e-13 0 0)
(1.13716928e-12 0 0)
(1.06950122e-13 0 0)
(1.39685554e-12 0 0)
(5.00012757e-13 0 0)
(6.36390721e-13 0 0)
(9.31348941e-13 0 0)
(3.40005615e-13 0 0)
(2.31609868e-13 0 0)
(6.06179526e-13 0 0)
(5.68542626e-13 0 0)
(6.63651353e-13 0 0)
(6.65018554e-13 0 0)
(2.0222588e-12 0 0)
(7.78676265e-13 0 0)
(2.10946e-12 0 0)
(9.09688657e-13 0 0)
(1.90313427e-12 0 0)
(6.90503491e-13 0 0)
(3.67513696e-13 0 0)
(1.5514681e-12 0 0)
(1.10093848e-12 0 0)
(8.87419172e-13 0 0)
(1.82803598e-12 0 0)
(4.28649163e-13 0 0)
(9.49571779e-13 0 0)
(6.28516726e-13 0 0)
(-1.08604871e-13 0 0)
(3.8395393e-13 0 0)
(1.72214883e-13 0 0)
(4.25878591e-13 0 0)
(-2.61950468e-13 0 0)
(3.83762752e-13 0 0)
(3.15070015e-13 0 0)
(3.80960017e-13 0 0)
(-1.57710357e-13 0 0)
(-7.61690159e-13 0 0)
(-8.80786959e-13 0 0)
(-9.79701424e-13 0 0)
(1.39794005e-13 0 0)
(-9.42707116e-13 0 0)
(-8.81421631e-13 0 0)
(-2.9104491e-13 0 0)
(-5.96063977e-13 0 0)
(-1.19777604e-12 0 0)
(-6.5064088e-13 0 0)
(-2.48303683e-13 0 0)
(-5.23496355e-13 0 0)
(-4.37408037e-13 0 0)
(-6.74798417e-13 0 0)
(-6.47565127e-13 0 0)
(-7.46005393e-14 0 0)
(-4.10017029e-13 0 0)
(-6.17004514e-13 0 0)
(1.62148221e-14 0 0)
(1.92527052e-13 0 0)
(-7.56959151e-13 0 0)
(5.85170267e-14 0 0)
(-4.04202414e-13 0 0)
(2.23062986e-13 0 0)
(-5.08870691e-13 0 0)
(-1.79023395e-13 0 0)
(-5.77579021e-13 0 0)
(2.46132821e-13 0 0)
(-1.80685869e-13 0 0)
(-4.69865432e-13 0 0)
(1.88194534e-13 0 0)
(-3.41105261e-13 0 0)
(-1.43817152e-12 0 0)
(-2.89429944e-13 0 0)
(-9.21109457e-14 0 0)
(-8.81043057e-13 0 0)
(-9.10905919e-13 0 0)
(-1.43822989e-13 0 0)
(-3.58750902e-13 0 0)
(-7.46182989e-13 0 0)
(1.69256023e-13 0 0)
(-4.20225983e-13 0 0)
(-2.13456944e-13 0 0)
(4.09820551e-13 0 0)
(-5.36718974e-13 0 0)
(6.05504764e-13 0 0)
(-2.95629206e-13 0 0)
(2.85726434e-13 0 0)
(-3.4553696e-13 0 0)
(6.91517608e-14 0 0)
(2.32057164e-13 0 0)
(5.64752887e-14 0 0)
(-2.69131264e-13 0 0)
(2.23160435e-13 0 0)
(-1.39257809e-13 0 0)
(5.13106461e-13 0 0)
(-2.71026233e-13 0 0)
(2.77324347e-13 0 0)
(-2.00308873e-13 0 0)
(-1.81232518e-13 0 0)
(2.42000953e-13 0 0)
(3.34367679e-13 0 0)
(2.32163033e-13 0 0)
(5.84120194e-13 0 0)
(2.87167066e-13 0 0)
(2.81642449e-13 0 0)
(4.35428933e-13 0 0)
(-1.60016535e-13 0 0)
(1.08444991e-12 0 0)
(3.23714533e-13 0 0)
(7.82090911e-14 0 0)
(1.20323649e-14 0 0)
(4.90765632e-13 0 0)
(3.09833393e-13 0 0)
(4.00416663e-13 0 0)
(4.37201764e-13 0 0)
(8.95607318e-14 0 0)
(1.01840125e-12 0 0)
(1.03194188e-12 0 0)
(1.37665333e-12 0 0)
(1.32665664e-12 0 0)
(1.56432438e-12 0 0)
(2.40411419e-13 0 0)
(1.16798243e-12 0 0)
(1.22644456e-12 0 0)
(8.28323126e-13 0 0)
(1.5429344e-12 0 0)
(8.93587445e-13 0 0)
(7.69494234e-13 0 0)
(1.36361412e-12 0 0)
(1.28009002e-12 0 0)
(9.47732752e-13 0 0)
(1.34899452e-12 0 0)
(8.83386367e-13 0 0)
(7.79324644e-13 0 0)
(1.32170724e-12 0 0)
(8.32554002e-13 0 0)
(1.12283289e-12 0 0)
(1.01664696e-12 0 0)
(6.46019961e-13 0 0)
(1.13441747e-12 0 0)
(8.13039763e-13 0 0)
(3.47179402e-13 0 0)
(4.19741929e-13 0 0)
(1.2087045e-13 0 0)
(-2.40929908e-13 0 0)
(1.74892638e-13 0 0)
(3.11386208e-13 0 0)
(4.29001538e-13 0 0)
(6.63620253e-13 0 0)
(6.36763727e-13 0 0)
(-2.2247054e-13 0 0)
(5.97629257e-13 0 0)
(-3.94795406e-13 0 0)
(5.12315722e-13 0 0)
(1.04649578e-13 0 0)
(1.42818745e-13 0 0)
(1.43433756e-14 0 0)
(1.57078648e-13 0 0)
(2.44968565e-13 0 0)
(-1.25585269e-13 0 0)
(8.81615972e-13 0 0)
(5.61628239e-13 0 0)
(1.1815479e-14 0 0)
(8.63904606e-13 0 0)
(1.63153841e-13 0 0)
(-2.92828302e-13 0 0)
(2.43731784e-13 0 0)
(-1.12867317e-13 0 0)
(6.47845388e-14 0 0)
(7.31595625e-13 0 0)
(2.22725858e-13 0 0)
(1.32602013e-12 0 0)
(1.61064363e-13 0 0)
(5.34307328e-13 0 0)
(5.71438489e-13 0 0)
(-1.88877475e-13 0 0)
(6.98119178e-13 0 0)
(-2.4587784e-13 0 0)
(4.60061193e-13 0 0)
(-1.25581529e-13 0 0)
(2.82907863e-13 0 0)
(-1.35371092e-16 0 0)
(3.08682487e-13 0 0)
(5.25234162e-14 0 0)
(1.29023118e-13 0 0)
(7.14489538e-13 0 0)
(-3.98743421e-14 0 0)
(2.09811328e-13 0 0)
(-1.42475833e-13 0 0)
(3.68105283e-13 0 0)
(6.95505627e-13 0 0)
(3.51914397e-13 0 0)
(1.31942277e-13 0 0)
(2.81650761e-13 0 0)
(-1.46559979e-13 0 0)
(4.42534495e-13 0 0)
(-2.06754547e-13 0 0)
(-6.70812183e-13 0 0)
(6.71837293e-14 0 0)
(-1.21073247e-16 0 0)
(-1.31336799e-13 0 0)
(7.64634778e-14 0 0)
(-2.37319452e-13 0 0)
(-6.78004785e-14 0 0)
(6.25184373e-13 0 0)
(3.89519811e-13 0 0)
(6.01509079e-14 0 0)
(4.2021954e-13 0 0)
(2.50409567e-13 0 0)
(-1.67802427e-13 0 0)
(3.89501521e-13 0 0)
(3.6310875e-13 0 0)
(6.372539e-13 0 0)
(-1.93428752e-13 0 0)
(-5.39766927e-15 0 0)
(3.77154519e-13 0 0)
(4.85225807e-13 0 0)
(-7.91876249e-14 0 0)
(7.99107684e-13 0 0)
(-1.78014515e-13 0 0)
(2.87639521e-13 0 0)
(4.15935245e-13 0 0)
(5.34584927e-13 0 0)
(6.9607725e-13 0 0)
(3.21286243e-13 0 0)
(6.91921916e-13 0 0)
(5.95365016e-13 0 0)
(-7.50722057e-15 0 0)
(1.57129021e-13 0 0)
(-5.21096088e-14 0 0)
(7.88990982e-13 0 0)
(-3.36471727e-13 0 0)
(-7.35297333e-14 0 0)
(-3.6838365e-13 0 0)
(-1.05906581e-12 0 0)
(-1.12900963e-12 0 0)
(-4.98509773e-13 0 0)
(-7.33749912e-13 0 0)
(1.75376538e-13 0 0)
(-1.23272126e-12 0 0)
(-6.29162518e-13 0 0)
(-6.36502161e-13 0 0)
(-6.39983021e-13 0 0)
(-9.73856904e-13 0 0)
(-1.00436386e-12 0 0)
(-1.52304678e-12 0 0)
(-1.29668263e-12 0 0)
(-8.38819993e-13 0 0)
(-1.53032717e-12 0 0)
(-1.40237079e-12 0 0)
(-1.73061416e-12 0 0)
(-1.50863304e-12 0 0)
(-1.0969475e-12 0 0)
(-1.3420917e-12 0 0)
(-9.54287317e-13 0 0)
(-7.58731011e-13 0 0)
(-5.18485039e-13 0 0)
(-6.25749817e-13 0 0)
(-7.18109887e-13 0 0)
(-4.30937088e-13 0 0)
(-3.71588386e-13 0 0)
(-5.55898664e-13 0 0)
(-1.07712599e-12 0 0)
(-4.79292499e-13 0 0)
(-3.9476405e-13 0 0)
(-7.97624498e-13 0 0)
(-6.78716152e-13 0 0)
(-5.46488611e-13 0 0)
(1.78407046e-13 0 0)
(-5.83774285e-13 0 0)
(7.15675635e-14 0 0)
(-2.25282343e-13 0 0)
(-5.78390477e-14 0 0)
(-3.76069033e-13 0 0)
(-1.54210501e-13 0 0)
(-4.81917341e-14 0 0)
(-1.74276434e-13 0 0)
(3.6996789e-13 0 0)
(3.76867935e-13 0 0)
(3.04614115e-14 0 0)
(2.16688595e-13 0 0)
(-3.81137347e-13 0 0)
(2.25486396e-13 0 0)
(-4.38647011e-13 0 0)
(-2.78433417e-13 0 0)
(5.75284184e-13 0 0)
(-2.09036597e-13 0 0)
(2.74801881e-13 0 0)
(-2.29725627e-13 0 0)
(-9.78567135e-14 0 0)
(5.35594727e-13 0 0)
(1.18089845e-12 0 0)
(2.59830797e-13 0 0)
(-2.80942425e-13 0 0)
(5.74170951e-13 0 0)
(9.91229159e-13 0 0)
(1.40690411e-12 0 0)
(7.82439476e-13 0 0)
(6.88599727e-13 0 0)
(5.54227036e-13 0 0)
(8.1327056e-13 0 0)
(1.17191405e-12 0 0)
(6.32845319e-13 0 0)
(9.95581254e-13 0 0)
(4.23415961e-13 0 0)
(-4.99789617e-15 0 0)
(4.8147903e-13 0 0)
(6.62469364e-14 0 0)
(1.82310345e-13 0 0)
(8.95433302e-14 0 0)
(2.71311444e-13 0 0)
(-1.17037424e-13 0 0)
(3.63025791e-13 0 0)
(4.76770796e-13 0 0)
(2.86846371e-13 0 0)
(-4.64953682e-13 0 0)
(3.41397381e-14 0 0)
(-8.27544296e-13 0 0)
(-5.76556139e-13 0 0)
(6.60031774e-14 0 0)
(8.06210353e-15 0 0)
(-1.93377859e-13 0 0)
(-6.5953629e-14 0 0)
(-7.18839914e-13 0 0)
(2.52488143e-13 0 0)
(7.50217359e-15 0 0)
(1.00100317e-13 0 0)
(-5.23435464e-13 0 0)
(-3.71766445e-13 0 0)
(7.26192343e-15 0 0)
(7.26974401e-13 0 0)
(-2.13955383e-13 0 0)
(9.2774857e-13 0 0)
(-3.65575461e-13 0 0)
(6.99058144e-13 0 0)
(-5.07569297e-14 0 0)
(5.87667574e-13 0 0)
(-3.75606306e-13 0 0)
(3.64316228e-13 0 0)
(5.74858863e-13 0 0)
(-5.26880993e-13 0 0)
(2.78855293e-13 0 0)
(4.34619125e-13 0 0)
(5.720241e-13 0 0)
(1.98184971e-13 0 0)
(-1.92783007e-13 0 0)
(-3.22568997e-13 0 0)
(5.34162726e-13 0 0)
(5.40109671e-13 0 0)
(-2.79757383e-13 0 0)
(-3.00956399e-14 0 0)
(-3.36641703e-13 0 0)
(-3.5650067e-13 0 0)
(-9.00666687e-13 0 0)
(-9.42184029e-13 0 0)
(-6.42935766e-13 0 0)
(-1.37606388e-13 0 0)
(-5.41362066e-13 0 0)
(-6.5972782e-13 0 0)
(1.57880581e-13 0 0)
(-1.2793419e-13 0 0)
(-1.11963406e-12 0 0)
(-2.70283064e-14 0 0)
(-3.47064332e-13 0 0)
(-2.88769615e-13 0 0)
(-8.54279111e-13 0 0)
(2.63806714e-13 0 0)
(8.17832441e-15 0 0)
(-3.04871069e-13 0 0)
(-5.61476464e-13 0 0)
(-3.52266908e-13 0 0)
(9.94177279e-14 0 0)
(-1.67215322e-13 0 0)
(3.16118256e-13 0 0)
(-8.46844987e-13 0 0)
(-5.31375544e-13 0 0)
(-6.20018619e-13 0 0)
(-1.11932698e-13 0 0)
(-1.68712074e-13 0 0)
(5.90013125e-13 0 0)
(5.91140667e-13 0 0)
(3.91702613e-13 0 0)
(4.02176002e-13 0 0)
(5.40116692e-13 0 0)
(3.11397606e-13 0 0)
(-2.92333271e-14 0 0)
(-2.50038749e-13 0 0)
(3.14157968e-13 0 0)
(3.26760332e-13 0 0)
(-1.80502546e-13 0 0)
(1.152661e-12 0 0)
(2.12501793e-13 0 0)
(6.41610914e-13 0 0)
(5.64858483e-13 0 0)
(1.23403282e-12 0 0)
(2.39307683e-13 0 0)
(2.76155293e-13 0 0)
(1.06007468e-12 0 0)
(1.58939664e-12 0 0)
(1.70315216e-12 0 0)
(1.83836738e-12 0 0)
(8.42993872e-13 0 0)
(9.09558804e-13 0 0)
(1.09519842e-12 0 0)
(1.36728054e-12 0 0)
(1.56992531e-12 0 0)
(1.72227585e-12 0 0)
(1.47522999e-12 0 0)
(2.02768092e-12 0 0)
(2.45599134e-12 0 0)
(1.28970918e-12 0 0)
(1.28136117e-12 0 0)
(1.05850004e-12 0 0)
(1.89547414e-12 0 0)
(1.36797461e-12 0 0)
(1.4726085e-12 0 0)
(1.57317755e-12 0 0)
(1.94314006e-12 0 0)
(1.71012224e-12 0 0)
(1.21625822e-12 0 0)
(1.68848188e-12 0 0)
(2.14035054e-12 0 0)
(1.81303084e-12 0 0)
(2.80195e-12 0 0)
(1.66356925e-12 0 0)
(1.78991075e-12 0 0)
(1.81280508e-12 0 0)
(2.32005746e-12 0 0)
(1.6065749e-12 0 0)
(1.3821275e-12 0 0)
(1.59171667e-12 0 0)
(8.6975852e-13 0 0)
(1.23997029e-12 0 0)
(7.06795447e-13 0 0)
(1.5597253e-12 0 0)
(4.94200033e-13 0 0)
(1.0504844e-12 0 0)
(7.91947535e-13 0 0)
(4.03585306e-13 0 0)
(4.41825603e-13 0 0)
(7.64836255e-13 0 0)
(4.96656347e-13 0 0)
(1.03275489e-12 0 0)
(7.33274937e-13 0 0)
(9.76423854e-13 0 0)
(-4.9988725e-13 0 0)
(3.012319e-13 0 0)
(3.79014288e-13 0 0)
(-3.92163882e-13 0 0)
(-2.35464462e-13 0 0)
(-4.37256098e-13 0 0)
(-2.48927602e-13 0 0)
(-9.79744288e-13 0 0)
(-6.96913336e-13 0 0)
(-1.34268343e-12 0 0)
(-1.89520104e-12 0 0)
(-1.89435755e-12 0 0)
(-2.93604929e-12 0 0)
(-2.0701038e-12 0 0)
(-1.83676562e-12 0 0)
(-1.07205885e-12 0 0)
(-1.26715593e-12 0 0)
(-1.8425837e-12 0 0)
(-9.68665233e-13 0 0)
(-6.63249167e-13 0 0)
(-8.74884188e-13 0 0)
(-1.05977703e-12 0 0)
(-1.74716359e-12 0 0)
(-1.60445003e-12 0 0)
(-9.36317987e-13 0 0)
(4.64831409e-14 0 0)
(-6.5992076e-13 0 0)
(-1.33567387e-12 0 0)
(-5.22917454e-13 0 0)
(-7.21739706e-13 0 0)
(-7.01695898e-13 0 0)
(-3.14813708e-13 0 0)
(-5.17078586e-14 0 0)
(2.72532636e-14 0 0)
(3.50421448e-13 0 0)
(9.71847145e-13 0 0)
(3.89114344e-13 0 0)
(3.57165416e-13 0 0)
(9.3137735e-13 0 0)
(1.4330581e-12 0 0)
(7.3132273e-13 0 0)
(4.6685208e-13 0 0)
(1.05696907e-13 0 0)
(6.03858628e-13 0 0)
(4.07493669e-13 0 0)
(8.83171395e-13 0 0)
(1.2938386e-12 0 0)
(1.11265924e-12 0 0)
(8.8956464e-13 0 0)
(1.29914761e-12 0 0)
(1.09697041e-12 0 0)
(1.14455675e-12 0 0)
(1.95180796e-12 0 0)
(1.47709803e-12 0 0)
(1.95603153e-12 0 0)
(6.3963153e-13 0 0)
(1.33139272e-12 0 0)
(1.37172641e-12 0 0)
(1.45078335e-12 0 0)
(1.29706407e-12 0 0)
(9.3762163e-13 0 0)
(1.06684086e-12 0 0)
(1.43207093e-12 0 0)
(1.0289771e-12 0 0)
(7.26756736e-13 0 0)
(1.70401982e-14 0 0)
(6.76809606e-13 0 0)
(9.99833239e-13 0 0)
(4.39254635e-13 0 0)
(9.92298638e-13 0 0)
(5.40143156e-13 0 0)
(1.70189214e-13 0 0)
(-2.16640052e-13 0 0)
(9.78044125e-13 0 0)
(-9.49296191e-14 0 0)
(-9.19929561e-14 0 0)
(-3.24003807e-13 0 0)
(4.19898558e-14 0 0)
(-7.64633894e-13 0 0)
(-1.52213604e-13 0 0)
(-6.6764342e-13 0 0)
(-5.24774651e-13 0 0)
(-5.72414563e-13 0 0)
(-7.09090061e-14 0 0)
(-5.35511811e-13 0 0)
(-6.48771171e-14 0 0)
(-1.6871105e-13 0 0)
(5.37673133e-13 0 0)
(3.86777358e-13 0 0)
(-1.03961662e-13 0 0)
(-8.43684374e-13 0 0)
(2.8047993e-13 0 0)
(-4.74619974e-13 0 0)
(-1.86593439e-13 0 0)
(-6.76803016e-13 0 0)
(1.2254262e-13 0 0)
(-5.64978458e-13 0 0)
(-4.32820759e-13 0 0)
(-4.18840656e-13 0 0)
(-2.03134228e-13 0 0)
(-9.6838489e-13 0 0)
(-1.22647887e-12 0 0)
(-7.45562815e-13 0 0)
(-5.97981831e-13 0 0)
(-1.48331047e-12 0 0)
(-4.47212995e-13 0 0)
(3.15043184e-13 0 0)
(-1.10078508e-12 0 0)
(-1.7174717e-12 0 0)
(-5.27914765e-13 0 0)
(-8.50001776e-13 0 0)
(-6.53148405e-13 0 0)
(-2.48233899e-13 0 0)
(-8.00721375e-13 0 0)
(-1.12774569e-12 0 0)
(-1.03551898e-12 0 0)
(-6.2316046e-13 0 0)
(-3.48609993e-13 0 0)
(-7.92369229e-13 0 0)
(-1.50201612e-14 0 0)
(-4.8710873e-13 0 0)
(-4.97775264e-14 0 0)
(4.42679138e-14 0 0)
(-2.28383273e-14 0 0)
(-4.31442483e-13 0 0)
(-1.48473599e-13 0 0)
(4.41713723e-13 0 0)
(2.39934401e-13 0 0)
(6.55048748e-13 0 0)
(5.70673582e-14 0 0)
(3.33769672e-13 0 0)
(8.77962445e-13 0 0)
(6.57361156e-13 0 0)
(1.0819111e-12 0 0)
(5.79818192e-13 0 0)
(5.75326401e-13 0 0)
(9.95593178e-13 0 0)
(7.22690856e-13 0 0)
(4.64496171e-13 0 0)
(1.03008802e-12 0 0)
(5.24620847e-13 0 0)
(7.7703332e-13 0 0)
(7.18295525e-13 0 0)
(3.1675738e-13 0 0)
(-4.34149503e-14 0 0)
(-4.8297028e-14 0 0)
(8.96846893e-13 0 0)
(8.22625131e-13 0 0)
(1.02893214e-13 0 0)
(-5.58949482e-14 0 0)
(7.72222065e-14 0 0)
(-2.32319758e-14 0 0)
(-3.15999006e-13 0 0)
(-8.74054239e-13 0 0)
(-9.63532434e-13 0 0)
(-1.29666587e-12 0 0)
(-1.59031119e-12 0 0)
(-1.56323216e-12 0 0)
(-9.08616371e-13 0 0)
(-2.21122597e-12 0 0)
(-1.51291131e-12 0 0)
(-1.55203354e-12 0 0)
(-6.03706802e-13 0 0)
(-1.49244918e-12 0 0)
(-1.40486784e-12 0 0)
(-5.21829649e-13 0 0)
(-6.77277358e-13 0 0)
(-4.44468638e-13 0 0)
(-9.65972123e-13 0 0)
(-7.70813639e-13 0 0)
(-1.00363782e-12 0 0)
(-1.43800351e-12 0 0)
(-1.10835577e-12 0 0)
(-1.51486809e-12 0 0)
(-9.92729458e-13 0 0)
(-1.24294227e-12 0 0)
(-1.41979294e-15 0 0)
(-4.80930528e-14 0 0)
(-6.4162335e-13 0 0)
(-1.04584065e-12 0 0)
(-7.96302395e-13 0 0)
(-1.01510262e-12 0 0)
(-6.80212957e-13 0 0)
(-1.36397158e-12 0 0)
(-5.09766879e-13 0 0)
(-7.83665548e-13 0 0)
(-8.2935565e-13 0 0)
(-1.64786119e-12 0 0)
(-1.17568011e-12 0 0)
(-1.13983295e-12 0 0)
(-1.46408417e-12 0 0)
(-7.30679275e-13 0 0)
(-9.19791897e-13 0 0)
(-1.34467516e-12 0 0)
(-5.2275035e-13 0 0)
(-1.87382706e-12 0 0)
(-6.56545298e-13 0 0)
(-1.20273472e-12 0 0)
(-1.00706611e-12 0 0)
(-1.30659413e-12 0 0)
(-8.05523202e-13 0 0)
(-5.07995319e-13 0 0)
(-9.38417711e-13 0 0)
(-4.89938309e-13 0 0)
(-1.16093381e-12 0 0)
(3.39977675e-13 0 0)
(-1.40548458e-12 0 0)
(-6.01383145e-13 0 0)
(-7.42152571e-13 0 0)
(3.53716106e-13 0 0)
(-2.48886719e-13 0 0)
(-1.29774879e-13 0 0)
(3.78444409e-14 0 0)
(1.57713574e-13 0 0)
(-3.12986631e-13 0 0)
(-3.68212746e-13 0 0)
(2.38456621e-13 0 0)
(-2.82607972e-13 0 0)
(4.51364503e-13 0 0)
(2.54289355e-13 0 0)
(6.09331968e-13 0 0)
(1.49932134e-13 0 0)
(4.28276571e-13 0 0)
(1.18550972e-13 0 0)
(3.49279582e-13 0 0)
(9.39471902e-13 0 0)
(3.73032346e-13 0 0)
(9.26533838e-13 0 0)
(-2.63007095e-14 0 0)
(5.22485617e-13 0 0)
(9.26270661e-13 0 0)
(3.36452445e-13 0 0)
(1.19010184e-14 0 0)
(-2.32867081e-13 0 0)
(8.57999579e-13 0 0)
(2.87848671e-13 0 0)
(-1.77688823e-13 0 0)
(1.43387774e-12 0 0)
(6.40884115e-13 0 0)
(4.8269685e-13 0 0)
(4.23551491e-13 0 0)
(2.41615627e-13 0 0)
(-5.28496085e-13 0 0)
(2.12553613e-13 0 0)
(5.85489582e-13 0 0)
(3.04550242e-13 0 0)
(2.43022338e-13 0 0)
(-2.12733436e-13 0 0)
(-8.8176951e-13 0 0)
(-9.97449677e-13 0 0)
(-1.40304726e-12 0 0)
(-1.5060598e-12 0 0)
(-1.19396828e-12 0 0)
(-1.33311295e-12 0 0)
(-1.1911658e-12 0 0)
(-1.42793184e-12 0 0)
(-1.02452273e-12 0 0)
(-1.73202378e-12 0 0)
(-7.18252402e-13 0 0)
(-1.45301433e-12 0 0)
(-5.04622794e-13 0 0)
(-5.74835472e-13 0 0)
(-7.03165971e-13 0 0)
(-5.31989421e-13 0 0)
(3.3382749e-13 0 0)
(-6.00265448e-13 0 0)
(-9.81681988e-13 0 0)
(-1.83401831e-13 0 0)
(-1.22049791e-12 0 0)
(-1.33775224e-12 0 0)
(-1.3095953e-12 0 0)
(-6.22703949e-13 0 0)
(-1.67211618e-12 0 0)
(-1.79203306e-12 0 0)
(-1.742272e-12 0 0)
(-7.12067949e-13 0 0)
(-1.20057626e-12 0 0)
(-1.32272271e-12 0 0)
(-7.58952573e-13 0 0)
(-1.9077447e-12 0 0)
(-1.57912473e-12 0 0)
(-1.31242831e-12 0 0)
(-1.15481999e-12 0 0)
(-1.83875614e-12 0 0)
(-1.54640279e-12 0 0)
(-9.48764406e-13 0 0)
(-8.63216693e-13 0 0)
(-9.16523411e-13 0 0)
(-1.23019103e-12 0 0)
(-4.43780326e-13 0 0)
(-5.38877736e-13 0 0)
(-1.73677411e-13 0 0)
(2.47314839e-13 0 0)
(1.27934897e-13 0 0)
(5.4417326e-13 0 0)
(2.41331255e-14 0 0)
(-1.40235635e-14 0 0)
(2.5483945e-13 0 0)
(6.67150744e-13 0 0)
(5.9340276e-13 0 0)
(7.39537296e-13 0 0)
(1.41328734e-12 0 0)
(9.59744153e-13 0 0)
(9.42823119e-13 0 0)
(-4.74639343e-14 0 0)
(3.75203908e-13 0 0)
(1.95382e-12 0 0)
(5.15508941e-13 0 0)
(7.55415448e-13 0 0)
(1.22654785e-12 0 0)
(1.41469227e-12 0 0)
(1.07607317e-12 0 0)
(9.71993985e-13 0 0)
(1.23167002e-12 0 0)
(7.17413247e-13 0 0)
(8.92221046e-13 0 0)
(5.4118468e-14 0 0)
(1.43868463e-13 0 0)
(5.77557398e-13 0 0)
(6.2185243e-13 0 0)
(1.00787771e-12 0 0)
(1.08898849e-12 0 0)
(6.29553107e-13 0 0)
(4.92748568e-13 0 0)
(9.79187578e-13 0 0)
(1.01966989e-12 0 0)
(6.15958021e-13 0 0)
(1.00585993e-12 0 0)
(5.97195545e-13 0 0)
(1.10481096e-13 0 0)
(1.13216398e-13 0 0)
(6.38109721e-13 0 0)