/*--------------------------------*- C++ -*----------------------------------*\
| =========                 |                                                 |
| \\      /  F ield         | OpenFOAM: The Open Source CFD Toolbox           |
|  \\    /   O peration     | Version:  2206                                  |
|   \\  /    A nd           | Website:  www.openfoam.com                      |
|    \\/     M anipulation  |                                                 |
\*---------------------------------------------------------------------------*/
FoamFile
{
    version     2.0;
    format      ascii;
    arch        "LSB;label=32;scalar=64";
    class       volScalarField;
    location    "1.08e-05";
    object      p;
}
// * * * * * * * * * * * * * * * * * * * * * * * * * * * * * * * * * * * * * //

dimensions      [1 -1 -2 0 0 0 0];

internalField   nonuniform List<scalar> 
3183
(
101325
101325
101325
101325
101325
101325
101325
101325
101325
101325
101325
101325
101325
101325
101325
101325
101325
101325
101325
101325
101325
101325
101325
101325
101325
101325
101325
101325
101325
101325
101325
101325
101325
101325
101325
101325
101325
101325
101325
101325
101325
101325
101325
101325
101325
101325
101325
101325
101325
101325
101325
101325
101325
101325
101325
101325
101325
101325
101325
101325
101325
101325
101325
101325
101325
101325
101325
101325
101325
101325
101325
101325
101325
101325
101325
101325
101325
101325
101325
101325
101325
101325
101325
101325
101325
101325
101325
101325
101325
101325
101325
101325
101325
101325
101325
101325
101325
101325
101325
101325
101325
101325
101325
101325
101325
101325
101325
101325
101325
101325
101325
101325
101325
101325
101325
101325
101325
101325
101325
101325
101325
101325
101325
101325
101325
101325
101325
101325
101325
101325
101325
101325
101325
101325
101325
101325
101325
101325
101325
101325
101325
101325
101325
101325
101325
101325
101325
101325
101325
101325
101325
101325
101325
101325
101325
101325
101325
101325
101325
101325
101325
101325
101325
101325
101325
101325
101325
101325
101325
101325
101325
101325
101325
101325
101325
101325
101325
101325
101325
101325
101325
101325
101325
101325
101325
101325
101325
101325
101325
101325
101325
101325
101325
101325
101325
101325
101325
101325
101325
101325
101325
101325
101325
101325
101325
101325
101325
101325
101325
101325
101325
101325
101325
101325
101325
101325
101325
101325
101325
101325
101325
101325
101325
101325
101325
101325
101325
101325
101325
101325
101325
101325
101325
101325
101325
101325
101325
101325
101325
101325
101325
101325
101325
101325
101325
101325
101325
101325
101325
101325
101325
101325
101325
101325
101325
101325
101325
101325
101325
101325
101325
101325
101325
101325
101325
101325
101325
101325
101325
101325
101325
101325
101325
101325
101325
101325
101325
101325
101325
101325
101325
101325
101325
101325
101325
101325
101325
101325
101325
101325
101325
101325
101325
101325
101325
101325
101325
101325
101325
101325
101325
101325
101325
101325
101325
101325
101325
101325
101325
101325
101325
101325
101325
101325
101325
101325
101325
101325
101325
101325
101325
101325
101325
101325
101325
101325
101325
101325
101325
101325
101325
101325
101325
101325
101325
101325
101325
101325
101325
101325
101325
101325
101325
101325
101325
101325
101325
101325
101325
101325
101325
101325
101325
101325
101325
101325
101325
101325
101325
101325
101325
101325
101325
101325
101325
101325
101325
101325
101325
101325
101325
101325
101325
101325
101325
101325
101325
101325
101325
101325
101325
101325
101325
101325
101325
101325
101325
101325
101325
101325
101325
101325
101325
101325
101325
101325
101325
101325
101325
101325
101325
101325
101325
101325
101325
101325
101325
101325
101325
101325
101325
101325
101325
101325
101325
101325
101325
101325
101325
101325
101325
101325
101325
101325
101325
101325
101325
101325
101325
101325
101325
101325
101325
101325
101325
101325
101325
101325
101325
101325
101325
101325
101325
101325
101325
101325
101325
101325
101325
101325
101325
101325
101325
101325
101325
101325
101325
101325
101325
101325
101325
101325
101325
101325
101325
101325
101325
101325
101325
101325
101325
101325
101325
101325
101325
101325
101325
101325
101325
101325
101325
101325
101325
101325
101325
101325
101325
101325
101325
101325
101325
101325
101325
101325
101325
101325
101325
101325
101325
101325
101325
101325
101325
101325
101325
101325
101325
101325
101325
101325
101325
101325
101325
101325
101325
101325
101325
101325
101325
101325
101325
101325
101325
101325
101325
101325
101325
101325
101325
101325
101325
101325
101325
101325
101325
101325
101325
101325
101325
101325
101325
101325
101325
101325
101325
101325
101325
101325
101325
101325
101325
101325
101325
101325
101325
101325
101325
101325
101325
101325
101325
101325
101325
101325
101325
101325
101325
101325
101325
101325
101325
101325
101325
101325
101325
101325
101325
101325
101325
101325
101325
101325
101325
101325
101325
101325
101325
101325
101325
101325
101325
101325
101325
101325
101325
101325
101325
101325
101325
101325
101325
101325
101325
101325
101325
101325
101325
101325
101325
101325
101325
101325
101325
101325
101325
101325
101325
101325
101325
101325
101325
101325
101325
101325
101325
101325
101325
101325
101325
101325
101325
101325
101325
101325
101325
101325
101325
101325
101325
101325
101325
101325
101325
101325
101325
101325
101325
101325
101325
101325
101325
101325
101325
101325
101325
101325
101325
101325
101325
101325
101325
101325
101325
101325
101325
101325
101325
101325
101325
101325
101325
101325
101325
101325
101325
101325
101325
101325
101325
101325
101325
101325
101325
101325
101325
101325
101325
101325
101325
101325
101325
101325
101325
101325
101325
101325
101325
101325
101325
101325
101325
101325
101325
101325
101325
101325
101325
101325
101325
101325
101325
101325
101325
101325
101325
101325
101325
101325
101325
101325
101325
101325
101325
101325
101325
101325
101325
101325
101325
101325
101325
101325
101325
101325
101325
101325
101325
101325
101325
101325
101325
101325
101325
101325
101325
101325
101325
101325
101325
101325
101325
101325
101325
101325
101325
101325
101325
101325
101325
101325
101325
101325
101325
101325
101325
101325
101325
101325
101325
101325
101325
101325
101325
101325
101325
101325
101325
101325
101325
101325
101325
101325
101325
101325
101325
101325
101325
101325
101325
101325
101325
101325
101325
101325
101325
101325
101325
101325
101325
101325
101325
101325
101325
101325
101325
101325
101325
101325
101325
101325
101325
101325
101325
101325
101325
101325
101325
101325
101325
101325
101325
101325
101325
101325
101325
101325
101325
101325
101325
101325
101325
101325
101325
101325
101325
101325
101325
101325
101325
101325
101325
101325
101325
101325
101325
101325
101325
101325
101325
101325
101325
101325
101325
101325
101325
101325
101325
101325
101325
101325
101325
101325
101325
101325
101325
101325
101325
101325
101325
101325
101325
101325
101325
101325
101325
101325
101325
101325
101325
101325
101325
101325
101325
101325
101325
101325
101325
101325
101325
101325
101325
101325
101325
101325
101325
101325
101325
101325
101325
101325
101325
101325
101325
101325
101325
101325
101325
101325
101325
101325
101325
101325
101325
101325
101325
101325
101325
101325
101325
101325
101325
101325
101325
101325
101325
101325
101325
101325
101325
101325
101325
101325
101325
101325
101325
101325
101325
101325
101325
101325
101325
101325
101325
101325
101325
101325
101325
101325
101325
101325
101325
101325
101325
101325
101325
101325
101325
101325
101325
101325
101325
101325
101325
101325
101325
101325
101325
101325
101325
101325
101325
101325
101325
101325
101325
101325
101325
101325
101325
101325
101325
101325
101325
101325
101325
101325
101325
101325
101325
101325
101325
101325
101325
101325
101325
101325
101325
101325
101325
101325
101325
101325
101325
101325
101325
101325
101325
101325
101325
101325
101325
101325
101325
101325
101325
101325
101325
101325
101325
101325
101325
101325
101325
101325
101325
101325
101325
101325
101325
101325
101325
101325
101325
101325
101325
101325
101325
101325
101325
101325
101325
101325
101325
101325
101325
101325
101325
101325
101325
101325
101325
101325
101325
101325
101325
101325
101325
101325
101325
101325
101325
101325
101325
101325
101325
101325
101325
101325
101325
101325
101325
101325
101325
101325
101325
101325
101325
101325
101325
101325
101325
101325
101325
101325
101325
101325
101325
101325
101325
101325
101325
101325
101325
101325
101325
101325
101325
101325
101325
101325
101325
101325
101325
101325
101325
101325
101325
101325
101325
101325
101325
101325
101325
101325
101325
101325
101325
101325
101325
101325
101325
101325
101325
101325
101325
101325
101325
101325
101325
101325
101325
101325
101325
101325
101325
101325
101325
101325
101325
101325
101325
101325
101325
101325
101325
101325
101325
101325
101325
101325
101325
101325
101325
101325
101325
101325
101325
101325
101325
101325
101325
101325
101325
101325
101325
101325
101325
101325
101325
101325
101325
101325
101325
101325
101325
101325
101325
101325
101325
101325
101325
101325
101325
101325
101325
101325
101325
101325
101325
101325
101325
101325
101325
101325
101325
101325
101325
101325
101325
101325
101325
101325
101325
101325
101325
101325
101325
101325
101325
101325
101325
101325
101325
101325
101325
101325
101325
101325
101325
101325
101325
101325
101325
101325
101325
101325
101325
101325
101325
101325
101325
101325
101325
101325
101325
101325
101325
101325
101325
101325
101325
101325
101325
101325
101325
101325
101325
101325
101325
101325
101325
101325
101325
101325
101325
101325
101325
101325
101325
101325
101325
101325
101325
101325
101325
101325
101325
101325
101325
101325
101325
101325
101325
101325
101325
101325
101325
101325
101325
101325
101325
101325
101325
101325
101325
101325
101325
101325
101325
101325
101325
101325
101325
101325
101325
101325
101325
101325
101325
101325
101325
101325
101325
101325
101325
101325
101325
101325
101325
101325
101325
101325
101325
101325
101325
101325
101325
101325
101325
101325
101325
101325
101325
101325
101325
101325
101325
101325
101325
101325
101325
101325
101325
101325
101325
101325
101325
101325
101325
101325
101325
101325
101325
101325
101325
101325
101325
101325
101325
101325
101325
101325
101325
101325
101325
101325
101325
101325
101325
101325
101325
101325
101325
101325
101325
101325
101325
101325
101325
101325
101325
101325
101325
101325
101325
101325
101325
101325
101325
101325
101325
101325
101325
101325
101325
101325
101325
101325
101325
101325
101325
101325
101325
101325
101325
101325
101325
101325
101325
101325
101325
101325
101325
101325
101325
101325
101325
101325
101325
101325
101325
101325
101325
101325
101325
101325
101325
101325
101325
101325
101325
101325
101325
101325
101325
101325
101325
101325
101325
101325
101325
101325
101325
101325
101325
101325
101325
101325
101325
101325
101325
101325
101325
101325
101325
101325
101325
101325
101325
101325
101325
101325
101325
101325
101325
101325
101325
101325
101325
101325
101325
101325
101325
101325
101325
101325
101325
101325
101325
101325
101325
101325
101325
101325
101325
101325
101325
101325
101325
101325
101325
101325
101325
101325
101325
101325
101325
101325
101325
101325
101325
101325
101325
101325
101325
101325
101325
101325
101325
101325
101325
101325
101325
101325
101325
101325
101325
101325
101325
101325
101325
101325
101325
101325
101325
101325
101325
101325
101325
101325
101325
101325
101325
101325
101325
101325
101325
101325
101325
101325
101325
101325
101325
101325
101325
101325
101325
101325
101325
101325
101325
101325
101325
101325
101325
101325
101325
101325
101325
101325
101325
101325
101325
101325
101325
101325
101325
101325
101325
101325
101325
101325
101325
101325
101325
101325
101325
101325
101325
101325
101325
101325
101325
101325
101325
101325
101325
101325
101325
101325
101325
101325
101325
101325
101325
101325
101325
101325
101325
101325
101325
101325
101325
101325
101325
101325
101325
101325
101325
101325
101325
101325
101325
101325
101325
101325
101325
101325
101325
101325
101325
101325
101325
101325
101325
101325
101325
101325
101325
101325
101325
101325
101325
101325
101325
101325
101325
101325
101325
101325
101325
101325
101325
101325
101325
101325
101325
101325
101325
101325
101325
101325
101325
101325
101325
101325
101325
101325
101325
101325
101325
101325
101325
101325
101325
101325
101325
101325
101325
101325
101325
101325
101325
101325
101325
101325
101325
101325
101325
101325
101325
101325
101325
101325
101325
101325
101325
101325
101325
101325
101325
101325
101325
101325
101325
101325
101325
101325
101325
101325
101325
101325
101325
101325
101325
101325
101325
101325
101325
101325
101325
101325
101325
101325
101325
101325
101325
101325
101325
101325
101325
101325
101325
101325
101325
101325
101325
101325
101325
101325
101325
101325
101325
101325
101325
101325
101325
101325
101325
101325
101325
101325
101325
101325
101325
101325
101325
101325
101325
101325
101325
101325
101325
101325
101325
101325
101325
101325
101325
101325
101325
101325
101325
101325
101325
101325
101325
101325
101325
101325
101325
101325
101325
101325
101325
101325
101325
101325
101325
101325
101325
101325
101325
101325
101325
101325
101325
101325
101325
101325
101325
101325
101325
101325
101325
101325
101325
101325
101325
101325
101325
101325
101325
101325
101325
101325
101325
101325
101325
101325
101325
101325
101325
101325
101325
101325
101325
101325
101325
101325
101325
101325
101325
101325
101325
101325
101325
101325
101325
101325
101325
101325
101325
101325
101325
101325
101325
101325
101325
101325
101325
101325
101325
101325
101325
101325
101325
101325
101325
101325
101325
101325
101325
101325
101325
101325
101325
101325
101325
101325
101325
101325
101325
101325
101325
101325
101325
101325
101325
101325
101325
101325
101325
101325
101325
101325
101325
101325
101325
101325
101325
101325
101325
101325
101325
101325
101325
101325
101325
101325
101325
101325
101325
101325
101325
101325
101325
101325
101325
101325
101325
101325
101325
101325
101325
101325
101325
101325
101325
101325
101325
101325
101325
101325
101325
101325
101325
101325
101325
101325
101325
101325
101325
101325
101325
101325
101325
101325
101325
101325
101325
101325
101325
101325
101325
101325
101325
101325
101325
101325
101325
101325
101325
101325
101325
101325
101325
101325
101325
101325
101325
101325
101325
101325
101325
101325
101325
101325
101325
101325
101325
101325
101325
101325
101325
101325
101325
101325
101325
101325
101325
101325
101325
101325
101325
101325
101325
101325
101325
101325
101325
101325
101325
101325
101325
101325
101325
101325
101325
101325
101325
101325
101325
101325
101325
101325
101325
101325
101325
101325
101325
101325
101325
101325
101325
101325
101325
101325
101325
101325
101325
101325
101325
101325
101325
101325
101325
101325
101325
101325
101325
101325
101325
101325
101325
101325
101325
101325
101325
101325
101325
101325
101325
101325
101325
101324.999
101324.999
101324.999
101324.999
101324.999
101324.999
101324.999
101324.999
101324.999
101324.999
101324.999
101324.999
101324.999
101324.999
101324.999
101324.999
101324.998
101324.998
101324.998
101324.998
101324.998
101324.998
101324.998
101324.998
101324.997
101324.997
101324.997
101324.997
101324.997
101324.996
101324.996
101324.996
101324.996
101324.995
101324.995
101324.995
101324.994
101324.994
101324.993
101324.993
101324.993
101324.992
101324.992
101324.991
101324.99
101324.99
101324.989
101324.988
101324.988
101324.987
101324.986
101324.985
101324.984
101324.983
101324.982
101324.981
101324.98
101324.979
101324.977
101324.976
101324.975
101324.973
101324.971
101324.97
101324.968
101324.966
101324.964
101324.961
101324.959
101324.957
101324.954
101324.951
101324.949
101324.945
101324.942
101324.939
101324.935
101324.932
101324.928
101324.923
101324.919
101324.914
101324.909
101324.904
101324.899
101324.893
101324.887
101324.881
101324.874
101324.867
101324.859
101324.852
101324.843
101324.835
101324.826
101324.816
101324.806
101324.796
101324.785
101324.773
101324.761
101324.749
101324.735
101324.722
101324.707
101324.692
101324.676
101324.659
101324.641
101324.623
101324.604
101324.583
101324.562
101324.54
101324.517
101324.493
101324.468
101324.442
101324.414
101324.386
101324.356
101324.325
101324.292
101324.258
101324.223
101324.186
101324.148
101324.108
101324.066
101324.023
101323.978
101323.931
101323.882
101323.831
101323.778
101323.724
101323.667
101323.607
101323.546
101323.482
101323.416
101323.347
101323.276
101323.202
101323.126
101323.046
101322.964
101322.879
101322.791
101322.7
101322.606
101322.509
101322.408
101322.304
101322.197
101322.086
101321.971
101321.853
101321.731
101321.605
101321.475
101321.342
101321.204
101321.062
101320.916
101320.766
101320.612
101320.453
101320.289
101320.122
101319.949
101319.772
101319.59
101319.404
101319.213
101319.016
101318.815
101318.61
101318.399
101318.183
101317.962
101317.736
101317.505
101317.269
101317.028
101316.782
101316.531
101316.274
101316.013
101315.746
101315.475
101315.198
101314.917
101314.63
101314.339
101314.043
101313.742
101313.436
101313.126
101312.811
101312.492
101312.168
101311.84
101311.508
101311.172
101310.832
101310.488
101310.141
101309.79
101309.436
101309.079
101308.719
101308.356
101307.99
101307.622
101307.252
101306.88
101306.506
101306.13
101305.754
101305.376
101304.997
101304.618
101304.239
101303.859
101303.48
101303.101
101302.724
101302.347
101301.971
101301.598
101301.226
101300.856
101300.489
101300.125
101299.764
101299.407
101299.053
101298.703
101298.358
101298.017
101297.682
101297.351
101297.027
101296.708
101296.395
101296.089
101295.789
101295.497
101295.212
101294.934
101294.664
101294.402
101294.149
101293.904
101293.668
101293.44
101293.222
101293.013
101292.814
101292.624
101292.444
101292.274
101292.115
101291.965
101291.826
101291.697
101291.579
101291.471
101291.374
101291.288
101291.212
101291.147
101291.093
101291.049
101291.016
101290.993
101290.981
101290.979
101290.988
101291.006
101291.035
101291.074
101291.122
101291.18
101291.248
101291.325
101291.41
101291.505
101291.608
101291.719
101291.839
101291.966
101292.101
101292.243
101292.393
101292.548
101292.711
101292.879
101293.054
101293.234
101293.419
101293.609
101293.803
101294.002
101294.205
101294.411
101294.621
101294.834
101295.049
101295.267
101295.486
101295.708
101295.93
101296.154
101296.379
101296.604
101296.83
101297.055
101297.28
101297.505
101297.729
101297.952
101298.173
101298.393
101298.612
101298.828
101299.043
101299.255
101299.465
101299.672
101299.876
101300.077
101300.276
101300.471
101300.663
101300.851
101301.037
101301.218
101301.396
101301.571
101301.742
101301.909
101302.072
101302.232
101302.387
101302.539
101302.688
101302.832
101302.973
101303.11
101303.243
101303.373
101303.499
101303.621
101303.74
101303.856
101303.968
101304.077
101304.183
101304.285
101304.384
101304.481
101304.574
101304.665
101304.752
101304.837
101304.92
101305
101305.077
101305.152
101305.224
101305.295
101305.363
101305.429
101305.493
101305.555
101305.616
101305.674
101305.731
101305.786
101305.839
101305.891
101305.942
101305.991
101306.039
101306.085
101306.131
101306.175
101306.218
101306.26
101306.301
101306.341
101306.38
101306.418
101306.456
101306.493
101306.529
101306.565
101306.6
101306.634
101306.669
101306.703
101306.736
101306.769
101306.803
101306.836
101306.869
101306.902
101306.935
101306.968
101307.001
101307.035
101307.068
101307.103
101307.137
101307.172
101307.208
101307.244
101307.281
101307.318
101307.356
101307.395
101307.435
101307.475
101307.516
101307.558
101307.601
101307.645
101307.689
101307.735
101307.781
101307.828
101307.876
101307.925
101307.974
101308.025
101308.076
101308.127
101308.18
101308.233
101308.286
101308.34
101308.394
101308.448
101308.502
101308.557
101308.612
101308.666
101308.721
101308.775
101308.829
101308.882
101308.935
101308.987
101309.039
101309.09
101309.14
101309.189
101309.237
101309.284
101309.33
101309.375
101309.418
101309.461
101309.501
101309.541
101309.579
101309.616
101309.651
101309.685
101309.718
101309.749
101309.779
101309.807
101309.834
101309.86
101309.884
101309.907
101309.929
101309.95
101309.97
101309.988
101310.006
101310.023
101310.039
101310.053
101310.068
101310.081
101310.094
101310.106
101310.117
101310.128
101310.138
101310.147
101310.156
101310.165
101310.173
101310.18
101310.187
101310.194
101310.2
101310.205
101310.209
101310.213
101310.217
101310.219
101310.221
101310.222
101310.222
101310.221
101310.22
101310.217
101310.213
101310.208
101310.202
101310.195
101310.186
101310.177
101310.166
101310.154
101310.141
101310.127
101310.112
101310.097
101310.081
101310.064
101310.047
101310.03
101310.013
101309.997
101309.982
101309.968
101309.956
101309.946
101309.939
101309.936
101309.936
101309.941
101309.951
101309.967
101309.988
101310.017
101310.053
101310.097
101310.148
101310.209
101310.277
101310.354
101310.44
101310.533
101310.634
101310.741
101310.854
101310.971
101311.09
101311.21
101311.328
101311.443
101311.552
101311.653
101311.743
101311.821
101311.884
101311.931
101311.96
101311.972
101311.967
101311.945
101311.909
101311.862
101311.806
101311.744
101311.679
101311.615
101311.547
101311.462
101311.353
101311.622
101311.862
101311.852
101311.048
101310.969
101311.006
101311.179
101311.263
101311.398
101311.461
101311.54
101311.581
101311.625
101311.661
101311.7
101311.738
101311.779
101311.82
101311.86
101311.9
101311.936
101311.97
101311.999
101312.023
101312.04
101312.052
101312.056
101312.054
101312.044
101312.027
101312.002
101311.971
101311.933
101311.889
101311.838
101311.783
101311.723
101311.659
101311.591
101311.52
101311.447
101311.372
101311.295
101311.218
101311.141
101311.064
101310.987
101310.912
101310.838
101310.766
101310.695
101310.627
101310.562
101310.499
101310.439
101310.382
101310.328
101310.277
101310.229
101310.184
101310.142
101310.104
101310.068
101310.035
101310.006
101309.979
101309.955
101309.934
101309.915
101309.899
101309.885
101309.873
101309.863
101309.856
101309.85
101309.846
101309.844
101309.843
101309.844
101309.846
101309.849
101309.853
101309.858
101309.865
101309.871
101309.879
101309.888
101309.896
101309.906
101309.915
101309.926
101309.936
101309.946
101309.957
101309.968
101309.978
101309.989
101310
101310.011
101310.021
101310.031
101310.041
101310.051
101310.061
101310.07
101310.079
101310.088
101310.096
101310.104
101310.112
101310.119
101310.126
101310.132
101310.138
101310.144
101310.15
101310.154
101310.159
101310.163
101310.167
101310.17
101310.173
101310.176
101310.178
101310.18
101310.181
101310.182
101310.183
101310.183
101310.183
101310.183
101310.183
101310.182
101310.18
101310.179
101310.177
101310.175
101310.173
101310.17
101310.167
101310.164
101310.161
101310.158
101310.154
101310.15
101310.146
101310.141
101310.137
101310.132
101310.127
101310.122
101310.117
101310.112
101310.106
101310.1
101310.095
101310.089
101310.083
101310.076
101310.07
101310.064
101310.057
101310.05
101310.044
101310.037
101310.03
101310.022
101310.015
101310.008
101310
101309.993
101309.985
101309.977
101309.969
101309.961
101309.953
101309.944
101309.936
101309.927
101309.918
101309.909
101309.899
101309.89
101309.88
101309.87
101309.86
101309.85
101309.84
101309.83
101309.819
101309.808
101309.797
101309.786
101309.774
101309.762
101309.75
101309.738
101309.725
101309.713
101309.699
101309.686
101309.672
101309.659
101309.644
101309.63
101309.615
101309.6
101309.584
101309.569
101309.553
101309.536
101309.52
101309.503
101309.485
101309.468
101309.45
101309.432
101309.413
101309.394
101309.375
101309.355
101309.335
101309.315
101309.295
101309.274
101309.253
101309.231
101309.209
101309.187
101309.165
101309.142
101309.119
101309.096
101309.072
101309.049
101309.025
101309
101308.976
101308.951
101308.926
101308.901
101308.875
101308.849
101308.823
101308.797
101308.771
101308.745
101308.718
101308.691
101308.664
101308.637
101308.61
101308.583
101308.556
101308.528
101308.501
101308.473
101308.446
101308.418
101308.39
101308.363
101308.335
101308.307
101308.279
101308.252
101308.224
101308.196
101308.169
101308.141
101308.114
101308.086
101308.059
101308.032
101308.005
101307.978
101307.951
101307.924
101307.898
101307.871
101307.845
101307.819
101307.793
101307.767
101307.741
101307.716
101307.69
101307.665
101307.64
101307.616
101307.591
101307.567
101307.542
101307.518
101307.495
101307.471
101307.448
101307.425
101307.402
101307.379
101307.356
101307.334
101307.312
101307.29
101307.268
101307.246
101307.225
101307.204
101307.183
101307.162
101307.141
101307.121
101307.101
101307.081
101307.061
101307.041
101307.021
101307.002
101306.982
101306.963
101306.944
101306.925
101306.906
101306.887
101306.869
101306.85
101306.832
101306.813
101306.795
101306.777
101306.759
101306.741
101306.723
101306.705
101306.687
101306.669
101306.651
101306.633
101306.616
101306.598
101306.58
101306.562
101306.544
101306.526
101306.508
101306.49
101306.472
101306.454
101306.436
101306.418
101306.4
101306.382
101306.363
101306.345
101306.326
101306.307
101306.289
101306.27
101306.251
101306.231
101306.212
101306.193
101306.173
101306.153
101306.133
101306.113
101306.093
101306.072
101306.052
101306.031
101306.01
101305.988
101305.967
101305.945
101305.923
101305.901
101305.878
101305.856
101305.833
101305.809
101305.786
101305.762
101305.738
101305.714
101305.689
101305.664
101305.639
101305.613
101305.587
101305.561
101305.535
101305.508
101305.48
101305.453
101305.425
101305.396
101305.368
101305.338
101305.309
101305.279
101305.249
101305.218
101305.186
101305.155
101305.123
101305.09
101305.057
101305.023
101304.989
101304.955
101304.92
101304.884
101304.848
101304.812
101304.774
101304.737
101304.698
101304.659
101304.62
101304.58
101304.539
101304.498
101304.456
101304.414
101304.37
101304.327
101304.282
101304.237
101304.191
101304.144
101304.097
101304.049
101304
101303.951
101303.901
101303.85
101303.798
101303.745
101303.692
101303.638
101303.583
101303.527
101303.47
101303.412
101303.354
101303.295
101303.235
101303.174
101303.112
101303.049
101302.985
101302.921
101302.855
101302.789
101302.721
101302.653
101302.584
101302.513
101302.442
101302.37
101302.297
101302.223
101302.147
101302.071
101301.994
101301.916
101301.837
101301.757
101301.676
101301.593
101301.51
101301.426
101301.341
101301.255
101301.168
101301.08
101300.99
101300.9
101300.809
101300.717
101300.624
101300.53
101300.435
101300.339
101300.242
101300.144
101300.045
101299.945
101299.845
101299.743
101299.641
101299.537
101299.433
101299.328
101299.222
101299.115
101299.008
101298.899
101298.79
101298.681
101298.57
101298.459
101298.347
101298.234
101298.116
101297.989
101297.853
101297.705
101297.546
101297.375
101297.19
101296.991
101296.776
101296.545
101296.297
101296.029
101295.742
101295.435
101295.105
101294.754
101294.38
101293.983
101293.564
101293.125
101292.668
101292.198
101291.719
101291.241
101290.774
101290.333
101289.937
101289.608
101289.376
101289.275
101289.344
101289.629
101290.177
101291.035
101292.248
101293.849
101295.855
101298.259
101301.022
101304.069
101307.291
101310.546
101313.679
101316.54
101319.004
101320.996
101322.497
101323.545
101324.219
101324.615
101324.827
101324.929
101324.974
101324.992
101324.998
101325
101325
101325
101325
101325
101325
101325
101325
101325
101325
101325
101325
101325
101325
101325
101325
101325
101325
101325
101325
101325
101325
)
;

boundaryField
{
    closed
    {
        type            zeroGradient;
    }
    open
    {
        type            waveTransmissive;
        gamma           1.25;
        fieldInf        101325;
        lInf            1;
        value           uniform 101325;
    }
    sides
    {
        type            empty;
    }
}


// ************************************************************************* //
