/*--------------------------------*- C++ -*----------------------------------*\
| =========                 |                                                 |
| \\      /  F ield         | OpenFOAM: The Open Source CFD Toolbox           |
|  \\    /   O peration     | Version:  2206                                  |
|   \\  /    A nd           | Website:  www.openfoam.com                      |
|    \\/     M anipulation  |                                                 |
\*---------------------------------------------------------------------------*/
FoamFile
{
    version     2.0;
    format      ascii;
    arch        "LSB;label=32;scalar=64";
    class       volScalarField;
    location    "1.08e-05";
    object      sourcePV;
}
// * * * * * * * * * * * * * * * * * * * * * * * * * * * * * * * * * * * * * //

dimensions      [1 -3 -1 0 0 0 0];

internalField   nonuniform List<scalar> 
3183
(
0
0
0
0
0
0
0
0
0
0
0
0
0
0
0
0
0
0
0
0
0
0
0
0
0
0
0
0
0
0
0
0
0
0
0
0
0
0
0
0
0
0
0
0
0
0
0
0
0
0
0
0
0
0
0
0
0
0
0
0
0
0
0
0
0
0
0
0
0
0
0
0
0
0
0
0
0
0
0
0
0
0
0
0
0
0
0
0
0
0
0
0
0
0
0
0
0
0
0
0
0
0
0
0
0
0
0
0
0
0
0
0
0
0
0
0
0
0
0
0
0
0
0
0
0
0
0
0
0
0
0
0
0
0
0
0
0
0
0
0
0
0
0
0
0
0
0
0
0
0
0
0
0
0
0
0
0
0
0
0
0
0
0
0
0
0
0
0
0
0
0
0
0
0
0
0
0
0
0
0
0
0
0
0
0
0
0
0
0
0
0
0
0
0
0
0
0
0
0
0
0
0
0
0
0
0
0
0
0
0
0
0
0
0
0
0
0
0
0
0
0
0
0
0
0
0
0
0
0
0
0
0
0
0
0
0
0
0
0
0
0
0
0
0
0
0
0
0
0
0
0
0
0
0
0
0
0
0
0
0
0
0
0
0
0
0
0
0
0
0
0
0
0
0
0
0
0
0
0
0
0
0
0
0
0
0
0
0
0
0
0
0
0
0
0
0
0
0
0
0
0
0
0
0
0
0
0
0
0
0
0
0
0
0
0
0
0
0
0
0
0
0
0
0
0
0
0
0
0
0
0
0
0
0
0
0
0
0
0
0
0
0
0
0
0
0
0
0
0
0
0
0
0
0
0
0
0
0
0
0
0
0
0
0
0
0
0
0
0
0
0
0
0
0
0
0
0
0
0
0
0
0
0
0
0
0
0
0
0
0
0
0
0
0
0
0
0
0
0
0
0
0
0
0
0
0
0
0
0
0
0
0
0
0
0
0
0
0
0
0
0
0
0
0
0
0
0
0
0
0
0
0
0
0
0
0
0
0
0
0
0
0
0
0
0
0
0
0
0
0
0
0
0
0
0
0
0
0
0
0
0
0
0
0
0
0
0
0
0
0
0
0
0
0
0
0
0
0
0
0
0
0
0
0
0
0
0
0
0
0
0
0
0
0
0
0
0
0
0
0
0
0
0
0
0
0
0
0
0
0
0
0
0
0
0
0
0
0
0
0
0
0
0
0
0
0
0
0
0
0
0
0
0
0
0
0
0
0
0
0
0
0
0
0
0
0
0
0
0
0
0
0
0
0
0
0
0
0
0
0
0
0
0
0
0
0
0
0
0
0
0
0
0
0
0
0
0
0
0
0
0
0
0
0
0
0
0
0
0
0
0
0
0
0
0
0
0
0
0
0
0
0
0
0
0
0
0
0
0
0
0
0
0
0
0
0
0
0
0
0
0
0
0
0
0
0
0
0
0
0
0
0
0
0
0
0
0
0
0
0
0
0
0
0
0
0
0
0
0
0
0
0
0
0
0
0
0
0
0
0
0
0
0
0
0
0
0
0
0
0
0
0
0
0
0
0
0
0
0
0
0
0
0
0
0
0
0
0
0
0
0
0
0
0
0
0
0
0
0
0
0
0
0
0
0
0
0
0
0
0
0
0
0
0
0
0
0
0
0
0
0
0
0
0
0
0
0
0
0
0
0
0
0
0
0
0
0
0
0
0
0
0
0
0
0
0
0
0
0
0
0
0
0
0
0
0
0
0
0
0
0
0
0
0
0
0
0
0
0
0
0
0
0
0
0
0
0
0
0
0
0
0
0
0
0
0
0
0
0
0
0
0
0
0
0
0
0
0
0
0
0
0
0
0
0
0
0
0
0
0
0
0
0
0
0
0
0
0
0
0
0
0
0
0
0
0
0
0
0
0
0
0
0
0
0
0
0
0
0
0
0
0
0
0
0
0
0
0
0
0
0
0
0
0
0
0
0
0
0
0
0
0
0
0
0
0
0
0
0
0
0
0
0
0
0
0
0
0
0
0
0
0
0
0
0
0
0
0
0
0
0
0
0
0
0
0
0
0
0
0
0
0
0
0
0
0
0
0
0
0
0
0
0
0
0
0
0
0
0
0
0
0
0
0
0
0
0
0
0
0
0
0
0
0
0
0
0
0
0
0
0
0
0
0
0
0
0
0
0
0
0
0
0
0
0
0
0
0
0
0
0
0
0
0
0
0
0
0
0
0
0
0
0
0
0
0
0
0
0
0
0
0
0
0
0
0
0
0
0
0
0
0
0
0
0
0
0
0
0
0
0
0
0
0
0
0
0
0
0
0
0
0
0
0
0
0
0
0
0
0
0
0
0
0
0
0
0
0
0
0
0
0
0
0
0
0
0
0
0
0
0
0
0
0
0
0
0
0
0
0
0
0
0
0
0
0
0
0
0
0
0
0
0
0
0
0
0
0
0
0
0
0
0
0
0
0
0
0
0
0
0
0
0
0
0
0
0
0
0
0
0
0
0
0
0
0
0
0
0
0
0
0
0
0
0
0
0
0
0
0
0
0
0
0
0
0
0
0
0
0
0
0
0
0
0
0
0
0
0
0
0
0
0
0
0
0
0
0
0
0
0
0
0
0
0
0
0
0
0
0
0
0
0
0
0
0
0
0
0
0
0
0
0
0
0
0
0
0
0
0
0
0
0
0
0
0
0
0
0
0
0
0
0
0
0
0
0
0
0
0
0
0
0
0
0
0
0
0
0
0
0
0
0
0
0
0
0
0
0
0
0
0
0
0
0
0
0
0
0
0
0
0
0
0
0
0
0
0
0
0
0
0
0
0
0
0
0
0
0
0
0
0
0
0
0
0
0
0
0
0
0
0
0
0
0
0
0
0
0
0
0
0
0
0
0
0
0
0
0
0
0
0
0
0
0
0
0
0
0
0
0
0
0
0
0
0
0
0
0
0
0
0
0
0
0
0
0
0
0
0
0
0
0
0
0
0
0
0
0
0
0
0
0
0
0
0
0
0
0
0
0
0
0
0
0
0
0
0
0
0
0
0
0
0
0
0
0
0
0
0
0
0
0
0
0
0
0
0
0
0
0
0
0
0
0
0
0
0
0
0
0
0
0
0
0
0
0
0
0
0
0
0
0
0
0
0
0
0
0
0
0
0
0
0
0
0
0
0
0
0
0
0
0
0
0
0
0
0
0
0
0
0
0
0
0
0
0
0
0
0
0
0
0
0
0
0
0
0
0
0
0
0
0
0
0
0
0
0
0
0
0
0
0
0
0
0
0
0
0
0
0
0
0
0
0
0
0
0
0
0
0
0
0
0
0
0
0
0
0
0
0
0
0
0
0
0
0
0
0
0
0
0
0
0
0
0
0
0
0
0
0
0
0
0
0
0
0
0
0
0
0
0
0
0
0
0
0
0
0
0
0
0
0
0
0
0
0
0
0
0
0
0
0
0
0
0
0
0
0
0
0
0
0
0
0
0
0
0
0
0
0
0
0
0
0
0
0
0
0
0
0
0
0
0
0
0
0
0
0
0
0
0
0
0
0
0
0
0
0
0
0
0
0
0
0
0
0
0
0
0
0
0
0
0
0
0
0
0
0
0
0
0
0
0
0
0
0
0
0
0
0
0
0
0
0
0
0
0
0
0
0
0
0
0
0
0
0
0
0
0
0
0
0
0
0
0
0
0
0
0
0
0
0
0
0
0
0
0
0
0
0
0
0
0
0
0
0
0
0
0
0
0
0
0
0
0
0
0
0
0
0
0
0
0
0
0
0
0
0
0
0
0
0
0
0
0
0
0
0
0
0
0
0
0
0
0
0
0
0
0
0
0
0
0
0
0
0
0
0
0
0
0
0
0
0
0
0
0
0
0
0
0
0
0
0
0
0
0
0
0
0
0
0
0
0
0
0
0
0
0
0
0
0
0
0
0
0
0
0
0
0
0
0
0
0
0
0
0
0
0
0
0
0
0
0
0
0
0
0
0
0
0
0
0
0
0
0
0
0
0
0
0
0
0
0
0
0
0
0
0
0
0
0
0
0
0
0
0
0
0
0
0
0
0
0
0
0
0
0
0
0
0
0
0
0
0
0
0
0
0
0
0
0
0
0
0
0
0
0
0
0
0
0
0
0
0
0
0
0
0
0
0
0
0
0
0
0
0
0
0
0
0
0
0
0
0
0
0
0
0
0
0
0
0
0
0
0
0
0
0
0
0
0
0
0
0
0
0
0
0
0
0
0
0
0
0
0
0
0
0
0
0
0
0
0
0
0
0
0
0
0
0
0
0
0
0
0
0
0
0
0
0
0
0
0
0
0
0
0
0
0
0
0
0
0
0
0
0
0
0
0
0
0
0
0
0
0
0
0
0
0
0
0
0
0
0
0
0
0
0
0
0
0
0
0
0
0
0
0
0
0
0
0
0
0
0
0
0
0
0
0
0
0
0
0
0
0
0
0
0
0
0
0
0
0
0
0
0
0
0
0
0
0
0
0
0
0
0
0
0
0
0
0
0
0
0
0
0
0
0
0
0
0
0
0
0
0
0
0
0
0
0
0
0
0
0
0
0
0
0
0
0
0
0
0
0
0
0
0
0
0
0
0
0
0
0
0
0
0
0
0
0
0
0
0
0
0
0
0
0
0
0
0
0
0
0
0
0
0
0
0
0
0
0
0
0
0
0
0
0
0
0
0
0
0
0
0
0
0
0
0
0
0
0
0
0
0
0
0
0
0
0
0
0
0
0
0
0
0
0
0
0
0
0
0
0
0
0
0
0
0
0
0
0
0
0
0
0
0
0
0
0
0
0
0
0
0
0
0
0
0
0
0
0
0
0
0
0
0
0
0
0
0
0
0
0
0
0
0
0
0
0
0
0
0
0
0
0
0
0
0
0
0
0
0
0
0
0
0
0
0
0
0
0
0
0
0
0
0
0
0
0
0
0
0
0
0
0
0
0
0
0
0
0
0
0
0
0
0
0
0
0
0
0
0
0
0
0
0
0
0
0
0
0
0
0
0
0
0
0
0
0
0
0
0
0
0
0
0
0
0
0
0
0
0
0
0
0
0
0
0
0
0
0
0
0
0
0
0
0
0
0
0
0
0
0
0
0
0
0
0
0
0
0
0
0
0
0
0
0
0
0
0
0
0
0
0
0
0
0
0
0
0
0
0
0
0
0
0
0
0
0
0
0
0
0
0
0
0
0
0
0
0
0
0
0
0
0
0
0
0
0
0
0
0
0
0
0
0
0
0
0
0
0
0
0
0
0
0
0
0
0
0
0
0
0
0
0
0
0
0
0
0
0
0
0
0
0
0
0
0
0
0
0
0
0
0
0
0
0
0
0
0
0
0
0
0
0
0
0
0
0
0
0
0
0
0
0
0
0
0
0
0
0
0
4.98413438e-298
0
4.70154414e-295
5.31691252e-297
4.35522402e-292
1.28050965e-293
3.96286336e-289
1.85320339e-290
3.5427441e-286
2.23521209e-287
3.1124358e-283
2.46692901e-284
2.68771679e-280
2.54549848e-281
2.28179486e-277
2.51164742e-278
1.9048572e-274
2.36799059e-275
1.56393672e-271
2.15938535e-272
1.26305054e-268
1.9121223e-269
1.0035449e-265
1.64874474e-266
7.84572712e-263
1.3872213e-263
6.03631497e-260
1.1407308e-260
4.57100023e-257
9.17926724e-258
3.40726652e-254
7.2352831e-255
2.50039122e-251
5.59089611e-252
1.80661267e-248
4.23819465e-249
1.28535311e-245
3.15356764e-246
9.00579822e-243
2.30439091e-243
6.21446027e-240
1.65433672e-240
4.22378965e-237
1.16724471e-237
2.82782309e-234
8.09666786e-235
1.86502208e-231
5.52301493e-232
1.21178494e-228
3.70575008e-229
7.75715372e-226
2.44623445e-226
4.89257402e-223
1.5889975e-223
3.04054168e-220
1.01583488e-220
1.86191988e-217
6.39235513e-218
1.12352565e-214
3.95997142e-215
6.68082448e-212
2.41526757e-212
3.91483026e-209
1.45051731e-209
2.26068468e-206
8.57831024e-207
1.28652216e-203
4.99612357e-204
7.21520202e-201
2.86578553e-201
3.98781553e-198
1.61903109e-198
2.17208116e-195
9.00917939e-196
1.16591855e-192
4.93795652e-193
6.16745479e-190
2.66594248e-190
3.21500322e-187
1.41775605e-187
1.6515215e-184
7.42679712e-185
8.35991284e-182
3.83221167e-182
4.16983493e-179
1.94778231e-179
2.04935885e-176
9.75138013e-177
9.92382613e-174
4.8085587e-174
4.73456054e-171
2.33545797e-171
2.22532995e-168
1.11717023e-168
1.03037553e-165
5.26302491e-166
4.69950932e-163
2.44171859e-163
2.11121295e-160
1.11550612e-160
9.34109865e-158
5.01802952e-158
4.07015722e-155
2.22251522e-155
1.7463433e-152
9.69099818e-153
7.37748023e-150
4.15970941e-150
3.06830165e-147
1.75745047e-147
1.25616838e-144
7.30768929e-145
5.06176826e-142
2.99020818e-142
2.00725456e-139
1.20390098e-139
7.83223861e-137
4.76856504e-137
3.00667307e-134
1.85792302e-134
1.1353581e-131
7.11937601e-132
4.2164906e-129
2.68260675e-129
1.53979123e-126
9.9379073e-127
5.52816647e-124
3.61886848e-124
1.9508333e-121
1.29509774e-121
6.76526814e-119
4.55397615e-119
2.30502813e-116
1.57303481e-116
7.71415869e-114
5.33629999e-114
2.53519087e-111
1.77739968e-111
8.17945984e-109
5.81105365e-109
2.59003507e-106
1.86433727e-106
8.0467689e-104
5.86761004e-104
2.45206628e-101
1.81102527e-101
7.32637546e-99
5.47980444e-99
2.14553152e-96
1.62489204e-96
6.15605034e-94
4.71992029e-94
1.72986934e-91
1.34250763e-91
4.75860232e-89
3.73749558e-89
1.28085345e-86
1.01794438e-86
3.37177962e-84
2.7110104e-84
8.6762118e-82
7.05621854e-82
2.18106353e-79
1.7939108e-79
5.35319094e-77
4.45199687e-77
1.28198788e-74
1.07783575e-74
2.9935194e-72
2.54385367e-72
6.8105953e-70
5.8485615e-70
1.50850284e-67
1.30880265e-67
3.25005864e-65
2.84833297e-65
6.80480872e-63
6.02270597e-63
1.38319111e-60
1.23604911e-60
2.72655391e-58
2.45948271e-58
5.20586899e-56
4.73907849e-56
9.61508859e-54
8.83112395e-54
1.71543205e-51
1.58922425e-51
2.95169275e-49
2.75749237e-49
4.88981311e-47
4.60515953e-47
7.78396431e-45
7.38813846e-45
1.18813417e-42
1.1361828e-42
1.73477525e-40
1.67083941e-40
2.41634751e-38
2.34321451e-38
3.200978e-36
3.12419643e-36
4.01877293e-34
3.94617588e-34
4.76259067e-32
4.70261198e-32
5.30276154e-30
5.26135689e-30
5.51682312e-28
5.49269385e-28
5.3281841e-26
5.30763283e-26
4.73997049e-24
4.69920412e-24
3.84701877e-22
3.76182725e-22
2.81473493e-20
2.81120843e-20
1.8272004e-18
1.81647883e-18
1.03208763e-16
1.02264062e-16
4.93079824e-15
4.90367443e-15
1.91265609e-13
1.91293647e-13
5.64728191e-12
5.68466717e-12
4.4038346e-09
4.55218313e-09
0.328952761
1.19976023
9.91327333
10.2441296
5.22081915
4.32604097
0.801844373
0.649960521
0.12260283
0.110968102
0.020084457
0.0190896308
0.00292578251
0.0028944228
0.00039880522
0.000399127242
5.61429444e-05
5.61333139e-05
1.33643593e-05
1.337646e-05
8.49632069e-06
8.4965178e-06
7.98140223e-06
7.98152363e-06
7.93088994e-06
7.93091208e-06
7.9262563e-06
7.92626981e-06
7.92583722e-06
7.92586592e-06
7.92581958e-06
7.92583563e-06
7.9258076e-06
7.925841e-06
7.92579166e-06
7.92583525e-06
7.92581582e-06
7.92581332e-06
7.9258203e-06
7.92580536e-06
7.92582183e-06
7.92580977e-06
7.92583091e-06
7.92580956e-06
7.9258237e-06
7.92582305e-06
7.92582597e-06
7.92581704e-06
7.92582428e-06
7.9258163e-06
7.92582961e-06
7.92580942e-06
7.92583004e-06
7.92581229e-06
7.92582278e-06
7.9258225e-06
7.92581507e-06
7.92582203e-06
7.92581848e-06
7.92581677e-06
7.92582567e-06
7.92582095e-06
7.92582093e-06
7.92582039e-06
7.92581832e-06
7.92581312e-06
7.92583069e-06
7.92581953e-06
7.92582172e-06
7.92580701e-06
7.92581418e-06
7.92582185e-06
7.92581179e-06
7.92582364e-06
7.92580797e-06
7.92582657e-06
7.92582049e-06
7.92582835e-06
7.92582037e-06
7.92582736e-06
7.92581049e-06
7.92583142e-06
7.92581778e-06
7.92581956e-06
7.92582571e-06
7.92581003e-06
7.92582948e-06
7.92580311e-06
7.92583168e-06
7.92580753e-06
7.92582713e-06
7.92581463e-06
7.925822e-06
7.92582824e-06
7.92582126e-06
7.92582607e-06
7.92582352e-06
7.92582012e-06
7.92583306e-06
7.92582227e-06
7.92582038e-06
7.92583051e-06
7.92582616e-06
7.92582799e-06
7.925826e-06
7.92582178e-06
7.92581803e-06
7.92582424e-06
7.92582083e-06
7.92582711e-06
7.92581835e-06
7.92581458e-06
7.92581817e-06
7.92582027e-06
7.9258181e-06
7.9258192e-06
7.92581572e-06
7.92582774e-06
7.92581472e-06
7.92583167e-06
7.92581664e-06
7.92583076e-06
7.92581554e-06
7.92583164e-06
7.92581689e-06
7.92583063e-06
7.92581698e-06
7.92583177e-06
7.92581646e-06
7.9258365e-06
7.92581589e-06
7.92583076e-06
7.92583071e-06
7.92583233e-06
7.92583015e-06
7.92581901e-06
7.92584235e-06
7.9258165e-06
7.92582875e-06
7.92581733e-06
7.92581765e-06
7.92582547e-06
7.92581248e-06
7.92581561e-06
7.92582114e-06
7.92582034e-06
7.92581729e-06
7.92581748e-06
7.92582816e-06
7.92581826e-06
7.92583598e-06
7.92580751e-06
7.92583653e-06
7.92581645e-06
7.92582986e-06
7.92582246e-06
7.92581555e-06
7.9258264e-06
7.92582764e-06
7.92582203e-06
7.92584128e-06
7.92581939e-06
7.92583672e-06
7.92582444e-06
7.92583388e-06
7.92582196e-06
7.92582763e-06
7.92581514e-06
7.92582342e-06
7.92581507e-06
7.92582706e-06
7.92582179e-06
7.92581763e-06
7.92582232e-06
7.92582588e-06
7.92582943e-06
7.92583025e-06
7.92583438e-06
7.92583071e-06
7.92583282e-06
7.9258425e-06
7.92583279e-06
7.92584142e-06
7.92582699e-06
7.9258307e-06
7.92582327e-06
7.92582687e-06
7.92582012e-06
7.92583426e-06
7.92582748e-06
7.92583104e-06
7.92581938e-06
7.92584207e-06
7.92582525e-06
7.92583806e-06
7.92582152e-06
7.92582831e-06
7.92582111e-06
7.92582971e-06
7.92581251e-06
7.92583776e-06
7.92582471e-06
7.92583667e-06
7.92581819e-06
7.9258279e-06
7.92582673e-06
7.92583044e-06
7.92582251e-06
7.92584161e-06
7.92583474e-06
7.9258446e-06
7.92582201e-06
7.92583702e-06
7.92582888e-06
7.92583129e-06
7.92583282e-06
7.92582923e-06
7.92583228e-06
7.92582705e-06
7.9258297e-06
7.92583082e-06
7.92583695e-06
7.92582406e-06
7.92581824e-06
7.92582916e-06
7.92582396e-06
7.92583078e-06
7.92583232e-06
7.9258284e-06
7.92584137e-06
7.92582847e-06
7.92583054e-06
7.92583842e-06
7.92582761e-06
7.92583279e-06
7.92583278e-06
7.92582924e-06
7.9258376e-06
7.92583006e-06
7.92584204e-06
7.92582913e-06
7.92584353e-06
7.92582862e-06
7.92584186e-06
7.92582042e-06
7.92584527e-06
7.92582519e-06
7.92583686e-06
7.92582199e-06
7.92582552e-06
7.92584065e-06
7.92583312e-06
7.92583935e-06
7.92583431e-06
7.92582159e-06
7.92584206e-06
7.92582561e-06
7.92584213e-06
7.92583653e-06
7.92582752e-06
7.92584314e-06
7.92582985e-06
7.92584595e-06
7.92582375e-06
7.92584917e-06
7.92582358e-06
7.92583498e-06
7.9258223e-06
7.9258341e-06
7.92582194e-06
7.92584303e-06
7.92582439e-06
7.92582745e-06
7.92583887e-06
7.92582502e-06
7.92583886e-06
7.92583278e-06
7.92584243e-06
7.92583175e-06
7.92583117e-06
7.92584017e-06
7.92583507e-06
7.92582853e-06
7.92584334e-06
7.92583269e-06
7.92582443e-06
7.92583537e-06
7.92582408e-06
7.92583382e-06
7.92584297e-06
7.92582923e-06
7.92583752e-06
7.92583432e-06
7.92583515e-06
7.92583036e-06
7.925831e-06
7.92583055e-06
7.9258377e-06
7.92583784e-06
7.92583347e-06
7.92583419e-06
7.92583937e-06
7.92583421e-06
7.92583958e-06
7.92583164e-06
7.92583977e-06
7.9258302e-06
7.92583617e-06
7.92583098e-06
7.92583772e-06
7.9258355e-06
7.92583993e-06
7.92582797e-06
7.92583521e-06
7.92583538e-06
7.92582963e-06
7.92584101e-06
7.92582794e-06
7.92584334e-06
7.92583058e-06
7.92583691e-06
7.92583553e-06
7.92583933e-06
7.92583175e-06
7.92584251e-06
7.92583525e-06
7.92583086e-06
7.92583906e-06
7.9258345e-06
7.92584613e-06
7.92582645e-06
7.9258423e-06
7.92583389e-06
7.92583691e-06
7.92583463e-06
7.92583644e-06
7.92583343e-06
7.92583816e-06
7.92582822e-06
7.92583722e-06
7.92583523e-06
7.92584511e-06
7.92582754e-06
7.92583724e-06
7.92584631e-06
7.92583569e-06
7.92583905e-06
7.92583521e-06
7.92584055e-06
7.92582911e-06
7.92584691e-06
7.92584397e-06
7.92583153e-06
7.92583442e-06
7.92584357e-06
7.92582423e-06
7.92584966e-06
7.92583887e-06
7.9258333e-06
7.92584038e-06
7.92584501e-06
7.92582934e-06
7.92584256e-06
7.92583995e-06
7.92584724e-06
7.92584508e-06
7.92583454e-06
7.92585062e-06
7.92584385e-06
7.92584585e-06
7.92584791e-06
7.92584734e-06
7.92584334e-06
7.92584866e-06
7.925834e-06
7.92584441e-06
7.92582968e-06
7.92584497e-06
7.92584006e-06
7.92584868e-06
7.92584359e-06
7.92583812e-06
7.92584433e-06
7.9258352e-06
7.92584721e-06
7.92583317e-06
7.92583858e-06
7.92583893e-06
7.92583274e-06
7.92584297e-06
7.9258341e-06
7.92584484e-06
7.92583375e-06
7.9258416e-06
7.92584765e-06
7.9258403e-06
7.92584813e-06
7.92584197e-06
7.92584671e-06
7.92584154e-06
7.92583895e-06
7.9258416e-06
7.92583378e-06
7.9258527e-06
7.92583469e-06
7.92584648e-06
7.92583222e-06
7.925847e-06
7.92585004e-06
7.9258407e-06
7.92584882e-06
7.92584947e-06
7.92583863e-06
7.92584863e-06
7.92584684e-06
7.92584119e-06
7.9258473e-06
7.92584173e-06
7.92584167e-06
7.92584159e-06
7.92584211e-06
7.92585458e-06
7.92583301e-06
7.9258533e-06
7.92584851e-06
7.92584732e-06
7.92584649e-06
7.92584861e-06
7.92583744e-06
7.92584987e-06
7.92583975e-06
7.92584445e-06
7.92585445e-06
7.92584897e-06
7.92584745e-06
7.92584514e-06
7.92584213e-06
7.92585548e-06
7.92584338e-06
7.92585418e-06
7.92584215e-06
7.92585281e-06
7.92584231e-06
7.92585038e-06
7.92584492e-06
7.92585503e-06
7.92584841e-06
7.92585496e-06
7.92584071e-06
7.92584802e-06
7.9258478e-06
7.92583915e-06
7.9258498e-06
7.92584814e-06
7.9258495e-06
7.92585477e-06
7.92583604e-06
7.92585844e-06
7.92584609e-06
7.92583718e-06
7.92585459e-06
7.92585001e-06
7.92583855e-06
7.92585727e-06
7.92583624e-06
7.92585789e-06
7.92584762e-06
7.92584806e-06
7.92585238e-06
7.92584845e-06
7.92585459e-06
7.92584007e-06
7.9258484e-06
7.92585262e-06
7.9258407e-06
7.9258555e-06
7.92583935e-06
7.92585757e-06
7.92584331e-06
7.9258496e-06
7.92583837e-06
7.92585468e-06
7.92583693e-06
7.92584493e-06
7.92584634e-06
7.92584533e-06
7.92584723e-06
7.9258381e-06
7.92586614e-06
7.92583679e-06
7.92585695e-06
7.92584467e-06
7.9258532e-06
7.92584734e-06
7.92586522e-06
7.92583258e-06
7.92586227e-06
7.92583482e-06
7.92586337e-06
7.92583791e-06
7.92585474e-06
7.92584495e-06
7.92585478e-06
7.92585444e-06
7.92585511e-06
7.9258511e-06
7.92585582e-06
7.92585255e-06
7.92585099e-06
7.92585006e-06
7.9258535e-06
7.92584688e-06
7.92585447e-06
7.92585231e-06
7.92585707e-06
7.92585392e-06
7.92585207e-06
7.92585496e-06
7.92585337e-06
7.92585216e-06
7.92585601e-06
7.92585651e-06
7.92585637e-06
7.92585685e-06
7.92585684e-06
7.9258571e-06
7.9258588e-06
7.92585948e-06
7.92585982e-06
7.92586125e-06
7.92586204e-06
7.92586365e-06
7.92586478e-06
7.9258653e-06
7.92586713e-06
7.92586846e-06
7.925869e-06
7.92587043e-06
7.9258718e-06
7.92587345e-06
7.9258742e-06
7.92587503e-06
7.92587636e-06
7.92587668e-06
7.92587731e-06
7.92587796e-06
7.92587838e-06
7.92587801e-06
7.92587875e-06
7.92587855e-06
7.92587863e-06
7.92587864e-06
7.92587863e-06
7.92587875e-06
7.92587886e-06
7.92587874e-06
7.92587876e-06
7.92587854e-06
7.92587844e-06
7.92587876e-06
7.92587867e-06
7.92587872e-06
7.92587869e-06
7.92587869e-06
7.92587881e-06
7.92587872e-06
7.92587869e-06
7.92587891e-06
7.92587858e-06
7.92587868e-06
7.92587863e-06
7.92587878e-06
7.92587874e-06
7.92587865e-06
7.92587872e-06
7.92587859e-06
7.92587849e-06
7.92587888e-06
)
;

boundaryField
{
    closed
    {
        type            calculated;
        value           uniform 0;
    }
    open
    {
        type            calculated;
        value           uniform 0;
    }
    sides
    {
        type            empty;
    }
}


// ************************************************************************* //
