/*--------------------------------*- C++ -*----------------------------------*\
| =========                 |                                                 |
| \\      /  F ield         | OpenFOAM: The Open Source CFD Toolbox           |
|  \\    /   O peration     | Version:  2206                                  |
|   \\  /    A nd           | Website:  www.openfoam.com                      |
|    \\/     M anipulation  |                                                 |
\*---------------------------------------------------------------------------*/
FoamFile
{
    version     2.0;
    format      ascii;
    arch        "LSB;label=32;scalar=64";
    class       volVectorField;
    location    "1.08e-05";
    object      U;
}
// * * * * * * * * * * * * * * * * * * * * * * * * * * * * * * * * * * * * * //

dimensions      [0 1 -1 0 0 0 0];

internalField   nonuniform List<vector> 
3183
(
(2.97940376e-13 0 0)
(7.21105925e-15 0 0)
(-1.93398626e-13 0 0)
(-1.49642864e-13 0 0)
(-1.15468227e-13 0 0)
(-5.06756873e-18 0 0)
(-3.99471137e-19 0 0)
(-2.64607494e-23 0 0)
(1.98913168e-23 0 0)
(3.09163064e-19 0 0)
(6.6436983e-18 0 0)
(1.28989806e-13 0 0)
(4.57537335e-13 0 0)
(1.02938266e-13 0 0)
(3.49844175e-14 0 0)
(8.45962229e-14 0 0)
(-1.54853114e-13 0 0)
(-4.43831903e-13 0 0)
(-7.28029849e-13 0 0)
(-4.06502702e-14 0 0)
(3.60298103e-13 0 0)
(1.11748359e-16 0 0)
(3.77580576e-17 0 0)
(2.26632456e-13 0 0)
(3.02450311e-13 0 0)
(4.10073929e-13 0 0)
(4.44077828e-13 0 0)
(4.40301517e-13 0 0)
(2.07222549e-13 0 0)
(3.67330785e-13 0 0)
(-1.89144139e-13 0 0)
(-2.07904239e-13 0 0)
(-8.04323762e-13 0 0)
(-1.0482976e-12 0 0)
(-6.00150422e-13 0 0)
(-2.95978298e-13 0 0)
(-2.78501496e-13 0 0)
(-3.03979715e-13 0 0)
(-1.19376484e-13 0 0)
(-8.7859198e-14 0 0)
(-4.19858476e-13 0 0)
(-4.55070848e-13 0 0)
(-1.76320329e-13 0 0)
(-5.49972904e-13 0 0)
(-1.45479717e-13 0 0)
(5.06550838e-14 0 0)
(-2.1480658e-13 0 0)
(-7.52048669e-14 0 0)
(-1.17236934e-13 0 0)
(1.45771791e-13 0 0)
(2.84411168e-13 0 0)
(6.88859795e-13 0 0)
(3.90221293e-13 0 0)
(8.93210685e-13 0 0)
(1.30777801e-12 0 0)
(1.3039624e-12 0 0)
(1.72004199e-12 0 0)
(2.03035774e-12 0 0)
(2.23592994e-12 0 0)
(2.45439483e-12 0 0)
(2.51348613e-12 0 0)
(2.2994029e-12 0 0)
(2.292882e-12 0 0)
(1.91882176e-12 0 0)
(2.18518486e-12 0 0)
(2.15194227e-12 0 0)
(1.63927078e-12 0 0)
(1.77133994e-12 0 0)
(1.82823632e-12 0 0)
(1.07725399e-12 0 0)
(1.31688494e-12 0 0)
(1.13184154e-12 0 0)
(8.28289536e-13 0 0)
(6.09060887e-13 0 0)
(4.28799824e-13 0 0)
(-1.86659136e-13 0 0)
(-5.24800267e-14 0 0)
(-3.95009188e-13 0 0)
(-6.33794037e-13 0 0)
(-6.71226655e-13 0 0)
(-9.95630899e-13 0 0)
(-1.07631488e-12 0 0)
(-2.09534148e-13 0 0)
(-1.81112591e-12 0 0)
(-7.50542748e-13 0 0)
(-1.18174294e-12 0 0)
(-1.51574302e-12 0 0)
(-1.48973206e-12 0 0)
(-1.00845469e-12 0 0)
(-1.85529821e-12 0 0)
(-2.22319073e-12 0 0)
(-2.7755937e-12 0 0)
(-1.58185042e-12 0 0)
(-2.5710915e-12 0 0)
(-3.10698645e-12 0 0)
(-2.93583177e-12 0 0)
(-4.44563449e-12 0 0)
(-2.80507666e-12 0 0)
(-4.04159793e-12 0 0)
(-4.05754892e-12 0 0)
(-3.04660658e-12 0 0)
(-3.10970033e-12 0 0)
(-3.76451894e-12 0 0)
(-4.01958002e-12 0 0)
(-4.09617409e-12 0 0)
(-3.98555018e-12 0 0)
(-4.9496159e-12 0 0)
(-4.02783969e-12 0 0)
(-5.40442387e-12 0 0)
(-5.23504031e-12 0 0)
(-4.11555611e-12 0 0)
(-4.29126518e-12 0 0)
(-3.73378344e-12 0 0)
(-5.10598513e-12 0 0)
(-4.07931916e-12 0 0)
(-4.02238817e-12 0 0)
(-4.24643141e-12 0 0)
(-3.46539572e-12 0 0)
(-4.77211603e-12 0 0)
(-4.82203069e-12 0 0)
(-4.22224045e-12 0 0)
(-3.91141345e-12 0 0)
(-4.18066657e-12 0 0)
(-4.62535161e-12 0 0)
(-4.34163789e-12 0 0)
(-5.01548964e-12 0 0)
(-4.91439058e-12 0 0)
(-6.72354162e-12 0 0)
(-4.40622866e-12 0 0)
(-6.01829865e-12 0 0)
(-5.51516932e-12 0 0)
(-5.61781636e-12 0 0)
(-6.05770971e-12 0 0)
(-6.15025279e-12 0 0)
(-4.4002095e-12 0 0)
(-5.83245254e-12 0 0)
(-6.08402981e-12 0 0)
(-5.89442661e-12 0 0)
(-5.01545329e-12 0 0)
(-4.88598604e-12 0 0)
(-5.87509612e-12 0 0)
(-5.11063462e-12 0 0)
(-6.11285795e-12 0 0)
(-6.86269521e-12 0 0)
(-5.89554622e-12 0 0)
(-6.38714209e-12 0 0)
(-5.83276742e-12 0 0)
(-6.91459366e-12 0 0)
(-6.2034531e-12 0 0)
(-5.7397762e-12 0 0)
(-7.08447283e-12 0 0)
(-5.49462308e-12 0 0)
(-6.45436676e-12 0 0)
(-6.68511201e-12 0 0)
(-8.2723803e-12 0 0)
(-6.49196151e-12 0 0)
(-7.36203725e-12 0 0)
(-7.14445138e-12 0 0)
(-6.72031603e-12 0 0)
(-7.6977489e-12 0 0)
(-7.95446742e-12 0 0)
(-7.30666928e-12 0 0)
(-6.554965e-12 0 0)
(-7.52156609e-12 0 0)
(-7.65505043e-12 0 0)
(-8.14909114e-12 0 0)
(-7.24316183e-12 0 0)
(-7.04310208e-12 0 0)
(-7.11443244e-12 0 0)
(-7.68579388e-12 0 0)
(-8.81831443e-12 0 0)
(-8.02836097e-12 0 0)
(-8.27928466e-12 0 0)
(-7.63392795e-12 0 0)
(-8.45600649e-12 0 0)
(-7.85090983e-12 0 0)
(-8.77366355e-12 0 0)
(-7.84594855e-12 0 0)
(-7.80358124e-12 0 0)
(-8.65702319e-12 0 0)
(-7.38829845e-12 0 0)
(-8.68781065e-12 0 0)
(-7.71114799e-12 0 0)
(-7.83949495e-12 0 0)
(-8.3690236e-12 0 0)
(-8.66130739e-12 0 0)
(-7.93698023e-12 0 0)
(-8.42810871e-12 0 0)
(-8.73826654e-12 0 0)
(-7.13577303e-12 0 0)
(-8.51730221e-12 0 0)
(-8.16959484e-12 0 0)
(-8.51136018e-12 0 0)
(-8.80224932e-12 0 0)
(-8.42993163e-12 0 0)
(-7.79277975e-12 0 0)
(-7.80902926e-12 0 0)
(-7.59274596e-12 0 0)
(-8.48962149e-12 0 0)
(-8.59385496e-12 0 0)
(-7.82343684e-12 0 0)
(-7.863188e-12 0 0)
(-7.766824e-12 0 0)
(-7.68546788e-12 0 0)
(-8.01548685e-12 0 0)
(-7.65698772e-12 0 0)
(-7.47095887e-12 0 0)
(-8.16838844e-12 0 0)
(-9.5567345e-12 0 0)
(-8.0906516e-12 0 0)
(-8.68326828e-12 0 0)
(-9.23312258e-12 0 0)
(-8.78677645e-12 0 0)
(-9.22302968e-12 0 0)
(-9.13412067e-12 0 0)
(-8.75210318e-12 0 0)
(-9.23149867e-12 0 0)
(-9.27497582e-12 0 0)
(-7.95161092e-12 0 0)
(-8.69165435e-12 0 0)
(-8.14123988e-12 0 0)
(-9.03521739e-12 0 0)
(-9.06647989e-12 0 0)
(-7.7811923e-12 0 0)
(-8.20495463e-12 0 0)
(-8.8373926e-12 0 0)
(-8.91502467e-12 0 0)
(-8.89932849e-12 0 0)
(-9.18884415e-12 0 0)
(-9.28840509e-12 0 0)
(-1.00163168e-11 0 0)
(-1.00013123e-11 0 0)
(-9.18698314e-12 0 0)
(-9.24888033e-12 0 0)
(-9.58395681e-12 0 0)
(-9.43165931e-12 0 0)
(-1.02389804e-11 0 0)
(-1.01026964e-11 0 0)
(-1.00743711e-11 0 0)
(-1.10262114e-11 0 0)
(-1.01147346e-11 0 0)
(-1.13782162e-11 0 0)
(-1.0523384e-11 0 0)
(-1.05597016e-11 0 0)
(-1.08614968e-11 0 0)
(-1.1279706e-11 0 0)
(-1.05483537e-11 0 0)
(-1.1306802e-11 0 0)
(-1.14499764e-11 0 0)
(-1.22817726e-11 0 0)
(-1.19416403e-11 0 0)
(-1.25010899e-11 0 0)
(-1.23274463e-11 0 0)
(-1.25310119e-11 0 0)
(-1.33093768e-11 0 0)
(-1.26526063e-11 0 0)
(-1.22405125e-11 0 0)
(-1.16462246e-11 0 0)
(-1.25933676e-11 0 0)
(-1.23458286e-11 0 0)
(-1.30223455e-11 0 0)
(-1.29665264e-11 0 0)
(-1.35747575e-11 0 0)
(-1.21116705e-11 0 0)
(-1.30898866e-11 0 0)
(-1.3412371e-11 0 0)
(-1.38537886e-11 0 0)
(-1.31892352e-11 0 0)
(-1.38743184e-11 0 0)
(-1.2873071e-11 0 0)
(-1.30680192e-11 0 0)
(-1.35869603e-11 0 0)
(-1.42293302e-11 0 0)
(-1.40526637e-11 0 0)
(-1.47572219e-11 0 0)
(-1.31383981e-11 0 0)
(-1.46979084e-11 0 0)
(-1.48962109e-11 0 0)
(-1.40133791e-11 0 0)
(-1.31540432e-11 0 0)
(-1.38583901e-11 0 0)
(-1.46818414e-11 0 0)
(-1.4349514e-11 0 0)
(-1.39597383e-11 0 0)
(-1.37974598e-11 0 0)
(-1.50584098e-11 0 0)
(-1.36103507e-11 0 0)
(-1.40161224e-11 0 0)
(-1.51699961e-11 0 0)
(-1.44667133e-11 0 0)
(-1.39527985e-11 0 0)
(-1.41549084e-11 0 0)
(-1.38880103e-11 0 0)
(-1.5519672e-11 0 0)
(-1.38223526e-11 0 0)
(-1.43399723e-11 0 0)
(-1.44893536e-11 0 0)
(-1.38014452e-11 0 0)
(-1.36942349e-11 0 0)
(-1.44383381e-11 0 0)
(-1.45783571e-11 0 0)
(-1.44295793e-11 0 0)
(-1.42723253e-11 0 0)
(-1.4703331e-11 0 0)
(-1.4785356e-11 0 0)
(-1.49995522e-11 0 0)
(-1.45394766e-11 0 0)
(-1.50843982e-11 0 0)
(-1.55858728e-11 0 0)
(-1.43993998e-11 0 0)
(-1.51826481e-11 0 0)
(-1.49891767e-11 0 0)
(-1.43360691e-11 0 0)
(-1.3855255e-11 0 0)
(-1.4496917e-11 0 0)
(-1.42360766e-11 0 0)
(-1.62268502e-11 0 0)
(-1.43444807e-11 0 0)
(-1.4153663e-11 0 0)
(-1.6209982e-11 0 0)
(-1.53306601e-11 0 0)
(-1.56973522e-11 0 0)
(-1.60454933e-11 0 0)
(-1.53286082e-11 0 0)
(-1.53695135e-11 0 0)
(-1.49295589e-11 0 0)
(-1.54016705e-11 0 0)
(-1.48603178e-11 0 0)
(-1.5722064e-11 0 0)
(-1.63807083e-11 0 0)
(-1.43302847e-11 0 0)
(-1.63779319e-11 0 0)
(-1.49181732e-11 0 0)
(-1.49828528e-11 0 0)
(-1.37248288e-11 0 0)
(-1.56755937e-11 0 0)
(-1.45393319e-11 0 0)
(-1.55135969e-11 0 0)
(-1.45473889e-11 0 0)
(-1.41633299e-11 0 0)
(-1.49931299e-11 0 0)
(-1.52126091e-11 0 0)
(-1.5457922e-11 0 0)
(-1.42447623e-11 0 0)
(-1.52153294e-11 0 0)
(-1.54626619e-11 0 0)
(-1.61248712e-11 0 0)
(-1.49884852e-11 0 0)
(-1.50300058e-11 0 0)
(-1.528786e-11 0 0)
(-1.41319716e-11 0 0)
(-1.56049053e-11 0 0)
(-1.56483273e-11 0 0)
(-1.47795103e-11 0 0)
(-1.37910705e-11 0 0)
(-1.50074524e-11 0 0)
(-1.48858854e-11 0 0)
(-1.45633846e-11 0 0)
(-1.47124125e-11 0 0)
(-1.4996742e-11 0 0)
(-1.40614031e-11 0 0)
(-1.53748109e-11 0 0)
(-1.51992535e-11 0 0)
(-1.45028007e-11 0 0)
(-1.33828204e-11 0 0)
(-1.44905859e-11 0 0)
(-1.38008073e-11 0 0)
(-1.4367749e-11 0 0)
(-1.38745781e-11 0 0)
(-1.39163974e-11 0 0)
(-1.33055513e-11 0 0)
(-1.38498955e-11 0 0)
(-1.35987793e-11 0 0)
(-1.28464928e-11 0 0)
(-1.41244071e-11 0 0)
(-1.47188254e-11 0 0)
(-1.41937149e-11 0 0)
(-1.33380853e-11 0 0)
(-1.43177262e-11 0 0)
(-1.36599362e-11 0 0)
(-1.43239049e-11 0 0)
(-1.38182386e-11 0 0)
(-1.39432656e-11 0 0)
(-1.33711645e-11 0 0)
(-1.30040923e-11 0 0)
(-1.33776137e-11 0 0)
(-1.20603438e-11 0 0)
(-1.23353475e-11 0 0)
(-1.18027909e-11 0 0)
(-1.21724478e-11 0 0)
(-1.33389182e-11 0 0)
(-1.255848e-11 0 0)
(-1.19734386e-11 0 0)
(-1.2630753e-11 0 0)
(-1.28136299e-11 0 0)
(-1.18740554e-11 0 0)
(-1.22065116e-11 0 0)
(-1.3121379e-11 0 0)
(-1.10764074e-11 0 0)
(-1.16116385e-11 0 0)
(-1.05288716e-11 0 0)
(-1.12483367e-11 0 0)
(-1.09969815e-11 0 0)
(-1.20515636e-11 0 0)
(-1.12055138e-11 0 0)
(-1.03899934e-11 0 0)
(-1.06329254e-11 0 0)
(-1.17102224e-11 0 0)
(-1.04256694e-11 0 0)
(-1.07841267e-11 0 0)
(-1.07624875e-11 0 0)
(-1.00271217e-11 0 0)
(-9.57436894e-12 0 0)
(-1.0742569e-11 0 0)
(-1.04846911e-11 0 0)
(-9.31379778e-12 0 0)
(-9.8140543e-12 0 0)
(-1.06111946e-11 0 0)
(-1.02207431e-11 0 0)
(-1.07928604e-11 0 0)
(-1.01472469e-11 0 0)
(-9.75240215e-12 0 0)
(-9.17426787e-12 0 0)
(-9.81455351e-12 0 0)
(-9.93571564e-12 0 0)
(-1.01545819e-11 0 0)
(-9.60543869e-12 0 0)
(-9.20152027e-12 0 0)
(-9.25308916e-12 0 0)
(-8.72514079e-12 0 0)
(-9.42586352e-12 0 0)
(-1.08647915e-11 0 0)
(-9.18679037e-12 0 0)
(-9.36308658e-12 0 0)
(-9.42292391e-12 0 0)
(-8.61056175e-12 0 0)
(-1.00339646e-11 0 0)
(-8.94719806e-12 0 0)
(-7.5743372e-12 0 0)
(-7.25754619e-12 0 0)
(-8.29883285e-12 0 0)
(-8.72341389e-12 0 0)
(-8.0828593e-12 0 0)
(-7.97055943e-12 0 0)
(-7.89847903e-12 0 0)
(-8.67967898e-12 0 0)
(-8.49199356e-12 0 0)
(-9.04177598e-12 0 0)
(-8.49294653e-12 0 0)
(-8.0509989e-12 0 0)
(-7.77943072e-12 0 0)
(-7.12862391e-12 0 0)
(-7.47157034e-12 0 0)
(-7.8141844e-12 0 0)
(-8.18343612e-12 0 0)
(-6.67357873e-12 0 0)
(-7.37186277e-12 0 0)
(-7.14027617e-12 0 0)
(-7.39518894e-12 0 0)
(-5.61210233e-12 0 0)
(-6.93147622e-12 0 0)
(-7.29367628e-12 0 0)
(-6.1968898e-12 0 0)
(-6.06023054e-12 0 0)
(-7.32137831e-12 0 0)
(-6.13201146e-12 0 0)
(-5.5397532e-12 0 0)
(-5.69120936e-12 0 0)
(-5.77254412e-12 0 0)
(-6.16216551e-12 0 0)
(-5.83280916e-12 0 0)
(-5.73237021e-12 0 0)
(-5.39892376e-12 0 0)
(-6.07491563e-12 0 0)
(-4.57818226e-12 0 0)
(-5.73511895e-12 0 0)
(-5.61570112e-12 0 0)
(-5.31436e-12 0 0)
(-4.64847979e-12 0 0)
(-5.25283361e-12 0 0)
(-5.38797109e-12 0 0)
(-5.00147491e-12 0 0)
(-4.47591624e-12 0 0)
(-4.92292548e-12 0 0)
(-5.43176615e-12 0 0)
(-4.58994779e-12 0 0)
(-4.56234278e-12 0 0)
(-5.66298572e-12 0 0)
(-5.26365117e-12 0 0)
(-5.50646985e-12 0 0)
(-4.85618214e-12 0 0)
(-5.07616019e-12 0 0)
(-6.7076817e-12 0 0)
(-4.58767541e-12 0 0)
(-5.86143158e-12 0 0)
(-6.23618141e-12 0 0)
(-5.44147041e-12 0 0)
(-6.2198421e-12 0 0)
(-5.53244996e-12 0 0)
(-6.58364459e-12 0 0)
(-5.80623485e-12 0 0)
(-6.22262448e-12 0 0)
(-5.17588457e-12 0 0)
(-5.78282071e-12 0 0)
(-5.16502256e-12 0 0)
(-6.11834716e-12 0 0)
(-5.38829519e-12 0 0)
(-5.04573516e-12 0 0)
(-5.48215254e-12 0 0)
(-6.27528114e-12 0 0)
(-4.43361593e-12 0 0)
(-5.12881815e-12 0 0)
(-3.99265336e-12 0 0)
(-4.18785692e-12 0 0)
(-4.07510843e-12 0 0)
(-4.33562047e-12 0 0)
(-4.65316483e-12 0 0)
(-4.09475283e-12 0 0)
(-4.36380871e-12 0 0)
(-4.46925544e-12 0 0)
(-4.89620564e-12 0 0)
(-5.06347715e-12 0 0)
(-4.30443484e-12 0 0)
(-4.82148014e-12 0 0)
(-5.10368341e-12 0 0)
(-3.14367765e-12 0 0)
(-4.5633885e-12 0 0)
(-4.1367374e-12 0 0)
(-3.08515449e-12 0 0)
(-3.30074043e-12 0 0)
(-3.70664713e-12 0 0)
(-3.16955476e-12 0 0)
(-4.27764376e-12 0 0)
(-3.21801515e-12 0 0)
(-2.87175143e-12 0 0)
(-3.04231414e-12 0 0)
(-3.30872827e-12 0 0)
(-1.82156579e-12 0 0)
(-2.58853435e-12 0 0)
(-2.79757231e-12 0 0)
(-1.36184307e-12 0 0)
(-1.44587665e-12 0 0)
(-2.11156301e-12 0 0)
(-1.41571928e-12 0 0)
(-3.71564428e-13 0 0)
(-1.69100533e-12 0 0)
(-7.04626055e-13 0 0)
(-5.74389943e-13 0 0)
(-1.58291021e-12 0 0)
(-1.60429937e-12 0 0)
(-1.11697641e-12 0 0)
(5.57880134e-14 0 0)
(-6.45065293e-13 0 0)
(-8.75098016e-13 0 0)
(-1.96440215e-12 0 0)
(-3.09827055e-13 0 0)
(-6.98285497e-13 0 0)
(-4.41145623e-13 0 0)
(-3.07160558e-13 0 0)
(-1.08091339e-12 0 0)
(-1.14613283e-12 0 0)
(-9.17554966e-13 0 0)
(-1.01402156e-13 0 0)
(-1.11385696e-12 0 0)
(-1.42754309e-12 0 0)
(-6.79366836e-13 0 0)
(-3.90794888e-13 0 0)
(2.07098307e-13 0 0)
(1.61486415e-12 0 0)
(3.54046291e-13 0 0)
(2.76645083e-13 0 0)
(-4.33958332e-13 0 0)
(8.4092531e-13 0 0)
(6.941176e-13 0 0)
(1.2133965e-12 0 0)
(-8.18661005e-13 0 0)
(4.79978549e-13 0 0)
(9.19475524e-13 0 0)
(5.68715635e-13 0 0)
(6.6147026e-13 0 0)
(3.02634013e-13 0 0)
(1.20921185e-12 0 0)
(1.07955765e-12 0 0)
(1.01091728e-12 0 0)
(6.92391155e-13 0 0)
(1.23199919e-12 0 0)
(2.67935657e-12 0 0)
(2.53618027e-12 0 0)
(1.60662442e-12 0 0)
(1.85822097e-12 0 0)
(2.81602533e-12 0 0)
(2.97669498e-12 0 0)
(2.45693583e-12 0 0)
(2.66156124e-12 0 0)
(3.06652042e-12 0 0)
(2.1556048e-12 0 0)
(3.01639467e-12 0 0)
(3.46932174e-12 0 0)
(3.45873123e-12 0 0)
(4.12134899e-12 0 0)
(2.94504446e-12 0 0)
(3.26066108e-12 0 0)
(3.53090067e-12 0 0)
(3.80157162e-12 0 0)
(4.18709574e-12 0 0)
(2.82411061e-12 0 0)
(3.52956738e-12 0 0)
(2.53466739e-12 0 0)
(3.01670633e-12 0 0)
(1.86801873e-12 0 0)
(2.32649154e-12 0 0)
(2.21742631e-12 0 0)
(1.50007747e-12 0 0)
(2.07741296e-12 0 0)
(2.37295692e-12 0 0)
(2.929451e-12 0 0)
(2.41932146e-12 0 0)
(3.44580049e-12 0 0)
(2.7133087e-12 0 0)
(2.98510711e-12 0 0)
(2.9230658e-12 0 0)
(2.27827283e-12 0 0)
(2.51161622e-12 0 0)
(3.21714181e-12 0 0)
(2.88829832e-12 0 0)
(3.19111616e-12 0 0)
(2.55711379e-12 0 0)
(3.02601661e-12 0 0)
(3.8334273e-12 0 0)
(4.09460728e-12 0 0)
(4.21929987e-12 0 0)
(4.10055976e-12 0 0)
(4.31847235e-12 0 0)
(4.25247897e-12 0 0)
(3.68219634e-12 0 0)
(4.28703992e-12 0 0)
(4.55780381e-12 0 0)
(3.61280521e-12 0 0)
(4.10727703e-12 0 0)
(3.95043752e-12 0 0)
(3.46213834e-12 0 0)
(3.87768325e-12 0 0)
(5.2019079e-12 0 0)
(4.26401535e-12 0 0)
(4.11338834e-12 0 0)
(3.9967522e-12 0 0)
(4.0027917e-12 0 0)
(4.16146849e-12 0 0)
(4.254006e-12 0 0)
(4.80833737e-12 0 0)
(5.37057234e-12 0 0)
(4.86803382e-12 0 0)
(4.07208024e-12 0 0)
(5.08645627e-12 0 0)
(5.16618845e-12 0 0)
(5.66447866e-12 0 0)
(4.9820702e-12 0 0)
(5.8721654e-12 0 0)
(4.4270171e-12 0 0)
(4.70121279e-12 0 0)
(5.07959403e-12 0 0)
(5.7358377e-12 0 0)
(4.89578467e-12 0 0)
(4.92461542e-12 0 0)
(4.89798725e-12 0 0)
(4.94989937e-12 0 0)
(5.24719161e-12 0 0)
(5.34385904e-12 0 0)
(5.15267479e-12 0 0)
(4.81589753e-12 0 0)
(5.55606415e-12 0 0)
(5.38626699e-12 0 0)
(5.45708024e-12 0 0)
(5.79869877e-12 0 0)
(5.17038571e-12 0 0)
(4.45853607e-12 0 0)
(5.34565537e-12 0 0)
(5.3739791e-12 0 0)
(5.96597904e-12 0 0)
(5.49893132e-12 0 0)
(5.7332293e-12 0 0)
(5.49498044e-12 0 0)
(5.85845188e-12 0 0)
(6.23519386e-12 0 0)
(5.76182663e-12 0 0)
(6.3823881e-12 0 0)
(6.57040588e-12 0 0)
(6.14531677e-12 0 0)
(6.50828559e-12 0 0)
(6.05139679e-12 0 0)
(7.30999497e-12 0 0)
(6.59892759e-12 0 0)
(6.80912803e-12 0 0)
(7.08980296e-12 0 0)
(6.98098518e-12 0 0)
(6.76340848e-12 0 0)
(7.51182124e-12 0 0)
(7.28086798e-12 0 0)
(6.54284207e-12 0 0)
(7.36784908e-12 0 0)
(6.96314946e-12 0 0)
(6.4037763e-12 0 0)
(6.91274627e-12 0 0)
(7.15786809e-12 0 0)
(6.52904341e-12 0 0)
(7.27149296e-12 0 0)
(7.05256879e-12 0 0)
(6.40425939e-12 0 0)
(6.7340431e-12 0 0)
(5.78333957e-12 0 0)
(6.81021895e-12 0 0)
(5.8196691e-12 0 0)
(6.8515648e-12 0 0)
(7.27775224e-12 0 0)
(7.2487871e-12 0 0)
(7.19737279e-12 0 0)
(6.21400077e-12 0 0)
(6.2552941e-12 0 0)
(6.58735682e-12 0 0)
(6.48713172e-12 0 0)
(6.48229738e-12 0 0)
(6.49153327e-12 0 0)
(6.86583882e-12 0 0)
(6.67189674e-12 0 0)
(6.49112711e-12 0 0)
(4.52397815e-12 0 0)
(5.80532191e-12 0 0)
(5.84694978e-12 0 0)
(7.27788823e-12 0 0)
(6.04178571e-12 0 0)
(6.40985252e-12 0 0)
(5.52637519e-12 0 0)
(5.75307304e-12 0 0)
(5.62014723e-12 0 0)
(5.90433908e-12 0 0)
(5.93822926e-12 0 0)
(5.59415269e-12 0 0)
(5.73989286e-12 0 0)
(5.92270528e-12 0 0)
(6.32859965e-12 0 0)
(6.68556554e-12 0 0)
(6.47909593e-12 0 0)
(6.69814837e-12 0 0)
(6.52603524e-12 0 0)
(7.21645746e-12 0 0)
(6.50696334e-12 0 0)
(5.99335997e-12 0 0)
(6.78866957e-12 0 0)
(6.24767372e-12 0 0)
(6.51450224e-12 0 0)
(6.39312993e-12 0 0)
(7.3800932e-12 0 0)
(6.00224363e-12 0 0)
(7.07446765e-12 0 0)
(5.82022975e-12 0 0)
(6.65125378e-12 0 0)
(7.33386325e-12 0 0)
(6.31802326e-12 0 0)
(6.96278405e-12 0 0)
(5.85205611e-12 0 0)
(5.95179583e-12 0 0)
(6.14534659e-12 0 0)
(6.77530486e-12 0 0)
(6.21723535e-12 0 0)
(6.12852454e-12 0 0)
(6.31858782e-12 0 0)
(5.80880767e-12 0 0)
(6.14860676e-12 0 0)
(5.90283273e-12 0 0)
(5.8087463e-12 0 0)
(6.9219099e-12 0 0)
(5.84476302e-12 0 0)
(5.66401e-12 0 0)
(6.5718582e-12 0 0)
(6.19072769e-12 0 0)
(5.5007609e-12 0 0)
(6.72482634e-12 0 0)
(5.53202226e-12 0 0)
(5.93580404e-12 0 0)
(6.09324185e-12 0 0)
(5.76563118e-12 0 0)
(5.78991748e-12 0 0)
(6.2129746e-12 0 0)
(6.64310152e-12 0 0)
(6.46190791e-12 0 0)
(6.91519071e-12 0 0)
(6.931411e-12 0 0)
(6.70286611e-12 0 0)
(7.0378167e-12 0 0)
(6.54254848e-12 0 0)
(7.70697297e-12 0 0)
(7.15795342e-12 0 0)
(7.36869953e-12 0 0)
(6.58388786e-12 0 0)
(6.73726487e-12 0 0)
(6.16545433e-12 0 0)
(7.19693702e-12 0 0)
(5.88193599e-12 0 0)
(6.39477556e-12 0 0)
(5.74847402e-12 0 0)
(6.09025001e-12 0 0)
(5.95749556e-12 0 0)
(5.99236591e-12 0 0)
(6.05056922e-12 0 0)
(5.24932683e-12 0 0)
(5.66577913e-12 0 0)
(7.39297799e-12 0 0)
(6.51887197e-12 0 0)
(6.32462268e-12 0 0)
(5.85668367e-12 0 0)
(6.17952193e-12 0 0)
(6.00914222e-12 0 0)
(5.77301482e-12 0 0)
(5.58662129e-12 0 0)
(5.95242201e-12 0 0)
(4.65316308e-12 0 0)
(5.62942369e-12 0 0)
(5.5547301e-12 0 0)
(5.43742426e-12 0 0)
(5.34476048e-12 0 0)
(5.72550451e-12 0 0)
(6.68212177e-12 0 0)
(6.37016101e-12 0 0)
(6.83660094e-12 0 0)
(6.79062576e-12 0 0)
(6.92389044e-12 0 0)
(5.23101793e-12 0 0)
(6.9400706e-12 0 0)
(7.40843244e-12 0 0)
(6.2578388e-12 0 0)
(5.98948588e-12 0 0)
(7.17380185e-12 0 0)
(6.35603276e-12 0 0)
(7.68015964e-12 0 0)
(6.49885898e-12 0 0)
(6.84983893e-12 0 0)
(6.40681226e-12 0 0)
(7.75144722e-12 0 0)
(6.65232112e-12 0 0)
(7.11043126e-12 0 0)
(7.14813523e-12 0 0)
(6.83138095e-12 0 0)
(7.84460143e-12 0 0)
(7.5312702e-12 0 0)
(7.35949673e-12 0 0)
(7.32355368e-12 0 0)
(7.72908765e-12 0 0)
(8.22817731e-12 0 0)
(6.7746956e-12 0 0)
(8.5382306e-12 0 0)
(8.1915833e-12 0 0)
(7.00351622e-12 0 0)
(7.72067159e-12 0 0)
(8.65105811e-12 0 0)
(8.03773276e-12 0 0)
(7.77566531e-12 0 0)
(7.2442127e-12 0 0)
(8.70153097e-12 0 0)
(8.1186491e-12 0 0)
(8.19310537e-12 0 0)
(7.85166326e-12 0 0)
(7.81802426e-12 0 0)
(9.27673907e-12 0 0)
(8.30574797e-12 0 0)
(8.31564048e-12 0 0)
(8.18857947e-12 0 0)
(9.14644313e-12 0 0)
(8.29826789e-12 0 0)
(9.23969137e-12 0 0)
(7.71368749e-12 0 0)
(7.17714798e-12 0 0)
(8.85182833e-12 0 0)
(7.75292879e-12 0 0)
(7.99298968e-12 0 0)
(7.84560988e-12 0 0)
(8.18956111e-12 0 0)
(9.12434009e-12 0 0)
(8.12818708e-12 0 0)
(9.30937241e-12 0 0)
(7.99731135e-12 0 0)
(8.57297186e-12 0 0)
(7.96354441e-12 0 0)
(7.64579962e-12 0 0)
(8.10411262e-12 0 0)
(8.39502712e-12 0 0)
(7.54008517e-12 0 0)
(7.03219297e-12 0 0)
(7.05866612e-12 0 0)
(8.25806664e-12 0 0)
(7.26794647e-12 0 0)
(8.44300294e-12 0 0)
(7.43252444e-12 0 0)
(8.29366891e-12 0 0)
(8.26138962e-12 0 0)
(7.95430928e-12 0 0)
(8.13459049e-12 0 0)
(7.80708408e-12 0 0)
(7.69050199e-12 0 0)
(7.56180775e-12 0 0)
(7.15610375e-12 0 0)
(7.68226019e-12 0 0)
(8.84853456e-12 0 0)
(7.76301289e-12 0 0)
(7.56292901e-12 0 0)
(7.83008965e-12 0 0)
(9.00611124e-12 0 0)
(7.48966364e-12 0 0)
(7.00677664e-12 0 0)
(8.5688005e-12 0 0)
(6.95478299e-12 0 0)
(6.93634198e-12 0 0)
(7.67361427e-12 0 0)
(7.93911415e-12 0 0)
(6.91462375e-12 0 0)
(6.75684281e-12 0 0)
(8.6134998e-12 0 0)
(8.24902333e-12 0 0)
(8.11320129e-12 0 0)
(8.47279914e-12 0 0)
(7.73736845e-12 0 0)
(8.74705419e-12 0 0)
(8.70400014e-12 0 0)
(7.55148812e-12 0 0)
(9.38303245e-12 0 0)
(8.99002237e-12 0 0)
(8.47365425e-12 0 0)
(8.38476384e-12 0 0)
(8.2510596e-12 0 0)
(8.76536293e-12 0 0)
(7.61458917e-12 0 0)
(8.19117319e-12 0 0)
(7.85056948e-12 0 0)
(8.67368736e-12 0 0)
(7.93315801e-12 0 0)
(7.69805138e-12 0 0)
(8.76329737e-12 0 0)
(7.91333562e-12 0 0)
(8.4754925e-12 0 0)
(7.01459449e-12 0 0)
(7.54860674e-12 0 0)
(8.61982891e-12 0 0)
(7.9631747e-12 0 0)
(8.4647639e-12 0 0)
(7.72821353e-12 0 0)
(8.09675612e-12 0 0)
(8.53898242e-12 0 0)
(8.62592234e-12 0 0)
(8.39580255e-12 0 0)
(9.94019789e-12 0 0)
(9.85537141e-12 0 0)
(8.39162557e-12 0 0)
(9.41101959e-12 0 0)
(9.48916302e-12 0 0)
(8.8041139e-12 0 0)
(9.84150579e-12 0 0)
(8.9548804e-12 0 0)
(9.98340622e-12 0 0)
(8.25811884e-12 0 0)
(8.06094936e-12 0 0)
(8.16323274e-12 0 0)
(7.96184755e-12 0 0)
(9.21449791e-12 0 0)
(9.2792504e-12 0 0)
(8.9569564e-12 0 0)
(9.39880356e-12 0 0)
(8.61835466e-12 0 0)
(8.56509229e-12 0 0)
(9.93503926e-12 0 0)
(9.12664357e-12 0 0)
(8.6725705e-12 0 0)
(8.62240711e-12 0 0)
(7.75194126e-12 0 0)
(9.46110584e-12 0 0)
(8.47242553e-12 0 0)
(8.19289673e-12 0 0)
(8.39335479e-12 0 0)
(8.58518399e-12 0 0)
(7.51384305e-12 0 0)
(7.93764904e-12 0 0)
(8.23272117e-12 0 0)
(7.67752315e-12 0 0)
(7.54321654e-12 0 0)
(8.16173895e-12 0 0)
(9.17437553e-12 0 0)
(8.30586409e-12 0 0)
(8.25229592e-12 0 0)
(7.89962156e-12 0 0)
(8.96624619e-12 0 0)
(9.39495412e-12 0 0)
(8.05013894e-12 0 0)
(8.50820441e-12 0 0)
(8.71161899e-12 0 0)
(8.8002601e-12 0 0)
(8.62443147e-12 0 0)
(8.05421284e-12 0 0)
(8.41275891e-12 0 0)
(7.96819717e-12 0 0)
(8.88762906e-12 0 0)
(7.75200351e-12 0 0)
(8.25011792e-12 0 0)
(7.27997078e-12 0 0)
(6.88352206e-12 0 0)
(7.56933937e-12 0 0)
(7.34547413e-12 0 0)
(7.35384767e-12 0 0)
(7.39015729e-12 0 0)
(7.52738561e-12 0 0)
(7.33441874e-12 0 0)
(7.20770902e-12 0 0)
(7.59242479e-12 0 0)
(7.83110404e-12 0 0)
(7.03908443e-12 0 0)
(6.75491505e-12 0 0)
(5.89581033e-12 0 0)
(7.09623494e-12 0 0)
(6.221378e-12 0 0)
(6.54057281e-12 0 0)
(6.28762671e-12 0 0)
(7.11961979e-12 0 0)
(5.33621528e-12 0 0)
(5.90846997e-12 0 0)
(6.22638974e-12 0 0)
(5.69778605e-12 0 0)
(5.1169977e-12 0 0)
(6.09942156e-12 0 0)
(4.87888948e-12 0 0)
(5.19760246e-12 0 0)
(5.25583483e-12 0 0)
(4.42361038e-12 0 0)
(4.99661963e-12 0 0)
(4.7815585e-12 0 0)
(3.94558785e-12 0 0)
(4.12147628e-12 0 0)
(4.93571037e-12 0 0)
(4.79277201e-12 0 0)
(3.70710779e-12 0 0)
(4.07675945e-12 0 0)
(3.13248977e-12 0 0)
(2.89679362e-12 0 0)
(3.23441943e-12 0 0)
(2.89251478e-12 0 0)
(3.2695799e-12 0 0)
(2.31512284e-12 0 0)
(3.15399955e-12 0 0)
(2.39616332e-12 0 0)
(3.00151235e-12 0 0)
(2.58530116e-12 0 0)
(3.26742513e-12 0 0)
(3.05411018e-12 0 0)
(2.16966573e-12 0 0)
(2.88661435e-12 0 0)
(1.28626521e-12 0 0)
(2.22897168e-12 0 0)
(1.21998761e-12 0 0)
(1.69192391e-12 0 0)
(9.24398907e-13 0 0)
(1.65574592e-12 0 0)
(1.4564315e-12 0 0)
(1.8495788e-12 0 0)
(7.9152546e-13 0 0)
(1.04194899e-12 0 0)
(5.83459089e-13 0 0)
(3.12520105e-13 0 0)
(1.55737536e-12 0 0)
(3.69330639e-13 0 0)
(1.23714429e-12 0 0)
(1.79133693e-12 0 0)
(1.47059532e-12 0 0)
(1.77634117e-12 0 0)
(1.56826362e-12 0 0)
(2.82849808e-12 0 0)
(2.30415845e-12 0 0)
(1.57538572e-12 0 0)
(1.72759534e-12 0 0)
(1.96807005e-12 0 0)
(1.30577938e-12 0 0)
(1.9262277e-12 0 0)
(1.9182423e-12 0 0)
(2.57651099e-12 0 0)
(1.93412889e-12 0 0)
(2.01304923e-12 0 0)
(1.76841159e-12 0 0)
(1.7009568e-12 0 0)
(1.71322933e-12 0 0)
(1.49832204e-12 0 0)
(9.01758066e-13 0 0)
(6.63700265e-13 0 0)
(6.31944988e-13 0 0)
(1.54827081e-12 0 0)
(8.14059335e-13 0 0)
(7.41526599e-13 0 0)
(9.67250486e-13 0 0)
(-8.24327792e-14 0 0)
(1.39330867e-12 0 0)
(8.00845774e-13 0 0)
(4.0664849e-13 0 0)
(-6.01597071e-14 0 0)
(9.98553115e-13 0 0)
(4.73006991e-13 0 0)
(5.12351193e-13 0 0)
(7.06907323e-13 0 0)
(-1.88760088e-13 0 0)
(-2.76886771e-14 0 0)
(-5.81086412e-13 0 0)
(-1.00377661e-12 0 0)
(-9.80002081e-13 0 0)
(-6.05186665e-13 0 0)
(-1.42533336e-12 0 0)
(-1.30214118e-12 0 0)
(-1.45020771e-12 0 0)
(-1.91957304e-12 0 0)
(-1.55300262e-12 0 0)
(-2.33225362e-12 0 0)
(-2.41622626e-12 0 0)
(-3.32938429e-12 0 0)
(-2.42105459e-12 0 0)
(-2.67960523e-12 0 0)
(-2.39239681e-12 0 0)
(-2.57480885e-12 0 0)
(-2.67259327e-12 0 0)
(-3.45826407e-12 0 0)
(-3.06156115e-12 0 0)
(-3.72099967e-12 0 0)
(-4.04213733e-12 0 0)
(-3.75528836e-12 0 0)
(-4.80290519e-12 0 0)
(-4.01586912e-12 0 0)
(-4.02679389e-12 0 0)
(-4.22116579e-12 0 0)
(-3.82249112e-12 0 0)
(-4.10111736e-12 0 0)
(-4.9484361e-12 0 0)
(-5.35517427e-12 0 0)
(-4.29127151e-12 0 0)
(-4.18353624e-12 0 0)
(-4.2443588e-12 0 0)
(-4.51612096e-12 0 0)
(-4.45761527e-12 0 0)
(-4.06357596e-12 0 0)
(-4.96564642e-12 0 0)
(-4.43952353e-12 0 0)
(-4.67507461e-12 0 0)
(-4.77689679e-12 0 0)
(-5.31816362e-12 0 0)
(-5.06892644e-12 0 0)
(-3.7925338e-12 0 0)
(-5.68203322e-12 0 0)
(-5.22596475e-12 0 0)
(-3.81358399e-12 0 0)
(-4.36772383e-12 0 0)
(-5.1667621e-12 0 0)
(-5.27575632e-12 0 0)
(-4.64301811e-12 0 0)
(-4.63217942e-12 0 0)
(-5.14734901e-12 0 0)
(-4.47155393e-12 0 0)
(-4.64524837e-12 0 0)
(-4.17768171e-12 0 0)
(-3.84841899e-12 0 0)
(-4.2649738e-12 0 0)
(-3.24959078e-12 0 0)
(-3.04521772e-12 0 0)
(-3.91667923e-12 0 0)
(-4.00642275e-12 0 0)
(-3.08613745e-12 0 0)
(-4.36613163e-12 0 0)
(-3.3589698e-12 0 0)
(-3.51066459e-12 0 0)
(-3.37073915e-12 0 0)
(-3.43368927e-12 0 0)
(-3.81475135e-12 0 0)
(-4.22536319e-12 0 0)
(-4.29684591e-12 0 0)
(-4.6041926e-12 0 0)
(-3.97869458e-12 0 0)
(-4.79058944e-12 0 0)
(-4.9214347e-12 0 0)
(-4.96346731e-12 0 0)
(-4.34911544e-12 0 0)
(-5.19245527e-12 0 0)
(-4.51339119e-12 0 0)
(-5.25873126e-12 0 0)
(-5.54461525e-12 0 0)
(-5.10957937e-12 0 0)
(-4.85880968e-12 0 0)
(-5.56954365e-12 0 0)
(-5.68680705e-12 0 0)
(-5.19231641e-12 0 0)
(-5.30828474e-12 0 0)
(-5.55117385e-12 0 0)
(-5.3595276e-12 0 0)
(-5.1221745e-12 0 0)
(-5.18921615e-12 0 0)
(-5.40038373e-12 0 0)
(-2.97800079e-12 0 0)
(-5.25102338e-12 0 0)
(-5.89046909e-12 0 0)
(-5.58742009e-12 0 0)
(-5.15711932e-12 0 0)
(-6.88442514e-12 0 0)
(-5.99778011e-12 0 0)
(-6.20042684e-12 0 0)
(-5.85043532e-12 0 0)
(-6.87253279e-12 0 0)
(-6.11952838e-12 0 0)
(-6.06422086e-12 0 0)
(-5.98373436e-12 0 0)
(-5.6652114e-12 0 0)
(-5.84834552e-12 0 0)
(-5.90722479e-12 0 0)
(-5.1433922e-12 0 0)
(-5.67889574e-12 0 0)
(-5.4487669e-12 0 0)
(-5.68866634e-12 0 0)
(-5.38861101e-12 0 0)
(-5.35044702e-12 0 0)
(-6.04493214e-12 0 0)
(-6.11273717e-12 0 0)
(-6.14594871e-12 0 0)
(-5.78497988e-12 0 0)
(-5.40849288e-12 0 0)
(-5.62901673e-12 0 0)
(-5.51021053e-12 0 0)
(-5.85619714e-12 0 0)
(-6.62457887e-12 0 0)
(-5.85802349e-12 0 0)
(-6.40792327e-12 0 0)
(-6.38682683e-12 0 0)
(-6.34410093e-12 0 0)
(-6.29561157e-12 0 0)
(-5.8772758e-12 0 0)
(-6.00518292e-12 0 0)
(-6.11272144e-12 0 0)
(-6.55360798e-12 0 0)
(-6.74815549e-12 0 0)
(-6.10392435e-12 0 0)
(-6.49350625e-12 0 0)
(-6.64427643e-12 0 0)
(-5.75414028e-12 0 0)
(-5.67385898e-12 0 0)
(-6.18436429e-12 0 0)
(-6.38665491e-12 0 0)
(-5.97661687e-12 0 0)
(-6.13260029e-12 0 0)
(-5.50263783e-12 0 0)
(-5.5783782e-12 0 0)
(-5.52439135e-12 0 0)
(-5.48849374e-12 0 0)
(-5.54120827e-12 0 0)
(-5.93558425e-12 0 0)
(-6.02327308e-12 0 0)
(-5.79944e-12 0 0)
(-6.37114833e-12 0 0)
(-6.06994762e-12 0 0)
(-6.54697084e-12 0 0)
(-5.91216884e-12 0 0)
(-6.4065704e-12 0 0)
(-7.50400834e-12 0 0)
(-6.19776947e-12 0 0)
(-6.54457411e-12 0 0)
(-6.54786221e-12 0 0)
(-6.54713522e-12 0 0)
(-6.46580648e-12 0 0)
(-6.65617187e-12 0 0)
(-6.51859195e-12 0 0)
(-6.65282641e-12 0 0)
(-6.31566048e-12 0 0)
(-6.32175761e-12 0 0)
(-6.53795606e-12 0 0)
(-6.92190504e-12 0 0)
(-7.44386017e-12 0 0)
(-6.72944521e-12 0 0)
(-7.39760745e-12 0 0)
(-7.10888778e-12 0 0)
(-7.7350522e-12 0 0)
(-7.93578397e-12 0 0)
(-7.72436293e-12 0 0)
(-7.68853067e-12 0 0)
(-7.97705074e-12 0 0)
(-7.42041508e-12 0 0)
(-8.67067334e-12 0 0)
(-7.99901275e-12 0 0)
(-7.82706301e-12 0 0)
(-8.42390309e-12 0 0)
(-8.75140965e-12 0 0)
(-8.30287051e-12 0 0)
(-8.83937099e-12 0 0)
(-8.36795702e-12 0 0)
(-8.64321396e-12 0 0)
(-7.68929915e-12 0 0)
(-8.45835185e-12 0 0)
(-9.29332993e-12 0 0)
(-7.98366782e-12 0 0)
(-8.22423223e-12 0 0)
(-9.31291802e-12 0 0)
(-8.37214325e-12 0 0)
(-8.33746131e-12 0 0)
(-8.4368096e-12 0 0)
(-9.14938064e-12 0 0)
(-7.35841806e-12 0 0)
(-8.30557903e-12 0 0)
(-7.83373712e-12 0 0)
(-9.05705708e-12 0 0)
(-8.32727866e-12 0 0)
(-8.93311384e-12 0 0)
(-8.58238033e-12 0 0)
(-9.5829209e-12 0 0)
(-9.73155285e-12 0 0)
(-9.13808813e-12 0 0)
(-1.00034376e-11 0 0)
(-1.00528818e-11 0 0)
(-9.65551318e-12 0 0)
(-1.00959916e-11 0 0)
(-9.88889727e-12 0 0)
(-8.81863389e-12 0 0)
(-1.0100479e-11 0 0)
(-9.74897357e-12 0 0)
(-9.62701133e-12 0 0)
(-8.81229488e-12 0 0)
(-9.39889538e-12 0 0)
(-8.98419577e-12 0 0)
(-9.63356018e-12 0 0)
(-9.23323566e-12 0 0)
(-8.59138629e-12 0 0)
(-9.1455455e-12 0 0)
(-9.13185793e-12 0 0)
(-8.63651431e-12 0 0)
(-9.48624811e-12 0 0)
(-8.0190115e-12 0 0)
(-7.98808072e-12 0 0)
(-9.17249783e-12 0 0)
(-8.48286971e-12 0 0)
(-9.19195534e-12 0 0)
(-9.33846935e-12 0 0)
(-8.53228727e-12 0 0)
(-9.16703318e-12 0 0)
(-8.20115677e-12 0 0)
(-8.67989981e-12 0 0)
(-8.97990577e-12 0 0)
(-7.86259233e-12 0 0)
(-7.67213933e-12 0 0)
(-8.88035946e-12 0 0)
(-8.60009633e-12 0 0)
(-8.74150097e-12 0 0)
(-8.58631772e-12 0 0)
(-8.03017843e-12 0 0)
(-7.43775337e-12 0 0)
(-8.50615688e-12 0 0)
(-8.2425123e-12 0 0)
(-8.30705765e-12 0 0)
(-7.71697614e-12 0 0)
(-7.55221049e-12 0 0)
(-8.20804306e-12 0 0)
(-7.26520923e-12 0 0)
(-7.0188741e-12 0 0)
(-8.31443425e-12 0 0)