/*--------------------------------*- C++ -*----------------------------------*\
| =========                 |                                                 |
| \\      /  F ield         | OpenFOAM: The Open Source CFD Toolbox           |
|  \\    /   O peration     | Version:  2206                                  |
|   \\  /    A nd           | Website:  www.openfoam.com                      |
|    \\/     M anipulation  |                                                 |
\*---------------------------------------------------------------------------*/
FoamFile
{
    version     2.0;
    format      ascii;
    arch        "LSB;label=32;scalar=64";
    class       volScalarField;
    location    "1e-05";
    object      p;
}
// * * * * * * * * * * * * * * * * * * * * * * * * * * * * * * * * * * * * * //

dimensions      [1 -1 -2 0 0 0 0];

internalField   nonuniform List<scalar> 
3183
(
101325
101325
101325
101325
101325
101325
101325
101325
101325
101325
101325
101325
101325
101325
101325
101325
101325
101325
101325
101325
101325
101325
101325
101325
101325
101325
101325
101325
101325
101325
101325
101325
101325
101325
101325
101325
101325
101325
101325
101325
101325
101325
101325
101325
101325
101325
101325
101325
101325
101325
101325
101325
101325
101325
101325
101325
101325
101325
101325
101325
101325
101325
101325
101325
101325
101325
101325
101325
101325
101325
101325
101325
101325
101325
101325
101325
101325
101325
101325
101325
101325
101325
101325
101325
101325
101325
101325
101325
101325
101325
101325
101325
101325
101325
101325
101325
101325
101325
101325
101325
101325
101325
101325
101325
101325
101325
101325
101325
101325
101325
101325
101325
101325
101325
101325
101325
101325
101325
101325
101325
101325
101325
101325
101325
101325
101325
101325
101325
101325
101325
101325
101325
101325
101325
101325
101325
101325
101325
101325
101325
101325
101325
101325
101325
101325
101325
101325
101325
101325
101325
101325
101325
101325
101325
101325
101325
101325
101325
101325
101325
101325
101325
101325
101325
101325
101325
101325
101325
101325
101325
101325
101325
101325
101325
101325
101325
101325
101325
101325
101325
101325
101325
101325
101325
101325
101325
101325
101325
101325
101325
101325
101325
101325
101325
101325
101325
101325
101325
101325
101325
101325
101325
101325
101325
101325
101325
101325
101325
101325
101325
101325
101325
101325
101325
101325
101325
101325
101325
101325
101325
101325
101325
101325
101325
101325
101325
101325
101325
101325
101325
101325
101325
101325
101325
101325
101325
101325
101325
101325
101325
101325
101325
101325
101325
101325
101325
101325
101325
101325
101325
101325
101325
101325
101325
101325
101325
101325
101325
101325
101325
101325
101325
101325
101325
101325
101325
101325
101325
101325
101325
101325
101325
101325
101325
101325
101325
101325
101325
101325
101325
101325
101325
101325
101325
101325
101325
101325
101325
101325
101325
101325
101325
101325
101325
101325
101325
101325
101325
101325
101325
101325
101325
101325
101325
101325
101325
101325
101325
101325
101325
101325
101325
101325
101325
101325
101325
101325
101325
101325
101325
101325
101325
101325
101325
101325
101325
101325
101325
101325
101325
101325
101325
101325
101325
101325
101325
101325
101325
101325
101325
101325
101325
101325
101325
101325
101325
101325
101325
101325
101325
101325
101325
101325
101325
101325
101325
101325
101325
101325
101325
101325
101325
101325
101325
101325
101325
101325
101325
101325
101325
101325
101325
101325
101325
101325
101325
101325
101325
101325
101325
101325
101325
101325
101325
101325
101325
101325
101325
101325
101325
101325
101325
101325
101325
101325
101325
101325
101325
101325
101325
101325
101325
101325
101325
101325
101325
101325
101325
101325
101325
101325
101325
101325
101325
101325
101325
101325
101325
101325
101325
101325
101325
101325
101325
101325
101325
101325
101325
101325
101325
101325
101325
101325
101325
101325
101325
101325
101325
101325
101325
101325
101325
101325
101325
101325
101325
101325
101325
101325
101325
101325
101325
101325
101325
101325
101325
101325
101325
101325
101325
101325
101325
101325
101325
101325
101325
101325
101325
101325
101325
101325
101325
101325
101325
101325
101325
101325
101325
101325
101325
101325
101325
101325
101325
101325
101325
101325
101325
101325
101325
101325
101325
101325
101325
101325
101325
101325
101325
101325
101325
101325
101325
101325
101325
101325
101325
101325
101325
101325
101325
101325
101325
101325
101325
101325
101325
101325
101325
101325
101325
101325
101325
101325
101325
101325
101325
101325
101325
101325
101325
101325
101325
101325
101325
101325
101325
101325
101325
101325
101325
101325
101325
101325
101325
101325
101325
101325
101325
101325
101325
101325
101325
101325
101325
101325
101325
101325
101325
101325
101325
101325
101325
101325
101325
101325
101325
101325
101325
101325
101325
101325
101325
101325
101325
101325
101325
101325
101325
101325
101325
101325
101325
101325
101325
101325
101325
101325
101325
101325
101325
101325
101325
101325
101325
101325
101325
101325
101325
101325
101325
101325
101325
101325
101325
101325
101325
101325
101325
101325
101325
101325
101325
101325
101325
101325
101325
101325
101325
101325
101325
101325
101325
101325
101325
101325
101325
101325
101325
101325
101325
101325
101325
101325
101325
101325
101325
101325
101325
101325
101325
101325
101325
101325
101325
101325
101325
101325
101325
101325
101325
101325
101325
101325
101325
101325
101325
101325
101325
101325
101325
101325
101325
101325
101325
101325
101325
101325
101325
101325
101325
101325
101325
101325
101325
101325
101325
101325
101325
101325
101325
101325
101325
101325
101325
101325
101325
101325
101325
101325
101325
101325
101325
101325
101325
101325
101325
101325
101325
101325
101325
101325
101325
101325
101325
101325
101325
101325
101325
101325
101325
101325
101325
101325
101325
101325
101325
101325
101325
101325
101325
101325
101325
101325
101325
101325
101325
101325
101325
101325
101325
101325
101325
101325
101325
101325
101325
101325
101325
101325
101325
101325
101325
101325
101325
101325
101325
101325
101325
101325
101325
101325
101325
101325
101325
101325
101325
101325
101325
101325
101325
101325
101325
101325
101325
101325
101325
101325
101325
101325
101325
101325
101325
101325
101325
101325
101325
101325
101325
101325
101325
101325
101325
101325
101325
101325
101325
101325
101325
101325
101325
101325
101325
101325
101325
101325
101325
101325
101325
101325
101325
101325
101325
101325
101325
101325
101325
101325
101325
101325
101325
101325
101325
101325
101325
101325
101325
101325
101325
101325
101325
101325
101325
101325
101325
101325
101325
101325
101325
101325
101325
101325
101325
101325
101325
101325
101325
101325
101325
101325
101325
101325
101325
101325
101325
101325
101325
101325
101325
101325
101325
101325
101325
101325
101325
101325
101325
101325
101325
101325
101325
101325
101325
101325
101325
101325
101325
101325
101325
101325
101325
101325
101325
101325
101325
101325
101325
101325
101325
101325
101325
101325
101325
101325
101325
101325
101325
101325
101325
101325
101325
101325
101325
101325
101325
101325
101325
101325
101325
101325
101325
101325
101325
101325
101325
101325
101325
101325
101325
101325
101325
101325
101325
101325
101325
101325
101325
101325
101325
101325
101325
101325
101325
101325
101325
101325
101325
101325
101325
101325
101325
101325
101325
101325
101325
101325
101325
101325
101325
101325
101325
101325
101325
101325
101325
101325
101325
101325
101325
101325
101325
101325
101325
101325
101325
101325
101325
101325
101325
101325
101325
101325
101325
101325
101325
101325
101325
101325
101325
101325
101325
101325
101325
101325
101325
101325
101325
101325
101325
101325
101325
101325
101325
101325
101325
101325
101325
101325
101325
101325
101325
101325
101325
101325
101325
101325
101325
101325
101325
101325
101325
101325
101325
101325
101325
101325
101325
101325
101325
101325
101325
101325
101325
101325
101325
101325
101325
101325
101325
101325
101325
101325
101325
101325
101325
101325
101325
101325
101325
101325
101325
101325
101325
101325
101325
101325
101325
101325
101325
101325
101325
101325
101325
101325
101325
101325
101325
101325
101325
101325
101325
101325
101325
101325
101325
101325
101325
101325
101325
101325
101325
101325
101325
101325
101325
101325
101325
101325
101325
101325
101325
101325
101325
101325
101325
101325
101325
101325
101325
101325
101325
101325
101325
101325
101325
101325
101325
101325
101325
101325
101325
101325
101325
101325
101325
101325
101325
101325
101325
101325
101325
101325
101325
101325
101325
101325
101325
101325
101325
101325
101325
101325
101325
101325
101325
101325
101325
101325
101325
101325
101325
101325
101325
101325
101325
101325
101325
101325
101325
101325
101325
101325
101325
101325
101325
101325
101325
101325
101325
101325
101325
101325
101325
101325
101325
101325
101325
101325
101325
101325
101325
101325
101325
101325
101325
101325
101325
101325
101325
101325
101325
101325
101325
101325
101325
101325
101325
101325
101325
101325
101325
101325
101325
101325
101325
101325
101325
101325
101325
101325
101325
101325
101325
101325
101325
101325
101325
101325
101325
101325
101325
101325
101325
101325
101325
101325
101325
101325
101325
101325
101325
101325
101325
101325
101325
101325
101325
101325
101325
101325
101325
101325
101325
101325
101325
101325
101325
101325
101325
101325
101325
101325
101325
101325
101325
101325
101325
101325
101325
101325
101325
101325
101325
101325
101325
101325
101325
101325
101325
101325
101325
101325
101325
101325
101325
101325
101325
101325
101325
101325
101325
101325
101325
101325
101325
101325
101325
101325
101325
101325
101325
101325
101325
101325
101325
101325
101325
101325
101325
101325
101325
101325
101325
101325
101325
101325
101325
101325
101325
101325
101325
101325
101325
101325
101325
101325
101325
101325
101325
101325
101325
101325
101325
101325
101325
101325
101325
101325
101325
101325
101325
101325
101325
101325
101325
101325
101325
101325
101325
101325
101325
101325
101325
101325
101325
101325
101325
101325
101325
101325
101325
101325
101325
101325
101325
101325
101325
101325
101325
101325
101325
101325
101325
101325
101325
101325
101325
101325
101325
101325
101325
101325
101325
101325
101325
101325
101325
101325
101325
101325
101325
101325
101325
101325
101325
101325
101325
101325
101325
101325
101325
101325
101325
101325
101325
101325
101325
101325
101325
101325
101325
101325
101325
101325
101325
101325
101325
101325
101325
101325
101325
101325
101325
101325
101325
101325
101325
101325
101325
101325
101325
101325
101325
101325
101325
101325
101325
101325
101325
101325
101325
101325
101325
101325
101325
101325
101325
101325
101325
101325
101325
101325
101325
101325
101325
101325
101325
101325
101325
101325
101325
101325
101325
101325
101325
101325
101325
101325
101325
101325
101325
101325
101325
101325
101325
101325
101325
101325
101325
101325
101325
101325
101325
101325
101325
101325
101325
101325
101325
101325
101325
101325
101325
101325
101325
101325
101325
101325
101325
101325
101325
101325
101325
101325
101325
101325
101325
101325
101325
101325
101325
101325
101325
101325
101325
101325
101325
101325
101325
101325
101325
101325
101325
101325
101325
101325
101325
101325
101325
101325
101325
101325
101325
101325
101325
101325
101325
101325
101325
101325
101325
101325
101325
101325
101325
101325
101325
101325
101325
101325
101325
101325
101325
101325
101325
101325
101325
101325
101325
101325
101325
101325
101325
101325
101325
101325
101325
101325
101325
101325
101325
101325
101325
101325
101325
101325
101325
101325
101325
101325
101325
101325
101325
101325
101325
101325
101325
101325
101325
101325
101325
101325
101325
101325
101325
101325
101325
101325
101325
101325
101325
101325
101325
101325
101325
101325
101325
101325
101325
101325
101325
101325
101325
101325
101325
101325
101325
101325
101325
101325
101325
101325
101325
101325
101325
101325
101325
101325
101325
101325
101325
101325
101325
101325
101325
101325
101325
101325
101325
101325
101325
101325
101325
101325
101325
101325
101325
101325
101325
101325
101325
101325
101325
101325
101325
101325
101325
101325
101325
101325
101325
101325
101325
101325
101325
101325
101325
101325
101325
101325
101325
101325
101325
101325
101325
101325
101325
101325
101325
101325
101325
101325
101325
101325
101325
101325
101325
101325
101325
101325
101325
101325
101325
101325
101325
101325
101325
101325
101325
101325
101325
101325
101325
101325
101325
101325
101325
101325
101325
101325
101325
101325
101325
101325
101325
101325
101325
101325
101325
101325
101325
101325
101325
101325
101325
101325
101325
101325
101325
101325
101325
101325
101325
101325
101325
101325
101325
101325
101325
101325
101325
101325
101325
101325
101325
101325
101325
101325
101325
101325
101325
101325
101325
101325
101325
101325
101325
101325
101325
101325
101325
101325
101325
101325
101325
101325
101325
101325
101325
101325
101325
101325
101325
101325
101325
101325
101325
101325
101325
101325
101325
101325
101325
101325
101325
101325
101325
101325
101325
101325
101325
101325
101325
101325
101325
101325
101325
101325
101325
101325
101325
101325
101325
101325
101325
101325
101325
101325
101325
101325
101325
101325
101325
101325
101325
101325
101325
101325
101325
101325
101325
101325
101325
101325
101325
101325
101325
101325
101325
101325
101325
101325
101325
101325
101325
101325
101325
101325
101325
101325
101325
101325
101325
101325
101325
101325
101325
101325
101325
101325
101325
101325
101325
101325
101325
101325
101325
101325
101325
101325
101325
101325
101325
101325
101325
101325
101325
101325
101325
101325
101325
101325
101325
101325
101325
101325
101325
101325
101325
101325
101325
101325
101325
101325
101325
101325
101325
101325
101325
101325
101325
101325
101325
101325
101325
101325
101325
101325
101325
101325
101325
101325
101325
101325
101325
101325
101325
101325
101325
101325
101325
101325
101325
101325
101325
101325
101325
101325
101325
101325
101325
101325
101325
101325
101325
101325
101325
101325
101325
101325
101325
101325
101325
101325
101325
101325
101325
101325
101325
101325
101325
101325
101325
101325
101325
101325
101325
101325
101325
101325
101325
101325
101325
101325
101325
101325
101325
101325
101325
101325
101325
101325
101325
101325
101325
101325
101325
101325
101325
101325
101325
101325
101325
101325
101325
101325
101325
101325
101325
101325
101325
101325
101325
101325
101325
101325
101325
101325
101325
101325
101325
101325
101325
101325
101325
101325
101325
101325
101325
101325
101325
101325
101325
101325
101325
101325
101325
101325
101325
101325
101325
101325
101325
101325
101325
101325
101325
101325
101325
101325
101325
101325
101325
101325
101325
101325
101325
101325
101325
101325
101325
101325
101325
101325
101325
101325
101325
101325
101325
101325
101325
101325
101325
101325
101325
101325
101325
101325
101325
101325
101325
101325
101325
101325
101325
101325
101325
101325
101325
101325
101325
101325
101325
101325
101325
101325
101325
101325
101325
101325
101325
101325
101325
101325
101325
101325
101325
101325
101325
101325
101325
101325
101325
101325
101325
101325
101325
101325
101325
101325
101325
101325
101325
101325
101325
101325
101325
101325
101325
101324.999
101324.999
101324.999
101324.999
101324.999
101324.999
101324.999
101324.999
101324.999
101324.999
101324.999
101324.999
101324.999
101324.999
101324.999
101324.998
101324.998
101324.998
101324.998
101324.998
101324.998
101324.998
101324.998
101324.997
101324.997
101324.997
101324.997
101324.997
101324.996
101324.996
101324.996
101324.995
101324.995
101324.995
101324.994
101324.994
101324.994
101324.993
101324.993
101324.992
101324.992
101324.991
101324.991
101324.99
101324.989
101324.989
101324.988
101324.987
101324.986
101324.985
101324.984
101324.983
101324.982
101324.981
101324.98
101324.979
101324.977
101324.976
101324.974
101324.973
101324.971
101324.969
101324.967
101324.965
101324.963
101324.961
101324.958
101324.955
101324.953
101324.95
101324.947
101324.944
101324.94
101324.936
101324.933
101324.929
101324.924
101324.92
101324.915
101324.91
101324.905
101324.899
101324.893
101324.887
101324.88
101324.874
101324.866
101324.859
101324.851
101324.842
101324.833
101324.824
101324.814
101324.803
101324.792
101324.781
101324.769
101324.756
101324.743
101324.729
101324.714
101324.698
101324.682
101324.665
101324.647
101324.629
101324.609
101324.588
101324.567
101324.544
101324.521
101324.496
101324.47
101324.443
101324.415
101324.385
101324.354
101324.322
101324.288
101324.253
101324.216
101324.177
101324.137
101324.095
101324.052
101324.006
101323.959
101323.909
101323.858
101323.804
101323.749
101323.691
101323.63
101323.567
101323.502
101323.434
101323.364
101323.291
101323.215
101323.136
101323.054
101322.969
101322.881
101322.79
101322.695
101322.598
101322.496
101322.391
101322.283
101322.17
101322.054
101321.934
101321.81
101321.682
101321.55
101321.414
101321.273
101321.128
101320.978
101320.824
101320.665
101320.501
101320.332
101320.159
101319.981
101319.797
101319.609
101319.415
101319.217
101319.013
101318.803
101318.588
101318.368
101318.143
101317.911
101317.675
101317.433
101317.185
101316.931
101316.672
101316.408
101316.138
101315.862
101315.581
101315.294
101315.001
101314.703
101314.4
101314.091
101313.777
101313.458
101313.133
101312.804
101312.469
101312.13
101311.785
101311.436
101311.083
101310.725
101310.363
101309.996
101309.626
101309.252
101308.874
101308.493
101308.109
101307.722
101307.332
101306.94
101306.545
101306.149
101305.75
101305.35
101304.949
101304.547
101304.144
101303.741
101303.338
101302.935
101302.533
101302.131
101301.731
101301.333
101300.936
101300.541
101300.149
101299.76
101299.374
101298.992
101298.614
101298.24
101297.87
101297.506
101297.147
101296.794
101296.447
101296.106
101295.772
101295.445
101295.125
101294.814
101294.51
101294.214
101293.927
101293.649
101293.38
101293.121
101292.871
101292.632
101292.402
101292.183
101291.975
101291.777
101291.59
101291.415
101291.251
101291.098
101290.957
101290.827
101290.709
101290.603
101290.509
101290.427
101290.357
101290.298
101290.252
101290.217
101290.194
101290.182
101290.183
101290.195
101290.218
101290.252
101290.298
101290.354
101290.421
101290.499
101290.586
101290.684
101290.792
101290.909
101291.035
101291.171
101291.315
101291.467
101291.627
101291.795
101291.97
101292.152
101292.341
101292.536
101292.737
101292.944
101293.156
101293.372
101293.593
101293.818
101294.047
101294.279
101294.514
101294.751
101294.991
101295.232
101295.475
101295.719
101295.964
101296.209
101296.454
101296.699
101296.944
101297.188
101297.43
101297.672
101297.911
101298.149
101298.384
101298.617
101298.848
101299.076
101299.3
101299.522
101299.74
101299.955
101300.166
101300.373
101300.576
101300.776
101300.971
101301.162
101301.349
101301.532
101301.711
101301.885
101302.055
101302.22
101302.381
101302.538
101302.691
101302.839
101302.983
101303.123
101303.259
101303.391
101303.518
101303.642
101303.762
101303.879
101303.991
101304.1
101304.206
101304.308
101304.407
101304.503
101304.596
101304.685
101304.772
101304.856
101304.937
101305.016
101305.092
101305.166
101305.237
101305.307
101305.373
101305.438
101305.501
101305.562
101305.621
101305.678
101305.734
101305.787
101305.839
101305.89
101305.939
101305.987
101306.033
101306.078
101306.121
101306.163
101306.204
101306.244
101306.283
101306.321
101306.357
101306.393
101306.427
101306.461
101306.494
101306.526
101306.558
101306.588
101306.618
101306.648
101306.677
101306.706
101306.734
101306.762
101306.79
101306.818
101306.845
101306.873
101306.901
101306.929
101306.957
101306.986
101307.016
101307.045
101307.076
101307.107
101307.139
101307.173
101307.207
101307.242
101307.278
101307.315
101307.354
101307.394
101307.435
101307.478
101307.522
101307.568
101307.615
101307.663
101307.713
101307.764
101307.817
101307.871
101307.926
101307.983
101308.04
101308.099
101308.159
101308.219
101308.28
101308.342
101308.404
101308.467
101308.53
101308.593
101308.656
101308.719
101308.781
101308.843
101308.905
101308.965
101309.025
101309.083
101309.14
101309.196
101309.251
101309.304
101309.355
101309.405
101309.453
101309.499
101309.543
101309.585
101309.625
101309.663
101309.699
101309.734
101309.766
101309.796
101309.825
101309.852
101309.877
101309.9
101309.922
101309.942
101309.961
101309.979
101309.995
101310.011
101310.025
101310.039
101310.052
101310.065
101310.077
101310.088
101310.1
101310.111
101310.121
101310.132
101310.143
101310.154
101310.165
101310.176
101310.187
101310.198
101310.21
101310.221
101310.233
101310.245
101310.256
101310.268
101310.28
101310.291
101310.303
101310.314
101310.324
101310.334
101310.343
101310.351
101310.358
101310.364
101310.368
101310.37
101310.37
101310.367
101310.362
101310.354
101310.342
101310.326
101310.305
101310.279
101310.248
101310.21
101310.165
101310.113
101310.053
101309.984
101309.906
101309.818
101309.719
101309.611
101309.491
101309.362
101309.224
101309.079
101308.928
101308.776
101308.627
101308.487
101308.366
101308.276
101308.231
101308.253
101308.365
101308.602
101309.004
101309.625
101310.531
101311.801
101313.525
101315.861
101319.205
101323.428
101318.636
101316.545
101315.116
101313.678
101312.469
101311.264
101310.281
101309.399
101308.705
101308.138
101307.714
101307.404
101307.198
101307.075
101307.021
101307.022
101307.066
101307.143
101307.247
101307.369
101307.504
101307.649
101307.799
101307.951
101308.103
101308.253
101308.4
101308.543
101308.68
101308.812
101308.937
101309.056
101309.169
101309.275
101309.374
101309.467
101309.554
101309.635
101309.71
101309.78
101309.844
101309.904
101309.959
101310.009
101310.055
101310.097
101310.135
101310.17
101310.202
101310.23
101310.256
101310.279
101310.299
101310.318
101310.334
101310.348
101310.36
101310.37
101310.379
101310.387
101310.393
101310.397
101310.401
101310.403
101310.405
101310.405
101310.405
101310.404
101310.402
101310.4
101310.397
101310.393
101310.389
101310.384
101310.379
101310.373
101310.368
101310.361
101310.355
101310.348
101310.341
101310.334
101310.326
101310.318
101310.311
101310.303
101310.294
101310.286
101310.278
101310.269
101310.261
101310.252
101310.243
101310.235
101310.226
101310.217
101310.208
101310.2
101310.191
101310.182
101310.173
101310.164
101310.155
101310.146
101310.138
101310.129
101310.12
101310.112
101310.103
101310.094
101310.086
101310.077
101310.069
101310.06
101310.052
101310.043
101310.035
101310.027
101310.019
101310.01
101310.002
101309.994
101309.986
101309.978
101309.97
101309.961
101309.953
101309.945
101309.937
101309.929
101309.921
101309.912
101309.904
101309.896
101309.887
101309.879
101309.87
101309.861
101309.853
101309.844
101309.835
101309.825
101309.816
101309.806
101309.797
101309.787
101309.776
101309.766
101309.755
101309.744
101309.733
101309.721
101309.71
101309.697
101309.685
101309.672
101309.659
101309.646
101309.632
101309.618
101309.603
101309.588
101309.572
101309.557
101309.54
101309.524
101309.506
101309.489
101309.471
101309.452
101309.434
101309.414
101309.394
101309.374
101309.353
101309.332
101309.31
101309.288
101309.265
101309.242
101309.217
101309.193
101309.168
101309.143
101309.118
101309.092
101309.066
101309.04
101309.013
101308.986
101308.958
101308.93
101308.902
101308.873
101308.844
101308.815
101308.785
101308.756
101308.726
101308.695
101308.665
101308.634
101308.603
101308.572
101308.541
101308.51
101308.478
101308.447
101308.415
101308.383
101308.352
101308.32
101308.288
101308.257
101308.225
101308.194
101308.162
101308.131
101308.099
101308.068
101308.037
101308.006
101307.975
101307.945
101307.914
101307.884
101307.854
101307.825
101307.795
101307.766
101307.737
101307.708
101307.68
101307.652
101307.624
101307.597
101307.569
101307.542
101307.516
101307.49
101307.464
101307.438
101307.413
101307.388
101307.364
101307.34
101307.316
101307.292
101307.269
101307.246
101307.224
101307.202
101307.18
101307.158
101307.137
101307.116
101307.096
101307.076
101307.056
101307.036
101307.017
101306.998
101306.979
101306.96
101306.942
101306.924
101306.906
101306.888
101306.871
101306.854
101306.837
101306.82
101306.803
101306.787
101306.77
101306.754
101306.738
101306.722
101306.706
101306.691
101306.675
101306.659
101306.644
101306.628
101306.613
101306.598
101306.582
101306.567
101306.552
101306.536
101306.521
101306.505
101306.49
101306.475
101306.459
101306.443
101306.428
101306.412
101306.396
101306.38
101306.364
101306.348
101306.331
101306.315
101306.298
101306.282
101306.265
101306.248
101306.23
101306.213
101306.195
101306.178
101306.16
101306.141
101306.123
101306.104
101306.086
101306.067
101306.047
101306.028
101306.008
101305.988
101305.968
101305.947
101305.927
101305.905
101305.884
101305.863
101305.841
101305.819
101305.796
101305.774
101305.751
101305.727
101305.704
101305.68
101305.655
101305.631
101305.606
101305.581
101305.555
101305.529
101305.503
101305.476
101305.449
101305.422
101305.394
101305.366
101305.338
101305.309
101305.279
101305.25
101305.22
101305.189
101305.158
101305.127
101305.095
101305.062
101305.029
101304.996
101304.962
101304.928
101304.893
101304.858
101304.822
101304.786
101304.749
101304.711
101304.673
101304.635
101304.595
101304.556
101304.515
101304.474
101304.432
101304.39
101304.347
101304.303
101304.259
101304.214
101304.168
101304.121
101304.074
101304.026
101303.977
101303.928
101303.877
101303.826
101303.774
101303.721
101303.667
101303.613
101303.557
101303.501
101303.444
101303.386
101303.327
101303.267
101303.206
101303.144
101303.081
101303.017
101302.952
101302.886
101302.819
101302.751
101302.682
101302.612
101302.541
101302.469
101302.396
101302.322
101302.246
101302.17
101302.092
101302.013
101301.933
101301.852
101301.77
101301.687
101301.603
101301.517
101301.43
101301.343
101301.254
101301.163
101301.072
101300.98
101300.886
101300.791
101300.696
101300.598
101300.5
101300.401
101300.301
101300.199
101300.096
101299.993
101299.888
101299.782
101299.675
101299.567
101299.457
101299.347
101299.236
101299.124
101299.011
101298.896
101298.781
101298.665
101298.548
101298.43
101298.311
101298.192
101298.071
101297.95
101297.828
101297.705
101297.581
101297.457
101297.332
101297.206
101297.08
101296.953
101296.826
101296.698
101296.569
101296.44
101296.311
101296.181
101296.051
101295.921
101295.79
101295.659
101295.528
101295.397
101295.265
101295.134
101295.002
101294.871
101294.739
101294.608
101294.477
101294.346
101294.215
101294.084
101293.954
101293.824
101293.694
101293.565
101293.436
101293.308
101293.181
101293.054
101292.927
101292.802
101292.677
101292.553
101292.429
101292.307
101292.185
101292.061
101291.928
101291.788
101291.64
101291.484
101291.32
101291.147
101290.967
101290.778
101290.582
101290.379
101290.17
101289.957
101289.742
101289.527
101289.316
101289.113
101288.922
101288.751
101288.606
101288.499
101288.439
101288.441
101288.52
101288.694
101288.984
101289.412
101290.002
101290.779
101291.768
101292.99
101294.463
101296.197
101298.192
101300.433
101302.889
101305.511
101308.23
101310.962
101313.614
101316.091
101318.306
101320.195
101321.724
101322.89
101323.724
101324.28
101324.623
101324.818
101324.92
101324.968
101324.988
101324.996
101324.999
101325
101325
101325
101325
101325
101325
101325
101325
101325
101325
101325
101325
101325
101325
101325
101325
101325
101325
101325
101325
101325
101325
101325
)
;

boundaryField
{
    closed
    {
        type            zeroGradient;
    }
    open
    {
        type            waveTransmissive;
        gamma           1.25;
        fieldInf        101325;
        lInf            1;
        value           uniform 101325;
    }
    sides
    {
        type            empty;
    }
}


// ************************************************************************* //
