/*--------------------------------*- C++ -*----------------------------------*\
| =========                 |                                                 |
| \\      /  F ield         | OpenFOAM: The Open Source CFD Toolbox           |
|  \\    /   O peration     | Version:  2206                                  |
|   \\  /    A nd           | Website:  www.openfoam.com                      |
|    \\/     M anipulation  |                                                 |
\*---------------------------------------------------------------------------*/
FoamFile
{
    version     2.0;
    format      ascii;
    arch        "LSB;label=32;scalar=64";
    class       surfaceScalarField;
    location    "1e-05";
    object      phi;
}
// * * * * * * * * * * * * * * * * * * * * * * * * * * * * * * * * * * * * * //

dimensions      [1 0 -1 0 0 0 0];

oriented        oriented;

internalField   nonuniform List<scalar> 
3182
(
3.55188141e-18
-3.05992607e-18
4.27118393e-19
-1.37422282e-18
-1.81626332e-21
-1.48416224e-23
-1.08290517e-24
-2.28398651e-29
6.90103411e-25
1.72509775e-23
7.68508315e-22
1.59988457e-18
3.56439358e-18
-1.72264116e-18
1.78472814e-18
-7.80778678e-19
-1.10531374e-18
-4.16614428e-18
-3.66420209e-18
4.60371022e-18
3.78523463e-20
4.11365033e-22
2.11412256e-21
1.4133059e-18
2.73539772e-18
1.85440249e-18
3.39231498e-18
7.86213823e-19
1.37262889e-18
-1.07865598e-19
-2.47161092e-18
-2.59767802e-18
-6.44724975e-18
-4.90204696e-18
-2.49611747e-18
-1.81702703e-19
-9.81527864e-19
-1.34829912e-18
-4.41890304e-19
-4.19063781e-19
-2.59838614e-18
-2.95978223e-18
-1.73897166e-18
-1.09273413e-18
-1.61837112e-18
-1.63016897e-18
-1.19770073e-18
-1.30843874e-18
-4.36641256e-19
-2.08998246e-19
1.73610835e-18
2.51764609e-18
3.3649268e-18
5.31532632e-18
6.07788096e-18
6.96080019e-18
8.90461303e-18
9.77617682e-18
1.10767582e-17
1.2380493e-17
1.36887943e-17
1.49747391e-17
1.56065157e-17
1.54032816e-17
1.58921046e-17
1.63205941e-17
1.63175425e-17
1.61021319e-17
1.43774931e-17
1.30304738e-17
1.13113499e-17
1.09933808e-17
9.62632766e-18
8.67462479e-18
7.79796289e-18
6.50512345e-18
5.15789469e-18
5.24346819e-18
4.47300366e-18
3.72560236e-18
1.92124555e-18
1.48466108e-18
-1.62219686e-19
-2.0519599e-18
-3.1346536e-18
-4.71310271e-18
-4.27584703e-18
-5.20597199e-18
-6.50110889e-18
-7.77785956e-18
-9.27625027e-18
-1.18134315e-17
-1.55818192e-17
-1.64397851e-17
-1.64827377e-17
-1.47413032e-17
-1.69326437e-17
-1.83969841e-17
-1.63225097e-17
-1.71051482e-17
-1.31077832e-17
-1.52039878e-17
-1.65449547e-17
-1.59420614e-17
-1.93300935e-17
-1.86342224e-17
-2.00914781e-17
-1.8457874e-17
-1.68032951e-17
-1.80702478e-17
-1.79971491e-17
-1.68325248e-17
-1.7221434e-17
-1.54843028e-17
-1.54718579e-17
-1.71604075e-17
-1.65496647e-17
-1.85457271e-17
-1.73155872e-17
-1.98978792e-17
-2.02987006e-17
-2.24655472e-17
-2.21807403e-17
-2.51333149e-17
-2.40532891e-17
-2.47207525e-17
-2.71902186e-17
-2.73030727e-17
-2.85976142e-17
-2.79096442e-17
-3.01808184e-17
-3.27207483e-17
-2.90787306e-17
-3.03721857e-17
-3.05535151e-17
-2.54977998e-17
-2.55048993e-17
-2.52948688e-17
-2.79625879e-17
-2.74741104e-17
-2.72973131e-17
-3.01421241e-17
-3.18199302e-17
-3.31906741e-17
-3.20812369e-17
-2.94840652e-17
-2.8772598e-17
-3.37602907e-17
-3.21897947e-17
-3.56950158e-17
-3.18319215e-17
-3.41586311e-17
-3.19353389e-17
-3.37237737e-17
-3.54430371e-17
-3.62203086e-17
-3.63307804e-17
-3.7606374e-17
-3.86489096e-17
-3.83670848e-17
-3.75340725e-17
-3.97722238e-17
-3.78916532e-17
-3.80291605e-17
-3.76021485e-17
-3.71286315e-17
-3.72957675e-17
-3.75907669e-17
-3.81398817e-17
-3.64386474e-17
-3.9223357e-17
-3.84022029e-17
-3.9432933e-17
-4.09909427e-17
-3.87841189e-17
-4.39276912e-17
-4.35173515e-17
-4.57977433e-17
-4.36121508e-17
-4.56283132e-17
-4.50960288e-17
-4.55406045e-17
-4.84435925e-17
-4.70846367e-17
-4.86880554e-17
-4.97638391e-17
-4.99093323e-17
-5.16571375e-17
-5.04863026e-17
-5.24334526e-17
-5.27930189e-17
-5.2348523e-17
-4.96510013e-17
-4.99187027e-17
-4.97234642e-17
-5.21186295e-17
-5.22138347e-17
-5.10174668e-17
-5.28554747e-17
-5.11605484e-17
-5.10376894e-17
-5.18259353e-17
-5.43459937e-17
-5.41312196e-17
-5.35984224e-17
-5.55981724e-17
-5.34918158e-17
-5.46909915e-17
-5.32227906e-17
-5.65355563e-17
-5.67703891e-17
-5.58088971e-17
-5.63236198e-17
-5.65770778e-17
-5.35160098e-17
-5.37368889e-17
-5.28677174e-17
-5.54563053e-17
-5.80473584e-17
-5.94545673e-17
-5.96883907e-17
-6.10463437e-17
-5.90082607e-17
-6.09935751e-17
-6.26819131e-17
-6.13319645e-17
-5.98916895e-17
-6.02957553e-17
-6.01504484e-17
-6.02699616e-17
-6.01431272e-17
-5.95060649e-17
-6.08579989e-17
-6.36256389e-17
-6.57649661e-17
-6.46878636e-17
-6.40368645e-17
-6.50675783e-17
-6.61957642e-17
-6.42315733e-17
-6.56429014e-17
-6.81247113e-17
-7.07760313e-17
-6.83930288e-17
-6.86752843e-17
-6.73583808e-17
-6.68338699e-17
-6.4064853e-17
-6.83871617e-17
-6.678261e-17
-6.47717181e-17
-6.68396908e-17
-6.54037911e-17
-6.57362048e-17
-6.78475523e-17
-6.63397165e-17
-7.0089344e-17
-6.91463438e-17
-6.87131857e-17
-6.84512e-17
-7.03970014e-17
-7.36374509e-17
-7.34005593e-17
-7.27501589e-17
-7.19613791e-17
-7.31542068e-17
-7.42806689e-17
-7.41289235e-17
-7.74899802e-17
-7.84249843e-17
-7.51075916e-17
-7.81524255e-17
-7.85139454e-17
-8.03574319e-17
-7.86879289e-17
-8.12760413e-17
-8.25579752e-17
-8.32001866e-17
-8.54966868e-17
-8.62823264e-17
-8.52530716e-17
-8.46924955e-17
-8.8298764e-17
-8.56329167e-17
-8.68059043e-17
-8.52343973e-17
-8.43151461e-17
-8.51242536e-17
-8.80721863e-17
-8.83282936e-17
-8.93032971e-17
-8.85994869e-17
-8.77749113e-17
-8.88120529e-17
-8.65146868e-17
-8.75515965e-17
-9.02977155e-17
-9.36842666e-17
-9.387041e-17
-9.46165003e-17
-9.53338943e-17
-9.14886834e-17
-8.98150632e-17
-9.30262567e-17
-9.13903057e-17
-8.71345679e-17
-8.83597088e-17
-9.05616321e-17
-8.8416316e-17
-9.15198685e-17
-9.13814281e-17
-9.14189914e-17
-9.27804132e-17
-9.33614707e-17
-9.61691676e-17
-9.91503658e-17
-1.02129022e-16
-1.01373825e-16
-1.01709624e-16
-1.00279391e-16
-1.01482104e-16
-9.87232837e-17
-9.88242238e-17
-9.63633074e-17
-9.96465329e-17
-9.34998363e-17
-9.49977399e-17
-9.72516302e-17
-9.8429788e-17
-9.94091832e-17
-9.82592455e-17
-9.75811941e-17
-9.43779337e-17
-9.434945e-17
-9.21031998e-17
-9.16953837e-17
-9.10130757e-17
-8.7455266e-17
-9.07988617e-17
-8.9633785e-17
-9.11075546e-17
-9.37570887e-17
-8.89582092e-17
-8.89122537e-17
-8.62221162e-17
-8.56143127e-17
-8.69573402e-17
-8.92195363e-17
-8.80049814e-17
-8.55867836e-17
-8.46382201e-17
-8.75728982e-17
-8.54803855e-17
-8.76434306e-17
-8.57362007e-17
-8.93377453e-17
-8.93160049e-17
-8.69991429e-17
-9.17610205e-17
-8.85967879e-17
-8.69428946e-17
-8.40973266e-17
-8.71898871e-17
-8.76505196e-17
-8.72068996e-17
-9.03147536e-17
-8.6386534e-17
-8.93994687e-17
-8.54357319e-17
-8.80452167e-17
-9.0520192e-17
-8.63579119e-17
-8.63399179e-17
-8.41955071e-17
-8.93017574e-17
-9.18703472e-17
-8.97580641e-17
-8.934342e-17
-8.79496294e-17
-8.83910411e-17
-8.8541534e-17
-8.82402546e-17
-8.73990361e-17
-8.20583816e-17
-7.90260474e-17
-7.612531e-17
-7.79900179e-17
-7.23717574e-17
-7.3886558e-17
-7.53559027e-17
-7.18989632e-17
-7.3859951e-17
-7.05227714e-17
-6.77691246e-17
-7.15880057e-17
-7.23118753e-17
-6.95103024e-17
-6.93691528e-17
-7.07427854e-17
-6.91802096e-17
-6.78318124e-17
-6.73349876e-17
-6.54025241e-17
-6.43394792e-17
-6.27360932e-17
-6.37313711e-17
-6.52465569e-17
-6.33419611e-17
-6.26514415e-17
-6.13545546e-17
-6.24609401e-17
-6.37512993e-17
-6.19278873e-17
-6.16964961e-17
-6.3214833e-17
-6.25188727e-17
-6.23916982e-17
-6.22449046e-17
-5.89496462e-17
-5.9832798e-17
-6.23521345e-17
-5.79810296e-17
-6.07356515e-17
-6.09676384e-17
-6.11712669e-17
-6.08236338e-17
-5.88139451e-17
-5.43887832e-17
-5.47701603e-17
-5.48804231e-17
-5.68375334e-17
-5.74190834e-17
-5.65785281e-17
-5.82673241e-17
-6.01784316e-17
-5.78663604e-17
-5.71048916e-17
-5.60658713e-17
-5.2956278e-17
-5.08115785e-17
-4.93120827e-17
-5.29243134e-17
-5.00015701e-17
-5.32761789e-17
-4.9694714e-17
-4.85476124e-17
-4.8199061e-17
-4.75060585e-17
-4.66196059e-17
-4.33369246e-17
-4.41161499e-17
-4.53839574e-17
-4.62884071e-17
-4.08070389e-17
-4.06472124e-17
-3.81299621e-17
-3.77044797e-17
-3.5119888e-17
-3.63644051e-17
-3.66858972e-17
-3.56182272e-17
-3.13600302e-17
-3.21100546e-17
-3.24439914e-17
-3.36929485e-17
-3.03866393e-17
-2.86647774e-17
-3.01272648e-17
-2.79607259e-17
-2.92379058e-17
-3.24962167e-17
-3.27364285e-17
-3.13588991e-17
-3.32835734e-17
-3.18741321e-17
-3.52094514e-17
-3.37448747e-17
-3.50110741e-17
-3.32472901e-17
-3.23352283e-17
-3.1699836e-17
-3.09277933e-17
-2.9688787e-17
-2.93970373e-17
-3.14980307e-17
-2.93577488e-17
-3.06580323e-17
-3.08659266e-17
-3.58496329e-17
-3.28959686e-17
-3.45592119e-17
-3.3624461e-17
-3.70130297e-17
-3.84437364e-17
-4.21294266e-17
-4.17308581e-17
-3.8136254e-17
-3.57232059e-17
-3.58210468e-17
-3.32495135e-17
-3.306786e-17
-3.06837062e-17
-3.37212699e-17
-3.54766396e-17
-3.46948714e-17
-3.16610246e-17
-3.19517333e-17
-2.7834224e-17
-2.96079248e-17
-2.65528425e-17
-2.31491678e-17
-2.34733282e-17
-2.3051452e-17
-2.1064093e-17
-1.78717873e-17
-1.75566291e-17
-1.54302487e-17
-1.59560608e-17
-1.5303435e-17
-1.82582384e-17
-1.61039318e-17
-1.53153639e-17
-1.63822936e-17
-1.28911624e-17
-1.42926759e-17
-1.08838752e-17
-1.12198851e-17
-1.31364186e-17
-1.33116952e-17
-1.32303317e-17
-1.18750362e-17
-1.53059384e-17
-1.27184116e-17
-1.12585285e-17
-1.03620525e-17
-1.27438665e-17
-1.12643503e-17
-1.17758527e-17
-1.12474497e-17
-1.3648195e-17
-1.2021117e-17
-1.0204028e-17
-8.76489426e-18
-7.62513229e-18
-7.39242759e-18
-7.70802782e-18
-4.72258552e-18
-6.11857096e-18
-3.38767515e-18
-7.53025397e-19
-1.38798608e-18
-5.73944968e-19
1.97894068e-18
-1.86680402e-19
-8.24423013e-19
2.26486044e-18
7.88385132e-19
-2.80980862e-18
-2.86323151e-18
-6.28316253e-18
-6.3157726e-18
-4.36606328e-18
-3.65930574e-18
-8.33334724e-19
-2.46887175e-18
1.07133246e-18
3.9729914e-18
2.92254338e-18
6.75901241e-18
5.53101204e-18
8.4629885e-18
1.03436317e-17
1.0959203e-17
7.60987977e-18
8.15778445e-18
9.01954619e-18
8.41853101e-18
1.17036047e-17
1.04937135e-17
1.06774817e-17
1.15435356e-17
1.1773923e-17
1.10851327e-17
1.2623596e-17
1.46244166e-17
1.40568138e-17
1.41076997e-17
1.69924803e-17
1.59831905e-17
1.74061998e-17
1.42276233e-17
1.30058826e-17
1.07177725e-17
9.23253172e-18
6.59328463e-18
9.93308684e-18
1.09192598e-17
1.76216111e-17
1.70096484e-17
1.82473523e-17
1.83428276e-17
2.04144473e-17
1.95490024e-17
1.69492027e-17
1.48771145e-17
1.44652376e-17
1.55408544e-17
1.44341691e-17
1.46818108e-17
1.17416547e-17
1.57989349e-17
1.69012727e-17
1.52197081e-17
1.93113334e-17
1.95187255e-17
2.18674019e-17
2.07257682e-17
2.1541347e-17
2.14990374e-17
2.19419545e-17
2.24166938e-17
2.30073504e-17
2.50744848e-17
2.43645356e-17
2.64643323e-17
2.53289062e-17
2.33667929e-17
2.42090314e-17
2.21542395e-17
2.36589285e-17
2.49822508e-17
2.86860401e-17
2.91512226e-17
2.81157064e-17
3.11992104e-17
3.35066526e-17
3.21045519e-17
3.38788146e-17
3.29205179e-17
3.41088491e-17
3.75589997e-17
3.60055718e-17
3.46887962e-17
3.63465569e-17
3.700869e-17
3.58257721e-17
3.6737047e-17
3.93625123e-17
3.79411173e-17
3.91958147e-17
3.81725089e-17
3.69981233e-17
3.85491883e-17
3.9760815e-17
3.7266198e-17
3.72376799e-17
3.77845e-17
3.48668633e-17
3.53928071e-17
3.67862835e-17
3.76321751e-17
3.59064501e-17
3.39265632e-17
3.41118791e-17
3.54782274e-17
3.77698834e-17
4.12369571e-17
3.84837143e-17
4.13363738e-17
4.12506123e-17
3.98490232e-17
4.09904556e-17
4.42728831e-17
4.14317631e-17
4.45943841e-17
4.14295986e-17
4.05287259e-17
4.04500067e-17
3.966568e-17
3.84562779e-17
3.58680333e-17
3.61656959e-17
3.92041148e-17
3.59498805e-17
3.8791223e-17
3.75150065e-17
3.66083265e-17
3.92406762e-17
3.71942096e-17
3.77882802e-17
3.53363984e-17
3.45575573e-17
3.49972128e-17
3.467583e-17
3.22901769e-17
3.37998563e-17
3.05715161e-17
3.2663176e-17
3.45289862e-17
3.72730574e-17
3.60214486e-17
3.75569348e-17
3.69780767e-17
3.95522304e-17
3.63628275e-17
3.73145687e-17
3.87242745e-17
3.60680158e-17
3.82901507e-17
3.66077775e-17
3.7181323e-17
3.80601725e-17
3.73733314e-17
3.83013759e-17
3.71222624e-17
3.95997466e-17
3.69316152e-17
3.66487597e-17
3.71223618e-17
3.70074438e-17
3.90820905e-17
3.68659484e-17
3.72344451e-17
3.57238422e-17
3.23261604e-17
2.9628716e-17
3.48533031e-17
3.58063944e-17
3.52053999e-17
3.66612195e-17
3.60059368e-17
3.48031831e-17
3.37897871e-17
3.59205773e-17
3.71196367e-17
3.3939187e-17
3.6827187e-17
3.38313842e-17
3.39541281e-17
3.27579775e-17
3.35655948e-17
3.20149974e-17
3.12672025e-17
3.08432516e-17
2.90768576e-17
2.76151265e-17
2.85540467e-17
2.83757333e-17
2.7352679e-17
2.71016327e-17
3.04093487e-17
3.06071825e-17
3.10186551e-17
3.36125358e-17
3.40002402e-17
3.35309762e-17
3.45949895e-17
3.58149124e-17
3.27429344e-17
3.18274088e-17
3.44457495e-17
3.16865697e-17
3.32245542e-17
3.44349534e-17
3.48243447e-17
3.26539069e-17
3.31398963e-17
3.25887087e-17
3.48329575e-17
3.59530105e-17
3.81501843e-17
3.65538418e-17
3.51836508e-17
3.70585539e-17
3.83240242e-17
3.77857665e-17
3.31469258e-17
3.55613393e-17
3.58155529e-17
3.66496795e-17
3.36421036e-17
3.35134547e-17
3.65275077e-17
3.37346761e-17
3.9425388e-17
3.87385248e-17
3.60558106e-17
3.69937562e-17
3.73473687e-17
3.84030111e-17
3.77075549e-17
3.73073232e-17
3.40282736e-17
3.66917019e-17
3.69975523e-17
3.57742533e-17
3.33397946e-17
3.46681376e-17
3.03764979e-17
2.88815886e-17
3.01234936e-17
3.34300325e-17
3.05163737e-17
3.47443507e-17
3.22656202e-17
3.38280827e-17
3.50388062e-17
3.39592842e-17
3.41626764e-17
3.23498697e-17
3.53411383e-17
3.23432515e-17
3.31610216e-17
3.1581944e-17
3.20341242e-17
2.62159913e-17
2.9211011e-17
2.87944751e-17
3.24418795e-17
3.55214556e-17
3.75185071e-17
3.54251707e-17
3.61679016e-17
3.27517609e-17
3.65161711e-17
3.84965067e-17
3.64294573e-17
3.72158177e-17
3.72065782e-17
3.71872822e-17
3.73219423e-17
3.70896895e-17
3.70142708e-17
3.55457879e-17
3.46372609e-17
3.82781175e-17
4.20357856e-17
4.28496231e-17
4.13676798e-17
3.95121707e-17
3.87451864e-17
3.91221031e-17
4.25941943e-17
4.34977503e-17
4.398717e-17
4.34765238e-17
4.1092051e-17
4.15530872e-17
3.99311185e-17
3.91468713e-17
4.30148541e-17
4.39453152e-17
4.10039796e-17
4.01380681e-17
4.09286176e-17
4.10369518e-17
4.34770698e-17
4.53195062e-17
4.32395882e-17
4.3996814e-17
4.26528564e-17
4.61317747e-17
4.77602324e-17
4.88304835e-17
5.00767463e-17
5.19631763e-17
4.71665679e-17
5.21322148e-17
4.95471498e-17
4.87267161e-17
4.55205381e-17
4.50679377e-17
4.56116331e-17
4.46728506e-17
4.35318922e-17
4.32990867e-17
4.49046171e-17
4.15064564e-17
4.31167961e-17
4.26325964e-17
4.17488552e-17
4.21757681e-17
4.2366082e-17
4.33001242e-17
4.47250035e-17
4.58026099e-17
4.53206612e-17
4.49838457e-17
4.37877045e-17
4.55834451e-17
4.48420251e-17
4.53010228e-17
4.68626146e-17
4.68024607e-17
4.61988288e-17
4.75579736e-17
4.65793589e-17
4.69553277e-17
4.49792079e-17
4.77642311e-17
4.59717543e-17
4.39379575e-17
4.41459389e-17
4.48776362e-17
4.66829452e-17
4.31853349e-17
4.49092998e-17
4.18772995e-17
4.40227932e-17
4.70888027e-17
4.86201896e-17
4.49590054e-17
4.41755793e-17
4.1536016e-17
4.07649402e-17
4.14155105e-17
3.99384643e-17
4.17902464e-17
4.22891895e-17
4.41630741e-17
4.71732569e-17
4.80206609e-17
4.77026404e-17
4.62602596e-17
4.92764846e-17
5.0618106e-17
4.97054237e-17
5.13683554e-17
5.32587762e-17
5.29282489e-17
5.3280865e-17
5.56999052e-17
5.82851638e-17
5.6963436e-17
5.84677191e-17
5.82459324e-17
5.86267651e-17
5.83262521e-17
5.82104708e-17
5.73486345e-17
5.62690887e-17
5.68395598e-17
5.87587343e-17
5.65561829e-17
5.63552353e-17
5.66335638e-17
5.81819954e-17
5.65226185e-17
5.83695869e-17
6.15916916e-17
5.81730121e-17
5.84422098e-17
5.7510112e-17
5.69368953e-17
6.20437815e-17
6.27079231e-17
6.19897036e-17
5.95362919e-17
6.20632335e-17
6.10445505e-17
6.19628076e-17
6.11533849e-17
6.42351428e-17
6.05030047e-17
6.09651107e-17
6.15874572e-17
6.47637263e-17
6.3854861e-17
6.71301722e-17
6.58072697e-17
6.56082164e-17
6.49138228e-17
6.37403935e-17
6.50553091e-17
6.36676202e-17
6.43648384e-17
6.10482923e-17
5.85753714e-17
5.66154788e-17
5.69159414e-17
5.9623241e-17
5.64741046e-17
5.84290098e-17
5.88386618e-17
5.67954428e-17
5.90391948e-17
5.47860832e-17
5.64332829e-17
5.62728001e-17
5.61940481e-17
5.6828961e-17
5.44560711e-17
5.23397251e-17
4.9828327e-17
5.10798135e-17
5.27403661e-17
4.8782889e-17
5.33477337e-17
5.16663736e-17
5.15329893e-17
4.87529929e-17
4.94544994e-17
4.90458652e-17
5.16502782e-17
5.00243084e-17
4.90221718e-17
4.81467809e-17
4.79509365e-17
4.54024235e-17
4.52774776e-17
4.18832626e-17
4.09618098e-17
4.02339669e-17
3.76244303e-17
3.94621771e-17
3.82681777e-17
3.57916699e-17
3.48212231e-17
3.51643084e-17
3.4188443e-17
3.43012324e-17
3.71599644e-17
3.40288225e-17
3.41368096e-17
3.18201159e-17
3.18454627e-17
2.92610304e-17
2.80481256e-17
2.67169062e-17
2.40106641e-17
2.13726095e-17
1.99368771e-17
1.92293184e-17
1.93778796e-17
1.76856415e-17
1.52296689e-17
1.61021898e-17
1.28941587e-17
1.23463007e-17
1.09766311e-17
7.82789348e-18
7.47580171e-18
6.31568079e-18
5.58310666e-18
6.84914089e-18
6.45658699e-18
9.07886544e-18
8.63946479e-18
9.26285823e-18
1.11821703e-17
1.35220567e-17
1.35539804e-17
1.28018843e-17
1.42151535e-17
1.20419309e-17
1.64639699e-17
1.78665104e-17
1.38579903e-17
1.22975534e-17
1.38964427e-17
1.49092574e-17
1.77110908e-17
1.74048523e-17
1.46110993e-17
1.39574645e-17
1.09206096e-17
9.21981461e-18
7.4099655e-18
5.15025425e-18
6.04935796e-18
7.80791356e-18
9.32858892e-18
9.96540827e-18
7.64732202e-18
9.18282032e-18
7.07167793e-18
7.69192174e-18
7.56771579e-18
7.72173166e-18
6.42495795e-18
3.20763284e-18
3.35380979e-18
4.3606673e-18
2.11588141e-18
2.84370706e-18
4.52653674e-18
1.2645519e-18
-5.85255879e-19
-6.3882854e-19
2.85442696e-18
1.74609089e-18
5.735918e-19
-4.22413413e-19
-4.84633331e-18
-3.06244724e-18
-5.14095965e-18
-4.59407423e-18
-6.6191065e-18
-6.42959234e-18
-8.01765973e-18
-8.76960968e-18
-1.00714043e-17
-9.68670504e-18
-1.04741444e-17
-7.39186284e-18
-8.03290407e-18
-8.51830578e-18
-6.37725046e-18
-7.30127872e-18
-8.94675334e-18
-8.95916539e-18
-1.01229258e-17
-1.31546718e-17
-1.29804848e-17
-1.5762122e-17
-1.42773221e-17
-1.19980688e-17
-1.36256272e-17
-1.38398075e-17
-1.17593197e-17
-1.26120288e-17
-1.68933663e-17
-2.1947125e-17
-2.1676342e-17
-2.36090759e-17
-2.49789128e-17
-2.28589793e-17
-2.3996305e-17
-2.41777004e-17
-2.56045622e-17
-2.89964432e-17
-2.7834078e-17
-2.96713004e-17
-3.23145643e-17
-3.21244699e-17
-3.23602345e-17
-2.84760611e-17
-2.84872715e-17
-2.83769541e-17
-2.9984849e-17
-3.07050299e-17
-2.8686732e-17
-2.88926735e-17
-2.64562368e-17
-2.7960536e-17
-2.48634984e-17
-2.56064091e-17
-2.36734793e-17
-2.09646937e-17
-1.73860775e-17
-1.46096057e-17
-1.44063496e-17
-1.4570696e-17
-1.3975148e-17
-1.10019651e-17
-1.38544251e-17
-1.32374248e-17
-1.90146495e-17
-1.73055816e-17
-1.99239668e-17
-2.02478157e-17
-2.07614438e-17
-2.25248153e-17
-2.16133881e-17
-2.07773306e-17
-1.78920761e-17
-2.14880145e-17
-1.98207922e-17
-2.03096329e-17
-2.28671044e-17
-2.44667053e-17
-2.74846243e-17
-2.63249988e-17
-2.7705979e-17
-2.68896176e-17
-2.52706672e-17
-3.06269794e-17
-2.76515182e-17
-3.25810401e-17
-3.03779785e-17
-3.08609058e-17
-3.04481927e-17
-3.23104834e-17
-3.55538446e-17
-3.77321772e-17
-3.59633161e-17
-3.80986431e-17
-3.85671664e-17
-3.81700504e-17
-3.64912263e-17
-3.33326465e-17
-3.71294899e-17
-3.37528918e-17
-3.7838382e-17
-3.60353922e-17
-3.60533597e-17
-3.24108674e-17
-3.3622154e-17
-3.10240511e-17
-3.55603634e-17
-3.4889517e-17
-3.57227263e-17
-3.75428629e-17
-3.76492486e-17
-4.11031908e-17
-3.69161003e-17
-3.43283954e-17
-3.51220163e-17
-3.80732658e-17
-3.9225698e-17
-4.0397723e-17
-4.1884469e-17
-4.28922437e-17
-4.20296473e-17
-4.24146838e-17
-4.19787003e-17
-4.09670324e-17
-3.95837201e-17
-3.94668337e-17
-3.96078615e-17
-4.21050915e-17
-4.1132341e-17
-4.01090066e-17
-4.12977087e-17
-4.09617701e-17
-4.08589465e-17
-4.08157633e-17
-3.83545785e-17
-3.93882779e-17
-3.73351569e-17
-3.93222673e-17
-4.12155692e-17
-3.92714419e-17
-4.31430583e-17
-4.09384632e-17
-4.21570377e-17
-3.78641842e-17
-3.54813329e-17
-3.82511471e-17
-3.62941223e-17
-3.49273388e-17
-3.33531881e-17
-3.47490152e-17
-3.53322462e-17
-3.88234011e-17
-3.67785619e-17
-3.69885977e-17
-3.76626509e-17
-3.81461883e-17
-3.58620186e-17
-3.78050794e-17
-3.34780147e-17
-3.66158036e-17
-3.66951462e-17
-3.60814724e-17
-3.69471988e-17
-3.3270016e-17
-3.51571732e-17
-3.75097815e-17
-3.65722885e-17
-3.63855524e-17
-3.84152604e-17
-3.7347198e-17
-3.807022e-17
-4.31656161e-17
-4.28455572e-17
-4.6532757e-17
-4.69024918e-17
-4.86615669e-17
-4.50452385e-17
-4.59820252e-17
-4.4061791e-17
-4.34333596e-17
-4.18532255e-17
-4.17267671e-17
-4.49219596e-17
-4.52815098e-17
-4.47286019e-17
-4.41206887e-17
-4.74374839e-17
-4.49474613e-17
-4.68617108e-17
-5.11862184e-17
-5.09859988e-17
-5.26068414e-17
-5.58246837e-17
-5.61527313e-17
-5.56856258e-17
-5.45259944e-17
-5.67783688e-17
-5.5979498e-17
-5.49870204e-17
-5.33947921e-17
-5.37812272e-17
-5.37029133e-17
-5.56275915e-17
-5.81519062e-17
-5.77606862e-17
-5.97887053e-17
-6.1971325e-17
-6.23401048e-17
-5.98558695e-17
-6.05117783e-17
-5.89143198e-17
-6.27511572e-17
-6.24063424e-17
-6.08886015e-17
-6.27960685e-17
-6.03878895e-17
-5.78662593e-17
-5.74880163e-17
-5.78307822e-17
-5.66789441e-17
-5.71175918e-17
-5.78583614e-17
-6.0645985e-17
-5.95947482e-17
-5.59690277e-17
-5.61025304e-17
-5.69545368e-17
-5.29878865e-17
-5.40347386e-17
-5.524357e-17
-5.58279835e-17
-5.64531239e-17
-5.57023984e-17
-5.74137115e-17
-5.40398633e-17
-5.27498105e-17
-5.24364547e-17
-5.52492412e-17
-5.1911115e-17
-5.34347211e-17
-5.24872169e-17
-5.03878522e-17
-4.92705184e-17
-4.68144002e-17
-4.6236172e-17
-4.63752077e-17
-4.40576414e-17
-4.47419293e-17
-4.51886323e-17
-4.36982747e-17
-4.74191483e-17
-4.32352374e-17
-4.35699272e-17
-3.76459317e-17
-3.75386437e-17
-3.90490581e-17
-3.7846763e-17
-3.81616982e-17
-3.84549986e-17
-3.79254292e-17
-3.69867087e-17
-3.85560291e-17
-3.70279662e-17
-3.89961682e-17
-3.62158109e-17
-3.8370347e-17
-4.02700189e-17
-3.74638382e-17
-3.95922868e-17
-3.93471991e-17
-3.87353059e-17
-3.91160577e-17
-3.97195252e-17
-3.77934984e-17
-3.60304425e-17
-3.84331873e-17
-3.7729914e-17
-3.81764525e-17
-3.6233848e-17
-3.57617613e-17
-3.50769349e-17
-2.92830029e-17
-3.34887706e-17
-3.39971091e-17
-3.32750445e-17
-3.08834228e-17
-3.10167578e-17
-2.9713669e-17
-2.78250939e-17
-3.13137851e-17
-3.2430973e-17
-3.25698109e-17
-3.12885826e-17
-3.14713335e-17
-3.16305366e-17
-3.52688597e-17
-3.32745256e-17
-3.30938689e-17
-2.8312071e-17
-3.0223262e-17
-3.00114775e-17
-3.3789163e-17
-3.63595768e-17
-3.7968508e-17
-3.86962762e-17
-3.87196936e-17
-4.12618863e-17
-4.10858434e-17
-3.97441103e-17
-4.19270684e-17
-4.3801266e-17
-3.98358513e-17
-3.88700695e-17
-4.03242035e-17
-4.15825044e-17
-4.19729981e-17
-3.9952864e-17
-3.98468191e-17
-4.35149868e-17
-4.37917354e-17
-4.53428443e-17
-4.54736152e-17
-3.94152642e-17
-3.88615395e-17
-4.50031482e-17
-4.30634885e-17
-4.24513082e-17
-4.50945937e-17
-4.34237632e-17
-4.26758608e-17
-4.32989215e-17
-4.63398299e-17
-4.35660138e-17
-4.66177551e-17
-4.78651398e-17
-4.89873087e-17
-4.94809223e-17
-4.886058e-17
-4.88988262e-17
-4.7653428e-17
-5.30720592e-17
-5.24925721e-17
-5.05982236e-17
-4.85374014e-17
-4.80310986e-17
-4.80387601e-17
-4.78885117e-17
-5.00784668e-17
-4.69169691e-17
-4.94790055e-17
-4.80161606e-17
-4.71921689e-17
-5.03116051e-17
-4.76331852e-17
-5.0407662e-17
-5.0066868e-17
-4.83351644e-17
-4.75321189e-17
-5.05490335e-17
-5.29035557e-17
-5.27777485e-17
-5.01681708e-17
-5.13379817e-17
-5.09200201e-17
-5.35024748e-17
-5.26663293e-17
-5.43964094e-17
-5.8946661e-17
-5.60812419e-17
-5.6554672e-17
-5.35349669e-17
-5.03405087e-17
-5.32287808e-17
-4.95391282e-17
-4.82384312e-17
-4.80025584e-17
-4.94324254e-17
-4.90292541e-17
-5.14475649e-17
-5.15155757e-17
-4.8173213e-17
-5.07468459e-17
-5.03228737e-17
-4.82853316e-17
-4.9202294e-17
-4.96008771e-17
-5.16107448e-17
-5.27448408e-17
-5.02109215e-17
-5.04697221e-17
-4.83172364e-17
-4.74135556e-17
-5.18580738e-17
-5.47140536e-17
-5.31624839e-17
-4.94818147e-17
-5.11616472e-17
-4.91294283e-17
-5.1344164e-17
-4.89723917e-17
-5.00863453e-17
-4.71977139e-17
-4.70645787e-17
-4.44413876e-17
-4.33080551e-17
-4.47042808e-17
-4.20698053e-17
-4.10576678e-17
-4.3532167e-17
-4.37465258e-17
-4.23257169e-17
-4.38974106e-17
-4.22543009e-17
-4.05183738e-17
-3.98447953e-17
-4.15710182e-17
-4.35758009e-17
-3.94206169e-17
-3.93144666e-17
-3.57561033e-17
-3.68606592e-17
-4.05649991e-17
-3.67541947e-17
-3.78628617e-17
-3.54761313e-17
-3.32974743e-17
-3.09388356e-17
-3.06253899e-17
-2.83380186e-17
-2.77973031e-17
-2.85966232e-17
-2.65802513e-17
-3.15520807e-17
-3.14209141e-17
-2.97566721e-17
-3.02637447e-17
-2.90309905e-17
-2.72003227e-17
-2.70232211e-17
-2.79369526e-17
-2.54640345e-17
-2.79297425e-17
-2.81886975e-17
-2.67583675e-17
-2.33291272e-17
-2.3362268e-17
-2.19297653e-17
-2.09792259e-17
-2.31688211e-17
-2.32979488e-17
-2.20501525e-17
-1.93855677e-17
-1.79080997e-17
-1.62440789e-17
-1.76668895e-17
-1.97156014e-17
-1.52977726e-17
-1.43696512e-17
-1.6038292e-17
-1.3390946e-17
-1.71105974e-17
-1.4093461e-17
-1.27619575e-17
-1.38987593e-17
-1.15446483e-17
-1.25431887e-17
-1.27810107e-17
-1.36777381e-17
-9.70179967e-18
-9.79529208e-18
-1.24930177e-17
-1.27855178e-17
-1.43131516e-17
-1.291855e-17
-1.35516043e-17
-1.32270792e-17
-1.59700747e-17
-1.34366932e-17
-1.40444633e-17
-1.22272574e-17
-1.42208682e-17
-1.61399643e-17
-1.60414289e-17
-1.52494084e-17
-1.59318055e-17
-1.42472054e-17
-1.16643845e-17
-1.66082862e-17
-1.67350974e-17
-2.13614494e-17
-1.33320656e-17
-1.55771731e-17
-1.92454795e-17
-1.93040831e-17
-1.81361436e-17
-1.9125375e-17
-2.01051161e-17
-1.80710317e-17
-1.8076793e-17
-1.61095953e-17
-2.05455769e-17
-1.85938703e-17
-1.87061951e-17
-1.85357652e-17
-1.74655357e-17
-1.74770362e-17
-1.76822318e-17
-1.85275843e-17
-1.87062499e-17
-1.96495936e-17
-1.80329723e-17
-1.60650312e-17
-1.52470736e-17
-1.83505897e-17
-1.61307696e-17
-1.61327551e-17
-1.62937879e-17
-1.73492762e-17
-1.56772988e-17
-1.58468807e-17
-1.44723764e-17
-1.36362782e-17
-1.26212215e-17
-1.25430008e-17
-1.32985536e-17
-1.28450547e-17
-1.31841433e-17
-1.19577091e-17
-1.34499142e-17
-1.35486626e-17
-1.46842395e-17
-1.38415678e-17
-1.33548839e-17
-1.08190654e-17
-1.29059962e-17
-1.15583907e-17
-1.24690778e-17
-1.1288149e-17
-1.43504e-17
-1.35286763e-17
-1.48931318e-17
-1.53920378e-17
-1.69575019e-17
-1.61969429e-17
-1.36549884e-17
-1.27332728e-17
-1.06151111e-17
-8.0521225e-18
-8.60004699e-18
-3.54100136e-18
-4.45800225e-18
-4.32875943e-18
-3.28490404e-18
1.52819162e-18
4.88854681e-18
2.39252509e-18
4.96838355e-18
2.55807913e-18
3.74435223e-18
5.36786058e-18
5.96929857e-18
4.49153564e-18
4.90648175e-18
5.39717989e-18
5.34715188e-18
6.36825165e-18
1.12763157e-17
8.23047578e-18
8.13171287e-18
7.78469865e-18
9.01325165e-18
6.72229668e-18
8.63329407e-18
1.26405032e-17
1.22090651e-17
1.30157682e-17
1.21604228e-17
1.4610239e-17
1.51768027e-17
1.78893355e-17
1.65997499e-17
1.73971614e-17
1.77375958e-17
2.02185879e-17
2.31552075e-17
2.4407187e-17
2.15306106e-17
1.97423054e-17
2.0497402e-17
1.84946351e-17
1.72397006e-17
2.01979496e-17
1.66506087e-17
1.80598868e-17
1.63913998e-17
1.68242248e-17
1.76026141e-17
1.96216728e-17
1.90241108e-17
2.02680268e-17
1.94316586e-17
2.29145751e-17
2.09976837e-17
2.35764393e-17
2.43136239e-17
2.53037378e-17
2.90780858e-17
2.92138991e-17
2.72241082e-17
2.89525033e-17
2.86681435e-17
3.05665979e-17
3.30924362e-17
3.15297031e-17
2.92858002e-17
3.30541716e-17
3.37344725e-17
3.76276094e-17
3.78351499e-17
3.96171755e-17
3.88752976e-17
3.78823966e-17
3.64952488e-17
3.71781104e-17
3.7163198e-17
3.89540538e-17
3.92574875e-17
3.56563575e-17
3.60988965e-17
3.42797693e-17
3.49365577e-17
3.476063e-17
4.09251656e-17
4.03657088e-17
4.31968171e-17
4.48000437e-17
4.63207224e-17
4.42998926e-17
4.41061587e-17
4.43874044e-17
4.46058589e-17
4.49510121e-17
4.25111316e-17
4.5990128e-17
4.60732699e-17
4.44576344e-17
4.44624315e-17
4.72780444e-17
4.56875193e-17
4.94212051e-17
4.82626616e-17
5.20802745e-17
5.08883981e-17
5.27096009e-17
5.42080207e-17
5.42008881e-17
5.43675123e-17
5.18982263e-17
5.05362618e-17
4.85005876e-17
5.22374285e-17
5.44682996e-17
5.45143819e-17
5.41147528e-17
5.7101985e-17
5.74287906e-17
5.97103704e-17
5.75714448e-17
5.68470333e-17
5.9134052e-17
5.8545463e-17
5.94736617e-17
6.35539624e-17
6.56549959e-17
6.5944172e-17
6.5678001e-17
6.8545224e-17
6.80163893e-17
6.98746666e-17
7.31128643e-17
7.25947409e-17
7.60287293e-17
7.47438434e-17
7.65900667e-17
7.4659961e-17
7.53269808e-17
7.41295885e-17
7.53092097e-17
7.46105462e-17
7.33799226e-17
7.42769511e-17
7.29174844e-17
7.09603046e-17
7.13401491e-17
7.03799608e-17
6.88860103e-17
7.08722729e-17
7.03128602e-17
7.19845215e-17
6.87709107e-17
7.02533965e-17
7.15247787e-17
7.20264647e-17
7.10221656e-17
7.34376772e-17
7.23389448e-17
7.42367869e-17
7.55348683e-17
7.96883112e-17
8.19380167e-17
8.11095884e-17
8.20098427e-17
8.46852015e-17
7.9797969e-17
7.91951581e-17
8.19412344e-17
8.02404036e-17
8.10706445e-17
8.04803516e-17
8.00535533e-17
7.89914417e-17
7.8056538e-17
7.93073623e-17
8.20543402e-17
8.73016911e-17
8.83578063e-17
9.2331855e-17
8.88024789e-17
8.98729823e-17
9.25952664e-17
9.20279998e-17
9.31265477e-17
9.29418166e-17
9.36432131e-17
9.69951187e-17
9.63702646e-17
9.65436537e-17
9.72705251e-17
9.75406473e-17
9.68352048e-17
9.6597648e-17
9.22028042e-17
9.23784378e-17
9.01355558e-17
9.00142143e-17
9.3982492e-17
9.30039008e-17
9.45900219e-17
9.13182122e-17
9.42846162e-17
9.5437761e-17
9.43287582e-17
9.09976744e-17
9.01314495e-17
8.93079305e-17
8.86078549e-17
9.40441767e-17
9.4554027e-17
9.19165104e-17
9.25913226e-17
9.09558626e-17
9.34942107e-17
9.17998218e-17
9.32330588e-17
9.15161373e-17
9.21500766e-17
9.40398325e-17
9.49261894e-17
9.79100896e-17
9.74261973e-17
9.69915219e-17
9.50327573e-17
9.68357066e-17
9.49139777e-17
9.66293776e-17
9.96912472e-17
9.83408383e-17
9.86173036e-17
9.73231322e-17
9.83819921e-17
9.90195837e-17
9.66403504e-17
9.89492853e-17
1.01434937e-16
1.06528458e-16
1.02297824e-16