/*--------------------------------*- C++ -*----------------------------------*\
| =========                 |                                                 |
| \\      /  F ield         | OpenFOAM: The Open Source CFD Toolbox           |
|  \\    /   O peration     | Version:  2206                                  |
|   \\  /    A nd           | Website:  www.openfoam.com                      |
|    \\/     M anipulation  |                                                 |
\*---------------------------------------------------------------------------*/
FoamFile
{
    version     2.0;
    format      ascii;
    arch        "LSB;label=32;scalar=64";
    class       volScalarField;
    location    "1e-05";
    object      PVsourcePV;
}
// * * * * * * * * * * * * * * * * * * * * * * * * * * * * * * * * * * * * * //

dimensions      [1 -3 -1 0 0 0 0];

internalField   nonuniform List<scalar> 
3183
(
0
0
0
0
0
0
0
0
0
0
0
0
0
0
0
0
0
0
0
0
0
0
0
0
0
0
0
0
0
0
0
0
0
0
0
0
0
0
0
0
0
0
0
0
0
0
0
0
0
0
0
0
0
0
0
0
0
0
0
0
0
0
0
0
0
0
0
0
0
0
0
0
0
0
0
0
0
0
0
0
0
0
0
0
0
0
0
0
0
0
0
0
0
0
0
0
0
0
0
0
0
0
0
0
0
0
0
0
0
0
0
0
0
0
0
0
0
0
0
0
0
0
0
0
0
0
0
0
0
0
0
0
0
0
0
0
0
0
0
0
0
0
0
0
0
0
0
0
0
0
0
0
0
0
0
0
0
0
0
0
0
0
0
0
0
0
0
0
0
0
0
0
0
0
0
0
0
0
0
0
0
0
0
0
0
0
0
0
0
0
0
0
0
0
0
0
0
0
0
0
0
0
0
0
0
0
0
0
0
0
0
0
0
0
0
0
0
0
0
0
0
0
0
0
0
0
0
0
0
0
0
0
0
0
0
0
0
0
0
0
0
0
0
0
0
0
0
0
0
0
0
0
0
0
0
0
0
0
0
0
0
0
0
0
0
0
0
0
0
0
0
0
0
0
0
0
0
0
0
0
0
0
0
0
0
0
0
0
0
0
0
0
0
0
0
0
0
0
0
0
0
0
0
0
0
0
0
0
0
0
0
0
0
0
0
0
0
0
0
0
0
0
0
0
0
0
0
0
0
0
0
0
0
0
0
0
0
0
0
0
0
0
0
0
0
0
0
0
0
0
0
0
0
0
0
0
0
0
0
0
0
0
0
0
0
0
0
0
0
0
0
0
0
0
0
0
0
0
0
0
0
0
0
0
0
0
0
0
0
0
0
0
0
0
0
0
0
0
0
0
0
0
0
0
0
0
0
0
0
0
0
0
0
0
0
0
0
0
0
0
0
0
0
0
0
0
0
0
0
0
0
0
0
0
0
0
0
0
0
0
0
0
0
0
0
0
0
0
0
0
0
0
0
0
0
0
0
0
0
0
0
0
0
0
0
0
0
0
0
0
0
0
0
0
0
0
0
0
0
0
0
0
0
0
0
0
0
0
0
0
0
0
0
0
0
0
0
0
0
0
0
0
0
0
0
0
0
0
0
0
0
0
0
0
0
0
0
0
0
0
0
0
0
0
0
0
0
0
0
0
0
0
0
0
0
0
0
0
0
0
0
0
0
0
0
0
0
0
0
0
0
0
0
0
0
0
0
0
0
0
0
0
0
0
0
0
0
0
0
0
0
0
0
0
0
0
0
0
0
0
0
0
0
0
0
0
0
0
0
0
0
0
0
0
0
0
0
0
0
0
0
0
0
0
0
0
0
0
0
0
0
0
0
0
0
0
0
0
0
0
0
0
0
0
0
0
0
0
0
0
0
0
0
0
0
0
0
0
0
0
0
0
0
0
0
0
0
0
0
0
0
0
0
0
0
0
0
0
0
0
0
0
0
0
0
0
0
0
0
0
0
0
0
0
0
0
0
0
0
0
0
0
0
0
0
0
0
0
0
0
0
0
0
0
0
0
0
0
0
0
0
0
0
0
0
0
0
0
0
0
0
0
0
0
0
0
0
0
0
0
0
0
0
0
0
0
0
0
0
0
0
0
0
0
0
0
0
0
0
0
0
0
0
0
0
0
0
0
0
0
0
0
0
0
0
0
0
0
0
0
0
0
0
0
0
0
0
0
0
0
0
0
0
0
0
0
0
0
0
0
0
0
0
0
0
0
0
0
0
0
0
0
0
0
0
0
0
0
0
0
0
0
0
0
0
0
0
0
0
0
0
0
0
0
0
0
0
0
0
0
0
0
0
0
0
0
0
0
0
0
0
0
0
0
0
0
0
0
0
0
0
0
0
0
0
0
0
0
0
0
0
0
0
0
0
0
0
0
0
0
0
0
0
0
0
0
0
0
0
0
0
0
0
0
0
0
0
0
0
0
0
0
0
0
0
0
0
0
0
0
0
0
0
0
0
0
0
0
0
0
0
0
0
0
0
0
0
0
0
0
0
0
0
0
0
0
0
0
0
0
0
0
0
0
0
0
0
0
0
0
0
0
0
0
0
0
0
0
0
0
0
0
0
0
0
0
0
0
0
0
0
0
0
0
0
0
0
0
0
0
0
0
0
0
0
0
0
0
0
0
0
0
0
0
0
0
0
0
0
0
0
0
0
0
0
0
0
0
0
0
0
0
0
0
0
0
0
0
0
0
0
0
0
0
0
0
0
0
0
0
0
0
0
0
0
0
0
0
0
0
0
0
0
0
0
0
0
0
0
0
0
0
0
0
0
0
0
0
0
0
0
0
0
0
0
0
0
0
0
0
0
0
0
0
0
0
0
0
0
0
0
0
0
0
0
0
0
0
0
0
0
0
0
0
0
0
0
0
0
0
0
0
0
0
0
0
0
0
0
0
0
0
0
0
0
0
0
0
0
0
0
0
0
0
0
0
0
0
0
0
0
0
0
0
0
0
0
0
0
0
0
0
0
0
0
0
0
0
0
0
0
0
0
0
0
0
0
0
0
0
0
0
0
0
0
0
0
0
0
0
0
0
0
0
0
0
0
0
0
0
0
0
0
0
0
0
0
0
0
0
0
0
0
0
0
0
0
0
0
0
0
0
0
0
0
0
0
0
0
0
0
0
0
0
0
0
0
0
0
0
0
0
0
0
0
0
0
0
0
0
0
0
0
0
0
0
0
0
0
0
0
0
0
0
0
0
0
0
0
0
0
0
0
0
0
0
0
0
0
0
0
0
0
0
0
0
0
0
0
0
0
0
0
0
0
0
0
0
0
0
0
0
0
0
0
0
0
0
0
0
0
0
0
0
0
0
0
0
0
0
0
0
0
0
0
0
0
0
0
0
0
0
0
0
0
0
0
0
0
0
0
0
0
0
0
0
0
0
0
0
0
0
0
0
0
0
0
0
0
0
0
0
0
0
0
0
0
0
0
0
0
0
0
0
0
0
0
0
0
0
0
0
0
0
0
0
0
0
0
0
0
0
0
0
0
0
0
0
0
0
0
0
0
0
0
0
0
0
0
0
0
0
0
0
0
0
0
0
0
0
0
0
0
0
0
0
0
0
0
0
0
0
0
0
0
0
0
0
0
0
0
0
0
0
0
0
0
0
0
0
0
0
0
0
0
0
0
0
0
0
0
0
0
0
0
0
0
0
0
0
0
0
0
0
0
0
0
0
0
0
0
0
0
0
0
0
0
0
0
0
0
0
0
0
0
0
0
0
0
0
0
0
0
0
0
0
0
0
0
0
0
0
0
0
0
0
0
0
0
0
0
0
0
0
0
0
0
0
0
0
0
0
0
0
0
0
0
0
0
0
0
0
0
0
0
0
0
0
0
0
0
0
0
0
0
0
0
0
0
0
0
0
0
0
0
0
0
0
0
0
0
0
0
0
0
0
0
0
0
0
0
0
0
0
0
0
0
0
0
0
0
0
0
0
0
0
0
0
0
0
0
0
0
0
0
0
0
0
0
0
0
0
0
0
0
0
0
0
0
0
0
0
0
0
0
0
0
0
0
0
0
0
0
0
0
0
0
0
0
0
0
0
0
0
0
0
0
0
0
0
0
0
0
0
0
0
0
0
0
0
0
0
0
0
0
0
0
0
0
0
0
0
0
0
0
0
0
0
0
0
0
0
0
0
0
0
0
0
0
0
0
0
0
0
0
0
0
0
0
0
0
0
0
0
0
0
0
0
0
0
0
0
0
0
0
0
0
0
0
0
0
0
0
0
0
0
0
0
0
0
0
0
0
0
0
0
0
0
0
0
0
0
0
0
0
0
0
0
0
0
0
0
0
0
0
0
0
0
0
0
0
0
0
0
0
0
0
0
0
0
0
0
0
0
0
0
0
0
0
0
0
0
0
0
0
0
0
0
0
0
0
0
0
0
0
0
0
0
0
0
0
0
0
0
0
0
0
0
0
0
0
0
0
0
0
0
0
0
0
0
0
0
0
0
0
0
0
0
0
0
0
0
0
0
0
0
0
0
0
0
0
0
0
0
0
0
0
0
0
0
0
0
0
0
0
0
0
0
0
0
0
0
0
0
0
0
0
0
0
0
0
0
0
0
0
0
0
0
0
0
0
0
0
0
0
0
0
0
0
0
0
0
0
0
0
0
0
0
0
0
0
0
0
0
0
0
0
0
0
0
0
0
0
0
0
0
0
0
0
0
0
0
0
0
0
0
0
0
0
0
0
0
0
0
0
0
0
0
0
0
0
0
0
0
0
0
0
0
0
0
0
0
0
0
0
0
0
0
0
0
0
0
0
0
0
0
0
0
0
0
0
0
0
0
0
0
0
0
0
0
0
0
0
0
0
0
0
0
0
0
0
0
0
0
0
0
0
0
0
0
0
0
0
0
0
0
0
0
0
0
0
0
0
0
0
0
0
0
0
0
0
0
0
0
0
0
0
0
0
0
0
0
0
0
0
0
0
0
0
0
0
0
0
0
0
0
0
0
0
0
0
0
0
0
0
0
0
0
0
0
0
0
0
0
0
0
0
0
0
0
0
0
0
0
0
0
0
0
0
0
0
0
0
0
0
0
0
0
0
0
0
0
0
0
0
0
0
0
0
0
0
0
0
0
0
0
0
0
0
0
0
0
0
0
0
0
0
0
0
0
0
0
0
0
0
0
0
0
0
0
0
0
0
0
0
0
0
0
0
0
0
0
0
0
0
0
0
0
0
0
0
0
0
0
0
0
0
0
0
0
0
0
0
0
0
0
0
0
0
0
0
0
0
0
0
0
0
0
0
0
0
0
0
0
0
0
0
0
0
0
0
0
0
0
0
0
0
0
0
0
0
0
0
0
0
0
0
0
0
0
0
0
0
0
0
0
0
0
0
0
0
0
0
0
0
0
0
0
0
0
0
0
0
0
0
0
0
0
0
0
0
0
0
0
0
0
0
0
0
0
0
0
0
0
0
0
0
0
0
0
0
0
0
0
0
0
0
0
0
0
0
0
0
0
0
0
0
0
0
0
0
0
0
0
0
0
0
0
0
0
0
0
0
0
0
0
0
0
0
0
0
0
0
0
0
0
0
0
0
0
0
0
0
0
0
0
0
0
0
0
0
0
0
0
0
0
0
0
0
0
0
0
0
0
0
0
0
0
0
0
0
0
0
0
0
0
0
0
0
0
0
0
0
0
0
0
0
0
0
0
0
0
0
0
0
0
0
0
0
0
0
0
0
0
0
0
0
0
0
0
0
0
0
0
0
0
0
0
0
0
0
0
0
0
0
0
0
0
0
0
0
0
0
0
0
0
0
0
0
0
0
0
0
0
0
0
0
0
0
1.38819592e-299
0
1.49815317e-296
0
1.58172897e-293
0
1.6344344e-290
0
1.65363599e-287
0
1.63876186e-284
0
1.5912987e-281
0
1.51458806e-278
0
1.41345696e-275
1.50346068e-277
1.29373701e-272
3.8408953e-274
1.16173541e-269
5.56498979e-271
1.02372086e-266
6.68935798e-268
8.85477474e-264
7.2672601e-265
7.51964423e-261
7.37990839e-262
6.27100359e-258
7.12415295e-259
5.13673619e-255
6.60109389e-256
4.1336434e-252
5.90672493e-253
3.26854321e-249
5.12521018e-250
2.5399547e-246
4.32492209e-247
1.94007536e-243
3.55699219e-244
1.45679353e-240
2.85587883e-241
1.07553803e-237
2.24134225e-238
7.80835151e-235
1.72121726e-235
5.57509452e-232
1.29445527e-232
3.91520074e-229
9.5403429e-230
2.70464741e-226
6.89476234e-227
1.83807995e-223
4.88840339e-224
1.22900612e-220
3.40165277e-221
8.08565066e-218
2.3240492e-218
5.23454851e-215
1.559441e-215
3.33484459e-212
1.02796617e-212
2.09088279e-209
6.65851797e-210
1.29022059e-206
4.23891394e-207
7.83606157e-204
2.65269737e-204
4.68433199e-201
1.63209146e-201
2.75630217e-198
9.87377931e-199
1.59641475e-195
5.87428099e-196
9.1014766e-193
3.43717109e-193
5.1077515e-190
1.97814721e-190
2.82163665e-187
1.11984169e-187
1.53435052e-184
6.23618282e-185
8.21289141e-182
3.41635734e-182
4.32721519e-179
1.8412077e-179
2.24414957e-176
9.76214147e-177
1.14554726e-173
5.09205645e-174
5.75540846e-171
2.6130364e-171
2.8459168e-168
1.31915456e-168
1.38493392e-165
6.55138806e-166
6.63241147e-163
3.20068927e-163
3.12551054e-160
1.53817987e-160
1.44925839e-157
7.27111147e-158
6.61166616e-155
3.38062494e-155
2.96741073e-152
1.54583775e-152
1.31009838e-149
6.95129202e-150
5.68910337e-147
3.07370047e-147
2.42967261e-144
1.33631015e-144
1.02038041e-141
5.71154468e-142
4.2133661e-139
2.39964399e-139
1.7103581e-136
9.90897279e-137
6.82447534e-134
4.02101678e-134
2.67611529e-131
1.60324697e-131
1.03114043e-128
6.27984545e-129
3.90325834e-126
2.41603258e-126
1.45126583e-123
9.12804184e-124
5.29889042e-121
3.38597144e-121
1.89951797e-118
1.23288752e-118
6.68372153e-116
4.40550099e-116
2.30780516e-113
1.54450449e-113
7.81750525e-111
5.3111455e-111
2.59717044e-108
1.79088558e-108
8.4598571e-106
5.91964195e-106
2.70093771e-103
1.9174749e-103
8.44898856e-101
6.08443206e-101
2.5886509e-98
1.89062807e-98
7.76516149e-96
5.75064895e-96
2.27957668e-93
1.71147259e-93
6.5462268e-91
4.98162176e-91
1.83803767e-88
1.41746193e-88
5.04340149e-86
3.94066683e-86
1.35164404e-83
1.06981315e-83
3.53604606e-81
2.83446648e-81
9.02441562e-79
7.32464656e-79
2.24530108e-76
1.84484747e-76
5.44215669e-74
4.52560769e-74
1.28401687e-71
1.08042749e-71
2.94651706e-69
2.50812455e-69
6.57038902e-67
5.65639351e-67
1.42229298e-64
1.23804336e-64
2.98564037e-62
2.62705334e-62
6.07056272e-60
5.3979336e-60
1.1940117e-57
1.07263734e-57
2.26865117e-55
2.05841065e-55
4.15753885e-53
3.80881774e-53
7.33624615e-51
6.78393991e-51
1.24410983e-48
1.16086137e-48
2.02336685e-46
1.90442279e-46
3.1484364e-44
2.98812033e-44
4.67479395e-42
4.47219248e-42
6.6033582e-40
6.36517469e-40
8.84306677e-38
8.58536776e-38
1.11827947e-35
1.09301689e-35
1.32923348e-33
1.30733571e-33
1.47706753e-31
1.46098001e-31
1.52457422e-29
1.5153623e-29
1.45034883e-27
1.4469637e-27
1.25961547e-25
1.25892406e-25
9.86906608e-24
9.85024636e-24
6.87005559e-22
6.81889297e-22
4.16407306e-20
4.10387857e-20
2.13706353e-18
2.11636453e-18
8.91322631e-17
8.86691492e-17
2.83210521e-15
2.80936981e-15
1.94476383e-11
2.05013837e-11
0.0199377639
0.0787210138
0.74178373
0.769120459
0.373977315
0.308722712
0.0508402674
0.0406990428
0.00800022236
0.00730970893
0.00122582072
0.00117786198
0.000168214407
0.000167397864
2.18796552e-05
2.18606455e-05
3.12641049e-06
3.12435025e-06
9.35791502e-07
9.36484225e-07
7.02012983e-07
7.02209714e-07
6.79058168e-07
6.79054912e-07
6.76918439e-07
6.76920099e-07
6.76735367e-07
6.76735781e-07
6.76718871e-07
6.76720675e-07
6.76719136e-07
6.76719867e-07
6.767182e-07
6.76720536e-07
6.76716765e-07
6.76720109e-07
6.76718695e-07
6.76718304e-07
6.76718812e-07
6.76717985e-07
6.76719484e-07
6.76717859e-07
6.76719794e-07
6.76718546e-07
6.76719396e-07
6.76719112e-07
6.76719359e-07
6.76718785e-07
6.7671903e-07
6.76718983e-07
6.76719223e-07
6.76718035e-07
6.76719885e-07
6.76718553e-07
6.76718955e-07
6.76719386e-07
6.76718609e-07
6.76719426e-07
6.76718552e-07
6.7671899e-07
6.76718926e-07
6.7671939e-07
6.76718791e-07
6.76718637e-07
6.76719074e-07
6.76718571e-07
6.76719558e-07
6.76718953e-07
6.7671897e-07
6.76717902e-07
6.76718464e-07
6.767186e-07
6.76718076e-07
6.76719686e-07
6.76718243e-07
6.76719958e-07
6.76718653e-07
6.76720014e-07
6.76718934e-07
6.76719569e-07
6.76718537e-07
6.76719782e-07
6.76718381e-07
6.76719486e-07
6.76718894e-07
6.76719035e-07
6.76719274e-07
6.76718128e-07
6.7671943e-07
6.76718037e-07
6.76719617e-07
6.76718556e-07
6.76719375e-07
6.76718997e-07
6.76719434e-07
6.76719803e-07
6.76718524e-07
6.76719252e-07
6.76719567e-07
6.7671939e-07
6.76718577e-07
6.76719795e-07
6.76719201e-07
6.76720371e-07
6.76718866e-07
6.76719552e-07
6.76718785e-07
6.76719433e-07
6.76718572e-07
6.76719551e-07
6.76718629e-07
6.7671851e-07
6.76718791e-07
6.7671892e-07
6.76718464e-07
6.76719169e-07
6.76718543e-07
6.76719553e-07
6.7671867e-07
6.76720055e-07
6.76718534e-07
6.76720088e-07
6.7671841e-07
6.76720389e-07
6.7671873e-07
6.76719883e-07
6.76718444e-07
6.76719858e-07
6.76718595e-07
6.76720105e-07
6.76718289e-07
6.76719913e-07
6.767203e-07
6.76719912e-07
6.76719817e-07
6.76718926e-07
6.76720944e-07
6.7671885e-07
6.76719894e-07
6.76718745e-07
6.76719308e-07
6.7671904e-07
6.76718616e-07
6.76718995e-07
6.76719202e-07
6.76718905e-07
6.76718857e-07
6.76718889e-07
6.76719564e-07
6.7671876e-07
6.76720275e-07
6.76717747e-07
6.76720798e-07
6.76718271e-07
6.76719942e-07
6.76719371e-07
6.76718628e-07
6.76719186e-07
6.7671999e-07
6.7671966e-07
6.76720674e-07
6.76719167e-07
6.76720278e-07
6.76719105e-07
6.7672008e-07
6.76719067e-07
6.7671941e-07
6.76719329e-07
6.76719287e-07
6.76718696e-07
6.76719798e-07
6.76719239e-07
6.76718549e-07
6.76719013e-07
6.76720135e-07
6.76719502e-07
6.76719912e-07
6.76720445e-07
6.76719107e-07
6.76720824e-07
6.76720344e-07
6.76720636e-07
6.76720638e-07
6.76720015e-07
6.76719657e-07
6.76719488e-07
6.7671905e-07
6.76719463e-07
6.76719509e-07
6.76719851e-07
6.76720116e-07
6.76718793e-07
6.76720227e-07
6.76719971e-07
6.76720514e-07
6.76719059e-07
6.76719731e-07
6.7671916e-07
6.76719772e-07
6.76718685e-07
6.76720818e-07
6.76719206e-07
6.76720784e-07
6.76718735e-07
6.76720077e-07
6.76719413e-07
6.76719692e-07
6.76719638e-07
6.76720723e-07
6.76719963e-07
6.76720609e-07
6.76719363e-07
6.76720432e-07
6.76719923e-07
6.76719986e-07
6.76720163e-07
6.76719831e-07
6.76720135e-07
6.76719566e-07
6.76720158e-07
6.76719664e-07
6.76720204e-07
6.76719406e-07
6.76719371e-07
6.76719572e-07
6.76719014e-07
6.76720429e-07
6.76719596e-07
6.76719849e-07
6.76720528e-07
6.76719895e-07
6.76719646e-07
6.76720345e-07
6.7672017e-07
6.76720055e-07
6.76720529e-07
6.76719611e-07
6.76720418e-07
6.76720273e-07
6.767208e-07
6.76719615e-07
6.76721066e-07
6.76719903e-07
6.76720534e-07
6.76719309e-07
6.76720966e-07
6.76719461e-07
6.76720606e-07
6.76718893e-07
6.76719603e-07
6.76720335e-07
6.76719928e-07
6.76720547e-07
6.76720042e-07
6.76719496e-07
6.76720549e-07
6.76719746e-07
6.76720972e-07
6.76720527e-07
6.76719728e-07
6.76720918e-07
6.76720153e-07
6.76720838e-07
6.76719574e-07
6.76721527e-07
6.76719509e-07
6.76720038e-07
6.76719449e-07
6.76720649e-07
6.76719374e-07
6.76721268e-07
6.76719329e-07
6.76719931e-07
6.76720311e-07
6.76719823e-07
6.76720554e-07
6.76720469e-07
6.76720568e-07
6.76720085e-07
6.76720266e-07
6.76720195e-07
6.76720105e-07
6.76719552e-07
6.76720687e-07
6.76720199e-07
6.76719586e-07
6.76719849e-07
6.76719686e-07
6.7672021e-07
6.76720449e-07
6.7671991e-07
6.76720501e-07
6.76720225e-07
6.76720078e-07
6.76720342e-07
6.76719466e-07
6.76719551e-07
6.76720494e-07
6.76720269e-07
6.76720937e-07
6.76719954e-07
6.76720125e-07
6.76720344e-07
6.76720766e-07
6.76720021e-07
6.76720867e-07
6.76720288e-07
6.76720065e-07
6.76720078e-07
6.7672083e-07
6.76720564e-07
6.76720722e-07
6.7671997e-07
6.76720339e-07
6.76720061e-07
6.76720289e-07
6.76721164e-07
6.76719497e-07
6.76721494e-07
6.76719926e-07
6.76720848e-07
6.76719905e-07
6.76720821e-07
6.76720059e-07
6.76720904e-07
6.76719996e-07
6.76720528e-07
6.76720561e-07
6.76720652e-07
6.76721217e-07
6.76719925e-07
6.76720609e-07
6.76720463e-07
6.76720261e-07
6.76720414e-07
6.7672051e-07
6.76720309e-07
6.76720411e-07
6.7671959e-07
6.76720819e-07
6.76720217e-07
6.76720831e-07
6.76719853e-07
6.76720418e-07
6.76721033e-07
6.76720812e-07
6.76720438e-07
6.76720638e-07
6.76720436e-07
6.76720096e-07
6.76721143e-07
6.76721223e-07
6.76719906e-07
6.7672041e-07
6.76721028e-07
6.76719821e-07
6.76721531e-07
6.76720127e-07
6.76720089e-07
6.76720562e-07
6.76721205e-07
6.76720171e-07
6.76720982e-07
6.76720701e-07
6.76720867e-07
6.7672106e-07
6.76720724e-07
6.76721514e-07
6.76721088e-07
6.76721625e-07
6.76721126e-07
6.76721219e-07
6.76721023e-07
6.76721209e-07
6.76720369e-07
6.76720858e-07
6.76720271e-07
6.76720838e-07
6.76721094e-07
6.76721161e-07
6.7672095e-07
6.76720727e-07
6.76721168e-07
6.76720384e-07
6.76721468e-07
6.76719716e-07
6.76720785e-07
6.76720351e-07
6.76720365e-07
6.7672107e-07
6.7672055e-07
6.76720617e-07
6.76720486e-07
6.76720413e-07
6.76721133e-07
6.76721105e-07
6.7672174e-07
6.767211e-07
6.76721214e-07
6.76721051e-07
6.76720981e-07
6.76720448e-07
6.76720596e-07
6.76721795e-07
6.76720468e-07
6.76721063e-07
6.76720618e-07
6.76721225e-07
6.76721025e-07
6.76721091e-07
6.76720969e-07
6.76721407e-07
6.76720563e-07
6.76721478e-07
6.7672151e-07
6.76720651e-07
6.76721152e-07
6.76721099e-07
6.76720838e-07
6.76720867e-07
6.7672057e-07
6.7672171e-07
6.76720468e-07
6.76721663e-07
6.76721571e-07
6.76721413e-07
6.76721542e-07
6.76721489e-07
6.76720494e-07
6.76721606e-07
6.76721352e-07
6.7672129e-07
6.76721687e-07
6.76721858e-07
6.76721149e-07
6.76721347e-07
6.76720832e-07
6.7672222e-07
6.76720867e-07
6.76722132e-07
6.76721202e-07
6.76721684e-07
6.76720514e-07
6.7672186e-07
6.76721149e-07
6.76721705e-07
6.76721315e-07
6.76722184e-07
6.76721436e-07
6.76721248e-07
6.7672151e-07
6.7672098e-07
6.76721554e-07
6.76721223e-07
6.76721858e-07
6.76721721e-07
6.76721164e-07
6.76721741e-07
6.76721299e-07
6.7672128e-07
6.76721776e-07
6.76721776e-07
6.76720834e-07
6.76722219e-07
6.76720785e-07
6.76722666e-07
6.767214e-07
6.76721616e-07
6.76721727e-07
6.7672184e-07
6.76722249e-07
6.76720934e-07
6.76721133e-07
6.76722283e-07
6.7672039e-07
6.76722489e-07
6.76720637e-07
6.76722443e-07
6.76721002e-07
6.7672183e-07
6.76720803e-07
6.76721983e-07
6.76720766e-07
6.76721724e-07
6.76721032e-07
6.76721429e-07
6.76721523e-07
6.76720856e-07
6.7672251e-07
6.76721219e-07
6.76722686e-07
6.76721377e-07
6.76721914e-07
6.76721482e-07
6.76723226e-07
6.7672021e-07
6.76722673e-07
6.76720501e-07
6.76722565e-07
6.76720532e-07
6.76722669e-07
6.76720693e-07
6.76723029e-07
6.76721898e-07
6.76721857e-07
6.76722213e-07
6.76721921e-07
6.76722156e-07
6.76721827e-07
6.76721869e-07
6.76722003e-07
6.76721612e-07
6.76722144e-07
6.7672214e-07
6.76722354e-07
6.76722175e-07
6.76721908e-07
6.76722248e-07
6.76722092e-07
6.76722054e-07
6.76722354e-07
6.76722391e-07
6.76722413e-07
6.76722403e-07
6.76722439e-07
6.76722474e-07
6.76722617e-07
6.76722665e-07
6.76722695e-07
6.76722809e-07
6.76722862e-07
6.76722986e-07
6.7672306e-07
6.767231e-07
6.76723229e-07
6.76723304e-07
6.76723323e-07
6.76723403e-07
6.76723487e-07
6.76723575e-07
6.767236e-07
6.76723631e-07
6.76723692e-07
6.76723691e-07
6.76723712e-07
6.76723738e-07
6.76723752e-07
6.76723714e-07
6.76723763e-07
6.7672374e-07
6.76723745e-07
6.76723745e-07
6.76723749e-07
6.7672375e-07
6.76723761e-07
6.76723752e-07
6.76723754e-07
6.76723738e-07
6.76723727e-07
6.76723757e-07
6.76723742e-07
6.76723747e-07
6.76723752e-07
6.76723746e-07
6.76723758e-07
6.76723751e-07
6.76723749e-07
6.76723761e-07
6.76723741e-07
6.76723751e-07
6.76723741e-07
6.76723756e-07
6.76723752e-07
6.76723745e-07
6.76723751e-07
6.76723739e-07
6.76723731e-07
6.76723763e-07
)
;

boundaryField
{
    closed
    {
        type            calculated;
        value           uniform 0;
    }
    open
    {
        type            calculated;
        value           uniform 0;
    }
    sides
    {
        type            empty;
    }
}


// ************************************************************************* //
