/*--------------------------------*- C++ -*----------------------------------*\
| =========                 |                                                 |
| \\      /  F ield         | OpenFOAM: The Open Source CFD Toolbox           |
|  \\    /   O peration     | Version:  2206                                  |
|   \\  /    A nd           | Website:  www.openfoam.com                      |
|    \\/     M anipulation  |                                                 |
\*---------------------------------------------------------------------------*/
FoamFile
{
    version     2.0;
    format      ascii;
    arch        "LSB;label=32;scalar=64";
    class       volScalarField;
    location    "1e-05";
    object      sourcePV;
}
// * * * * * * * * * * * * * * * * * * * * * * * * * * * * * * * * * * * * * //

dimensions      [1 -3 -1 0 0 0 0];

internalField   nonuniform List<scalar> 
3183
(
0
0
0
0
0
0
0
0
0
0
0
0
0
0
0
0
0
0
0
0
0
0
0
0
0
0
0
0
0
0
0
0
0
0
0
0
0
0
0
0
0
0
0
0
0
0
0
0
0
0
0
0
0
0
0
0
0
0
0
0
0
0
0
0
0
0
0
0
0
0
0
0
0
0
0
0
0
0
0
0
0
0
0
0
0
0
0
0
0
0
0
0
0
0
0
0
0
0
0
0
0
0
0
0
0
0
0
0
0
0
0
0
0
0
0
0
0
0
0
0
0
0
0
0
0
0
0
0
0
0
0
0
0
0
0
0
0
0
0
0
0
0
0
0
0
0
0
0
0
0
0
0
0
0
0
0
0
0
0
0
0
0
0
0
0
0
0
0
0
0
0
0
0
0
0
0
0
0
0
0
0
0
0
0
0
0
0
0
0
0
0
0
0
0
0
0
0
0
0
0
0
0
0
0
0
0
0
0
0
0
0
0
0
0
0
0
0
0
0
0
0
0
0
0
0
0
0
0
0
0
0
0
0
0
0
0
0
0
0
0
0
0
0
0
0
0
0
0
0
0
0
0
0
0
0
0
0
0
0
0
0
0
0
0
0
0
0
0
0
0
0
0
0
0
0
0
0
0
0
0
0
0
0
0
0
0
0
0
0
0
0
0
0
0
0
0
0
0
0
0
0
0
0
0
0
0
0
0
0
0
0
0
0
0
0
0
0
0
0
0
0
0
0
0
0
0
0
0
0
0
0
0
0
0
0
0
0
0
0
0
0
0
0
0
0
0
0
0
0
0
0
0
0
0
0
0
0
0
0
0
0
0
0
0
0
0
0
0
0
0
0
0
0
0
0
0
0
0
0
0
0
0
0
0
0
0
0
0
0
0
0
0
0
0
0
0
0
0
0
0
0
0
0
0
0
0
0
0
0
0
0
0
0
0
0
0
0
0
0
0
0
0
0
0
0
0
0
0
0
0
0
0
0
0
0
0
0
0
0
0
0
0
0
0
0
0
0
0
0
0
0
0
0
0
0
0
0
0
0
0
0
0
0
0
0
0
0
0
0
0
0
0
0
0
0
0
0
0
0
0
0
0
0
0
0
0
0
0
0
0
0
0
0
0
0
0
0
0
0
0
0
0
0
0
0
0
0
0
0
0
0
0
0
0
0
0
0
0
0
0
0
0
0
0
0
0
0
0
0
0
0
0
0
0
0
0
0
0
0
0
0
0
0
0
0
0
0
0
0
0
0
0
0
0
0
0
0
0
0
0
0
0
0
0
0
0
0
0
0
0
0
0
0
0
0
0
0
0
0
0
0
0
0
0
0
0
0
0
0
0
0
0
0
0
0
0
0
0
0
0
0
0
0
0
0
0
0
0
0
0
0
0
0
0
0
0
0
0
0
0
0
0
0
0
0
0
0
0
0
0
0
0
0
0
0
0
0
0
0
0
0
0
0
0
0
0
0
0
0
0
0
0
0
0
0
0
0
0
0
0
0
0
0
0
0
0
0
0
0
0
0
0
0
0
0
0
0
0
0
0
0
0
0
0
0
0
0
0
0
0
0
0
0
0
0
0
0
0
0
0
0
0
0
0
0
0
0
0
0
0
0
0
0
0
0
0
0
0
0
0
0
0
0
0
0
0
0
0
0
0
0
0
0
0
0
0
0
0
0
0
0
0
0
0
0
0
0
0
0
0
0
0
0
0
0
0
0
0
0
0
0
0
0
0
0
0
0
0
0
0
0
0
0
0
0
0
0
0
0
0
0
0
0
0
0
0
0
0
0
0
0
0
0
0
0
0
0
0
0
0
0
0
0
0
0
0
0
0
0
0
0
0
0
0
0
0
0
0
0
0
0
0
0
0
0
0
0
0
0
0
0
0
0
0
0
0
0
0
0
0
0
0
0
0
0
0
0
0
0
0
0
0
0
0
0
0
0
0
0
0
0
0
0
0
0
0
0
0
0
0
0
0
0
0
0
0
0
0
0
0
0
0
0
0
0
0
0
0
0
0
0
0
0
0
0
0
0
0
0
0
0
0
0
0
0
0
0
0
0
0
0
0
0
0
0
0
0
0
0
0
0
0
0
0
0
0
0
0
0
0
0
0
0
0
0
0
0
0
0
0
0
0
0
0
0
0
0
0
0
0
0
0
0
0
0
0
0
0
0
0
0
0
0
0
0
0
0
0
0
0
0
0
0
0
0
0
0
0
0
0
0
0
0
0
0
0
0
0
0
0
0
0
0
0
0
0
0
0
0
0
0
0
0
0
0
0
0
0
0
0
0
0
0
0
0
0
0
0
0
0
0
0
0
0
0
0
0
0
0
0
0
0
0
0
0
0
0
0
0
0
0
0
0
0
0
0
0
0
0
0
0
0
0
0
0
0
0
0
0
0
0
0
0
0
0
0
0
0
0
0
0
0
0
0
0
0
0
0
0
0
0
0
0
0
0
0
0
0
0
0
0
0
0
0
0
0
0
0
0
0
0
0
0
0
0
0
0
0
0
0
0
0
0
0
0
0
0
0
0
0
0
0
0
0
0
0
0
0
0
0
0
0
0
0
0
0
0
0
0
0
0
0
0
0
0
0
0
0
0
0
0
0
0
0
0
0
0
0
0
0
0
0
0
0
0
0
0
0
0
0
0
0
0
0
0
0
0
0
0
0
0
0
0
0
0
0
0
0
0
0
0
0
0
0
0
0
0
0
0
0
0
0
0
0
0
0
0
0
0
0
0
0
0
0
0
0
0
0
0
0
0
0
0
0
0
0
0
0
0
0
0
0
0
0
0
0
0
0
0
0
0
0
0
0
0
0
0
0
0
0
0
0
0
0
0
0
0
0
0
0
0
0
0
0
0
0
0
0
0
0
0
0
0
0
0
0
0
0
0
0
0
0
0
0
0
0
0
0
0
0
0
0
0
0
0
0
0
0
0
0
0
0
0
0
0
0
0
0
0
0
0
0
0
0
0
0
0
0
0
0
0
0
0
0
0
0
0
0
0
0
0
0
0
0
0
0
0
0
0
0
0
0
0
0
0
0
0
0
0
0
0
0
0
0
0
0
0
0
0
0
0
0
0
0
0
0
0
0
0
0
0
0
0
0
0
0
0
0
0
0
0
0
0
0
0
0
0
0
0
0
0
0
0
0
0
0
0
0
0
0
0
0
0
0
0
0
0
0
0
0
0
0
0
0
0
0
0
0
0
0
0
0
0
0
0
0
0
0
0
0
0
0
0
0
0
0
0
0
0
0
0
0
0
0
0
0
0
0
0
0
0
0
0
0
0
0
0
0
0
0
0
0
0
0
0
0
0
0
0
0
0
0
0
0
0
0
0
0
0
0
0
0
0
0
0
0
0
0
0
0
0
0
0
0
0
0
0
0
0
0
0
0
0
0
0
0
0
0
0
0
0
0
0
0
0
0
0
0
0
0
0
0
0
0
0
0
0
0
0
0
0
0
0
0
0
0
0
0
0
0
0
0
0
0
0
0
0
0
0
0
0
0
0
0
0
0
0
0
0
0
0
0
0
0
0
0
0
0
0
0
0
0
0
0
0
0
0
0
0
0
0
0
0
0
0
0
0
0
0
0
0
0
0
0
0
0
0
0
0
0
0
0
0
0
0
0
0
0
0
0
0
0
0
0
0
0
0
0
0
0
0
0
0
0
0
0
0
0
0
0
0
0
0
0
0
0
0
0
0
0
0
0
0
0
0
0
0
0
0
0
0
0
0
0
0
0
0
0
0
0
0
0
0
0
0
0
0
0
0
0
0
0
0
0
0
0
0
0
0
0
0
0
0
0
0
0
0
0
0
0
0
0
0
0
0
0
0
0
0
0
0
0
0
0
0
0
0
0
0
0
0
0
0
0
0
0
0
0
0
0
0
0
0
0
0
0
0
0
0
0
0
0
0
0
0
0
0
0
0
0
0
0
0
0
0
0
0
0
0
0
0
0
0
0
0
0
0
0
0
0
0
0
0
0
0
0
0
0
0
0
0
0
0
0
0
0
0
0
0
0
0
0
0
0
0
0
0
0
0
0
0
0
0
0
0
0
0
0
0
0
0
0
0
0
0
0
0
0
0
0
0
0
0
0
0
0
0
0
0
0
0
0
0
0
0
0
0
0
0
0
0
0
0
0
0
0
0
0
0
0
0
0
0
0
0
0
0
0
0
0
0
0
0
0
0
0
0
0
0
0
0
0
0
0
0
0
0
0
0
0
0
0
0
0
0
0
0
0
0
0
0
0
0
0
0
0
0
0
0
0
0
0
0
0
0
0
0
0
0
0
0
0
0
0
0
0
0
0
0
0
0
0
0
0
0
0
0
0
0
0
0
0
0
0
0
0
0
0
0
0
0
0
0
0
0
0
0
0
0
0
0
0
0
0
0
0
0
0
0
0
0
0
0
0
0
0
0
0
0
0
0
0
0
0
0
0
0
0
0
0
0
0
0
0
0
0
0
0
0
0
0
0
0
0
0
0
0
0
0
0
0
0
0
0
0
0
0
0
0
0
0
0
0
0
0
0
0
0
0
0
0
0
0
0
0
0
0
0
0
0
0
0
0
0
0
0
0
0
0
0
0
0
0
0
0
0
0
0
0
0
0
0
0
0
0
0
0
0
0
0
0
0
0
0
0
0
0
0
0
0
0
0
0
0
0
0
0
0
0
0
0
0
0
0
0
0
0
0
0
0
0
0
0
0
0
0
0
0
0
0
0
0
0
0
0
0
0
0
0
0
0
0
0
0
0
0
0
0
0
0
0
0
0
0
0
0
0
0
0
0
0
0
0
0
0
0
0
0
0
0
0
0
0
0
0
0
0
0
0
0
0
0
0
0
0
0
0
0
0
0
0
0
0
0
0
0
0
0
0
0
0
0
0
0
0
0
0
0
0
0
0
0
0
0
0
0
0
0
0
0
0
0
0
0
0
0
0
0
0
0
0
0
0
0
0
0
0
0
0
0
0
0
0
0
0
0
0
0
0
0
0
0
0
0
0
0
0
0
0
0
0
0
0
0
0
0
0
0
0
0
0
0
0
0
0
0
0
0
0
0
0
0
0
0
0
0
0
0
0
0
0
0
0
0
0
0
0
0
0
0
0
0
0
0
0
0
0
0
0
0
0
0
0
0
0
0
0
0
0
0
0
0
0
0
0
0
0
0
0
0
0
0
0
0
0
0
0
0
0
0
0
0
0
0
0
0
0
0
0
0
0
0
0
0
0
0
0
0
0
0
0
0
0
0
0
0
0
0
0
0
0
0
0
0
0
0
0
0
0
0
0
0
0
0
0
0
0
0
0
0
0
0
0
0
0
0
0
0
0
0
0
0
0
0
0
0
0
0
0
0
0
0
0
0
0
0
0
2.19600341e-299
0
2.42365059e-296
0
2.6156249e-293
0
2.76153984e-290
0
2.85355824e-287
0
2.88708227e-284
0
2.86111354e-281
0
2.77824763e-278
0
2.64431856e-275
0
2.46775383e-272
2.62489128e-274
2.25873482e-269
6.70581725e-271
2.0282733e-266
9.715913e-268
1.78731376e-263
1.16789469e-264
1.5459547e-260
1.26879059e-261
1.31285432e-257
1.28845785e-258
1.09485421e-254
1.24380552e-255
8.96822524e-252
1.15248466e-252
7.21692602e-249
1.03125482e-249
5.70654801e-246
8.94810199e-247
4.4345057e-243
7.55087939e-244
3.38717664e-240
6.21015096e-241
2.54341512e-237
4.98607748e-238
1.87778132e-234
3.91315835e-235
1.36325971e-231
3.00507239e-232
9.73355485e-229
2.25998884e-229
6.83554708e-226
1.66564801e-226
4.72204261e-223
1.20375622e-223
3.20910289e-220
8.53466112e-221
2.14572119e-217
5.93894394e-218
1.41167336e-214
4.05755638e-215
9.13899573e-212
2.72262729e-212
5.82230357e-209
1.79472564e-209
3.65047126e-206
1.16251033e-206
2.25259551e-203
7.4007178e-204
1.36809761e-200
4.63134307e-201
8.17837297e-198
2.84946769e-198
4.81222663e-195
1.72386265e-195
2.78717974e-192
1.02559044e-192
1.58902636e-189
6.00095535e-190
8.91762088e-187
3.45364626e-187
4.92629408e-184
1.95513106e-184
2.67882183e-181
1.08877486e-181
1.43388832e-178
5.96461664e-179
7.55488291e-176
3.21456364e-176
3.91805965e-173
1.70437181e-173
2.00001041e-170
8.89021891e-171
1.00483649e-167
4.56209899e-168
4.96868477e-165
2.30311131e-165
2.41795547e-162
1.14380653e-162
1.1579524e-159
5.58808185e-160
5.45682734e-157
2.68550749e-157
2.53025953e-154
1.269463e-154
1.15433048e-151
5.90223146e-152
5.18080096e-149
2.69887739e-149
2.28730014e-146
1.21362574e-146
9.93260283e-144
5.36637218e-144
4.24196424e-141
2.33306324e-141
1.78148167e-138
9.97178311e-139
7.35611385e-136
4.18953729e-136
2.98611339e-133
1.73000708e-133
1.19148482e-130
7.02029127e-131
4.67222839e-128
2.79910811e-128
1.80026758e-125
1.09639792e-125
6.81469685e-123
4.21815012e-123
2.53376431e-120
1.59366439e-120
9.25133023e-118
5.91156591e-118
3.31636751e-115
2.15249773e-115
1.16691062e-112
7.69156206e-113
4.02919592e-110
2.69654965e-110
1.36485787e-107
9.27272636e-108
4.53439861e-105
3.12670627e-105
1.47700604e-102
1.03351e-102
4.71556584e-100
3.34771851e-100
1.47510851e-97
1.0622807e-97
4.51952437e-95
3.30084663e-95
1.35571917e-92
1.00400552e-92
3.97991183e-90
2.98805917e-90
1.14290542e-87
8.69741103e-88
3.20902909e-85
2.47474611e-85
8.80527224e-83
6.88000832e-83
2.35983468e-80
1.86778626e-80
6.17358111e-78
4.94869365e-78
1.57557229e-75
1.27880969e-75
3.92007007e-73
3.22091831e-73
9.50145874e-71
7.90125629e-71
2.24176444e-68
1.88631784e-68
5.14432272e-66
4.37893345e-66
1.1471239e-63
9.8754947e-64
2.48318063e-61
2.16149931e-61
5.21262808e-59
4.58657117e-59
1.05985925e-56
9.42424966e-57
2.08462446e-54
1.87271701e-54
3.96083699e-52
3.59377816e-52
7.25864508e-50
6.64981305e-50
1.28083486e-47
1.18440774e-47
2.17209075e-45
2.0267473e-45
3.53259522e-43
3.32493083e-43
5.49685359e-41
5.21695785e-41
8.1617205e-39
7.80799869e-39
1.15287999e-36
1.11129554e-36
1.5439106e-34
1.49891894e-34
1.95240359e-32
1.90829766e-32
2.32070809e-30
2.28247679e-30
2.5788115e-28
2.5507243e-28
2.66175339e-26
2.64567031e-26
2.53216333e-24
2.52625322e-24
2.19916204e-22
2.1979549e-22
1.72303977e-20
1.71975404e-20
1.19944268e-18
1.19051019e-18
7.27005314e-17
7.16495962e-17
3.73109819e-15
3.69495982e-15
1.55615975e-13
1.54807425e-13
4.94457112e-12
4.90487739e-12
3.58838962e-09
3.74074243e-09
0.41717949
1.47102346
10.130328
10.207715
4.53698128
3.72159964
0.598841313
0.478462133
0.0939636548
0.0858534843
0.0143974208
0.0138341392
0.00197569633
0.00196610592
0.000256975511
0.00025675224
3.6716198e-05
3.66920002e-05
1.09870913e-05
1.09952274e-05
8.24133199e-06
8.24364261e-06
7.97172467e-06
7.97168643e-06
7.94659327e-06
7.94661277e-06
7.94444307e-06
7.94444793e-06
7.94424932e-06
7.94427052e-06
7.94425244e-06
7.94426102e-06
7.94424145e-06
7.94426888e-06
7.94422458e-06
7.94426387e-06
7.94424726e-06
7.94424266e-06
7.94424864e-06
7.94423892e-06
7.94425653e-06
7.94423744e-06
7.94426017e-06
7.94424551e-06
7.94425549e-06
7.94425215e-06
7.94425505e-06
7.94424832e-06
7.94425119e-06
7.94425064e-06
7.94425346e-06
7.94423951e-06
7.94426124e-06
7.94424559e-06
7.94425031e-06
7.94425537e-06
7.94424624e-06
7.94425585e-06
7.94424558e-06
7.94425072e-06
7.94424997e-06
7.94425541e-06
7.94424838e-06
7.94424657e-06
7.94425171e-06
7.9442458e-06
7.9442574e-06
7.94425029e-06
7.94425049e-06
7.94423794e-06
7.94424455e-06
7.94424615e-06
7.94423998e-06
7.9442589e-06
7.94424195e-06
7.94426209e-06
7.94424676e-06
7.94426274e-06
7.94425007e-06
7.94425752e-06
7.94424541e-06
7.94426002e-06
7.94424357e-06
7.94425655e-06
7.9442496e-06
7.94425125e-06
7.94425406e-06
7.9442406e-06
7.94425589e-06
7.94423953e-06
7.94425808e-06
7.94424563e-06
7.94425525e-06
7.94425081e-06
7.94425593e-06
7.94426027e-06
7.94424525e-06
7.9442538e-06
7.9442575e-06
7.94425541e-06
7.94424587e-06
7.94426018e-06
7.9442532e-06
7.94426694e-06
7.94424926e-06
7.94425732e-06
7.94424832e-06
7.94425592e-06
7.94424581e-06
7.94425731e-06
7.94424649e-06
7.94424509e-06
7.94424838e-06
7.9442499e-06
7.94424455e-06
7.94425282e-06
7.94424547e-06
7.94425733e-06
7.94424696e-06
7.94426323e-06
7.94424536e-06
7.94426362e-06
7.94424391e-06
7.94426715e-06
7.94424767e-06
7.94426121e-06
7.9442443e-06
7.94426092e-06
7.94424608e-06
7.94426382e-06
7.94424249e-06
7.94426157e-06
7.94426611e-06
7.94426155e-06
7.94426044e-06
7.94424997e-06
7.94427367e-06
7.94424908e-06
7.94426134e-06
7.94424784e-06
7.94425446e-06
7.94425131e-06
7.94424633e-06
7.94425078e-06
7.94425321e-06
7.94424973e-06
7.94424917e-06
7.94424954e-06
7.94425747e-06
7.94424802e-06
7.94426582e-06
7.94423613e-06
7.94427196e-06
7.94424228e-06
7.94426191e-06
7.94425519e-06
7.94424647e-06
7.94425302e-06
7.94426247e-06
7.94425859e-06
7.9442705e-06
7.9442528e-06
7.94426585e-06
7.94425208e-06
7.94426353e-06
7.94425162e-06
7.94425566e-06
7.94425471e-06
7.94425421e-06
7.94424727e-06
7.94426021e-06
7.94425365e-06
7.94424554e-06
7.94425099e-06
7.94426417e-06
7.94425674e-06
7.94426155e-06
7.94426781e-06
7.9442521e-06
7.94427227e-06
7.94426662e-06
7.94427005e-06
7.94427008e-06
7.94426277e-06
7.94425856e-06
7.94425657e-06
7.94425143e-06
7.94425628e-06
7.94425682e-06
7.94426084e-06
7.94426395e-06
7.9442484e-06
7.94426525e-06
7.94426225e-06
7.94426862e-06
7.94425153e-06
7.94425943e-06
7.94425272e-06
7.94425991e-06
7.94424714e-06
7.94427219e-06
7.94425326e-06
7.94427179e-06
7.94424773e-06
7.94426349e-06
7.94425569e-06
7.94425896e-06
7.94425834e-06
7.94427108e-06
7.94426215e-06
7.94426973e-06
7.94425511e-06
7.94426766e-06
7.94426168e-06
7.94426242e-06
7.9442645e-06
7.9442606e-06
7.94426417e-06
7.94425749e-06
7.94426444e-06
7.94425863e-06
7.94426498e-06
7.94425561e-06
7.94425519e-06
7.94425755e-06
7.94425101e-06
7.94426763e-06
7.94425784e-06
7.94426081e-06
7.94426879e-06
7.94426136e-06
7.94425842e-06
7.94426664e-06
7.94426458e-06
7.94426323e-06
7.9442688e-06
7.94425802e-06
7.94426749e-06
7.94426579e-06
7.94427198e-06
7.94425806e-06
7.9442751e-06
7.94426144e-06
7.94426885e-06
7.94425447e-06
7.94427393e-06
7.94425625e-06
7.9442697e-06
7.94424958e-06
7.94425792e-06
7.94426651e-06
7.94426174e-06
7.94426901e-06
7.94426308e-06
7.94425666e-06
7.94426903e-06
7.9442596e-06
7.944274e-06
7.94426877e-06
7.94425939e-06
7.94427337e-06
7.94426439e-06
7.94427242e-06
7.94425759e-06
7.94428052e-06
7.94425681e-06
7.94426303e-06
7.94425611e-06
7.94427021e-06
7.94425523e-06
7.94427748e-06
7.94425471e-06
7.94426177e-06
7.94426624e-06
7.94426051e-06
7.94426909e-06
7.94426809e-06
7.94426926e-06
7.94426358e-06
7.94426571e-06
7.94426487e-06
7.94426381e-06
7.94425732e-06
7.94427066e-06
7.94426493e-06
7.94425772e-06
7.94426081e-06
7.9442589e-06
7.94426505e-06
7.94426786e-06
7.94426153e-06
7.94426847e-06
7.94426522e-06
7.94426351e-06
7.9442666e-06
7.94425632e-06
7.94425731e-06
7.94426839e-06
7.94426574e-06
7.94427359e-06
7.94426204e-06
7.94426406e-06
7.94426663e-06
7.94427159e-06
7.94426283e-06
7.94427277e-06
7.94426596e-06
7.94426335e-06
7.94426351e-06
7.94427233e-06
7.94426922e-06
7.94427107e-06
7.94426224e-06
7.94426657e-06
7.94426331e-06
7.94426597e-06
7.94427626e-06
7.94425668e-06
7.94428013e-06
7.94426172e-06
7.94427254e-06
7.94426147e-06
7.94427223e-06
7.94426327e-06
7.9442732e-06
7.94426254e-06
7.94426878e-06
7.94426917e-06
7.94427024e-06
7.94427688e-06
7.94426171e-06
7.94426973e-06
7.94426802e-06
7.94426566e-06
7.94426745e-06
7.94426858e-06
7.94426622e-06
7.94426741e-06
7.94425777e-06
7.9442722e-06
7.94426514e-06
7.94427234e-06
7.94426086e-06
7.94426749e-06
7.94427472e-06
7.94427212e-06
7.94426773e-06
7.94427007e-06
7.94426771e-06
7.94426371e-06
7.944276e-06
7.94427695e-06
7.94426148e-06
7.9442674e-06
7.94427466e-06
7.94426049e-06
7.94428057e-06
7.94426408e-06
7.94426363e-06
7.94426918e-06
7.94427673e-06
7.9442646e-06
7.94427412e-06
7.94427081e-06
7.94427277e-06
7.94427504e-06
7.94427109e-06
7.94428037e-06
7.94427536e-06
7.94428167e-06
7.94427581e-06
7.9442769e-06
7.94427461e-06
7.94427679e-06
7.94426692e-06
7.94427266e-06
7.94426576e-06
7.94427242e-06
7.94427543e-06
7.94427622e-06
7.94427375e-06
7.94427112e-06
7.9442763e-06
7.9442671e-06
7.94427983e-06
7.94425925e-06
7.94427181e-06
7.9442667e-06
7.94426687e-06
7.94427516e-06
7.94426905e-06
7.94426983e-06
7.94426829e-06
7.94426744e-06
7.9442759e-06
7.94427556e-06
7.94428303e-06
7.94427551e-06
7.94427684e-06
7.94427492e-06
7.94427411e-06
7.94426785e-06
7.94426959e-06
7.94428367e-06
7.94426808e-06
7.94427507e-06
7.94426984e-06
7.94427697e-06
7.94427463e-06
7.9442754e-06
7.94427397e-06
7.94427911e-06
7.94426919e-06
7.94427994e-06
7.94428033e-06
7.94427023e-06
7.94427611e-06
7.9442755e-06
7.94427242e-06
7.94427277e-06
7.94426928e-06
7.94428267e-06
7.94426808e-06
7.94428212e-06
7.94428103e-06
7.94427918e-06
7.9442807e-06
7.94428007e-06
7.94426839e-06
7.94428145e-06
7.94427846e-06
7.94427774e-06
7.9442824e-06
7.94428441e-06
7.94427608e-06
7.94427841e-06
7.94427236e-06
7.94428866e-06
7.94427276e-06
7.94428762e-06
7.9442767e-06
7.94428236e-06
7.94426862e-06
7.94428443e-06
7.94427608e-06
7.94428261e-06
7.94427803e-06
7.94428824e-06
7.94427946e-06
7.94427724e-06
7.94428031e-06
7.9442741e-06
7.94428083e-06
7.94427695e-06
7.94428441e-06
7.94428279e-06
7.94427626e-06
7.94428304e-06
7.94427784e-06
7.94427761e-06
7.94428344e-06
7.94428344e-06
7.94427238e-06
7.94428865e-06
7.94427181e-06
7.9442939e-06
7.94427902e-06
7.94428156e-06
7.94428287e-06
7.9442842e-06
7.944289e-06
7.94427356e-06
7.94427589e-06
7.9442894e-06
7.94426717e-06
7.94429182e-06
7.94427006e-06
7.94429128e-06
7.94427435e-06
7.94428407e-06
7.94427202e-06
7.94428587e-06
7.94427159e-06
7.94428284e-06
7.9442747e-06
7.94427937e-06
7.94428047e-06
7.94427264e-06
7.94429206e-06
7.9442769e-06
7.94429414e-06
7.94427876e-06
7.94428507e-06
7.94428e-06
7.94430047e-06
7.94426505e-06
7.94429398e-06
7.94426847e-06
7.94429271e-06
7.94426883e-06
7.94429393e-06
7.94427072e-06
7.94429816e-06
7.94428488e-06
7.94428439e-06
7.94428858e-06
7.94428514e-06
7.94428791e-06
7.94428404e-06
7.94428454e-06
7.94428611e-06
7.94428152e-06
7.94428777e-06
7.94428772e-06
7.94429023e-06
7.94428813e-06
7.944285e-06
7.94428899e-06
7.94428716e-06
7.94428671e-06
7.94429024e-06
7.94429066e-06
7.94429093e-06
7.94429081e-06
7.94429123e-06
7.94429165e-06
7.94429332e-06
7.94429388e-06
7.94429424e-06
7.94429558e-06
7.9442962e-06
7.94429765e-06
7.94429852e-06
7.944299e-06
7.94430051e-06
7.94430139e-06
7.94430161e-06
7.94430256e-06
7.94430354e-06
7.94430458e-06
7.94430486e-06
7.94430524e-06
7.94430595e-06
7.94430593e-06
7.94430619e-06
7.94430649e-06
7.94430665e-06
7.94430621e-06
7.94430678e-06
7.94430652e-06
7.94430657e-06
7.94430657e-06
7.94430662e-06
7.94430663e-06
7.94430676e-06
7.94430665e-06
7.94430668e-06
7.94430649e-06
7.94430636e-06
7.94430671e-06
7.94430654e-06
7.94430659e-06
7.94430665e-06
7.94430658e-06
7.94430673e-06
7.94430664e-06
7.94430661e-06
7.94430676e-06
7.94430653e-06
7.94430664e-06
7.94430653e-06
7.9443067e-06
7.94430665e-06
7.94430657e-06
7.94430664e-06
7.9443065e-06
7.94430641e-06
7.94430678e-06
)
;

boundaryField
{
    closed
    {
        type            calculated;
        value           uniform 0;
    }
    open
    {
        type            calculated;
        value           uniform 0;
    }
    sides
    {
        type            empty;
    }
}


// ************************************************************************* //
