/*--------------------------------*- C++ -*----------------------------------*\
| =========                 |                                                 |
| \\      /  F ield         | OpenFOAM: The Open Source CFD Toolbox           |
|  \\    /   O peration     | Version:  2206                                  |
|   \\  /    A nd           | Website:  www.openfoam.com                      |
|    \\/     M anipulation  |                                                 |
\*---------------------------------------------------------------------------*/
FoamFile
{
    version     2.0;
    format      ascii;
    arch        "LSB;label=32;scalar=64";
    class       volVectorField;
    location    "1e-05";
    object      U;
}
// * * * * * * * * * * * * * * * * * * * * * * * * * * * * * * * * * * * * * //

dimensions      [0 1 -1 0 0 0 0];

internalField   nonuniform List<vector> 
3183
(
(2.70545256e-13 0 0)
(-2.16203571e-14 0 0)
(-1.70646341e-13 0 0)
(-1.09738292e-13 0 0)
(-1.07070729e-13 0 0)
(-4.32929739e-18 0 0)
(-3.42128708e-19 0 0)
(-2.11557594e-23 0 0)
(1.32469955e-23 0 0)
(2.07200043e-19 0 0)
(4.98292457e-18 0 0)
(1.04994541e-13 0 0)
(4.19676079e-13 0 0)
(9.29721756e-14 0 0)
(7.02703236e-15 0 0)
(6.62166435e-14 0 0)
(-1.08420581e-13 0 0)
(-3.78689904e-13 0 0)
(-7.10919249e-13 0 0)
(-2.2609951e-14 0 0)
(3.60322494e-13 0 0)
(1.00179345e-16 0 0)
(2.83142696e-17 0 0)
(1.82420135e-13 0 0)
(2.79185574e-13 0 0)
(3.85597557e-13 0 0)
(4.44083253e-13 0 0)
(3.99657469e-13 0 0)
(1.00237334e-13 0 0)
(2.84849914e-13 0 0)
(-2.36556317e-13 0 0)
(-2.66012259e-13 0 0)
(-7.2568081e-13 0 0)
(-8.27592276e-13 0 0)
(-5.22707905e-13 0 0)
(-1.63509146e-13 0 0)
(-2.03463388e-13 0 0)
(-2.81463092e-13 0 0)
(-9.56075274e-14 0 0)
(-8.77828316e-14 0 0)
(-3.67363105e-13 0 0)
(-3.99840778e-13 0 0)
(-7.42890959e-14 0 0)
(-4.43017869e-13 0 0)
(-2.09868989e-13 0 0)
(-1.01757023e-13 0 0)
(-2.68470046e-13 0 0)
(-2.0655983e-13 0 0)
(-2.35914149e-13 0 0)
(-2.04810184e-14 0 0)
(1.31168415e-13 0 0)
(5.74280034e-13 0 0)
(3.16952298e-13 0 0)
(7.14850747e-13 0 0)
(1.06684036e-12 0 0)
(9.08462762e-13 0 0)
(1.27480453e-12 0 0)
(1.49930882e-12 0 0)
(1.64405985e-12 0 0)
(1.83191622e-12 0 0)
(2.07712638e-12 0 0)
(2.18421361e-12 0 0)
(2.33406567e-12 0 0)
(2.08680832e-12 0 0)
(2.49809709e-12 0 0)
(2.71692901e-12 0 0)
(2.42831299e-12 0 0)
(2.55178576e-12 0 0)
(2.54260891e-12 0 0)
(1.82174613e-12 0 0)
(1.98521384e-12 0 0)
(1.83315927e-12 0 0)
(1.76811639e-12 0 0)
(1.52660622e-12 0 0)
(1.47251445e-12 0 0)
(8.23506695e-13 0 0)
(8.54881379e-13 0 0)
(8.17016571e-13 0 0)
(7.30248803e-13 0 0)
(5.77129157e-13 0 0)
(3.12197913e-13 0 0)
(1.89895648e-13 0 0)
(6.07080502e-13 0 0)
(-9.09164416e-13 0 0)
(2.1412472e-14 0 0)
(-6.61619193e-13 0 0)
(-9.71092498e-13 0 0)
(-1.06934239e-12 0 0)
(-3.59211428e-13 0 0)
(-8.95105392e-13 0 0)
(-1.72882913e-12 0 0)
(-2.30568761e-12 0 0)
(-1.6531786e-12 0 0)
(-2.60803749e-12 0 0)
(-2.93261676e-12 0 0)
(-2.21794444e-12 0 0)
(-3.28430906e-12 0 0)
(-2.64895646e-12 0 0)
(-3.16954889e-12 0 0)
(-2.84164184e-12 0 0)
(-1.51004613e-12 0 0)
(-1.90837859e-12 0 0)
(-2.31041041e-12 0 0)
(-2.31847018e-12 0 0)
(-2.79605369e-12 0 0)
(-2.55564661e-12 0 0)
(-3.13852864e-12 0 0)
(-2.82541058e-12 0 0)
(-3.36417907e-12 0 0)
(-3.06843053e-12 0 0)
(-2.01783516e-12 0 0)
(-2.88887633e-12 0 0)
(-1.73661693e-12 0 0)
(-3.15004414e-12 0 0)
(-2.58038877e-12 0 0)
(-1.75559839e-12 0 0)
(-3.40172238e-12 0 0)
(-1.90898422e-12 0 0)
(-3.05650046e-12 0 0)
(-3.99634756e-12 0 0)
(-2.60581523e-12 0 0)
(-3.15934577e-12 0 0)
(-3.06542573e-12 0 0)
(-3.81296663e-12 0 0)
(-3.40597696e-12 0 0)
(-4.21806175e-12 0 0)
(-3.2352429e-12 0 0)
(-4.86927368e-12 0 0)
(-3.68660669e-12 0 0)
(-4.18315802e-12 0 0)
(-4.45165788e-12 0 0)
(-4.74955687e-12 0 0)
(-4.96529319e-12 0 0)
(-5.64435181e-12 0 0)
(-3.54894909e-12 0 0)
(-4.54766557e-12 0 0)
(-4.83945961e-12 0 0)
(-4.48738655e-12 0 0)
(-3.77816773e-12 0 0)
(-3.90162847e-12 0 0)
(-4.48013709e-12 0 0)
(-4.20623088e-12 0 0)
(-4.73010029e-12 0 0)
(-5.69869548e-12 0 0)
(-4.24330879e-12 0 0)
(-5.22303781e-12 0 0)
(-4.23238227e-12 0 0)
(-5.43152506e-12 0 0)
(-4.42860871e-12 0 0)
(-4.93712005e-12 0 0)
(-6.17615332e-12 0 0)
(-4.12916735e-12 0 0)
(-4.79917105e-12 0 0)
(-5.27098903e-12 0 0)
(-6.34159805e-12 0 0)
(-4.76680184e-12 0 0)
(-5.74575008e-12 0 0)
(-5.82333276e-12 0 0)
(-5.0155799e-12 0 0)
(-6.36653382e-12 0 0)
(-6.31645077e-12 0 0)
(-6.3940744e-12 0 0)
(-5.335882e-12 0 0)
(-5.46658572e-12 0 0)
(-5.97017739e-12 0 0)
(-5.89309848e-12 0 0)
(-5.81412962e-12 0 0)
(-5.68361969e-12 0 0)
(-5.24476343e-12 0 0)
(-6.05069132e-12 0 0)
(-5.81349223e-12 0 0)
(-6.28224037e-12 0 0)
(-6.27694557e-12 0 0)
(-6.07443412e-12 0 0)
(-5.88376897e-12 0 0)
(-6.7512446e-12 0 0)
(-7.04510182e-12 0 0)
(-6.73173314e-12 0 0)
(-6.32889185e-12 0 0)
(-7.35461743e-12 0 0)
(-6.50665864e-12 0 0)
(-7.79127017e-12 0 0)
(-6.30638214e-12 0 0)
(-7.18641745e-12 0 0)
(-7.91180082e-12 0 0)
(-8.19617635e-12 0 0)
(-7.37529593e-12 0 0)
(-7.76467887e-12 0 0)
(-7.98078854e-12 0 0)
(-6.7018826e-12 0 0)
(-8.47923128e-12 0 0)
(-7.69697266e-12 0 0)
(-8.29433544e-12 0 0)
(-7.44466926e-12 0 0)
(-8.67438998e-12 0 0)
(-7.21326746e-12 0 0)
(-8.19524864e-12 0 0)
(-7.3786833e-12 0 0)
(-8.06074374e-12 0 0)
(-8.63566124e-12 0 0)
(-7.92246295e-12 0 0)
(-8.11376568e-12 0 0)
(-7.86946079e-12 0 0)
(-7.82793178e-12 0 0)
(-9.21456985e-12 0 0)
(-7.82749929e-12 0 0)
(-8.45066455e-12 0 0)
(-7.59759641e-12 0 0)
(-9.27013928e-12 0 0)
(-7.77785797e-12 0 0)
(-9.03460799e-12 0 0)
(-8.98997742e-12 0 0)
(-8.26127031e-12 0 0)
(-9.69739921e-12 0 0)
(-8.50759868e-12 0 0)
(-7.88421576e-12 0 0)
(-8.32485188e-12 0 0)
(-8.90094572e-12 0 0)
(-8.06248576e-12 0 0)
(-9.58949429e-12 0 0)
(-8.71331106e-12 0 0)
(-9.9164319e-12 0 0)
(-1.01470072e-11 0 0)
(-8.53039115e-12 0 0)
(-8.79055049e-12 0 0)
(-9.23181969e-12 0 0)
(-9.59603786e-12 0 0)
(-9.12194934e-12 0 0)
(-9.95924061e-12 0 0)
(-9.0921808e-12 0 0)
(-9.05370135e-12 0 0)
(-9.40644806e-12 0 0)
(-8.55318327e-12 0 0)
(-9.5167527e-12 0 0)
(-1.02925293e-11 0 0)
(-9.27201511e-12 0 0)
(-1.00237922e-11 0 0)
(-1.01513671e-11 0 0)
(-1.00742e-11 0 0)
(-1.01622835e-11 0 0)
(-1.00046631e-11 0 0)
(-1.08797871e-11 0 0)
(-1.08397118e-11 0 0)
(-1.04164626e-11 0 0)
(-1.04651365e-11 0 0)
(-1.07519205e-11 0 0)
(-9.66678712e-12 0 0)
(-9.91271854e-12 0 0)
(-1.00263144e-11 0 0)
(-1.0496037e-11 0 0)
(-9.31842975e-12 0 0)
(-1.01847727e-11 0 0)
(-1.03402053e-11 0 0)
(-1.0077856e-11 0 0)
(-1.1051321e-11 0 0)
(-1.06366269e-11 0 0)
(-1.05742662e-11 0 0)
(-1.00139163e-11 0 0)
(-1.0679122e-11 0 0)
(-1.06591355e-11 0 0)
(-1.06545281e-11 0 0)
(-1.11378953e-11 0 0)
(-1.20679061e-11 0 0)
(-9.95580712e-12 0 0)
(-1.13093808e-11 0 0)
(-1.14241773e-11 0 0)
(-1.16602251e-11 0 0)
(-1.12529472e-11 0 0)
(-1.24230318e-11 0 0)
(-1.1559157e-11 0 0)
(-1.12969006e-11 0 0)
(-1.17850363e-11 0 0)
(-1.17888912e-11 0 0)
(-1.26009784e-11 0 0)
(-1.26117541e-11 0 0)
(-1.17720742e-11 0 0)
(-1.28029634e-11 0 0)
(-1.34692123e-11 0 0)
(-1.3136654e-11 0 0)
(-1.2214311e-11 0 0)
(-1.31319779e-11 0 0)
(-1.3667273e-11 0 0)
(-1.37150519e-11 0 0)
(-1.32539291e-11 0 0)
(-1.29284503e-11 0 0)
(-1.37264984e-11 0 0)
(-1.26710887e-11 0 0)
(-1.28922926e-11 0 0)
(-1.35454057e-11 0 0)
(-1.42236526e-11 0 0)
(-1.34130994e-11 0 0)
(-1.35057214e-11 0 0)
(-1.30253927e-11 0 0)
(-1.4619397e-11 0 0)
(-1.29103093e-11 0 0)
(-1.29733595e-11 0 0)
(-1.38851538e-11 0 0)
(-1.35349598e-11 0 0)
(-1.41035439e-11 0 0)
(-1.5124681e-11 0 0)
(-1.52557595e-11 0 0)
(-1.47264761e-11 0 0)
(-1.34720691e-11 0 0)
(-1.43025783e-11 0 0)
(-1.48159684e-11 0 0)
(-1.40826912e-11 0 0)
(-1.25097456e-11 0 0)
(-1.41737487e-11 0 0)
(-1.4545482e-11 0 0)
(-1.30395604e-11 0 0)
(-1.46634936e-11 0 0)
(-1.43370602e-11 0 0)
(-1.38617952e-11 0 0)
(-1.36477635e-11 0 0)
(-1.41332898e-11 0 0)
(-1.47196691e-11 0 0)
(-1.66525278e-11 0 0)
(-1.5685659e-11 0 0)
(-1.4869492e-11 0 0)
(-1.56767708e-11 0 0)
(-1.60879894e-11 0 0)
(-1.4862952e-11 0 0)
(-1.51172191e-11 0 0)
(-1.49287e-11 0 0)
(-1.59662274e-11 0 0)
(-1.40142707e-11 0 0)
(-1.47206245e-11 0 0)
(-1.44937741e-11 0 0)
(-1.48617646e-11 0 0)
(-1.60972429e-11 0 0)
(-1.39285347e-11 0 0)
(-1.65224932e-11 0 0)
(-1.47530004e-11 0 0)
(-1.4296199e-11 0 0)
(-1.2898549e-11 0 0)
(-1.46898616e-11 0 0)
(-1.38232142e-11 0 0)
(-1.45439699e-11 0 0)
(-1.38347104e-11 0 0)
(-1.37013839e-11 0 0)
(-1.36935839e-11 0 0)
(-1.46688023e-11 0 0)
(-1.39491438e-11 0 0)
(-1.28653048e-11 0 0)
(-1.36478246e-11 0 0)
(-1.33626281e-11 0 0)
(-1.40231464e-11 0 0)
(-1.28988711e-11 0 0)
(-1.40465181e-11 0 0)
(-1.29248812e-11 0 0)
(-1.27387364e-11 0 0)
(-1.37118894e-11 0 0)
(-1.33810328e-11 0 0)
(-1.34081653e-11 0 0)
(-1.29162135e-11 0 0)
(-1.33741388e-11 0 0)
(-1.4708487e-11 0 0)
(-1.33876515e-11 0 0)
(-1.38705855e-11 0 0)
(-1.37081651e-11 0 0)
(-1.3496617e-11 0 0)
(-1.30457674e-11 0 0)
(-1.39471576e-11 0 0)
(-1.3519158e-11 0 0)
(-1.26271689e-11 0 0)
(-1.39960942e-11 0 0)
(-1.34958317e-11 0 0)
(-1.40754674e-11 0 0)
(-1.32872574e-11 0 0)
(-1.38734937e-11 0 0)
(-1.28379565e-11 0 0)
(-1.48314105e-11 0 0)
(-1.27775189e-11 0 0)
(-1.30513436e-11 0 0)
(-1.3132548e-11 0 0)
(-1.47574395e-11 0 0)
(-1.430336e-11 0 0)
(-1.32207183e-11 0 0)
(-1.43312927e-11 0 0)
(-1.33901569e-11 0 0)
(-1.34931325e-11 0 0)
(-1.36114528e-11 0 0)
(-1.3637631e-11 0 0)
(-1.30981085e-11 0 0)
(-1.20724776e-11 0 0)
(-1.29361107e-11 0 0)
(-1.15360125e-11 0 0)
(-1.16785629e-11 0 0)
(-1.11235181e-11 0 0)
(-1.14203575e-11 0 0)
(-1.15213467e-11 0 0)
(-1.12719237e-11 0 0)
(-1.11712872e-11 0 0)
(-1.0746131e-11 0 0)
(-1.06978509e-11 0 0)
(-1.07899954e-11 0 0)
(-1.14819132e-11 0 0)
(-1.12661102e-11 0 0)
(-1.08357489e-11 0 0)
(-1.06603995e-11 0 0)
(-9.93970384e-12 0 0)
(-1.04051887e-11 0 0)
(-1.00791579e-11 0 0)
(-1.10504278e-11 0 0)
(-9.45468812e-12 0 0)
(-8.92557386e-12 0 0)
(-9.14140642e-12 0 0)
(-1.14483098e-11 0 0)
(-9.62829087e-12 0 0)
(-9.37703308e-12 0 0)
(-1.04417612e-11 0 0)
(-8.85905244e-12 0 0)
(-9.46420118e-12 0 0)
(-1.02566323e-11 0 0)
(-9.87575718e-12 0 0)
(-8.65902835e-12 0 0)
(-9.45322273e-12 0 0)
(-9.67651123e-12 0 0)
(-9.89087011e-12 0 0)
(-9.55053431e-12 0 0)
(-8.64821131e-12 0 0)
(-9.05058834e-12 0 0)
(-8.62596641e-12 0 0)
(-9.34820809e-12 0 0)
(-9.71656493e-12 0 0)
(-9.45521324e-12 0 0)
(-9.27880128e-12 0 0)
(-8.34516441e-12 0 0)
(-9.20649254e-12 0 0)
(-7.33310455e-12 0 0)
(-7.9917524e-12 0 0)
(-1.00048067e-11 0 0)
(-8.72140439e-12 0 0)
(-8.32397843e-12 0 0)
(-9.33458432e-12 0 0)
(-8.31410824e-12 0 0)
(-1.01300232e-11 0 0)
(-8.60866303e-12 0 0)
(-7.60563293e-12 0 0)
(-8.14221697e-12 0 0)
(-7.41142087e-12 0 0)
(-8.87010943e-12 0 0)
(-7.54176347e-12 0 0)
(-7.49572918e-12 0 0)
(-7.63226725e-12 0 0)
(-8.63142824e-12 0 0)
(-7.27081498e-12 0 0)
(-7.8325389e-12 0 0)
(-7.27940096e-12 0 0)
(-6.76359041e-12 0 0)
(-6.9406961e-12 0 0)
(-6.7040194e-12 0 0)
(-6.70793783e-12 0 0)
(-7.24352518e-12 0 0)
(-6.3471625e-12 0 0)
(-5.854967e-12 0 0)
(-5.6561708e-12 0 0)
(-5.7729722e-12 0 0)
(-5.49696709e-12 0 0)
(-4.89910979e-12 0 0)
(-5.33111055e-12 0 0)
(-5.35897179e-12 0 0)
(-4.27249497e-12 0 0)
(-4.92577779e-12 0 0)
(-5.79931845e-12 0 0)
(-4.81681076e-12 0 0)
(-4.01970963e-12 0 0)
(-4.65609509e-12 0 0)
(-4.7408664e-12 0 0)
(-4.69841744e-12 0 0)
(-3.92294615e-12 0 0)
(-5.13061836e-12 0 0)
(-4.89351006e-12 0 0)
(-5.60154729e-12 0 0)
(-4.60862861e-12 0 0)
(-5.19201865e-12 0 0)
(-5.22685015e-12 0 0)
(-5.70297868e-12 0 0)
(-5.18921178e-12 0 0)
(-4.88662526e-12 0 0)
(-4.70684257e-12 0 0)
(-4.99123313e-12 0 0)
(-4.31209412e-12 0 0)
(-4.50492387e-12 0 0)
(-4.82818374e-12 0 0)
(-4.4915133e-12 0 0)
(-4.66690582e-12 0 0)
(-5.2055752e-12 0 0)
(-5.55988293e-12 0 0)
(-4.80168487e-12 0 0)
(-5.11492821e-12 0 0)
(-5.3264062e-12 0 0)
(-6.6445608e-12 0 0)
(-5.15896779e-12 0 0)
(-5.90615205e-12 0 0)
(-6.88494313e-12 0 0)
(-5.17788956e-12 0 0)
(-5.78672077e-12 0 0)
(-5.36306381e-12 0 0)
(-5.99395068e-12 0 0)
(-4.96432247e-12 0 0)
(-5.48695098e-12 0 0)
(-4.3434575e-12 0 0)
(-4.88585906e-12 0 0)
(-5.03093729e-12 0 0)
(-5.67494156e-12 0 0)
(-5.357486e-12 0 0)
(-4.65418869e-12 0 0)
(-3.51272276e-12 0 0)
(-5.78172097e-12 0 0)
(-2.97453978e-12 0 0)
(-4.04839003e-12 0 0)
(-2.78728721e-12 0 0)
(-3.47594914e-12 0 0)
(-3.03489008e-12 0 0)
(-2.66987195e-12 0 0)
(-2.74894007e-12 0 0)
(-1.96112094e-12 0 0)
(-2.40408663e-12 0 0)
(-2.47329934e-12 0 0)
(-2.62435843e-12 0 0)
(-2.44233552e-12 0 0)
(-2.55527075e-12 0 0)
(-2.36001321e-12 0 0)
(-2.89622011e-12 0 0)
(-1.34507128e-12 0 0)
(-1.68440813e-12 0 0)
(-1.84893183e-12 0 0)
(-1.38530327e-12 0 0)
(-2.64390314e-12 0 0)
(-2.00405318e-12 0 0)
(-1.94084962e-12 0 0)
(-2.77720687e-12 0 0)
(-1.77049603e-12 0 0)
(-1.37961963e-12 0 0)
(-2.07914475e-12 0 0)
(-1.73887071e-12 0 0)
(-1.22435618e-12 0 0)
(-2.08677513e-12 0 0)
(-2.17887878e-12 0 0)
(-1.50028153e-12 0 0)
(-1.73287516e-12 0 0)
(-2.24025894e-12 0 0)
(-1.06206984e-12 0 0)
(-8.51171672e-13 0 0)
(-1.71231145e-12 0 0)
(-5.87144767e-13 0 0)
(-4.1102553e-13 0 0)
(-1.03919998e-12 0 0)
(-6.67374717e-13 0 0)
(1.2372321e-14 0 0)
(2.63791522e-13 0 0)
(4.26350467e-13 0 0)
(2.60797135e-13 0 0)
(-9.03584146e-13 0 0)
(6.35561797e-13 0 0)
(3.3445098e-13 0 0)
(-1.47728053e-13 0 0)
(-1.07907908e-13 0 0)
(-8.87818186e-13 0 0)
(-7.17748869e-13 0 0)
(-1.56591858e-12 0 0)
(2.40838742e-13 0 0)
(-2.20488197e-13 0 0)
(-9.81478232e-13 0 0)
(1.81972558e-13 0 0)
(2.06459476e-13 0 0)
(5.17122785e-13 0 0)
(1.0950616e-12 0 0)
(1.75073536e-12 0 0)
(9.24130116e-13 0 0)
(4.89756073e-13 0 0)
(1.68445587e-12 0 0)
(2.40320386e-12 0 0)
(1.75040615e-12 0 0)
(8.15052462e-13 0 0)
(1.33139884e-12 0 0)
(2.12766347e-12 0 0)
(1.60887849e-12 0 0)
(1.84210247e-12 0 0)
(7.35881884e-13 0 0)
(1.98801404e-12 0 0)
(1.90247842e-12 0 0)
(1.88519581e-12 0 0)
(2.05963743e-12 0 0)
(2.1096423e-12 0 0)
(2.55750073e-12 0 0)
(2.81214856e-12 0 0)
(2.48726606e-12 0 0)
(1.74757623e-12 0 0)
(2.78421253e-12 0 0)
(2.24778684e-12 0 0)
(1.85892245e-12 0 0)
(1.64798341e-12 0 0)
(1.93201699e-12 0 0)
(1.02518245e-12 0 0)
(1.58575423e-12 0 0)
(2.24421231e-12 0 0)
(2.73133841e-12 0 0)
(3.10307408e-12 0 0)
(2.94052285e-12 0 0)
(2.15954665e-12 0 0)
(3.09874383e-12 0 0)
(2.89555837e-12 0 0)
(2.65584387e-12 0 0)
(2.50487039e-12 0 0)
(2.75545465e-12 0 0)
(2.08595354e-12 0 0)
(2.52530887e-12 0 0)
(1.65077758e-12 0 0)
(2.32816089e-12 0 0)
(2.57583957e-12 0 0)
(2.31005866e-12 0 0)
(2.35023465e-12 0 0)
(3.29791127e-12 0 0)
(3.2022488e-12 0 0)
(3.22475098e-12 0 0)
(3.53000658e-12 0 0)
(2.74968268e-12 0 0)
(3.74553477e-12 0 0)
(3.67431853e-12 0 0)
(3.08576062e-12 0 0)
(3.38519992e-12 0 0)
(3.62841521e-12 0 0)
(3.89611403e-12 0 0)
(4.38609901e-12 0 0)
(3.47877606e-12 0 0)
(3.40013889e-12 0 0)
(3.66684856e-12 0 0)
(3.83449049e-12 0 0)
(4.46211749e-12 0 0)
(3.73965478e-12 0 0)
(4.38171502e-12 0 0)
(3.79992968e-12 0 0)
(4.63334157e-12 0 0)
(4.93858932e-12 0 0)
(4.8698172e-12 0 0)
(5.13730696e-12 0 0)
(4.76675289e-12 0 0)
(4.94952685e-12 0 0)
(4.90120136e-12 0 0)
(5.42915004e-12 0 0)
(6.410651e-12 0 0)
(5.01934541e-12 0 0)
(6.32784973e-12 0 0)
(4.90020753e-12 0 0)
(6.13586578e-12 0 0)
(5.86257036e-12 0 0)
(6.21973781e-12 0 0)
(6.25411435e-12 0 0)
(6.15320865e-12 0 0)
(5.96533333e-12 0 0)
(4.76222542e-12 0 0)
(5.95348471e-12 0 0)
(6.15862314e-12 0 0)
(6.21225152e-12 0 0)
(5.25333176e-12 0 0)
(5.887515e-12 0 0)
(5.17059697e-12 0 0)
(5.44830214e-12 0 0)
(5.0493521e-12 0 0)
(5.9953563e-12 0 0)
(5.13871543e-12 0 0)
(6.01469054e-12 0 0)
(4.6783177e-12 0 0)
(5.61949636e-12 0 0)
(5.96052839e-12 0 0)
(5.9570976e-12 0 0)
(6.83530669e-12 0 0)
(6.73443567e-12 0 0)
(6.69774283e-12 0 0)
(5.92993329e-12 0 0)
(6.88152396e-12 0 0)
(6.99821842e-12 0 0)
(6.50662899e-12 0 0)
(5.85674316e-12 0 0)
(6.34488111e-12 0 0)
(6.3710395e-12 0 0)
(6.20370385e-12 0 0)
(6.25245012e-12 0 0)
(5.77841772e-12 0 0)
(5.32494222e-12 0 0)
(5.59406736e-12 0 0)
(5.91708659e-12 0 0)
(5.20746998e-12 0 0)
(6.54214357e-12 0 0)
(5.57137267e-12 0 0)
(5.25202242e-12 0 0)
(6.20960398e-12 0 0)
(5.8810135e-12 0 0)
(5.31307428e-12 0 0)
(5.93811502e-12 0 0)
(5.05402599e-12 0 0)
(5.51856088e-12 0 0)
(5.23225012e-12 0 0)
(5.05351668e-12 0 0)
(4.50937625e-12 0 0)
(5.3636625e-12 0 0)
(4.63759804e-12 0 0)
(5.86125761e-12 0 0)
(5.12076829e-12 0 0)
(5.61824163e-12 0 0)
(5.83690193e-12 0 0)
(6.15991822e-12 0 0)
(5.72403963e-12 0 0)
(5.58604607e-12 0 0)
(6.52119522e-12 0 0)
(5.14432997e-12 0 0)
(5.85039315e-12 0 0)
(5.67910579e-12 0 0)
(5.725412e-12 0 0)
(5.27810172e-12 0 0)
(5.95131816e-12 0 0)
(6.43486498e-12 0 0)
(5.62811541e-12 0 0)
(6.27272381e-12 0 0)
(5.46780678e-12 0 0)
(5.5560662e-12 0 0)
(6.07711826e-12 0 0)
(5.39364699e-12 0 0)
(5.85229073e-12 0 0)
(5.71071096e-12 0 0)
(6.02753381e-12 0 0)
(5.54254287e-12 0 0)
(5.69464774e-12 0 0)
(4.13398482e-12 0 0)
(4.68566134e-12 0 0)
(5.39120351e-12 0 0)
(6.07737958e-12 0 0)
(5.58861269e-12 0 0)
(5.91180106e-12 0 0)
(5.017963e-12 0 0)
(5.00744913e-12 0 0)
(5.67724505e-12 0 0)
(5.5627942e-12 0 0)
(5.57467791e-12 0 0)
(5.09400512e-12 0 0)
(6.15898943e-12 0 0)
(4.89596124e-12 0 0)
(4.51952349e-12 0 0)
(5.94709166e-12 0 0)
(4.37605573e-12 0 0)
(5.09003824e-12 0 0)
(4.38760754e-12 0 0)
(5.02164042e-12 0 0)
(4.43099825e-12 0 0)
(4.16561541e-12 0 0)
(4.64787191e-12 0 0)
(4.07272292e-12 0 0)
(4.33402541e-12 0 0)
(4.22751286e-12 0 0)
(5.31219908e-12 0 0)
(4.3931208e-12 0 0)
(5.7200415e-12 0 0)
(4.83792687e-12 0 0)
(5.27087031e-12 0 0)
(5.58695752e-12 0 0)
(5.14719574e-12 0 0)
(5.48717884e-12 0 0)
(5.02466951e-12 0 0)
(4.92128102e-12 0 0)
(5.41485807e-12 0 0)
(5.15969044e-12 0 0)
(5.23394168e-12 0 0)
(5.38280452e-12 0 0)
(4.92235781e-12 0 0)
(4.51467484e-12 0 0)
(5.64821306e-12 0 0)
(5.09073385e-12 0 0)
(5.30493713e-12 0 0)
(5.61923793e-12 0 0)
(6.18953087e-12 0 0)
(5.4531959e-12 0 0)
(6.84507471e-12 0 0)
(5.75554131e-12 0 0)
(5.26863482e-12 0 0)
(5.95307006e-12 0 0)
(4.87764235e-12 0 0)
(5.99146559e-12 0 0)
(5.37607334e-12 0 0)
(5.30859454e-12 0 0)
(4.95857047e-12 0 0)
(5.51905138e-12 0 0)
(5.40045368e-12 0 0)
(5.77400062e-12 0 0)
(5.96842829e-12 0 0)
(5.72923306e-12 0 0)
(5.29769085e-12 0 0)
(5.1408439e-12 0 0)
(5.79279297e-12 0 0)
(6.32520904e-12 0 0)
(5.91363695e-12 0 0)
(5.58268774e-12 0 0)
(5.18110933e-12 0 0)
(5.80973672e-12 0 0)
(5.3365268e-12 0 0)
(5.65040122e-12 0 0)
(5.38335223e-12 0 0)
(5.28913971e-12 0 0)
(4.65454993e-12 0 0)
(4.31102199e-12 0 0)
(4.9287528e-12 0 0)
(4.98794821e-12 0 0)
(5.44817878e-12 0 0)
(4.37647247e-12 0 0)
(4.73495811e-12 0 0)
(6.35699547e-12 0 0)
(5.05321204e-12 0 0)
(5.70633079e-12 0 0)
(4.73310454e-12 0 0)
(5.18047334e-12 0 0)
(4.98678682e-12 0 0)
(5.50278344e-12 0 0)
(4.49906932e-12 0 0)
(5.11754482e-12 0 0)
(4.40190165e-12 0 0)
(4.34554776e-12 0 0)
(4.45497275e-12 0 0)
(4.67142871e-12 0 0)
(5.19924187e-12 0 0)
(5.5795444e-12 0 0)
(6.14465015e-12 0 0)
(5.14642992e-12 0 0)
(5.47323046e-12 0 0)
(5.44247996e-12 0 0)
(5.38549284e-12 0 0)
(4.77424255e-12 0 0)
(6.46656492e-12 0 0)
(6.65086565e-12 0 0)
(5.49508697e-12 0 0)
(5.07671376e-12 0 0)
(6.07049518e-12 0 0)
(5.3660317e-12 0 0)
(6.32554702e-12 0 0)
(5.11223457e-12 0 0)
(5.58673698e-12 0 0)
(5.56324125e-12 0 0)
(7.44775349e-12 0 0)
(6.04621681e-12 0 0)
(6.98078894e-12 0 0)
(5.74875313e-12 0 0)
(6.07203284e-12 0 0)
(6.29720694e-12 0 0)
(6.69741764e-12 0 0)
(5.7618198e-12 0 0)
(7.19503181e-12 0 0)
(6.7172365e-12 0 0)
(6.81279913e-12 0 0)
(4.90945609e-12 0 0)
(6.83421024e-12 0 0)
(6.9309322e-12 0 0)
(6.39243426e-12 0 0)
(6.36502126e-12 0 0)
(6.42110743e-12 0 0)
(6.7484207e-12 0 0)
(5.88517726e-12 0 0)
(5.84744796e-12 0 0)
(7.94345845e-12 0 0)
(6.26915011e-12 0 0)
(6.84699487e-12 0 0)
(6.42992418e-12 0 0)
(6.35409629e-12 0 0)
(7.97681582e-12 0 0)
(6.72560631e-12 0 0)
(8.25167109e-12 0 0)
(6.83743325e-12 0 0)
(8.52426515e-12 0 0)
(7.51454751e-12 0 0)
(8.19853426e-12 0 0)
(6.44114512e-12 0 0)
(6.93664229e-12 0 0)
(7.85330042e-12 0 0)
(6.82089648e-12 0 0)
(6.84888303e-12 0 0)
(7.14986674e-12 0 0)
(6.40851992e-12 0 0)
(7.3591021e-12 0 0)
(6.10212361e-12 0 0)
(6.46660371e-12 0 0)
(6.55716969e-12 0 0)
(6.59315665e-12 0 0)
(6.21428597e-12 0 0)
(6.19023755e-12 0 0)
(6.77524452e-12 0 0)
(6.68787607e-12 0 0)
(7.20471934e-12 0 0)
(6.60896167e-12 0 0)
(6.8838744e-12 0 0)
(7.56451454e-12 0 0)
(6.46217435e-12 0 0)
(6.8945748e-12 0 0)
(6.36884e-12 0 0)
(7.02331963e-12 0 0)
(7.31001187e-12 0 0)
(6.80733208e-12 0 0)
(7.96156227e-12 0 0)
(7.03040897e-12 0 0)
(7.373743e-12 0 0)
(6.85459155e-12 0 0)
(6.67386223e-12 0 0)
(7.56657285e-12 0 0)
(7.365891e-12 0 0)
(7.03695396e-12 0 0)
(6.37121607e-12 0 0)
(7.04605788e-12 0 0)
(7.61364328e-12 0 0)
(6.35657742e-12 0 0)
(6.39646899e-12 0 0)
(7.70341971e-12 0 0)
(6.28760297e-12 0 0)
(6.90786783e-12 0 0)
(7.42567958e-12 0 0)
(6.98356435e-12 0 0)
(6.93685289e-12 0 0)
(5.35524641e-12 0 0)
(7.34916842e-12 0 0)
(6.47743232e-12 0 0)
(6.69761108e-12 0 0)
(6.54132654e-12 0 0)
(6.14887846e-12 0 0)
(7.12558389e-12 0 0)
(7.51548647e-12 0 0)
(7.22083909e-12 0 0)
(7.98476804e-12 0 0)
(7.37613125e-12 0 0)
(7.31787185e-12 0 0)
(7.64535978e-12 0 0)
(7.41272061e-12 0 0)
(8.5310112e-12 0 0)
(7.28521925e-12 0 0)
(8.59407304e-12 0 0)
(8.28208909e-12 0 0)
(9.24409906e-12 0 0)
(8.69051971e-12 0 0)
(8.23599686e-12 0 0)
(9.04776841e-12 0 0)
(9.34791202e-12 0 0)
(8.99095426e-12 0 0)
(8.94056538e-12 0 0)
(7.99860038e-12 0 0)
(9.56025079e-12 0 0)
(8.72048524e-12 0 0)
(9.64546874e-12 0 0)
(8.09853479e-12 0 0)
(8.89770963e-12 0 0)
(8.51771511e-12 0 0)
(9.06660253e-12 0 0)
(8.25438694e-12 0 0)
(9.11415681e-12 0 0)
(9.71362214e-12 0 0)
(8.50395559e-12 0 0)
(9.03298959e-12 0 0)
(9.72438426e-12 0 0)
(8.0512905e-12 0 0)
(9.36371077e-12 0 0)
(9.4252718e-12 0 0)
(1.06149991e-11 0 0)
(9.46043237e-12 0 0)
(9.00367779e-12 0 0)
(8.44736485e-12 0 0)
(9.50467756e-12 0 0)
(1.01843037e-11 0 0)
(9.58506943e-12 0 0)
(9.62650592e-12 0 0)
(9.65706762e-12 0 0)
(8.78449641e-12 0 0)
(9.90900848e-12 0 0)
(1.05744406e-11 0 0)
(1.0343081e-11 0 0)
(9.90675238e-12 0 0)
(1.01682911e-11 0 0)
(9.47935058e-12 0 0)
(1.12507026e-11 0 0)
(9.57972808e-12 0 0)
(9.79250389e-12 0 0)
(1.01577892e-11 0 0)
(9.22431226e-12 0 0)
(8.70999133e-12 0 0)
(8.85320014e-12 0 0)
(9.48835929e-12 0 0)
(8.66968784e-12 0 0)
(8.89606232e-12 0 0)
(8.37225321e-12 0 0)
(9.87068923e-12 0 0)
(9.30254035e-12 0 0)
(8.95479373e-12 0 0)
(7.75265594e-12 0 0)
(8.72622869e-12 0 0)
(9.29534227e-12 0 0)
(8.51034728e-12 0 0)
(8.07110292e-12 0 0)
(8.63969615e-12 0 0)
(8.79478512e-12 0 0)
(7.6796966e-12 0 0)
(7.16210667e-12 0 0)
(8.25010676e-12 0 0)
(7.17093314e-12 0 0)
(8.5425014e-12 0 0)
(7.50255784e-12 0 0)
(8.91368584e-12 0 0)
(6.90379398e-12 0 0)
(7.11216245e-12 0 0)
(7.64875361e-12 0 0)
(8.05052495e-12 0 0)
(8.10097362e-12 0 0)
(7.23432259e-12 0 0)
(7.61210094e-12 0 0)
(7.25389905e-12 0 0)
(7.06887611e-12 0 0)
(7.21988314e-12 0 0)
(7.32765021e-12 0 0)
(5.74241775e-12 0 0)
(6.57738879e-12 0 0)
(5.57548304e-12 0 0)
(6.22324603e-12 0 0)
(5.36359291e-12 0 0)
(6.18405857e-12 0 0)
(5.482556e-12 0 0)
(5.96184803e-12 0 0)
(4.94397183e-12 0 0)
(5.67100591e-12 0 0)
(5.6183061e-12 0 0)
(5.00395292e-12 0 0)
(5.11670857e-12 0 0)
(4.92070824e-12 0 0)
(4.71264044e-12 0 0)
(4.96283066e-12 0 0)
(4.33263072e-12 0 0)
(3.83931088e-12 0 0)
(4.1980716e-12 0 0)
(3.06719606e-12 0 0)
(3.54415381e-12 0 0)
(2.71395387e-12 0 0)
(2.99771717e-12 0 0)
(3.36681882e-12 0 0)
(2.55314487e-12 0 0)
(2.94357747e-12 0 0)
(1.60038056e-12 0 0)
(1.89746818e-12 0 0)
(1.88571353e-12 0 0)
(1.57975308e-12 0 0)
(9.09075964e-13 0 0)
(1.24061615e-12 0 0)
(9.06873045e-13 0 0)
(9.65884789e-13 0 0)
(1.0747892e-12 0 0)
(7.19306986e-13 0 0)
(2.13518986e-12 0 0)
(1.3100499e-12 0 0)
(1.04650287e-12 0 0)
(2.22944611e-12 0 0)
(1.26162919e-12 0 0)
(2.39979207e-12 0 0)
(2.1650619e-12 0 0)
(2.11034636e-12 0 0)
(1.72453599e-12 0 0)
(2.78397436e-12 0 0)
(2.69398534e-12 0 0)
(2.70285676e-12 0 0)
(1.49427884e-12 0 0)
(2.5766824e-12 0 0)
(2.11161442e-12 0 0)
(2.44780323e-12 0 0)
(3.12682385e-12 0 0)
(1.67788126e-12 0 0)
(1.86317149e-12 0 0)
(1.54840798e-12 0 0)
(1.49746874e-12 0 0)
(6.58208372e-13 0 0)
(6.49951589e-13 0 0)
(1.71142791e-12 0 0)
(1.59591683e-12 0 0)
(1.79677714e-12 0 0)
(1.41085364e-12 0 0)
(1.28290683e-12 0 0)
(8.80187881e-13 0 0)
(1.3515028e-12 0 0)
(5.76821474e-13 0 0)
(1.68235687e-12 0 0)
(9.12015429e-13 0 0)
(5.29661177e-13 0 0)
(1.54699671e-13 0 0)
(2.3590409e-13 0 0)
(1.21988085e-12 0 0)
(4.93973716e-13 0 0)
(6.47134153e-13 0 0)
(-2.26628316e-13 0 0)
(3.62294481e-13 0 0)
(2.48795644e-13 0 0)
(7.31446305e-13 0 0)
(7.27593583e-13 0 0)
(3.48085187e-14 0 0)
(-7.82208306e-13 0 0)
(-4.00657889e-14 0 0)
(-9.11934849e-13 0 0)
(-9.37382351e-13 0 0)
(-8.89136073e-13 0 0)
(-3.71820893e-13 0 0)
(-8.84019758e-13 0 0)
(-1.18758906e-12 0 0)
(-7.23771618e-13 0 0)
(-1.72654411e-12 0 0)
(-1.21163052e-12 0 0)
(-1.75264833e-12 0 0)
(-1.35511278e-12 0 0)
(-1.32363657e-12 0 0)
(-1.07308312e-12 0 0)
(-1.47556724e-12 0 0)
(-8.804275e-13 0 0)
(-9.46580762e-13 0 0)
(-1.35283271e-12 0 0)
(-1.44735455e-12 0 0)
(-1.90990632e-12 0 0)
(-2.03729065e-12 0 0)
(-2.64602056e-12 0 0)
(-2.41522864e-12 0 0)
(-2.06857796e-12 0 0)
(-1.60532131e-12 0 0)
(-1.97996677e-12 0 0)
(-2.30244588e-12 0 0)
(-1.5480302e-12 0 0)
(-2.71919268e-12 0 0)
(-2.64238862e-12 0 0)
(-3.56232548e-12 0 0)
(-3.16288348e-12 0 0)
(-4.2244956e-12 0 0)
(-3.54241922e-12 0 0)
(-3.90579618e-12 0 0)
(-3.5464554e-12 0 0)
(-3.53352384e-12 0 0)
(-3.49109825e-12 0 0)
(-5.21831902e-12 0 0)
(-4.31472594e-12 0 0)
(-4.51713939e-12 0 0)
(-4.82764559e-12 0 0)
(-4.97392703e-12 0 0)
(-4.94544363e-12 0 0)
(-3.64183929e-12 0 0)
(-4.62255173e-12 0 0)
(-4.65515497e-12 0 0)
(-4.7377304e-12 0 0)
(-4.25427485e-12 0 0)
(-4.38859573e-12 0 0)
(-4.52605554e-12 0 0)
(-3.83357512e-12 0 0)
(-3.14574289e-12 0 0)
(-4.25237126e-12 0 0)
(-4.08209055e-12 0 0)
(-2.91402529e-12 0 0)
(-2.70762054e-12 0 0)
(-2.4844609e-12 0 0)
(-2.48184342e-12 0 0)
(-1.83455312e-12 0 0)
(-2.24431165e-12 0 0)
(-2.33485576e-12 0 0)
(-1.95517896e-12 0 0)
(-2.46146476e-12 0 0)
(-2.42033766e-12 0 0)
(-2.7954848e-12 0 0)
(-2.9482488e-12 0 0)
(-2.67531646e-12 0 0)
(-2.832054e-12 0 0)
(-3.45544897e-12 0 0)
(-3.62219544e-12 0 0)
(-3.22011803e-12 0 0)
(-2.97653837e-12 0 0)
(-3.19174234e-12 0 0)
(-3.45990957e-12 0 0)
(-2.95004277e-12 0 0)
(-3.80502993e-12 0 0)
(-2.94120649e-12 0 0)
(-3.59228659e-12 0 0)
(-4.36182734e-12 0 0)
(-4.03806964e-12 0 0)
(-3.88368178e-12 0 0)
(-4.19793621e-12 0 0)
(-4.74560836e-12 0 0)
(-4.686611e-12 0 0)
(-4.37267666e-12 0 0)
(-4.53947356e-12 0 0)
(-4.52859689e-12 0 0)
(-4.62163312e-12 0 0)
(-4.53638852e-12 0 0)
(-5.11506094e-12 0 0)
(-4.93984308e-12 0 0)
(-6.75233761e-12 0 0)
(-5.63719097e-12 0 0)
(-5.79743348e-12 0 0)
(-6.06206823e-12 0 0)
(-5.45315594e-12 0 0)
(-5.96685519e-12 0 0)
(-4.83524132e-12 0 0)
(-6.02347146e-12 0 0)
(-5.68473131e-12 0 0)
(-3.28006434e-12 0 0)
(-5.48135594e-12 0 0)
(-5.81844685e-12 0 0)
(-4.52452252e-12 0 0)
(-4.89496984e-12 0 0)
(-6.1862617e-12 0 0)
(-4.7536791e-12 0 0)
(-5.65266945e-12 0 0)
(-5.06793712e-12 0 0)
(-6.19581899e-12 0 0)
(-5.2151391e-12 0 0)
(-6.23869723e-12 0 0)
(-6.04943755e-12 0 0)
(-5.21447014e-12 0 0)
(-5.46938308e-12 0 0)
(-5.90659955e-12 0 0)
(-6.00920078e-12 0 0)
(-6.32179721e-12 0 0)
(-5.92002251e-12 0 0)
(-6.97997547e-12 0 0)
(-6.7007582e-12 0 0)
(-5.57833351e-12 0 0)
(-6.41946042e-12 0 0)
(-7.06101562e-12 0 0)
(-5.67811944e-12 0 0)
(-6.14972802e-12 0 0)
(-6.34436209e-12 0 0)
(-5.8881123e-12 0 0)
(-6.04349877e-12 0 0)
(-6.54212981e-12 0 0)
(-6.44358581e-12 0 0)
(-6.25373071e-12 0 0)
(-6.04690306e-12 0 0)
(-6.4693241e-12 0 0)
(-5.95630345e-12 0 0)
(-5.54592472e-12 0 0)
(-5.81577682e-12 0 0)
(-6.34068019e-12 0 0)
(-5.94125387e-12 0 0)
(-6.21575561e-12 0 0)
(-6.77901468e-12 0 0)
(-6.25750202e-12 0 0)
(-6.51328938e-12 0 0)
(-5.64155612e-12 0 0)
(-5.69417717e-12 0 0)
(-5.54081363e-12 0 0)
(-5.13102292e-12 0 0)
(-5.84595164e-12 0 0)
(-5.43155126e-12 0 0)
(-5.45954412e-12 0 0)
(-5.7296965e-12 0 0)
(-5.92751898e-12 0 0)
(-5.08245985e-12 0 0)
(-5.91518771e-12 0 0)
(-6.02617701e-12 0 0)
(-5.62561381e-12 0 0)
(-5.28871456e-12 0 0)
(-5.77502048e-12 0 0)
(-5.35810109e-12 0 0)
(-5.77502963e-12 0 0)
(-5.67318175e-12 0 0)
(-5.23028417e-12 0 0)
(-5.25608731e-12 0 0)
(-6.26425479e-12 0 0)
(-5.50611564e-12 0 0)
(-5.47014746e-12 0 0)
(-5.53240177e-12 0 0)
(-5.49082863e-12 0 0)
(-6.21467859e-12 0 0)
(-6.00680114e-12 0 0)
(-5.7576389e-12 0 0)
(-7.21748379e-12 0 0)
(-6.59468135e-12 0 0)
(-6.77317876e-12 0 0)
(-7.11520747e-12 0 0)
(-7.16765518e-12 0 0)
(-7.74976038e-12 0 0)
(-6.87171243e-12 0 0)
(-6.7141117e-12 0 0)
(-6.67066504e-12 0 0)
(-5.89595586e-12 0 0)
(-6.57412056e-12 0 0)
(-7.12004424e-12 0 0)
(-6.58230327e-12 0 0)
(-6.84924462e-12 0 0)
(-6.4846406e-12 0 0)
(-7.60931991e-12 0 0)
(-7.33634424e-12 0 0)
(-7.00880817e-12 0 0)
(-8.15305335e-12 0 0)
(-7.78660575e-12 0 0)
(-8.1952991e-12 0 0)
(-9.32079067e-12 0 0)
(-8.95626122e-12 0 0)
(-8.39479535e-12 0 0)
(-8.12802295e-12 0 0)
(-8.09371673e-12 0 0)
(-9.2173106e-12 0 0)
(-7.83350663e-12 0 0)
(-8.09507636e-12 0 0)
(-8.581501e-12 0 0)
(-8.01756337e-12 0 0)
(-8.59785555e-12 0 0)
(-9.55011817e-12 0 0)
(-9.76231769e-12 0 0)
(-8.71264754e-12 0 0)
(-9.41143922e-12 0 0)
(-8.91094867e-12 0 0)
(-1.00514701e-11 0 0)
(-8.37278304e-12 0 0)
(-9.47061935e-12 0 0)
(-9.45987466e-12 0 0)
(-9.27152496e-12 0 0)
(-9.48542693e-12 0 0)
(-9.82016432e-12 0 0)
(-9.14775427e-12 0 0)
(-8.88263181e-12 0 0)
(-9.30573685e-12 0 0)
(-8.93102018e-12 0 0)
(-8.66327111e-12 0 0)
(-7.83408067e-12 0 0)
(-9.41449253e-12 0 0)
(-9.40662089e-12 0 0)
(-8.99435216e-12 0 0)
(-8.71110086e-12 0 0)
(-8.78753625e-12 0 0)
(-8.22370915e-12 0 0)
(-8.43217639e-12 0 0)
(-8.51644308e-12 0 0)
(-8.38115199e-12 0 0)
(-8.75968774e-12 0 0)
(-9.13173117e-12 0 0)
(-8.70695095e-12 0 0)
(-9.02867748e-12 0 0)
(-7.43190903e-12 0 0)
(-7.55154103e-12 0 0)
(-8.74716909e-12 0 0)
(-7.66309633e-12 0 0)
(-8.27640474e-12 0 0)
(-8.0675337e-12 0 0)
(-8.70825432e-12 0 0)
(-7.50926293e-12 0 0)
(-7.36779672e-12 0 0)
(-7.7929546e-12 0 0)
(-6.79233441e-12 0 0)
(-6.26130968e-12 0 0)
(-6.62922448e-12 0 0)
(-6.89092082e-12 0 0)
(-7.11514661e-12 0 0)
(-8.29060871e-12 0 0)
(-6.64934141e-12 0 0)
(-6.50564033e-12 0 0)
(-6.10857913e-12 0 0)
(-6.15578128e-12 0 0)
(-6.11236645e-12 0 0)
(-6.33428647e-12 0 0)
(-5.50546476e-12 0 0)
(-5.66398679e-12 0 0)
(-6.44258086e-12 0 0)
(-5.34759967e-12 0 0)
(-5.29496193e-12 0 0)
(-6.62457717e-12 0 0)